Title
29212
    1ASP      N    1   3.972   2.272   4.855 -1.1433 -0.1680  0.3666
    1ASP    HT1    2   4.013   2.181   4.825  0.8041  0.9228 -0.5189
    1ASP    HT2    3   3.927   2.254   4.946  0.1859 -1.5888  0.7785
    1ASP    HT3    4   4.041   2.348   4.870 -2.1142  0.9198 -0.4607
    1ASP     CA    5   3.863   2.305   4.755  0.5201  0.2459 -0.0357
    1ASP     HA    6   3.808   2.215   4.733 -1.3550  1.4025 -0.3129
    1ASP     CB    7   3.773   2.418   4.820 -0.0747  0.3023  0.2702
    1ASP    HB1    8   3.687   2.436   4.753 -0.8343  0.9622  1.3971
    1ASP    HB2    9   3.840   2.506   4.828 -1.0837  1.1985 -0.9132
    1ASP     CG   10   3.727   2.371   4.956  0.4817  0.0051 -0.0689
    1ASP    OD1   11   3.726   2.251   4.971 -0.1989  0.3101 -0.6896
    1ASP    OD2   12   3.678   2.453   5.037 -0.1321  1.0804 -0.6474
    1ASP      C   13   3.926   2.337   4.621  0.0250 -0.3685 -0.1214
    1ASP      O   14   4.028   2.280   4.585 -0.5567  0.5753  0.2346
    2GLY      N   15   3.857   2.425   4.541  0.0366  0.0629  0.7453
    2GLY     HN   16   3.762   2.437   4.571 -0.6221 -4.7550  1.4185
    2GLY     CA   17   3.885   2.471   4.405  0.2309  1.0128 -0.4950
    2GLY    HA1   18   3.822   2.556   4.381 -0.6068  0.3473 -0.7368
    2GLY    HA2   19   3.857   2.390   4.339 -0.5429 -1.2809  2.4292
    2GLY      C   20   4.023   2.534   4.382 -0.5962  0.0622 -0.3841
    2GLY      O   21   4.074   2.601   4.474 -0.6593 -0.3005  0.6316
    3ASP      N   22   4.078   2.507   4.262  0.1587 -0.1502  0.6406
    3ASP     HN   23   4.023   2.449   4.202 -0.5329  1.9416 -0.8509
    3ASP     CA   24   4.210   2.553   4.220  0.0509  0.0941 -0.2369
    3ASP     HA   25   4.265   2.576   4.310 -0.3751 -1.2719  0.4085
    3ASP     CB   26   4.293   2.435   4.168 -0.2628 -0.6067  0.1125
    3ASP    HB1   27   4.390   2.471   4.129  0.0075 -1.9121 -0.4754
    3ASP    HB2   28   4.236   2.382   4.089 -0.3535  0.6846 -0.7139
    3ASP     CG   29   4.321   2.327   4.277 -0.5424 -0.0473 -1.0933
    3ASP    OD1   30   4.358   2.360   4.397 -0.6736  0.4902 -0.0311
    3ASP    OD2   31   4.305   2.206   4.247  0.1196 -0.3156 -0.1136
    3ASP      C   32   4.223   2.676   4.136  0.2009 -0.0264  0.3424
    3ASP      O   33   4.137   2.692   4.045 -0.2789  0.3879 -0.1177
    4GLY      N   34   4.315   2.771   4.165 -0.1525 -0.2493 -0.3512
    4GLY     HN   35   4.382   2.758   4.237  0.7015  0.1212 -1.0605
    4GLY     CA   36   4.321   2.898   4.101 -0.6045 -0.0031 -0.3761
    4GLY    HA1   37   4.332   2.867   3.998  3.3651 -2.0619  0.4706
    4GLY    HA2   38   4.400   2.946   4.157 -0.6332  0.3572 -0.6416
    4GLY      C   39   4.195   2.981   4.118 -0.3531  0.1857 -0.1716
    4GLY      O   40   4.105   2.940   4.188  0.4748 -0.2920 -0.3864
    5PRO      N   41   4.189   3.101   4.055  0.3348 -0.0010  0.4558
    5PRO     CD   42   4.299   3.147   3.970  0.2225 -0.5443 -0.3266
    5PRO    HD1   43   4.320   3.085   3.880  0.7077  1.6833 -1.8235
    5PRO    HD2   44   4.386   3.151   4.039 -0.8059 -1.1104  1.0574
    5PRO     CA   45   4.068   3.185   4.036 -0.2284 -0.2272  0.0292
    5PRO     HA   46   4.060   3.244   4.125  1.2913  1.2137 -0.7257
    5PRO     CB   47   4.096   3.271   3.916 -0.2789 -0.0698  0.3629
    5PRO    HB1   48   4.048   3.372   3.923 -0.2051 -0.1015  1.4362
    5PRO    HB2   49   4.065   3.212   3.827 -0.2562 -2.0162  1.5881
    5PRO     CG   50   4.250   3.282   3.913 -0.0726  0.3050 -0.0337
    5PRO    HG1   51   4.291   3.288   3.810 -0.3215 -0.1761 -0.1640
    5PRO    HG2   52   4.279   3.368   3.978  1.4641  0.0805 -0.3729
    5PRO      C   53   3.934   3.112   4.020 -0.8132  0.7746 -0.1212
    5PRO      O   54   3.916   3.026   3.935  0.3400 -0.4586  0.2704
    6GLY      N   55   3.838   3.140   4.105 -0.3658 -0.5374 -0.0262
    6GLY     HN   56   3.857   3.207   4.176 -1.6893 -1.3082  1.1124
    6GLY     CA   57   3.703   3.090   4.115  0.0769  0.5085  0.2193
    6GLY    HA1   58   3.670   3.101   4.217 -1.1536 -0.5872 -0.0344
    6GLY    HA2   59   3.707   2.987   4.081  1.5537  0.8371 -0.6886
    6GLY      C   60   3.614   3.171   4.025  0.3973 -0.1606 -0.3372
    6GLY      O   61   3.665   3.231   3.926  0.0828 -0.2184  0.6890
    7ASP      N   62   3.484   3.166   4.056 -0.6549 -0.2706 -0.1867
    7ASP     HN   63   3.447   3.117   4.135  0.4714 -1.8929 -0.6093
    7ASP     CA   64   3.370   3.224   3.985  0.3314  0.1890 -0.1918
    7ASP     HA   65   3.374   3.176   3.888  0.9253 -0.8935  0.3547
    7ASP     CB   66   3.233   3.192   4.062 -0.1971 -0.2342  0.3579
    7ASP    HB1   67   3.151   3.233   3.998  0.5968 -0.0353 -0.5544
    7ASP    HB2   68   3.240   3.241   4.161 -0.2567 -0.3799  0.4337
    7ASP     CG   69   3.202   3.041   4.074 -0.4445 -0.5049 -0.5530
    7ASP    OD1   70   3.234   2.961   3.976 -0.0950  0.0217 -0.2567
    7ASP    OD2   71   3.119   3.012   4.165  0.0302 -0.2033 -0.3573
    7ASP      C   72   3.388   3.374   3.965  0.4232 -1.1955 -0.0723
    7ASP      O   73   3.451   3.438   4.049  0.1134 -0.7419  0.3742
    8PRO      N   74   3.326   3.437   3.869 -0.0474  0.0485 -0.1582
    8PRO     CD   75   3.280   3.366   3.748 -0.4675  1.2020 -0.2381
    8PRO    HD1   76   3.193   3.302   3.776 -0.7067 -0.4454 -4.1427
    8PRO    HD2   77   3.363   3.303   3.710  0.7110  2.2400  0.5380
    8PRO     CA   78   3.297   3.583   3.856  0.0238  0.7374  0.1535
    8PRO     HA   79   3.395   3.629   3.868 -0.3812  1.4073  1.0496
    8PRO     CB   80   3.221   3.595   3.728  0.3932 -0.4673 -0.0970
    8PRO    HB1   81   3.236   3.694   3.679 -0.4225 -0.4639 -0.3587
    8PRO    HB2   82   3.112   3.581   3.746 -0.3021  0.3003 -3.1894
    8PRO     CG   83   3.258   3.480   3.643 -0.3053 -0.7648 -0.4882
    8PRO    HG1   84   3.182   3.468   3.562  0.0030  0.6780 -1.0277
    8PRO    HG2   85   3.359   3.492   3.598 -0.0997 -0.8431 -0.0453
    8PRO      C   86   3.218   3.637   3.975 -0.3722 -0.3570 -0.7502
    8PRO      O   87   3.121   3.577   4.016 -0.1856  0.1023 -0.5633
    9GLY      N   88   3.259   3.755   4.022 -0.5401 -0.9157  0.3393
    9GLY     HN   89   3.333   3.801   3.973 -2.4888  0.0104 -1.9044
    9GLY     CA   90   3.199   3.824   4.140 -0.0099 -0.6380  0.2010
    9GLY    HA1   91   3.094   3.846   4.124 -0.3186 -0.9438  1.6850
    9GLY    HA2   92   3.263   3.909   4.157 -2.0010  0.9587  0.0939
    9GLY      C   93   3.198   3.755   4.271  0.3851  0.2106 -0.1533
    9GLY      O   94   3.234   3.640   4.293 -0.0989 -0.2445  0.4414
   10ASP      N   95   3.148   3.834   4.371  0.8476 -0.2730  0.2026
   10ASP     HN   96   3.113   3.926   4.356 -2.9088 -1.3610  1.2189
   10ASP     CA   97   3.155   3.793   4.505  0.2715  0.7009  0.3886
   10ASP     HA   98   3.254   3.758   4.529  0.5273 -0.0792 -1.5928
   10ASP     CB   99   3.125   3.895   4.621 -0.3028  0.6619  0.6154
   10ASP    HB1  100   3.145   3.835   4.713 -0.5989 -2.8456 -1.4280
   10ASP    HB2  101   3.018   3.924   4.611 -0.3725 -0.1458 -1.3342
   10ASP     CG  102   3.202   4.020   4.604 -0.5331 -0.4219  0.0136
   10ASP    OD1  103   3.279   4.042   4.511 -0.4704 -0.0294 -0.1533
   10ASP    OD2  104   3.172   4.106   4.696 -0.0262 -0.0747 -0.4294
   10ASP      C  105   3.057   3.673   4.532  0.0783 -0.7835  0.8478
   10ASP      O  106   2.950   3.658   4.467 -0.9656  0.2329  0.0030
   11GLY      N  107   3.098   3.572   4.613  0.6299  0.3062 -0.6212
   11GLY     HN  108   3.165   3.592   4.684 -0.2444 -1.0538  0.6528
   11GLY     CA  109   3.038   3.441   4.624  0.2808 -1.1174 -0.5028
   11GLY    HA1  110   3.116   3.367   4.637  1.0082 -0.0035  2.1013
   11GLY    HA2  111   2.974   3.420   4.539 -0.8527 -1.6512  0.4468
   11GLY      C  112   2.946   3.431   4.748 -0.2990 -0.3359 -1.1751
   11GLY    OT1  113   2.864   3.334   4.748 -0.1063  0.5732  0.1496
   11GLY    OT2  114   2.953   3.523   4.840  0.2986  0.2589  0.8248
   12SOD    SOD  115   1.298   4.000   2.263 -0.1752  0.4471  0.0317
   13SOD    SOD  116   3.572   5.899   0.332 -0.0891  0.1927 -0.3723
   14SOD    SOD  117   2.062   0.385   2.139 -0.4612 -0.2830 -0.1510
   15SOD    SOD  118   6.042   5.478   0.999  0.1624  0.6457  0.2328
   16SOD    SOD  119   0.243   2.398   5.454 -0.1858 -0.1265  0.2521
   17SOD    SOD  120   4.107   5.653   4.835 -0.4065  0.3971  0.2416
   18SOD    SOD  121   1.667   2.943   3.766 -0.6715  0.4835 -0.0854
   19SOD    SOD  122   3.192   6.632   2.038  0.1056 -0.4115  0.1807
   20SOD    SOD  123   3.407   4.191   4.626 -0.0104  0.2241 -0.6362
   21SOD    SOD  124   3.276   2.555   1.343  0.1801 -0.4019  0.4379
   22SOD    SOD  125   3.768   3.683   3.855  0.5969  0.4359  0.3192
   23SOD    SOD  126   2.421   4.229   4.531 -0.2834 -0.1586 -0.0130
   24SOD    SOD  127   4.048   0.899   1.512 -0.0348  0.0275  0.1075
   25SOD    SOD  128   0.623   5.524   4.681  0.6910 -0.1932  0.1540
   26SOD    SOD  129   5.925   3.392   4.169  0.0558 -0.1482 -0.1632
   27SOD    SOD  130   6.626   0.535   5.384 -0.3347 -0.6948  0.5314
   28SOD    SOD  131   3.244   3.036   4.807  0.1238  0.3507  0.1704
   29SOD    SOD  132   5.535   2.509   5.139  0.4724  0.0047  0.1529
   30SOD    SOD  133   6.118   2.440   4.209  0.4121 -0.0294  0.2081
   31SOD    SOD  134   3.736   0.889   4.166 -0.1062 -0.1044 -0.1754
   32SOD    SOD  135   2.640   2.105   5.427 -0.4435 -0.3860 -0.1895
   33SOD    SOD  136   2.788   6.653   4.453 -0.6366  0.2270 -0.2504
   34SOD    SOD  137   1.783   5.611   5.275 -0.1347 -0.4153  0.2752
   35SOD    SOD  138   4.828   2.715   5.420 -0.1921 -0.2185  0.1881
   36SOD    SOD  139   6.937   0.939   5.838 -0.3537 -0.1511  0.2794
   37SOD    SOD  140   4.327   1.970   0.151 -0.0984 -0.1290  0.3415
   38SOD    SOD  141   3.160   4.264   3.012  0.3277 -0.4135 -0.4090
   39SOD    SOD  142   5.795   1.825   0.414  0.1010 -0.1427  0.5165
   40SOD    SOD  143   2.639   5.438   2.571  0.1891 -0.2519  0.3705
   41SOD    SOD  144   4.908   5.559   4.960  0.1817 -0.1521 -0.2928
   42SOD    SOD  145   4.723   0.944   3.497 -0.5573  0.5075  0.2883
   43CLA    CLA  146   3.123   1.836   0.909 -0.0366  0.0130  0.3277
   44CLA    CLA  147   6.822   6.621   5.742 -0.2311 -0.3023  0.2008
   45CLA    CLA  148   6.150   3.650   1.612  0.3756  0.0895  0.0006
   46CLA    CLA  149   4.268   5.513   0.210  0.0961 -0.0368 -0.1048
   47CLA    CLA  150   4.396   5.481   3.946 -0.3004 -0.3463 -0.2890
   48CLA    CLA  151   6.292   5.480   1.080 -0.2925  0.0613 -0.0104
   49CLA    CLA  152   3.069   6.455   5.508  0.0878  0.0975  0.0576
   50CLA    CLA  153   0.850   4.387   1.234  0.0642  0.0196 -0.3276
   51CLA    CLA  154   3.809   6.383   1.428 -0.2257 -0.0798 -0.2460
   52CLA    CLA  155   4.351   4.328   5.874 -0.3336  0.5560  0.0013
   53CLA    CLA  156   2.600   5.548   2.811 -0.6880 -0.1188  0.4488
   54CLA    CLA  157   6.605   4.863   2.695  0.3211 -0.0159  0.2351
   55CLA    CLA  158   3.444   6.223   2.263 -0.0699  0.0035  0.1595
   56CLA    CLA  159   4.704   0.478   0.425  0.2353 -0.4140  0.1153
   57CLA    CLA  160   3.979   2.209   1.970  0.3899 -0.0023  0.1979
   58CLA    CLA  161   1.225   4.878   4.059  0.3080 -0.0734  0.0766
   59CLA    CLA  162   4.930   6.232   5.422 -0.1838  0.0920  0.1603
   60CLA    CLA  163   5.404   0.316   3.702 -0.1904 -0.0042  0.2014
   61CLA    CLA  164   2.559   1.333   2.118 -0.2381  0.0161  0.0488
   62CLA    CLA  165   5.036   3.051   3.879  0.2357  0.2290 -0.1644
   63CLA    CLA  166   3.884   0.428   2.408  0.0271 -0.0204 -0.4177
   64CLA    CLA  167   1.642   0.382   2.389 -0.1048  0.0745 -0.1838
   65CLA    CLA  168   5.041   4.535   1.983 -0.0324 -0.4445 -0.4059
   66CLA    CLA  169   0.181   3.636   5.098  0.3093  0.0198  0.0509
   67CLA    CLA  170   4.925   2.657   1.963 -0.1481  0.3318 -0.0934
   68CLA    CLA  171   2.124   5.745   4.885  0.1504  0.1046  0.2614
   69CLA    CLA  172   2.306   2.352   3.834 -0.3552 -0.3979 -0.0705
   70TIP3   OH2  173   7.148   6.463   2.603 -0.6437 -0.5250 -0.7405
   70TIP3    H1  174   7.200   6.463   2.683  0.0043  0.0323 -1.1500
   70TIP3    H2  175   7.184   6.393   2.549 -0.9869 -0.8075 -0.6065
   71TIP3   OH2  176   1.369   3.376   5.531  0.0565  0.5937 -0.1002
   71TIP3    H1  177   1.312   3.380   5.454  0.2196 -1.6749 -0.4246
   71TIP3    H2  178   1.337   3.300   5.580  1.9185  0.1170  0.4382
   72TIP3   OH2  179   1.804   5.033   0.974 -0.3075 -0.1466 -0.0416
   72TIP3    H1  180   1.792   4.970   0.904  0.3692 -0.8762  0.4827
   72TIP3    H2  181   1.717   5.040   1.015 -0.5889 -0.0713 -0.6431
   73TIP3   OH2  182   2.801   5.584   0.323 -0.3428 -0.6034 -0.7703
   73TIP3    H1  183   2.735   5.604   0.257  0.3787  1.6435 -0.8875
   73TIP3    H2  184   2.806   5.488   0.323 -1.0875 -0.7156 -3.2295
   74TIP3   OH2  185   4.506   4.634   1.981  0.6679  0.0797 -0.0190
   74TIP3    H1  186   4.410   4.628   1.972  0.8619 -1.3620 -1.5629
   74TIP3    H2  187   4.519   4.666   2.070 -1.2490 -0.5706  0.5566
   75TIP3   OH2  188   3.160   0.654   4.548  0.5292 -0.3949 -0.1723
   75TIP3    H1  189   3.224   0.634   4.480  0.3376  1.1778 -0.8342
   75TIP3    H2  190   3.076   0.625   4.512  0.5188 -0.1736 -0.3232
   76TIP3   OH2  191   4.158   5.359   4.347 -0.4257  0.3970  0.5286
   76TIP3    H1  192   4.144   5.326   4.258 -0.0230  2.0941 -0.2183
   76TIP3    H2  193   4.072   5.353   4.388 -1.2901  2.0059 -0.8864
   77TIP3   OH2  194   1.978   5.392   1.173  0.1664 -0.0426 -0.1001
   77TIP3    H1  195   1.903   5.400   1.115  0.9796 -0.1922 -1.2062
   77TIP3    H2  196   2.054   5.395   1.115  1.0638  1.0685  1.0706
   78TIP3   OH2  197   5.588   2.094   0.661 -0.2907  0.3405 -0.0406
   78TIP3    H1  198   5.660   2.151   0.688 -1.1339  1.5998 -0.4119
   78TIP3    H2  199   5.521   2.106   0.728 -1.1036  1.0250 -0.9522
   79TIP3   OH2  200   3.837   1.059   1.831 -0.0143  0.3474 -0.3857
   79TIP3    H1  201   3.856   1.134   1.774  0.9094  2.0741  2.0043
   79TIP3    H2  202   3.742   1.049   1.827  0.0591  0.0613 -2.5588
   80TIP3   OH2  203   5.865   4.160   3.231 -0.3267 -0.5226 -0.3515
   80TIP3    H1  204   5.946   4.146   3.182  1.1236  0.0005  1.7328
   80TIP3    H2  205   5.852   4.078   3.279  1.0893  0.5617  2.0989
   81TIP3   OH2  206   1.038   2.543   1.839 -0.5675 -0.2252 -0.1858
   81TIP3    H1  207   1.063   2.595   1.763 -1.5774 -0.9245 -1.0377
   81TIP3    H2  208   1.022   2.455   1.803 -1.6502 -0.4229  0.7272
   82TIP3   OH2  209   4.653   0.826   5.060 -0.0958  0.0059  0.4556
   82TIP3    H1  210   4.639   0.834   4.965 -0.8667  0.6836  0.6108
   82TIP3    H2  211   4.709   0.900   5.082 -0.1815  0.0329  0.5799
   83TIP3   OH2  212   0.310   4.692   3.588  0.1129  0.1901  0.3400
   83TIP3    H1  213   0.238   4.701   3.524  1.1178  1.4193 -0.6729
   83TIP3    H2  214   0.294   4.607   3.630 -1.9451  0.4391  0.1743
   84TIP3   OH2  215   0.114   4.606   5.700 -0.0159 -0.0605 -0.3683
   84TIP3    H1  216   0.166   4.563   5.632  0.0572 -0.4491 -0.0715
   84TIP3    H2  217   0.174   4.617   5.773 -0.5956 -1.5023  0.3848
   85TIP3   OH2  218   5.669   1.418   3.871 -0.1392  0.5441  0.3457
   85TIP3    H1  219   5.681   1.459   3.785  1.0903  1.3043  0.8390
   85TIP3    H2  220   5.601   1.470   3.914  0.1359  0.9580  0.2865
   86TIP3   OH2  221   0.785   3.072   0.720  0.6846  0.2087  0.2655
   86TIP3    H1  222   0.860   3.127   0.743  0.4500  0.5571  0.1984
   86TIP3    H2  223   0.806   3.036   0.634  1.2226 -0.4873  0.6797
   87TIP3   OH2  224   2.552   4.937   1.724 -0.1613 -0.1528 -0.4163
   87TIP3    H1  225   2.533   4.951   1.817 -0.6222 -2.2584 -0.1441
   87TIP3    H2  226   2.603   5.015   1.698 -2.7961  2.1251  0.7092
   88TIP3   OH2  227   6.512   4.981   0.478 -0.2799 -0.0735  0.1914
   88TIP3    H1  228   6.422   4.997   0.508  0.0498  0.5530  0.8671
   88TIP3    H2  229   6.545   4.912   0.536 -0.2899 -0.2505 -0.0087
   89TIP3   OH2  230   5.764   1.507   0.989 -0.1941 -0.1489  0.2726
   89TIP3    H1  231   5.792   1.442   0.926 -0.3907  2.4102 -2.7111
   89TIP3    H2  232   5.670   1.494   0.997 -0.1963 -0.3720 -0.1129
   90TIP3   OH2  233   0.622   6.535   4.579  0.0945 -0.5701 -0.3896
   90TIP3    H1  234   0.529   6.554   4.594  0.2426 -1.4289  1.9849
   90TIP3    H2  235   0.646   6.591   4.505 -1.7920  1.3555  0.3363
   91TIP3   OH2  236   5.938   2.317   5.177 -0.3916 -0.2853 -0.0703
   91TIP3    H1  237   5.954   2.255   5.248 -0.0278 -0.9060 -0.6794
   91TIP3    H2  238   5.902   2.264   5.107  0.7500  0.0210 -0.9219
   92TIP3   OH2  239   2.694   0.034   4.302 -0.2517 -0.3102  0.2655
   92TIP3    H1  240   2.790   0.028   4.294 -0.1712 -0.3326  1.1348
   92TIP3    H2  241   2.676   0.004   4.391 -1.1854 -1.3920 -0.2806
   93TIP3   OH2  242   0.745   3.870   3.514 -0.1243  0.0461  0.1476
   93TIP3    H1  243   0.686   3.898   3.584  0.4911  0.4966  0.4983
   93TIP3    H2  244   0.831   3.904   3.539  0.3663 -0.9079 -0.1688
   94TIP3   OH2  245   3.601   3.686   4.031 -0.0605 -0.5978  0.2651
   94TIP3    H1  246   3.550   3.605   4.026 -1.0392  0.0355 -0.5313
   94TIP3    H2  247   3.605   3.706   4.124 -2.0361 -0.2308  0.3146
   95TIP3   OH2  248   3.523   4.244   0.542 -0.2398  0.3320  0.2007
   95TIP3    H1  249   3.472   4.305   0.595 -0.3918 -1.1133  1.8207
   95TIP3    H2  250   3.591   4.211   0.600  1.6253  1.0115 -1.4640
   96TIP3   OH2  251   5.114   4.909   4.400 -0.2591  0.2555 -0.0421
   96TIP3    H1  252   5.183   4.843   4.409 -1.4015 -1.2148 -1.5561
   96TIP3    H2  253   5.147   4.969   4.334 -0.7180 -0.9547 -1.4445
   97TIP3   OH2  254   6.924   4.328   4.060 -0.2088  0.0312 -0.2933
   97TIP3    H1  255   6.903   4.420   4.044 -1.0752 -0.1835 -0.4691
   97TIP3    H2  256   6.992   4.307   3.997  0.9923  0.9131  0.6679
   98TIP3   OH2  257   0.154   2.185   3.823 -0.4576  0.0807 -0.3236
   98TIP3    H1  258   0.183   2.161   3.735  1.5181  1.4420 -0.1053
   98TIP3    H2  259   0.233   2.180   3.877 -2.1352 -3.7669  2.2013
   99TIP3   OH2  260   3.119   3.771   2.652  0.0395 -0.5242  0.6942
   99TIP3    H1  261   3.182   3.843   2.649 -0.6488  0.1521  1.5890
   99TIP3    H2  262   3.129   3.735   2.740  0.1774 -1.3398  0.3460
  100TIP3   OH2  263   0.926   1.244   2.219  0.2706 -1.1936 -0.0985
  100TIP3    H1  264   0.927   1.177   2.152  1.5212 -1.7706  0.4589
  100TIP3    H2  265   0.981   1.315   2.183 -1.1410 -0.3892 -0.7361
  101TIP3   OH2  266   1.477   4.451   0.123  0.2948  0.2677  0.2093
  101TIP3    H1  267   1.459   4.366   0.082  0.6928  0.0951  0.3857
  101TIP3    H2  268   1.539   4.494   0.064 -0.6112  0.8194 -0.3482
  102TIP3   OH2  269   6.472   3.275   0.902 -0.2578  0.3643 -0.4625
  102TIP3    H1  270   6.510   3.253   0.988  0.5804  1.1455 -0.6221
  102TIP3    H2  271   6.378   3.282   0.919 -0.5117 -2.3391 -0.2038
  103TIP3   OH2  272   3.739   1.454   3.811 -0.4343 -0.3940  0.2724
  103TIP3    H1  273   3.681   1.506   3.868  0.7012  0.4031  0.7346
  103TIP3    H2  274   3.707   1.364   3.821 -0.9436 -0.1163  1.3263
  104TIP3   OH2  275   0.884   2.714   0.278  0.0495 -0.0109  0.4133
  104TIP3    H1  276   0.889   2.624   0.248  2.4154  0.0671  0.3503
  104TIP3    H2  277   0.897   2.767   0.199  0.6923  0.3232  0.7321
  105TIP3   OH2  278   1.780   1.905   5.568 -0.1838 -0.8796  0.5698
  105TIP3    H1  279   1.812   1.903   5.477  0.8028  0.5825  0.8573
  105TIP3    H2  280   1.691   1.941   5.561 -0.2233 -1.0412  0.1739
  106TIP3   OH2  281   0.428   4.804   1.475  0.3049  0.4914 -0.0301
  106TIP3    H1  282   0.383   4.720   1.471 -0.3590  0.8894 -1.9517
  106TIP3    H2  283   0.427   4.828   1.568 -0.4636 -1.0894  0.3958
  107TIP3   OH2  284   3.602   1.017   5.597 -0.1942  0.4099  0.2577
  107TIP3    H1  285   3.512   0.984   5.596  0.3252 -1.0874  0.1128
  107TIP3    H2  286   3.639   0.989   5.514  0.8849 -0.4347  0.9898
  108TIP3   OH2  287   3.466   5.364   5.281  0.0273 -0.1193  0.1188
  108TIP3    H1  288   3.490   5.357   5.374 -1.4360 -0.0365  0.5277
  108TIP3    H2  289   3.475   5.457   5.261 -1.8805  0.2694  0.8557
  109TIP3   OH2  290   3.204   2.617   4.799  0.2124 -0.1423  0.0797
  109TIP3    H1  291   3.264   2.556   4.841  0.0244  0.7412  1.7100
  109TIP3    H2  292   3.137   2.560   4.760  0.1974 -1.0193  1.2994
  110TIP3   OH2  293   0.914   4.461   3.319 -0.0351  1.0468  0.3640
  110TIP3    H1  294   0.896   4.553   3.299 -0.4644  1.1701  1.2656
  110TIP3    H2  295   0.844   4.413   3.275 -0.0399  1.1886  0.2178
  111TIP3   OH2  296   5.775   6.243   4.383  0.4001  0.0438  0.1652
  111TIP3    H1  297   5.866   6.218   4.392 -0.0667 -1.1796  2.0164
  111TIP3    H2  298   5.749   6.274   4.470 -1.3170 -1.0181  0.0785
  112TIP3   OH2  299   3.087   3.549   5.498  0.0726  0.4733 -0.2557
  112TIP3    H1  300   3.147   3.543   5.573 -0.5440  1.3054  0.3234
  112TIP3    H2  301   3.018   3.609   5.528  0.2625  1.5150 -1.7983
  113TIP3   OH2  302   1.172   3.834   4.026  0.0841 -0.2433 -0.2390
  113TIP3    H1  303   1.081   3.810   4.007  0.2219  1.0316 -2.9594
  113TIP3    H2  304   1.223   3.791   3.957  1.1859  1.4322 -0.5151
  114TIP3   OH2  305   1.623   1.374   1.330  0.5027 -0.1693 -0.1378
  114TIP3    H1  306   1.573   1.337   1.257 -0.3691  1.6210 -0.4982
  114TIP3    H2  307   1.565   1.440   1.368  0.7594 -1.3839  2.5136
  115TIP3   OH2  308   0.357   1.244   1.463 -0.0106  0.1146  0.1712
  115TIP3    H1  309   0.334   1.255   1.555  0.5096  0.8546  0.2172
  115TIP3    H2  310   0.355   1.333   1.426  0.3120 -0.1100 -0.4074
  116TIP3   OH2  311   3.804   2.004   5.466  0.1796  0.2891 -0.0910
  116TIP3    H1  312   3.775   1.958   5.387 -1.4658  1.8240 -0.4561
  116TIP3    H2  313   3.813   2.095   5.439  1.4714  0.5318  1.0639
  117TIP3   OH2  314   6.296   1.667   0.758  0.5374 -0.0037  0.2693
  117TIP3    H1  315   6.279   1.699   0.847  0.5391 -1.4962  0.8380
  117TIP3    H2  316   6.331   1.742   0.711  0.4455  0.8337  1.5095
  118TIP3   OH2  317   2.615   5.016   4.360 -0.0045  0.2956  0.7217
  118TIP3    H1  318   2.708   4.998   4.377  0.1060  1.4848  1.4050
  118TIP3    H2  319   2.612   5.109   4.338 -0.9568  0.1210  0.0633
  119TIP3   OH2  320   5.270   4.613   4.741 -0.3040 -0.1096  0.3496
  119TIP3    H1  321   5.216   4.537   4.763 -0.4187 -0.0331  0.3320
  119TIP3    H2  322   5.356   4.591   4.776 -0.4500 -0.0542  0.7558
  120TIP3   OH2  323   4.285   5.251   0.912  0.0071  0.3250  0.3222
  120TIP3    H1  324   4.234   5.287   0.839  0.0685 -0.1821  0.0199
  120TIP3    H2  325   4.348   5.319   0.934 -0.2023  0.5962  0.0847
  121TIP3   OH2  326   5.013   1.523   2.000 -0.4871 -0.7927  0.4801
  121TIP3    H1  327   5.042   1.516   1.909 -0.6163 -0.3116  0.3986
  121TIP3    H2  328   5.028   1.615   2.022 -1.6037 -0.6160  0.5520
  122TIP3   OH2  329   5.944   1.132   0.633 -0.4810 -0.0035  0.0342
  122TIP3    H1  330   5.966   1.043   0.664 -1.0385  0.2488  1.2445
  122TIP3    H2  331   6.028   1.170   0.609 -0.0629 -0.4044  0.7980
  123TIP3   OH2  332   1.529   0.947   2.801  0.2595 -0.0316  0.2786
  123TIP3    H1  333   1.473   1.019   2.771  0.6938  0.1138 -0.2008
  123TIP3    H2  334   1.554   0.901   2.721  0.7438 -0.1522  0.4923
  124TIP3   OH2  335   1.024   2.927   1.250  0.0620  0.0055 -0.0656
  124TIP3    H1  336   0.980   2.926   1.166 -1.4226 -2.0521  0.6387
  124TIP3    H2  337   1.088   2.855   1.244  0.5043  0.3636  0.2961
  125TIP3   OH2  338   3.292   6.602   0.673  0.0871  0.5580  0.3607
  125TIP3    H1  339   3.231   6.644   0.733 -1.0522  0.9915 -1.0500
  125TIP3    H2  340   3.328   6.529   0.723 -1.4207  0.4267  1.3155
  126TIP3   OH2  341   0.058   1.995   4.031 -0.2064 -0.4641  0.0102
  126TIP3    H1  342   0.135   1.943   4.052  1.1390  0.9757 -1.1451
  126TIP3    H2  343   0.085   2.050   3.958 -1.9874  0.8747  0.2862
  127TIP3   OH2  344   1.987   5.976   0.466  0.6130 -0.8642 -0.1081
  127TIP3    H1  345   1.985   6.070   0.479 -0.1947 -1.1205  2.1648
  127TIP3    H2  346   1.979   5.964   0.372  0.1429  1.3071 -0.3925
  128TIP3   OH2  347   6.620   4.438   5.298 -0.1982  0.5390 -0.1525
  128TIP3    H1  348   6.649   4.486   5.376  1.0511  0.1213 -0.3315
  128TIP3    H2  349   6.549   4.382   5.330 -0.7058  1.4520  0.3588
  129TIP3   OH2  350   3.010   4.546   1.384  0.0481 -0.0300 -0.2401
  129TIP3    H1  351   3.037   4.610   1.319  0.2451  0.1208 -0.0151
  129TIP3    H2  352   2.928   4.511   1.351 -1.7951  2.6119  1.1515
  130TIP3   OH2  353   1.359   2.652   1.330  0.0754 -0.7251  0.4015
  130TIP3    H1  354   1.370   2.629   1.423  1.6825 -1.3196  0.1019
  130TIP3    H2  355   1.377   2.570   1.283  1.1794 -0.0004 -0.4925
  131TIP3   OH2  356   4.750   0.070   4.135 -0.4077  0.3345 -0.1030
  131TIP3    H1  357   4.810   0.142   4.151  1.0202 -0.6520 -0.7245
  131TIP3    H2  358   4.675   0.109   4.091 -0.0543  1.5534  0.3584
  132TIP3   OH2  359   1.700   3.738   0.480  0.3780 -0.4976 -0.3667
  132TIP3    H1  360   1.651   3.673   0.428 -1.3661 -0.5986  1.2782
  132TIP3    H2  361   1.778   3.691   0.509  0.9593 -0.7030 -2.0911
  133TIP3   OH2  362   0.235   4.698   1.224  0.0845  0.0705 -0.4178
  133TIP3    H1  363   0.157   4.661   1.184  0.9388 -1.3569 -0.8197
  133TIP3    H2  364   0.264   4.632   1.287  1.1356  0.4356 -0.4896
  134TIP3   OH2  365   5.960   0.624   3.835 -0.2284  0.1022 -0.6821
  134TIP3    H1  366   6.038   0.679   3.835 -0.2322  0.1081 -0.5323
  134TIP3    H2  367   5.888   0.684   3.850 -0.2595  0.0913 -0.7817
  135TIP3   OH2  368   4.916   6.012   1.220  0.6145 -0.1722  0.1003
  135TIP3    H1  369   5.007   6.023   1.248  0.6390  2.9188 -0.7914
  135TIP3    H2  370   4.865   6.023   1.300  0.9627  0.0694  0.2935
  136TIP3   OH2  371   4.026   3.317   3.343 -0.6492  0.1622  0.0286
  136TIP3    H1  372   4.083   3.242   3.362  0.4349  1.2656  1.3507
  136TIP3    H2  373   4.004   3.307   3.250  1.8924 -0.2503 -0.6247
  137TIP3   OH2  374   6.448   0.563   0.866  0.9575  1.0966 -0.3990
  137TIP3    H1  375   6.495   0.601   0.791  0.8056 -1.4620 -1.9420
  137TIP3    H2  376   6.516   0.518   0.916  0.4720 -1.8245 -2.1256
  138TIP3   OH2  377   6.662   3.540   0.885  0.3253  0.0831  0.0910
  138TIP3    H1  378   6.593   3.480   0.912  1.9741 -1.9229  0.0489
  138TIP3    H2  379   6.728   3.534   0.955  1.7081 -0.2178 -1.1856
  139TIP3   OH2  380   1.653   2.136   5.422 -0.7201 -0.7193 -0.0380
  139TIP3    H1  381   1.593   2.129   5.496 -0.9672  2.4118  0.1942
  139TIP3    H2  382   1.737   2.159   5.461 -0.8223  0.8350 -0.6842
  140TIP3   OH2  383   3.141   2.329   4.308 -0.1368 -0.6020 -0.3752
  140TIP3    H1  384   3.169   2.420   4.302  2.5500 -1.3136 -0.0022
  140TIP3    H2  385   3.105   2.321   4.396 -0.7314  0.1623 -0.5382
  141TIP3   OH2  386   0.301   2.945   0.794 -0.0054  0.1989  0.0997
  141TIP3    H1  387   0.390   2.979   0.800 -0.3302  1.0500  0.2072
  141TIP3    H2  388   0.297   2.876   0.860  1.0738 -1.0289 -1.0462
  142TIP3   OH2  389   1.621   2.601   5.149 -0.1920 -0.1432 -0.0862
  142TIP3    H1  390   1.633   2.566   5.237  0.1526  1.4237  0.5349
  142TIP3    H2  391   1.710   2.608   5.114 -0.3484 -1.0453 -0.6969
  143TIP3   OH2  392   0.143   0.345   1.541 -0.5026 -0.0871 -0.2435
  143TIP3    H1  393   0.150   0.366   1.448 -0.5140  0.5274 -0.1113
  143TIP3    H2  394   0.178   0.422   1.586  0.5383 -0.8215  0.2553
  144TIP3   OH2  395   3.206   1.227   0.334  0.5498  0.2845 -0.3064
  144TIP3    H1  396   3.299   1.232   0.352  0.4156 -1.0574  0.9896
  144TIP3    H2  397   3.168   1.188   0.414 -1.1928  1.3727 -0.5473
  145TIP3   OH2  398   5.157   4.311   3.460 -0.0091  0.2927 -0.3029
  145TIP3    H1  399   5.085   4.251   3.444 -1.4299  2.2729 -1.7912
  145TIP3    H2  400   5.224   4.285   3.397 -0.9946  0.8126 -1.6049
  146TIP3   OH2  401   6.626   5.708   0.387 -0.5500 -0.5763 -0.0042
  146TIP3    H1  402   6.554   5.654   0.420 -0.8638  0.7106  1.5622
  146TIP3    H2  403   6.702   5.679   0.437 -0.8111  0.6766  1.1676
  147TIP3   OH2  404   2.976   5.415   1.294  0.0351  0.1570  0.0243
  147TIP3    H1  405   2.933   5.411   1.208 -0.3247 -2.8131  0.2619
  147TIP3    H2  406   2.916   5.371   1.353  2.0855 -1.5942  0.9292
  148TIP3   OH2  407   0.616   5.125   4.295 -0.3486  0.3443 -0.0683
  148TIP3    H1  408   0.536   5.077   4.316  0.8745 -2.3320 -1.0237
  148TIP3    H2  409   0.677   5.057   4.265  1.1671  2.6791 -2.7215
  149TIP3   OH2  410   4.341   3.987   1.114 -0.4582 -0.2918 -0.9784
  149TIP3    H1  411   4.249   3.967   1.129 -0.4905  0.6045  0.1333
  149TIP3    H2  412   4.375   3.910   1.066 -1.6712 -0.7942 -1.0648
  150TIP3   OH2  413   6.713   2.878   1.150  0.0461  0.1681 -0.4530
  150TIP3    H1  414   6.730   2.784   1.153 -2.4629 -0.3374 -0.1443
  150TIP3    H2  415   6.765   2.914   1.222  1.0167 -0.9642 -0.5558
  151TIP3   OH2  416   1.733   1.836   4.787 -0.0555  0.9422 -0.1174
  151TIP3    H1  417   1.777   1.790   4.715 -0.9745  0.3224 -0.3022
  151TIP3    H2  418   1.653   1.870   4.747 -0.8901  0.0508  0.7466
  152TIP3   OH2  419   6.985   0.624   0.439  0.1617  0.6162  0.4907
  152TIP3    H1  420   6.965   0.666   0.356  1.0170 -1.8485 -1.0484
  152TIP3    H2  421   7.023   0.694   0.493 -2.3720  2.7736 -0.3381
  153TIP3   OH2  422   3.247   0.202   5.504 -0.1881  0.0917  0.0461
  153TIP3    H1  423   3.331   0.161   5.521 -0.8874 -1.3920  0.1143
  153TIP3    H2  424   3.215   0.229   5.590  0.6991  1.7568 -0.0915
  154TIP3   OH2  425   2.945   0.555   2.699  0.5278 -0.1061  0.5984
  154TIP3    H1  426   2.964   0.576   2.608 -0.0585 -1.0015  0.2553
  154TIP3    H2  427   2.849   0.555   2.705  0.5079 -1.8094  0.7580
  155TIP3   OH2  428   5.717   3.577   5.420 -0.3611  0.3727 -0.2491
  155TIP3    H1  429   5.632   3.622   5.420  0.5263  2.1148  0.6070
  155TIP3    H2  430   5.740   3.569   5.513  0.0180 -0.8954 -0.4347
  156TIP3   OH2  431   6.234   0.547   4.871  0.7980  0.3526  0.3044
  156TIP3    H1  432   6.211   0.614   4.807 -0.7464 -0.2387  0.1886
  156TIP3    H2  433   6.231   0.465   4.822  0.1265 -0.0476  0.9809
  157TIP3   OH2  434   3.149   5.524   0.823  0.4787 -0.3452 -0.3943
  157TIP3    H1  435   3.219   5.538   0.759 -1.8780 -0.4636 -3.2245
  157TIP3    H2  436   3.191   5.537   0.908  3.7164  0.3158 -1.9328
  158TIP3   OH2  437   0.622   3.485   4.378  0.0664 -0.4223  0.1531
  158TIP3    H1  438   0.718   3.495   4.378  0.0860 -0.5515 -0.5024
  158TIP3    H2  439   0.593   3.542   4.307 -0.5395  1.2507  1.6775
  159TIP3   OH2  440   4.732   1.578   2.415 -0.4390  0.5678  0.2797
  159TIP3    H1  441   4.639   1.587   2.435 -0.4901  2.6560 -0.6519
  159TIP3    H2  442   4.775   1.574   2.501 -1.3176  0.1653  0.7159
  160TIP3   OH2  443   2.848   6.133   1.604  0.2322  0.2184  0.0665
  160TIP3    H1  444   2.803   6.200   1.553 -0.6845  1.5660  2.4751
  160TIP3    H2  445   2.926   6.111   1.553  0.0324  2.3983 -1.2694
  161TIP3   OH2  446   4.064   3.154   0.095  0.1108 -0.3429  0.1609
  161TIP3    H1  447   4.157   3.146   0.116  0.3378 -0.7462 -0.9700
  161TIP3    H2  448   4.061   3.206   0.015 -0.5955 -0.9065 -0.1949
  162TIP3   OH2  449   6.150   1.276   1.224  0.2464  0.0859 -0.0952
  162TIP3    H1  450   6.218   1.232   1.173  0.7381  1.3924 -0.6265
  162TIP3    H2  451   6.145   1.364   1.187 -0.1123  0.7627  1.4435
  163TIP3   OH2  452   0.112   6.385   5.633  0.4449 -0.0297  0.0690
  163TIP3    H1  453   0.206   6.392   5.615  0.6337 -1.3499  0.4773
  163TIP3    H2  454   0.071   6.445   5.570  1.4584 -0.5311 -1.1056
  164TIP3   OH2  455   1.052   2.949   2.223 -0.2432 -0.4576  0.4136
  164TIP3    H1  456   0.995   3.020   2.194 -1.1520 -2.1683 -2.3666
  164TIP3    H2  457   1.140   2.979   2.203 -0.4598  0.5401  0.8942
  165TIP3   OH2  458   1.589   5.155   3.501  0.0567 -0.1156  0.3646
  165TIP3    H1  459   1.676   5.188   3.521 -0.6791  0.8938  2.1309
  165TIP3    H2  460   1.583   5.159   3.405  0.9842  2.4149  0.3479
  166TIP3   OH2  461   0.305   1.831   1.599  0.4498 -0.1118  0.8039
  166TIP3    H1  462   0.360   1.794   1.667  1.9808  0.7603  0.0896
  166TIP3    H2  463   0.355   1.904   1.564  0.2785 -1.2230 -2.0530
  167TIP3   OH2  464   4.558   6.739   0.939  0.4396 -0.4015 -0.0165
  167TIP3    H1  465   4.623   6.681   0.979 -1.1878 -0.4367  2.8292
  167TIP3    H2  466   4.592   6.827   0.956  1.1337 -0.4268 -1.1549
  168TIP3   OH2  467   2.626   1.514   4.523 -0.0759 -0.1082  0.2724
  168TIP3    H1  468   2.532   1.518   4.541 -0.0813  1.7172  0.0418
  168TIP3    H2  469   2.632   1.483   4.433 -0.3974 -1.1147  0.5810
  169TIP3   OH2  470   3.576   2.219   4.269 -0.1094  0.5866 -0.0113
  169TIP3    H1  471   3.660   2.175   4.278  0.2304  1.3207  0.4304
  169TIP3    H2  472   3.588   2.280   4.196 -0.8616 -0.6613 -1.2545
  170TIP3   OH2  473   2.918   6.209   5.836 -0.1580  0.5311 -0.0990
  170TIP3    H1  474   2.923   6.236   5.928 -3.1400  0.5077  0.1644
  170TIP3    H2  475   2.914   6.114   5.839  1.3387  0.4353 -0.4101
  171TIP3   OH2  476   2.711   3.749   4.934  0.2517  0.0809  0.1909
  171TIP3    H1  477   2.709   3.673   4.876  0.7033  1.5105 -1.8144
  171TIP3    H2  478   2.742   3.715   5.017  1.8378 -1.6959 -1.0395
  172TIP3   OH2  479   3.370   1.922   2.622 -0.3210 -0.1303  0.0843
  172TIP3    H1  480   3.450   1.955   2.662  0.2242 -0.8911 -0.3491
  172TIP3    H2  481   3.304   1.989   2.641  0.6545  1.0254 -0.4916
  173TIP3   OH2  482   5.638   5.702   0.914 -0.1985 -0.5948  0.4264
  173TIP3    H1  483   5.628   5.785   0.961  0.8116  0.1211 -0.5742
  173TIP3    H2  484   5.562   5.650   0.941  0.4756 -0.3631  3.0862
  174TIP3   OH2  485   5.661   3.755   3.705 -0.0996  0.3228 -0.2949
  174TIP3    H1  486   5.720   3.798   3.767 -0.2760  0.9906 -0.5835
  174TIP3    H2  487   5.643   3.821   3.639 -0.6273 -0.1005 -0.5826
  175TIP3   OH2  488   1.939   1.272   3.725 -0.0198 -0.5749  0.3174
  175TIP3    H1  489   1.854   1.294   3.763 -0.9244 -2.0378 -0.7786
  175TIP3    H2  490   1.981   1.357   3.709 -1.2053  0.1618  0.9902
  176TIP3   OH2  491   6.298   6.206   4.425 -0.1839  0.0643 -0.1855
  176TIP3    H1  492   6.209   6.188   4.393 -0.4005  0.2574  0.2949
  176TIP3    H2  493   6.312   6.299   4.405 -0.8423  0.5640  1.4470
  177TIP3   OH2  494   2.856   5.871   1.040  0.8572  0.5901  0.9444
  177TIP3    H1  495   2.784   5.934   1.035  0.1771 -0.1150  1.4992
  177TIP3    H2  496   2.855   5.827   0.955 -0.8244 -0.9366  1.6985
  178TIP3   OH2  497   1.099   6.484   2.383 -1.0851 -0.3798 -0.2090
  178TIP3    H1  498   1.104   6.456   2.475  1.6206  0.6783  0.0609
  178TIP3    H2  499   1.144   6.569   2.382 -0.4445 -0.6889 -2.6226
  179TIP3   OH2  500   1.298   5.880   0.670 -0.0567 -0.3475 -0.0789
  179TIP3    H1  501   1.240   5.947   0.705  0.3775  0.1945 -0.3828
  179TIP3    H2  502   1.384   5.902   0.704  0.1977 -0.3876 -0.6819
  180TIP3   OH2  503   1.058   4.151   1.082 -0.4906  0.1499 -0.3403
  180TIP3    H1  504   1.004   4.226   1.106 -1.0257 -0.6116  0.9312
  180TIP3    H2  505   1.101   4.177   1.000  2.0807  3.2607  1.7498
  181TIP3   OH2  506   2.373   3.559   1.380 -0.2134 -0.2922 -0.5372
  181TIP3    H1  507   2.454   3.536   1.335  0.0425  0.9109 -0.7353
  181TIP3    H2  508   2.365   3.654   1.368 -1.0317 -0.2067  0.5053
  182TIP3   OH2  509   5.265   2.809   0.180  0.2352 -0.5838  0.5336
  182TIP3    H1  510   5.287   2.735   0.124  0.0228  0.1199 -0.4972
  182TIP3    H2  511   5.197   2.857   0.132  0.2629  0.2062  1.2514
  183TIP3   OH2  512   3.396   5.957   3.277  0.4485  0.1051 -0.0680
  183TIP3    H1  513   3.460   5.982   3.344  0.6229  1.2444 -0.6217
  183TIP3    H2  514   3.445   5.959   3.195 -0.0539 -0.0238 -0.3764
  184TIP3   OH2  515   0.814   2.379   5.227 -0.3084 -0.6164 -0.2607
  184TIP3    H1  516   0.903   2.353   5.253 -0.6974 -0.8422  0.9462
  184TIP3    H2  517   0.759   2.306   5.255 -1.0591  0.1964  0.4834
  185TIP3   OH2  518   5.935   1.044   4.761  0.2296 -0.6862 -0.1533
  185TIP3    H1  519   5.948   1.109   4.691  1.0232  0.2389  0.8136
  185TIP3    H2  520   5.916   0.963   4.715 -2.6833  0.5644 -1.4182
  186TIP3   OH2  521   5.064   1.897   1.155 -0.1573  0.1380  0.7720
  186TIP3    H1  522   5.132   1.922   1.218  3.9505 -2.9551 -1.9259
  186TIP3    H2  523   5.065   1.967   1.089  0.7780 -0.0907  0.5356
  187TIP3   OH2  524   4.428   0.228   5.043  0.3563  0.3356  0.1299
  187TIP3    H1  525   4.345   0.263   5.009 -0.0536 -0.6070  0.1197
  187TIP3    H2  526   4.478   0.205   4.965  1.8080  3.3997  0.0252
  188TIP3   OH2  527   5.553   6.152   0.809  0.4039 -0.4001  0.2977
  188TIP3    H1  528   5.613   6.096   0.858  0.1704  0.4530  1.6217
  188TIP3    H2  529   5.470   6.104   0.809  0.8736 -1.2574 -0.9254
  189TIP3   OH2  530   2.846   5.375   4.996  0.6265 -0.1586 -0.4015
  189TIP3    H1  531   2.885   5.333   4.919  3.7992  1.3874  0.2158
  189TIP3    H2  532   2.824   5.463   4.966  0.8636  0.1033  0.1947
  190TIP3   OH2  533   5.123   6.747   4.969  0.4730 -0.0009 -0.0488
  190TIP3    H1  534   5.070   6.672   4.943  0.5120  0.3662 -1.2172
  190TIP3    H2  535   5.114   6.750   5.065  1.3881 -2.1546  0.1524
  191TIP3   OH2  536   4.294   3.764   2.875  0.3521 -0.0671  0.7553
  191TIP3    H1  537   4.230   3.801   2.813  2.3655 -1.6074 -2.5325
  191TIP3    H2  538   4.370   3.822   2.870  1.3712 -1.4069 -0.0146
  192TIP3   OH2  539   0.114   6.735   0.943  0.2399 -0.0446  0.7256
  192TIP3    H1  540   0.020   6.734   0.926  0.5621 -0.4405 -1.2867
  192TIP3    H2  541   0.140   6.826   0.933  0.0591  0.0923  1.4493
  193TIP3   OH2  542   0.473   5.460   1.524  0.1395  0.4726  0.0399
  193TIP3    H1  543   0.429   5.535   1.565  0.4718  1.3238 -1.0993
  193TIP3    H2  544   0.554   5.450   1.574 -0.0036  0.7432  0.3319
  194TIP3   OH2  545   2.912   3.305   0.296  0.2398 -0.6446  0.0264
  194TIP3    H1  546   2.854   3.313   0.373 -0.6401  0.0838 -0.6883
  194TIP3    H2  547   2.981   3.245   0.324  0.5571  0.4537  1.7610
  195TIP3   OH2  548   2.835   6.668   1.751 -0.4060  0.3381 -0.5705
  195TIP3    H1  549   2.912   6.709   1.791 -0.5323  2.4583 -2.3201
  195TIP3    H2  550   2.865   6.640   1.664 -1.2969  0.0047 -0.7834
  196TIP3   OH2  551   4.112   0.503   3.972  0.1137  0.3686 -0.0851
  196TIP3    H1  552   4.114   0.476   3.880 -0.3129  1.6584 -0.5006
  196TIP3    H2  553   4.031   0.553   3.980 -0.4139 -0.6692  1.2896
  197TIP3   OH2  554   1.995   5.452   3.794 -0.1898  0.3624 -0.5291
  197TIP3    H1  555   1.976   5.536   3.750  2.3151 -0.0100 -2.6015
  197TIP3    H2  556   2.080   5.427   3.760  0.7778 -1.3352  2.7653
  198TIP3   OH2  557   7.073   3.462   0.785 -0.0729  0.1852 -0.3546
  198TIP3    H1  558   7.109   3.387   0.738  0.0197 -0.1775  0.2820
  198TIP3    H2  559   7.028   3.513   0.717 -0.4571 -0.6362 -0.7380
  199TIP3   OH2  560   6.800   3.580   3.515  0.0167 -0.1508  0.1376
  199TIP3    H1  561   6.853   3.653   3.483 -0.9843  0.1097 -1.0151
  199TIP3    H2  562   6.841   3.554   3.597  1.3082  0.7010 -0.2126
  200TIP3   OH2  563   0.242   1.212   4.980  0.6319 -0.1666 -0.4322
  200TIP3    H1  564   0.171   1.275   4.981  0.9481  0.2049 -0.9713
  200TIP3    H2  565   0.200   1.127   4.993 -0.3207 -0.3573 -3.8166
  201TIP3   OH2  566   6.551   6.401   2.600  0.9190 -0.8009 -0.5614
  201TIP3    H1  567   6.462   6.418   2.570  0.6192 -2.5093 -0.7065
  201TIP3    H2  568   6.581   6.486   2.632  0.0191  0.3087 -2.4544
  202TIP3   OH2  569   4.112   2.808   5.709 -0.5464  0.5043  0.2852
  202TIP3    H1  570   4.171   2.862   5.761  1.3584 -0.3312 -0.8816
  202TIP3    H2  571   4.146   2.719   5.720 -1.3504  0.0584 -0.7236
  203TIP3   OH2  572   6.721   5.046   3.659 -0.2314 -0.3298  0.1975
  203TIP3    H1  573   6.747   5.096   3.581  0.9992 -0.4052  0.5396
  203TIP3    H2  574   6.653   5.099   3.700  1.0299  1.0734  0.5368
  204TIP3   OH2  575   4.510   0.314   5.544 -0.2151 -0.2460 -0.1185
  204TIP3    H1  576   4.556   0.243   5.500  0.0230 -0.5097  0.5371
  204TIP3    H2  577   4.451   0.350   5.478  1.0734  0.2312 -1.0549
  205TIP3   OH2  578   2.763   4.583   0.289  0.1009  0.2842 -0.7606
  205TIP3    H1  579   2.742   4.665   0.246  0.5715 -0.3400 -2.2431
  205TIP3    H2  580   2.678   4.549   0.319 -0.2549  0.6832 -1.3063
  206TIP3   OH2  581   7.111   1.124   5.786  0.1735 -0.1918  0.7382
  206TIP3    H1  582   7.127   1.161   5.699 -0.3632 -0.0308  0.7031
  206TIP3    H2  583   7.198   1.112   5.823  0.3524  1.8991  1.0799
  207TIP3   OH2  584   4.508   0.962   3.442 -0.3190  0.3363  0.3277
  207TIP3    H1  585   4.434   0.994   3.493 -0.9031 -1.2574  0.5342
  207TIP3    H2  586   4.470   0.899   3.381  1.0501 -1.9923  1.7379
  208TIP3   OH2  587   3.427   5.109   1.900 -0.2029 -0.0116 -0.0483
  208TIP3    H1  588   3.473   5.182   1.858 -0.8465  0.4193 -0.0286
  208TIP3    H2  589   3.493   5.040   1.908 -0.0574 -0.1041 -1.7535
  209TIP3   OH2  590   6.944   0.213   1.551 -0.2342 -0.0402 -0.1988
  209TIP3    H1  591   6.929   0.140   1.491 -0.2145  0.3776 -0.7183
  209TIP3    H2  592   6.957   0.289   1.494  0.4350  0.2441  0.3158
  210TIP3   OH2  593   4.522   2.354   3.609  1.0097  0.1748 -0.1589
  210TIP3    H1  594   4.581   2.412   3.561  0.0453  1.6477  0.3756
  210TIP3    H2  595   4.474   2.307   3.541 -0.0599  1.9402 -0.6847
  211TIP3   OH2  596   4.039   6.152   0.902 -0.2277 -0.1315  0.3083
  211TIP3    H1  597   4.071   6.069   0.938 -0.5735 -1.2922 -1.8630
  211TIP3    H2  598   4.024   6.207   0.979  1.7652 -1.4051  1.7286
  212TIP3   OH2  599   6.319   5.331   3.765 -0.2438  0.3266 -0.3231
  212TIP3    H1  600   6.281   5.357   3.681  0.2048 -1.1973 -1.0380
  212TIP3    H2  601   6.316   5.236   3.764  2.7975  0.1155 -0.0865
  213TIP3   OH2  602   1.746   0.046   2.625 -0.3090  0.6279  0.0616
  213TIP3    H1  603   1.679   0.061   2.692 -0.3233 -0.8025  0.3923
  213TIP3    H2  604   1.697   0.035   2.544 -0.3012  2.1849 -0.1854
  214TIP3   OH2  605   3.244   4.741   0.672  0.3166  0.6562  0.0446
  214TIP3    H1  606   3.245   4.658   0.624 -2.9487  0.4447  0.0611
  214TIP3    H2  607   3.245   4.808   0.604 -0.0026  0.4879 -0.1292
  215TIP3   OH2  608   6.018   1.732   0.453 -0.1446 -0.5143  0.2624
  215TIP3    H1  609   6.042   1.668   0.520  0.6405 -2.7485 -2.0109
  215TIP3    H2  610   6.095   1.739   0.397 -0.5080  1.8866 -0.0353
  216TIP3   OH2  611   4.308   4.880   2.080 -0.3117  0.4305 -0.5245
  216TIP3    H1  612   4.318   4.924   1.996 -0.0227 -0.5135 -0.9909
  216TIP3    H2  613   4.235   4.819   2.067 -0.7571  0.8058  0.1382
  217TIP3   OH2  614   2.002   4.560   3.464 -0.5308  0.0717 -0.0705
  217TIP3    H1  615   1.925   4.511   3.436 -0.4744  0.3943 -0.8101
  217TIP3    H2  616   2.076   4.508   3.434 -0.4693  0.4245 -0.5463
  218TIP3   OH2  617   3.483   4.169   5.115 -0.0404 -0.4150  0.0109
  218TIP3    H1  618   3.441   4.119   5.045  1.0034 -1.5268  0.1482
  218TIP3    H2  619   3.420   4.165   5.187  0.4164 -2.4424  0.3690
  219TIP3   OH2  620   6.926   5.508   1.316 -0.2554 -0.2614 -0.6564
  219TIP3    H1  621   6.965   5.545   1.237  2.2411  1.2849  1.1518
  219TIP3    H2  622   6.944   5.414   1.310  0.8012 -0.0259 -1.5098
  220TIP3   OH2  623   3.960   1.669   4.859  0.4569  0.2598  0.0406
  220TIP3    H1  624   3.935   1.711   4.777 -0.5168 -0.6463 -0.1446
  220TIP3    H2  625   3.882   1.620   4.886  1.1070 -0.3105  0.9547
  221TIP3   OH2  626   0.459   5.350   0.406  0.3027 -0.3676  0.0207
  221TIP3    H1  627   0.542   5.369   0.363 -0.0241 -0.8992 -0.8804
  221TIP3    H2  628   0.405   5.427   0.388  0.6996  0.1245  0.8921
  222TIP3   OH2  629   6.907   5.390   4.381 -0.1417  0.4504 -0.0952
  222TIP3    H1  630   6.939   5.300   4.383  1.2821  0.8625 -1.7775
  222TIP3    H2  631   6.840   5.393   4.449  1.5204 -1.2015  1.7386
  223TIP3   OH2  632   6.668   4.600   1.462  0.1136  0.0128 -0.0377
  223TIP3    H1  633   6.616   4.617   1.382  0.1874 -2.4376 -0.6863
  223TIP3    H2  634   6.744   4.657   1.453  0.1054 -0.1720 -1.7323
  224TIP3   OH2  635   2.165   0.643   5.354 -0.3951 -0.1570 -0.2939
  224TIP3    H1  636   2.205   0.594   5.426 -0.8483  1.7393  1.3346
  224TIP3    H2  637   2.228   0.637   5.283  1.1628 -0.1496  1.0353
  225TIP3   OH2  638   6.281   6.494   2.517  0.4032  0.4804  0.4375
  225TIP3    H1  639   6.264   6.530   2.604  2.1894  0.8269  0.7002
  225TIP3    H2  640   6.195   6.482   2.478 -0.5114 -0.4910  2.5611
  226TIP3   OH2  641   5.232   0.347   0.800  0.5268 -0.1889  0.3370
  226TIP3    H1  642   5.227   0.424   0.743 -1.8028 -1.0639 -0.8073
  226TIP3    H2  643   5.325   0.333   0.815  1.0531  2.0504 -0.5127
  227TIP3   OH2  644   2.794   0.631   4.849 -0.1541 -0.1811 -0.2262
  227TIP3    H1  645   2.832   0.574   4.783  0.6607 -1.1243  1.0064
  227TIP3    H2  646   2.837   0.605   4.931 -1.1543  0.9143  0.6877
  228TIP3   OH2  647   7.225   4.947   1.240 -0.2061 -0.3791 -1.1475
  228TIP3    H1  648   7.133   4.972   1.234 -0.2349  0.4909  1.6359
  228TIP3    H2  649   7.224   4.857   1.270 -0.1196 -0.7110 -2.1095
  229TIP3   OH2  650   3.323   4.129   5.317 -0.6192  0.4054  0.1126
  229TIP3    H1  651   3.239   4.153   5.357 -0.8401  0.4146 -0.3477
  229TIP3    H2  652   3.316   4.034   5.304 -0.5017  0.3845  0.2138
  230TIP3   OH2  653   4.492   5.544   4.782 -0.0232 -0.3469  0.4366
  230TIP3    H1  654   4.433   5.604   4.827  0.5287 -0.4325  1.3010
  230TIP3    H2  655   4.439   5.506   4.712 -0.4230  1.0097 -0.0185
  231TIP3   OH2  656   0.044   5.415   3.400  0.2058  0.2879  0.4705
  231TIP3    H1  657  -0.014   5.374   3.465  1.0265  0.2364  1.1911
  231TIP3    H2  658   0.003   5.500   3.382  0.2558  0.5565  1.5168
  232TIP3   OH2  659   4.355   2.741   2.425 -0.0748 -0.7570  0.2961
  232TIP3    H1  660   4.341   2.656   2.467  1.7041 -1.4216 -0.3860
  232TIP3    H2  661   4.421   2.784   2.480  1.3222 -1.1139 -1.0549
  233TIP3   OH2  662   7.050   1.171   0.205  0.4235  0.6318  0.2147
  233TIP3    H1  663   6.978   1.187   0.145  2.4267  0.4276 -2.4605
  233TIP3    H2  664   7.070   1.257   0.243  0.5955  1.2826 -1.2937
  234TIP3   OH2  665   2.329   6.011   3.701 -0.4231 -0.3102  0.3534
  234TIP3    H1  666   2.252   5.986   3.650  0.9235 -0.7363 -1.5696
  234TIP3    H2  667   2.351   6.099   3.671  0.1996 -0.4298  0.4433
  235TIP3   OH2  668   6.609   1.905   5.623 -0.3308  0.0082 -0.4092
  235TIP3    H1  669   6.664   1.851   5.565 -2.0014 -1.5076 -0.6686
  235TIP3    H2  670   6.659   1.986   5.634  0.5275 -0.0447 -3.1471
  236TIP3   OH2  671   3.063   2.922   1.842  0.0513 -0.3618 -0.3916
  236TIP3    H1  672   3.142   2.902   1.892  1.0679 -1.0549 -2.1618
  236TIP3    H2  673   2.994   2.930   1.907  1.5395  0.0622  1.1982
  237TIP3   OH2  674   6.471   2.157   4.975 -0.4198  0.2125  0.0184
  237TIP3    H1  675   6.390   2.161   5.027  0.0234  1.8982  0.6221
  237TIP3    H2  676   6.511   2.243   4.986  0.8863 -0.2071 -1.2232
  238TIP3   OH2  677   2.582   5.377   1.582 -0.1767 -0.2255 -0.5288
  238TIP3    H1  678   2.530   5.304   1.617 -0.3266 -0.3291 -0.9614
  238TIP3    H2  679   2.525   5.453   1.593  0.4239  0.0290  0.9750
  239TIP3   OH2  680   1.361   2.466   3.308 -0.2411  0.3742  0.1957
  239TIP3    H1  681   1.376   2.422   3.225 -1.0378 -2.3690  1.4000
  239TIP3    H2  682   1.296   2.533   3.289  2.6838  2.8435 -2.1820
  240TIP3   OH2  683   2.032   2.429   2.586  0.3753 -0.1751 -0.1527
  240TIP3    H1  684   2.007   2.518   2.560  1.0915  0.4246  1.1258
  240TIP3    H2  685   2.128   2.429   2.581  0.4674 -0.3821  1.3019
  241TIP3   OH2  686   0.318   4.646   0.643  0.5760 -0.1716  0.7419
  241TIP3    H1  687   0.289   4.736   0.626  0.5114 -0.2740  0.3034
  241TIP3    H2  688   0.317   4.604   0.557 -0.2304 -0.8397  1.0703
  242TIP3   OH2  689   0.245   2.358   1.122 -0.5257  0.1189 -0.6417
  242TIP3    H1  690   0.320   2.416   1.114 -0.0773 -0.1407  1.2337
  242TIP3    H2  691   0.178   2.410   1.166 -0.4428 -0.4790  0.2190
  243TIP3   OH2  692   3.045   4.757   4.450 -0.4560  0.2653  0.7843
  243TIP3    H1  693   3.051   4.719   4.537  0.4011 -0.2445  0.5231
  243TIP3    H2  694   3.082   4.690   4.392  2.1882  1.8650  0.4299
  244TIP3   OH2  695   1.189   1.433   2.853  0.3407 -0.1922 -0.2570
  244TIP3    H1  696   1.259   1.399   2.909 -0.4043 -1.3210  0.0165
  244TIP3    H2  697   1.110   1.386   2.881 -0.6743  1.5096 -0.1140
  245TIP3   OH2  698   5.054   4.593   2.615 -0.0373 -0.8271 -0.2474
  245TIP3    H1  699   5.146   4.601   2.594  0.1500 -0.4681  0.6474
  245TIP3    H2  700   5.008   4.603   2.532  0.7823 -2.2546 -0.8884
  246TIP3   OH2  701   3.331   0.044   0.298  0.1532 -0.6194 -0.2732
  246TIP3    H1  702   3.324  -0.026   0.363 -0.4234  0.5684  0.9855
  246TIP3    H2  703   3.249   0.038   0.248  0.4232 -1.2894 -0.6379
  247TIP3   OH2  704   4.924   6.395   0.989 -0.0151 -0.4237 -0.1078
  247TIP3    H1  705   4.909   6.303   0.966 -1.1732 -0.5312  0.9282
  247TIP3    H2  706   4.975   6.391   1.070  0.7537 -0.1276 -0.5716
  248TIP3   OH2  707   1.426   1.211   0.761  0.9471  0.0486  0.2117
  248TIP3    H1  708   1.480   1.135   0.784  0.9233 -0.3281 -0.9509
  248TIP3    H2  709   1.460   1.241   0.677 -1.1005 -0.6663 -0.9495
  249TIP3   OH2  710   4.215   0.407   3.377 -0.4326  0.8157  0.6718
  249TIP3    H1  711   4.207   0.398   3.282  0.1235  1.4294  0.5603
  249TIP3    H2  712   4.130   0.379   3.410 -0.0974 -1.0068  0.1252
  250TIP3   OH2  713   6.090   5.447   0.127  0.0477 -0.1745 -0.3276
  250TIP3    H1  714   6.122   5.436   0.217 -1.6758 -0.0239  0.3463
  250TIP3    H2  715   6.019   5.511   0.135 -0.5138 -0.5986 -1.7142
  251TIP3   OH2  716   1.822   1.541   2.309 -0.6696 -0.2608 -0.0113
  251TIP3    H1  717   1.729   1.555   2.327 -1.0855  0.3159 -2.3471
  251TIP3    H2  718   1.864   1.623   2.335 -0.5964 -0.8743  2.0051
  252TIP3   OH2  719   4.250   0.893   2.921 -0.8274  0.5941 -0.2241
  252TIP3    H1  720   4.168   0.859   2.883  0.4710 -2.0654 -0.9187
  252TIP3    H2  721   4.295   0.933   2.846  0.0093 -1.1582 -0.7194
  253TIP3   OH2  722   6.378   3.119   3.436  0.2460 -0.0746 -0.1123
  253TIP3    H1  723   6.469   3.142   3.457  0.0492  1.7935 -1.0922
  253TIP3    H2  724   6.380   3.093   3.344 -0.2411  0.2563 -0.2227
  254TIP3   OH2  725   6.345   1.140   3.918  0.4109 -0.0073  0.2246
  254TIP3    H1  726   6.366   1.231   3.896  0.4534  0.1756  1.0101
  254TIP3    H2  727   6.250   1.134   3.911  0.4494 -0.0449 -0.3400
  255TIP3   OH2  728   3.786   4.357   2.120  0.1681 -0.5107  0.1236
  255TIP3    H1  729   3.771   4.427   2.184  0.9828 -0.5660  0.3951
  255TIP3    H2  730   3.812   4.282   2.172 -0.3601 -0.9161 -0.1960
  256TIP3   OH2  731   0.624   5.492   2.213  0.1886 -0.4987 -0.1805
  256TIP3    H1  732   0.649   5.577   2.178 -2.7331  0.3620 -0.4268
  256TIP3    H2  733   0.593   5.510   2.302  0.4317 -1.4727  0.1206
  257TIP3   OH2  734   0.215   5.471   4.874 -0.0455  0.9731  0.9745
  257TIP3    H1  735   0.139   5.434   4.830 -0.4071 -0.6746  2.8417
  257TIP3    H2  736   0.280   5.400   4.872  0.5585  1.4989  1.5372
  258TIP3   OH2  737   4.391   5.955   5.063  0.1105 -0.1860 -0.2635
  258TIP3    H1  738   4.308   5.995   5.091 -0.7292 -1.5140 -0.7618
  258TIP3    H2  739   4.457   6.022   5.080 -0.6604 -0.0415  2.7367
  259TIP3   OH2  740   2.557   2.328   3.156 -0.0731 -0.6988 -0.2091
  259TIP3    H1  741   2.581   2.313   3.247 -1.7017 -1.0576  0.1815
  259TIP3    H2  742   2.569   2.243   3.114 -0.1878 -0.7598 -0.1203
  260TIP3   OH2  743   1.919   3.917   2.488  0.4068  0.4956  0.1661
  260TIP3    H1  744   1.895   3.829   2.457 -3.0097  0.9252  1.2139
  260TIP3    H2  745   1.918   3.971   2.409 -2.3830  0.4573  0.0881
  261TIP3   OH2  746   3.200   5.191   5.808  0.1265 -0.3863 -0.3656
  261TIP3    H1  747   3.273   5.241   5.845  2.4256 -3.0404 -0.9570
  261TIP3    H2  748   3.197   5.217   5.716  1.1076 -1.0517 -0.5994
  262TIP3   OH2  749   1.580   2.054   3.113 -0.1266 -0.2160 -0.0209
  262TIP3    H1  750   1.648   2.066   3.180 -0.1930  2.0201 -0.2714
  262TIP3    H2  751   1.595   1.966   3.079  1.2262 -0.6209  1.4677
  263TIP3   OH2  752   3.333   5.691   1.833 -0.0220 -0.2457  0.5343
  263TIP3    H1  753   3.328   5.703   1.928 -1.1126 -1.6471  0.6968
  263TIP3    H2  754   3.250   5.725   1.800 -0.4936 -1.5353  0.3352
  264TIP3   OH2  755   6.663   1.029   3.440 -0.3424  0.1955  0.1518
  264TIP3    H1  756   6.740   1.086   3.448 -0.5126  0.5703 -0.7854
  264TIP3    H2  757   6.673   0.966   3.511 -0.7803  2.1094  2.0291
  265TIP3   OH2  758   1.953   1.891   4.454  0.3116 -0.2373 -0.1923
  265TIP3    H1  759   1.902   1.935   4.386 -1.0964 -0.6946  0.5158
  265TIP3    H2  760   1.967   1.803   4.420  0.5324 -0.1419 -0.3464
  266TIP3   OH2  761   5.946   1.700   4.766  0.0284 -0.2220 -0.0644
  266TIP3    H1  762   5.992   1.773   4.725 -0.2024 -0.5381 -0.9140
  266TIP3    H2  763   5.867   1.689   4.714 -0.4783 -0.3879  0.7178
  267TIP3   OH2  764   3.261   4.060   3.088  0.2196 -0.3986 -0.7549
  267TIP3    H1  765   3.311   4.007   3.026  0.4619 -0.9753 -0.0827
  267TIP3    H2  766   3.261   4.009   3.169 -1.0292 -0.1691 -0.5885
  268TIP3   OH2  767   0.937   2.184   5.548  0.0500  0.3931  0.0218
  268TIP3    H1  768   0.848   2.215   5.564 -0.5315  0.0922 -2.2418
  268TIP3    H2  769   0.963   2.142   5.630 -1.7071  0.8529  0.8697
  269TIP3   OH2  770   3.789   1.171   4.508 -0.5715  0.1379  0.2011
  269TIP3    H1  771   3.729   1.162   4.582 -0.3431  0.5163  0.4293
  269TIP3    H2  772   3.858   1.229   4.539  1.5465 -2.6224  0.9412
  270TIP3   OH2  773   7.140   1.515   3.180 -0.2018 -0.5051 -0.2108
  270TIP3    H1  774   7.167   1.539   3.269 -1.5389  0.3349 -0.0140
  270TIP3    H2  775   7.058   1.469   3.191 -0.1059 -0.8769 -0.9802
  271TIP3   OH2  776   0.795   5.397   2.433  0.3877 -0.0263 -0.7790
  271TIP3    H1  777   0.806   5.308   2.402 -1.0250 -0.3086 -0.5529
  271TIP3    H2  778   0.770   5.447   2.356 -0.1746 -0.1250 -0.6709
  272TIP3   OH2  779   1.225   5.263   0.828  0.3048  0.3032  0.3113
  272TIP3    H1  780   1.308   5.308   0.810 -0.2136  1.8048  1.4254
  272TIP3    H2  781   1.180   5.261   0.744  1.9168 -1.5790 -0.5676
  273TIP3   OH2  782   1.224   0.305   0.448  0.2163 -0.2196 -0.2479
  273TIP3    H1  783   1.263   0.378   0.400 -0.4653 -0.2597 -0.8910
  273TIP3    H2  784   1.230   0.231   0.387 -2.8475  0.2638 -1.3605
  274TIP3   OH2  785   4.007   3.092   0.545 -0.5451  0.3460 -0.3622
  274TIP3    H1  786   4.081   3.088   0.484  0.0635 -1.0990  0.4055
  274TIP3    H2  787   3.944   3.028   0.511 -0.8132  0.5473 -0.2434
  275TIP3   OH2  788   4.848   1.218   3.153  0.4495 -0.1136  0.4114
  275TIP3    H1  789   4.844   1.306   3.115 -0.6576 -0.4888 -0.3956
  275TIP3    H2  790   4.777   1.216   3.217 -0.9542 -1.0697 -1.0951
  276TIP3   OH2  791   2.182   6.648   1.113 -0.1271 -0.7550 -0.1753
  276TIP3    H1  792   2.091   6.645   1.086 -1.5482 -1.2691  4.0067
  276TIP3    H2  793   2.204   6.557   1.133  0.6583 -0.3890  0.7093
  277TIP3   OH2  794   6.583   2.436   3.628  0.0893 -0.5087 -0.4327
  277TIP3    H1  795   6.584   2.531   3.632  1.0298 -0.4565 -1.3702
  277TIP3    H2  796   6.490   2.412   3.626 -0.1981  0.2766  1.4097
  278TIP3   OH2  797   6.042   2.311   3.743  0.4061  0.4459 -0.5129
  278TIP3    H1  798   6.064   2.272   3.658 -2.5391 -2.2165 -0.2214
  278TIP3    H2  799   5.956   2.350   3.731  0.8213  1.8870  0.7849
  279TIP3   OH2  800   1.500   0.611   4.554  0.4488 -0.2193 -0.4049
  279TIP3    H1  801   1.454   0.603   4.471  0.8929 -3.2770 -0.4631
  279TIP3    H2  802   1.583   0.567   4.540  2.2417  2.5498  0.6077
  280TIP3   OH2  803   4.513   5.054   2.139  0.4224  0.3101  0.6578
  280TIP3    H1  804   4.430   5.007   2.130  0.8786 -0.2381 -0.9189
  280TIP3    H2  805   4.526   5.062   2.234 -1.0493 -0.2505  0.9298
  281TIP3   OH2  806   3.671   1.784   5.869  0.0347 -0.5349 -0.6416
  281TIP3    H1  807   3.677   1.855   5.932  0.0285 -1.3222  0.2594
  281TIP3    H2  808   3.581   1.789   5.835 -0.6404 -1.3375  0.9187
  282TIP3   OH2  809   1.232  -0.003   3.707  0.6859  0.4152  0.1690
  282TIP3    H1  810   1.237   0.091   3.694  0.6056  0.2441 -1.2732
  282TIP3    H2  811   1.308  -0.024   3.762  1.0145  1.2306  0.0392
  283TIP3   OH2  812   6.374   3.598   2.166 -0.0260 -0.7574 -0.7499
  283TIP3    H1  813   6.366   3.529   2.231 -1.0007 -0.1679 -0.2132
  283TIP3    H2  814   6.389   3.552   2.083  0.1313 -1.5600 -0.2881
  284TIP3   OH2  815   0.234   1.458   3.050 -0.3563 -0.4873  0.1890
  284TIP3    H1  816   0.271   1.520   3.113 -2.7657  1.2188  0.0987
  284TIP3    H2  817   0.229   1.508   2.968  0.2725 -1.7817 -0.6616
  285TIP3   OH2  818   6.519   1.284   4.777  0.7058 -0.1034  0.5872
  285TIP3    H1  819   6.520   1.353   4.843 -0.6387  0.6448 -0.1153
  285TIP3    H2  820   6.513   1.331   4.693 -1.0313 -1.0422  0.1289
  286TIP3   OH2  821   5.336   2.813   5.290  0.4140  0.0419  0.2815
  286TIP3    H1  822   5.410   2.818   5.230  0.4736  0.8012  0.4174
  286TIP3    H2  823   5.300   2.725   5.276  1.3011 -0.3120  0.1742
  287TIP3   OH2  824   2.538   0.910   3.550  0.5705  0.4609 -0.5200
  287TIP3    H1  825   2.495   0.996   3.550 -1.0310 -0.2547 -2.1724
  287TIP3    H2  826   2.569   0.898   3.640 -1.7570  1.5355  0.5072
  288TIP3   OH2  827   4.035   5.162   3.261 -0.2123 -0.0996  0.0282
  288TIP3    H1  828   4.060   5.069   3.261  1.3638  0.2197  2.8950
  288TIP3    H2  829   4.114   5.208   3.234 -1.0873  0.4675 -1.7045
  289TIP3   OH2  830   0.617   3.765   1.415 -0.2899  0.2326  0.1199
  289TIP3    H1  831   0.679   3.693   1.428 -1.3981 -1.3063 -2.2216
  289TIP3    H2  832   0.577   3.778   1.501 -1.0419 -3.0207  0.4218
  290TIP3   OH2  833   1.208   2.856   4.146  0.2521 -0.5838 -0.2273
  290TIP3    H1  834   1.203   2.856   4.050  1.1472 -0.2964 -0.2829
  290TIP3    H2  835   1.161   2.777   4.172 -1.3609  0.1546 -0.8128
  291TIP3   OH2  836   6.318   2.975   3.660  0.3906 -0.4204 -0.1589
  291TIP3    H1  837   6.313   2.882   3.638 -3.1255 -0.3103 -0.3351
  291TIP3    H2  838   6.336   3.019   3.577  2.1670 -0.8809 -0.0589
  292TIP3   OH2  839   3.335   0.586   0.892 -0.3201 -1.2305  0.2611
  292TIP3    H1  840   3.324   0.660   0.832 -0.8362  0.1413  1.9617
  292TIP3    H2  841   3.406   0.534   0.854  1.0283  0.8860 -0.3091
  293TIP3   OH2  842   0.124   2.658   0.041 -0.1079 -0.3313  0.1737
  293TIP3    H1  843   0.046   2.647  -0.012  1.0541 -0.4287 -1.5952
  293TIP3    H2  844   0.191   2.688  -0.020  0.9593  0.9270  1.8531
  294TIP3   OH2  845   2.050   5.185   1.337 -0.0265  0.0156  0.1289
  294TIP3    H1  846   1.997   5.246   1.285 -0.6092 -0.1234  0.5487
  294TIP3    H2  847   2.137   5.191   1.299 -0.1980  0.7149 -0.1810
  295TIP3   OH2  848   5.343   5.084   3.166  0.4593 -0.0313  0.0691
  295TIP3    H1  849   5.365   5.005   3.216  0.2809 -0.3761 -0.3865
  295TIP3    H2  850   5.375   5.065   3.078 -3.2358 -1.3585 -1.1609
  296TIP3   OH2  851   2.351   4.495   1.784 -0.1843 -0.2655  0.1424
  296TIP3    H1  852   2.349   4.417   1.728  1.6103 -0.4762  0.3275
  296TIP3    H2  853   2.332   4.462   1.872  0.7460 -0.5314  0.2482
  297TIP3   OH2  854   5.981   2.431   0.449  0.0442  0.5244  0.6705
  297TIP3    H1  855   6.013   2.353   0.494 -1.7012  0.0367  1.1511
  297TIP3    H2  856   5.892   2.443   0.482 -0.4240  1.5910 -0.8603
  298TIP3   OH2  857   1.842   0.900   3.231 -0.1667  0.5304  0.8707
  298TIP3    H1  858   1.922   0.876   3.279 -0.3265  0.4315  1.0935
  298TIP3    H2  859   1.852   0.993   3.212  0.2951  0.3713  0.3255
  299TIP3   OH2  860   2.323   4.176   4.231  0.7453  0.1653 -0.1000
  299TIP3    H1  861   2.314   4.081   4.240  0.4238  0.1598 -0.4642
  299TIP3    H2  862   2.329   4.191   4.137 -2.0166  0.7474 -0.2450
  300TIP3   OH2  863   5.969   1.447   3.892  0.6405 -0.0630  0.5199
  300TIP3    H1  864   5.875   1.458   3.875  0.2785 -1.1269  1.7274
  300TIP3    H2  865   6.002   1.403   3.814  0.1679  0.4112  0.0393
  301TIP3   OH2  866   1.392   0.486   1.460  0.4192 -0.5981 -0.0693
  301TIP3    H1  867   1.434   0.519   1.380  1.3538 -1.7420 -0.0672
  301TIP3    H2  868   1.445   0.521   1.531 -0.1750  0.0835  0.0521
  302TIP3   OH2  869   1.791   1.287   2.223  0.1658  0.1601  0.2015
  302TIP3    H1  870   1.800   1.375   2.262 -0.4192  0.7672 -0.9864
  302TIP3    H2  871   1.697   1.271   2.221  0.3158 -0.9660  1.3801
  303TIP3   OH2  872   2.744   5.890   2.345  0.0999  0.4097 -0.1985
  303TIP3    H1  873   2.684   5.955   2.310 -0.9285 -1.1036 -1.3659
  303TIP3    H2  874   2.715   5.876   2.435 -0.9870  0.0687 -0.5884
  304TIP3   OH2  875   2.973   5.831   4.379 -0.0134  0.1875  0.5056
  304TIP3    H1  876   2.939   5.742   4.369  0.8193 -0.2044  1.1175
  304TIP3    H2  877   2.984   5.862   4.289 -0.5706 -0.2186  0.2887
  305TIP3   OH2  878   1.509   3.369   3.040  0.0675 -0.3308  0.3585
  305TIP3    H1  879   1.519   3.400   3.131  0.0947  1.1397 -0.1142
  305TIP3    H2  880   1.495   3.449   2.989 -3.1623 -1.3296 -0.5621
  306TIP3   OH2  881   6.490   1.647   0.309  0.4171  0.5425 -0.3251
  306TIP3    H1  882   6.562   1.675   0.366  0.9846  1.3050 -1.3771
  306TIP3    H2  883   6.534   1.602   0.237 -0.2849 -0.3872 -0.1897
  307TIP3   OH2  884   1.072   3.535   2.080  0.2713 -0.3666 -0.2575
  307TIP3    H1  885   1.088   3.602   2.013 -0.3185  1.9500  1.7847
  307TIP3    H2  886   0.978   3.517   2.074  0.1844 -0.0271  0.0309
  308TIP3   OH2  887   6.554   1.287   1.745  0.2104  0.5319 -0.5695
  308TIP3    H1  888   6.473   1.260   1.787  1.3133 -2.1278  0.0928
  308TIP3    H2  889   6.601   1.205   1.729  1.6565  1.7585 -3.3063
  309TIP3   OH2  890   2.759   5.303   0.413  0.1233 -0.0927  0.6178
  309TIP3    H1  891   2.685   5.243   0.406 -0.6830  1.0672 -3.2369
  309TIP3    H2  892   2.750   5.341   0.500 -2.2929 -1.8303  1.2566
  310TIP3   OH2  893   1.101   5.398   5.836  0.3176 -0.1345  0.2417
  310TIP3    H1  894   1.187   5.357   5.839  0.7560  0.7532  0.3118
  310TIP3    H2  895   1.119   5.489   5.810 -0.6174  0.0009  0.0208
  311TIP3   OH2  896   7.171   6.005   5.332  0.0479 -0.1647  0.3220
  311TIP3    H1  897   7.195   5.992   5.241  0.7863  2.1038  0.1254
  311TIP3    H2  898   7.253   5.996   5.380 -0.0710  0.0656  0.5758
  312TIP3   OH2  899   1.465   5.265   3.160 -0.7290 -0.2901 -0.7911
  312TIP3    H1  900   1.422   5.295   3.080 -0.9393  1.3204 -0.1041
  312TIP3    H2  901   1.412   5.301   3.231  0.4746 -0.1572  0.0686
  313TIP3   OH2  902   5.465   1.686   0.820  0.0678 -0.1490  0.3283
  313TIP3    H1  903   5.412   1.725   0.889 -1.1303  2.5717 -1.9365
  313TIP3    H2  904   5.556   1.704   0.847 -0.3232  0.0036  1.6186
  314TIP3   OH2  905   4.135   0.448   4.249 -0.1630  0.1154 -0.2121
  314TIP3    H1  906   4.095   0.456   4.162  0.6622 -0.3705 -0.6528
  314TIP3    H2  907   4.064   0.469   4.310 -0.0590  3.4578 -1.0174
  315TIP3   OH2  908   5.139   3.524   5.015  0.3090 -0.2105  0.3220
  315TIP3    H1  909   5.186   3.542   5.096 -1.0235  0.5378  0.9586
  315TIP3    H2  910   5.083   3.449   5.035 -1.9817  1.5631  0.9791
  316TIP3   OH2  911   4.987   5.596   5.372 -0.0951  0.5990 -0.0203
  316TIP3    H1  912   5.039   5.516   5.364 -0.9159 -0.1942  1.8298
  316TIP3    H2  913   4.922   5.589   5.303 -0.3016 -0.4738  0.2576
  317TIP3   OH2  914   4.815   6.126   4.221  0.1916 -0.7912  0.1474
  317TIP3    H1  915   4.756   6.131   4.296 -0.0873  3.5915 -0.1106
  317TIP3    H2  916   4.775   6.183   4.155  3.0450 -0.2833 -1.2976
  318TIP3   OH2  917   6.189   1.929   0.065 -0.3870  0.3614  0.3554
  318TIP3    H1  918   6.278   1.958   0.043  0.0387 -0.2600  1.1723
  318TIP3    H2  919   6.181   1.950   0.158 -0.8520 -0.1885  0.4404
  319TIP3   OH2  920   4.758   4.497   3.487 -0.1660 -0.4796 -0.1165
  319TIP3    H1  921   4.839   4.545   3.508 -0.8564  1.8495 -2.1737
  319TIP3    H2  922   4.783   4.438   3.416  0.2680 -1.8336  1.1197
  320TIP3   OH2  923   6.479   5.496   4.428 -0.5830 -0.4269  0.0323
  320TIP3    H1  924   6.449   5.547   4.502  1.3110  0.1896  0.4063
  320TIP3    H2  925   6.434   5.535   4.352  0.3120  1.3959  0.3887
  321TIP3   OH2  926   5.407   6.315   5.366 -0.1426 -0.3449 -0.2506
  321TIP3    H1  927   5.366   6.229   5.361 -0.6074 -0.0973 -0.8775
  321TIP3    H2  928   5.347   6.368   5.419  0.8448 -0.7781  1.3629
  322TIP3   OH2  929   3.190   0.896   5.511  0.7739 -0.0480  0.0759
  322TIP3    H1  930   3.275   0.920   5.549  1.1424 -1.0832 -0.0703
  322TIP3    H2  931   3.192   0.933   5.423  1.4279 -0.7828 -0.2293
  323TIP3   OH2  932   6.396   2.113   2.119  0.4939 -0.2319 -0.1166
  323TIP3    H1  933   6.374   2.034   2.169 -1.4197 -0.3815 -1.1180
  323TIP3    H2  934   6.422   2.080   2.032  0.4812  0.2050 -0.2900
  324TIP3   OH2  935   5.390   4.032   2.799 -0.1445  0.1151 -0.1921
  324TIP3    H1  936   5.445   4.106   2.772 -0.2065 -0.3187 -1.5691
  324TIP3    H2  937   5.307   4.072   2.823  0.6245  0.7451  1.5971
  325TIP3   OH2  938   3.788   6.031   3.855 -0.6986 -0.1844  0.1296
  325TIP3    H1  939   3.880   6.014   3.833 -0.7987  0.6738 -1.0512
  325TIP3    H2  940   3.787   6.038   3.950  0.1802 -1.7429  0.2791
  326TIP3   OH2  941   3.903   4.030   2.571  0.1220 -0.1746  0.5170
  326TIP3    H1  942   3.875   3.954   2.520  1.9010  0.4515 -1.5836
  326TIP3    H2  943   3.853   4.103   2.534  0.5706  0.1143  0.4718
  327TIP3   OH2  944   6.197   4.148   5.520  0.2157 -0.2078  0.0887
  327TIP3    H1  945   6.191   4.076   5.582  0.7300  0.1830  0.6087
  327TIP3    H2  946   6.133   4.212   5.551 -0.9167 -0.8174 -0.9124
  328TIP3   OH2  947   1.094   3.568   4.916  0.5585  0.0961  0.0957
  328TIP3    H1  948   1.040   3.552   4.838 -1.0057  2.0467  0.6841
  328TIP3    H2  949   1.032   3.564   4.989  1.2292  2.0759  0.8432
  329TIP3   OH2  950   5.901   0.353   3.810  0.4911 -0.4935  0.6824
  329TIP3    H1  951   5.926   0.445   3.815  0.5086 -0.3497 -1.3099
  329TIP3    H2  952   5.830   0.350   3.746  0.6412 -1.8764  0.5410
  330TIP3   OH2  953   5.626   3.715   5.790  0.3079  0.5960  0.4843
  330TIP3    H1  954   5.565   3.646   5.765  0.6029 -0.3117  2.1492
  330TIP3    H2  955   5.572   3.779   5.836  0.4108  0.2753  1.0716
  331TIP3   OH2  956   5.727   0.172   0.727  0.3481 -0.1919 -0.6866
  331TIP3    H1  957   5.756   0.127   0.647  1.7693  0.1394 -0.3808
  331TIP3    H2  958   5.632   0.168   0.723  0.4117 -1.8973 -1.4211
  332TIP3   OH2  959   3.629   2.186   4.539  0.1051 -0.6510 -0.0755
  332TIP3    H1  960   3.578   2.213   4.463  0.4249 -0.4106 -0.2092
  332TIP3    H2  961   3.580   2.219   4.614  0.6372  0.5976 -0.2451
  333TIP3   OH2  962   5.882   0.385   3.409  0.4538  0.3513 -0.4682
  333TIP3    H1  963   5.962   0.357   3.453  1.2556 -0.4398 -2.3460
  333TIP3    H2  964   5.899   0.476   3.385  0.7020  0.2618 -0.6396
  334TIP3   OH2  965   7.018   2.821   1.862  0.3883  0.1158  0.0807
  334TIP3    H1  966   6.969   2.831   1.944 -0.7589  0.9617 -0.6834
  334TIP3    H2  967   7.081   2.751   1.880 -2.1727 -2.2102  0.5824
  335TIP3   OH2  968   7.151   1.625   5.140 -0.3359 -0.0056 -0.6696
  335TIP3    H1  969   7.099   1.629   5.220  1.3208 -0.6483  0.4884
  335TIP3    H2  970   7.171   1.532   5.129  4.5395  0.4190  1.7429
  336TIP3   OH2  971   4.474   5.077   3.396  0.1192  0.0306  0.2248
  336TIP3    H1  972   4.560   5.042   3.418 -0.2824 -2.1143 -1.3203
  336TIP3    H2  973   4.462   5.055   3.303 -1.3241  1.9754 -0.1289
  337TIP3   OH2  974   5.313   6.094   5.450  0.6064  0.1517  0.2080
  337TIP3    H1  975   5.357   6.039   5.514 -0.4116 -0.5872  0.2941
  337TIP3    H2  976   5.230   6.049   5.432  0.6215  0.6196 -1.2063
  338TIP3   OH2  977   5.398   1.130   0.373 -0.6693  0.4435  0.7098
  338TIP3    H1  978   5.362   1.183   0.302 -2.1613 -1.9470 -0.4471
  338TIP3    H2  979   5.322   1.106   0.426  0.0205 -0.2030  1.4343
  339TIP3   OH2  980   2.193   4.405   0.173 -0.1338  0.6787 -0.2361
  339TIP3    H1  981   2.196   4.501   0.178  0.2298  0.6635 -0.1451
  339TIP3    H2  982   2.161   4.378   0.259 -0.3970  0.7275 -0.3195
  340TIP3   OH2  983   1.143   5.113   1.250  0.4170 -0.9997 -0.1395
  340TIP3    H1  984   1.154   5.036   1.194  1.5182  0.2874 -1.8287
  340TIP3    H2  985   1.209   5.175   1.218 -0.0926  0.4657  1.4882
  341TIP3   OH2  986   6.016   1.757   0.983  0.4328 -0.3494 -0.2308
  341TIP3    H1  987   6.048   1.792   0.900 -1.9855  1.5959 -0.4533
  341TIP3    H2  988   5.998   1.834   1.037 -2.4412 -1.3034  0.3395
  342TIP3   OH2  989   3.481   3.142   0.674 -0.1416 -0.1034  0.0313
  342TIP3    H1  990   3.485   3.200   0.750 -1.9324  2.2923 -1.5448
  342TIP3    H2  991   3.548   3.176   0.614 -0.3447 -0.4651 -0.4065
  343TIP3   OH2  992   5.589   5.157   0.789  0.1624 -0.2189  0.2184
  343TIP3    H1  993   5.520   5.109   0.742  2.1600 -0.6089 -2.5609
  343TIP3    H2  994   5.545   5.191   0.867 -3.5511  0.6308 -1.9575
  344TIP3   OH2  995   3.043   6.345   0.873 -0.7132 -0.2843  0.3339
  344TIP3    H1  996   3.093   6.269   0.844 -2.2987 -0.9779 -0.7053
  344TIP3    H2  997   3.061   6.351   0.967  1.3851 -0.4027 -0.0196
  345TIP3   OH2  998   3.103   3.500   0.088  0.1490  0.2702 -0.0479
  345TIP3    H1  999   3.178   3.442   0.077 -0.0569  0.1465 -0.8272
  345TIP3    H2 1000   3.103   3.521   0.182 -0.4771 -1.9613  0.5252
  346TIP3   OH2 1001   6.046   3.109   0.629  0.4625  0.3462  0.3192
  346TIP3    H1 1002   6.139   3.087   0.628  0.4573  0.3211 -1.0355
  346TIP3    H2 1003   6.003   3.027   0.603 -0.0846 -0.1428  2.5385
  347TIP3   OH2 1004   2.797   4.859   5.240 -0.0909 -0.1316  0.1375
  347TIP3    H1 1005   2.804   4.928   5.173  1.6223 -1.0555 -0.7011
  347TIP3    H2 1006   2.716   4.880   5.287 -0.6259  1.3459 -1.3216
  348TIP3   OH2 1007   6.160   4.973   3.727  0.1000  0.5433  0.0856
  348TIP3    H1 1008   6.172   5.009   3.639  2.1993  0.6863  0.3718
  348TIP3    H2 1009   6.151   5.050   3.783  1.1043  0.5512  0.2593
  349TIP3   OH2 1010   4.863   5.311   3.490  0.1803  0.7267 -0.2231
  349TIP3    H1 1011   4.820   5.381   3.441  1.0460  1.6647  0.3023
  349TIP3    H2 1012   4.957   5.332   3.485  0.3900  0.0701  0.6398
  350TIP3   OH2 1013   1.395   6.438   4.657 -0.0726 -0.3275 -0.7797
  350TIP3    H1 1014   1.309   6.399   4.668 -0.3826  0.4854 -0.1961
  350TIP3    H2 1015   1.451   6.366   4.626 -1.3437 -0.4297 -2.9909
  351TIP3   OH2 1016   3.947   3.730   1.209  0.3007  0.7239 -0.1726
  351TIP3    H1 1017   3.854   3.751   1.202  0.5433  2.0730  0.3336
  351TIP3    H2 1018   3.950   3.636   1.226 -0.9811  0.7220  0.0807
  352TIP3   OH2 1019   1.107   0.365   3.201  0.2075 -0.6862  0.8048
  352TIP3    H1 1020   1.121   0.434   3.266 -2.6618 -0.7792  1.6598
  352TIP3    H2 1021   1.165   0.294   3.228  3.4444  1.3541 -0.2533
  353TIP3   OH2 1022   6.252   4.838   0.060 -0.2609 -0.1170  0.1201
  353TIP3    H1 1023   6.165   4.801   0.041 -0.4778  0.4677 -0.0591
  353TIP3    H2 1024   6.251   4.924   0.018 -0.7622  1.2521  2.6761
  354TIP3   OH2 1025   2.289   3.582   2.963 -0.2657 -0.1387  0.1933
  354TIP3    H1 1026   2.276   3.488   2.953 -1.1529  0.1557 -1.8841
  354TIP3    H2 1027   2.225   3.622   2.905  0.1485  1.7684  0.9631
  355TIP3   OH2 1028   0.510   6.222   3.734 -0.1977  0.2529  0.4335
  355TIP3    H1 1029   0.486   6.274   3.657 -1.8606 -0.3273  0.5170
  355TIP3    H2 1030   0.475   6.135   3.716 -1.9586  0.4668  2.4593
  356TIP3   OH2 1031   2.439   1.430   0.507  0.1886  0.2048 -0.1512
  356TIP3    H1 1032   2.469   1.435   0.416 -1.7727  2.1405 -0.7945
  356TIP3    H2 1033   2.387   1.510   0.519 -0.8357 -0.7271  2.2258
  357TIP3   OH2 1034   4.439   4.615   3.091 -0.0961  0.7389 -0.3345
  357TIP3    H1 1035   4.450   4.611   3.186  0.7154 -0.1636 -0.4496
  357TIP3    H2 1036   4.504   4.679   3.062 -0.1442  0.8009 -0.3051
  358TIP3   OH2 1037   5.530   1.533   1.426 -0.0195 -0.3808  0.3134
  358TIP3    H1 1038   5.583   1.566   1.354 -0.6039 -0.2769 -0.0739
  358TIP3    H2 1039   5.553   1.441   1.433  0.6043 -0.2174  0.5039
  359TIP3   OH2 1040   1.546   4.214   0.677  0.5253  0.1751  0.2243
  359TIP3    H1 1041   1.572   4.129   0.642 -3.5962 -0.9478 -0.6047
  359TIP3    H2 1042   1.547   4.201   0.772  2.7642  0.2642  0.2738
  360TIP3   OH2 1043   0.750   2.521   3.370  0.3033 -0.0123 -0.3529
  360TIP3    H1 1044   0.762   2.555   3.459  2.6362  1.4958 -1.1429
  360TIP3    H2 1045   0.770   2.428   3.377  1.1557  0.2228  0.6044
  361TIP3   OH2 1046   6.994   2.194   1.808  0.1907 -0.4100  0.1377
  361TIP3    H1 1047   6.971   2.277   1.766 -0.5074  0.4377  2.0316
  361TIP3    H2 1048   6.923   2.134   1.784 -1.5486  0.7701  1.9455
  362TIP3   OH2 1049   2.342   2.416   4.174  0.2805 -0.4042 -0.1666
  362TIP3    H1 1050   2.346   2.355   4.101 -0.4914 -1.3816  0.5793
  362TIP3    H2 1051   2.347   2.360   4.252 -1.3988  0.3786  0.5536
  363TIP3   OH2 1052   6.645   1.877   3.781  0.1584  0.2076 -0.0992
  363TIP3    H1 1053   6.562   1.881   3.734  0.4665 -0.0111 -0.6746
  363TIP3    H2 1054   6.633   1.935   3.857 -0.8067 -0.4813  0.2941
  364TIP3   OH2 1055   2.551   6.289   5.059  0.4802  0.4312 -0.4509
  364TIP3    H1 1056   2.611   6.361   5.036 -0.3141  0.3913 -2.9587
  364TIP3    H2 1057   2.566   6.274   5.152  2.1118  2.5053 -0.3057
  365TIP3   OH2 1058   3.187   2.535   2.881  0.2816 -0.5298  0.2569
  365TIP3    H1 1059   3.172   2.629   2.871 -0.2321 -0.3765  2.0627
  365TIP3    H2 1060   3.255   2.529   2.948  0.2732 -1.4566  0.1904
  366TIP3   OH2 1061   2.011   3.788   4.120 -0.4105 -0.1975 -0.5817
  366TIP3    H1 1062   2.028   3.714   4.062 -1.6781 -0.5792 -0.4993
  366TIP3    H2 1063   2.083   3.786   4.183 -1.1450 -2.2514  0.2827
  367TIP3   OH2 1064   5.220   5.664   4.700  0.4051  0.1069 -0.0015
  367TIP3    H1 1065   5.231   5.726   4.628 -0.5546 -0.1655 -0.4014
  367TIP3    H2 1066   5.300   5.612   4.699 -0.1952 -0.8594 -1.8339
  368TIP3   OH2 1067   5.246   2.390   4.474  0.3908 -0.1618  1.0533
  368TIP3    H1 1068   5.251   2.316   4.535 -2.0332 -1.1249  0.2288
  368TIP3    H2 1069   5.229   2.349   4.389 -0.5797  1.3015  0.5048
  369TIP3   OH2 1070   4.171   6.197   2.471 -0.5759 -0.4801  0.2665
  369TIP3    H1 1071   4.251   6.152   2.500  0.3482  0.5589 -0.5520
  369TIP3    H2 1072   4.110   6.188   2.544  1.0978  0.6675  1.9025
  370TIP3   OH2 1073   2.607   2.522   2.974  0.2093 -0.1992 -0.4737
  370TIP3    H1 1074   2.611   2.589   3.042  0.1516  0.6299 -1.2660
  370TIP3    H2 1075   2.585   2.441   3.021  0.0876  0.3716  0.4747
  371TIP3   OH2 1076   1.382   4.539   3.145 -0.5455  0.2825  0.2281
  371TIP3    H1 1077   1.400   4.454   3.104 -2.5719 -0.0009 -0.1945
  371TIP3    H2 1078   1.468   4.582   3.150  0.5527 -1.8107  0.5515
  372TIP3   OH2 1079   6.469   0.431   2.636 -0.9070 -0.0540 -0.1582
  372TIP3    H1 1080   6.436   0.376   2.707  0.1941 -1.1662 -0.4578
  372TIP3    H2 1081   6.450   0.381   2.557 -0.0315  0.0554 -0.4509
  373TIP3   OH2 1082   0.921   4.647   2.227  0.6431  0.0799  0.1934
  373TIP3    H1 1083   0.932   4.555   2.204 -0.5713 -0.2911  0.9825
  373TIP3    H2 1084   0.864   4.645   2.305 -0.6999  1.5413 -0.6978
  374TIP3   OH2 1085   1.605   4.039   3.921 -0.1024 -0.1971 -0.2233
  374TIP3    H1 1086   1.643   3.954   3.944 -1.5232 -0.4359  1.4219
  374TIP3    H2 1087   1.659   4.103   3.968 -0.8775 -0.4399  1.0393
  375TIP3   OH2 1088   4.283   2.420   5.344  0.2083 -0.2871 -0.2299
  375TIP3    H1 1089   4.273   2.473   5.265 -0.4786  0.3956  0.3033
  375TIP3    H2 1090   4.197   2.423   5.386  1.1747  1.3471  1.7771
  376TIP3   OH2 1091   1.725   1.447   4.758  0.1999  0.0113  0.3267
  376TIP3    H1 1092   1.663   1.440   4.830 -1.6983  1.7213 -1.0044
  376TIP3    H2 1093   1.726   1.360   4.718 -1.6748  0.0134  0.1809
  377TIP3   OH2 1094   2.070   4.694   0.437  0.4517  0.2422 -0.1393
  377TIP3    H1 1095   2.132   4.699   0.364  0.5340 -0.5588 -0.1387
  377TIP3    H2 1096   1.986   4.676   0.396  0.9927 -3.7088  0.0287
  378TIP3   OH2 1097   6.253   5.079   3.492  0.2549 -0.3071 -0.6875
  378TIP3    H1 1098   6.215   5.164   3.513 -1.3117 -0.9685 -0.6412
  378TIP3    H2 1099   6.232   5.066   3.399  1.1448 -0.3250 -0.8943
  379TIP3   OH2 1100   2.108   2.726   2.176  0.1486  0.1411  1.0593
  379TIP3    H1 1101   2.014   2.744   2.164  0.2851  0.1484 -0.0694
  379TIP3    H2 1102   2.114   2.631   2.169  0.2339  0.1440  1.1008
  380TIP3   OH2 1103   6.587   5.716   5.823  0.4274 -0.4014  0.6518
  380TIP3    H1 1104   6.646   5.759   5.885 -1.1950 -0.6510  2.4602
  380TIP3    H2 1105   6.601   5.622   5.839  2.0222 -0.5776 -1.4044
  381TIP3   OH2 1106   2.745   3.744   4.048 -0.0378 -0.2940 -0.4170
  381TIP3    H1 1107   2.750   3.651   4.068 -1.3687 -0.7106 -1.8259
  381TIP3    H2 1108   2.826   3.764   4.002  0.7284 -0.4887  0.8030
  382TIP3   OH2 1109   2.519   3.072   1.363 -0.0600  0.0590  0.5179
  382TIP3    H1 1110   2.573   2.999   1.332 -1.3165 -0.9275  0.5662
  382TIP3    H2 1111   2.501   3.123   1.284 -0.7077 -0.7322  0.1398
  383TIP3   OH2 1112   6.310   2.338   0.584 -0.8033 -0.0561 -0.0075
  383TIP3    H1 1113   6.324   2.372   0.496  1.7459 -0.6442  0.0878
  383TIP3    H2 1114   6.341   2.408   0.642  1.2463 -1.0888  0.2588
  384TIP3   OH2 1115   5.131   3.792   0.421 -0.6315 -0.1936  0.1642
  384TIP3    H1 1116   5.070   3.821   0.353 -0.6970 -1.0111 -0.1440
  384TIP3    H2 1117   5.168   3.873   0.457 -0.8548  0.2636 -0.6088
  385TIP3   OH2 1118   5.536   5.967   2.236  0.0433 -0.3077  0.0587
  385TIP3    H1 1119   5.514   6.041   2.181 -0.2169 -0.1384  0.3869
  385TIP3    H2 1120   5.631   5.975   2.251 -0.2997  1.2041  1.8544
  386TIP3   OH2 1121   0.424   0.681   3.883  0.1256 -0.0983 -0.2700
  386TIP3    H1 1122   0.516   0.703   3.897  0.0254 -0.7099  1.5620
  386TIP3    H2 1123   0.422   0.585   3.876 -0.1211  0.0057 -2.7308
  387TIP3   OH2 1124   5.315   5.267   1.968  0.3113 -0.7485  0.1047
  387TIP3    H1 1125   5.229   5.225   1.965  1.0427 -2.3295  0.7224
  387TIP3    H2 1126   5.306   5.341   1.908 -0.9431 -1.9152 -1.2377
  388TIP3   OH2 1127   6.957   5.263   1.605  0.4792  0.2050  0.2200
  388TIP3    H1 1128   7.014   5.215   1.665  1.2010 -0.9110 -1.2795
  388TIP3    H2 1129   7.008   5.270   1.524 -0.7283  1.0208 -0.4987
  389TIP3   OH2 1130   2.110   4.418   2.530 -0.0603  0.1090 -0.6327
  389TIP3    H1 1131   2.104   4.355   2.459 -0.5837 -0.1562 -0.3657
  389TIP3    H2 1132   2.057   4.492   2.501 -0.1342  0.0717 -0.5937
  390TIP3   OH2 1133   4.428   4.964   1.214 -0.1127  0.1478  0.0414
  390TIP3    H1 1134   4.400   4.877   1.241  2.2249 -0.3338  1.2077
  390TIP3    H2 1135   4.447   4.956   1.120  2.0193 -1.2290  0.5326
  391TIP3   OH2 1136   5.254   5.056   4.753  0.2733  0.1171  0.2392
  391TIP3    H1 1137   5.275   5.145   4.779  0.4341 -0.1240  0.9393
  391TIP3    H2 1138   5.192   5.066   4.680  1.4876  0.8125 -0.7290
  392TIP3   OH2 1139   5.028   5.988   1.736 -1.0403  0.1502 -0.7391
  392TIP3    H1 1140   4.938   5.998   1.707 -1.5690 -0.1617  0.6992
  392TIP3    H2 1141   5.029   5.905   1.783 -0.4523  0.9845  0.7936
  393TIP3   OH2 1142   1.533   6.506   0.616 -0.3483 -0.1230  0.0076
  393TIP3    H1 1143   1.473   6.531   0.547  0.6771  2.1767 -0.1425
  393TIP3    H2 1144   1.477   6.482   0.690 -1.4909 -3.3179 -1.7088
  394TIP3   OH2 1145   6.023   1.945   1.214  0.3222  0.0500  0.0932
  394TIP3    H1 1146   6.073   2.014   1.259 -0.0301 -0.1282  0.7736
  394TIP3    H2 1147   6.046   1.865   1.261  0.6188 -0.2822 -0.6031
  395TIP3   OH2 1148   4.913   4.567   1.666 -0.2479  0.1318  0.1285
  395TIP3    H1 1149   4.960   4.509   1.606 -1.2638 -0.4836 -0.0895
  395TIP3    H2 1150   4.958   4.555   1.750  1.7632  1.6743 -0.6483
  396TIP3   OH2 1151   4.819   0.255   5.266 -0.1986  0.5205 -0.1341
  396TIP3    H1 1152   4.866   0.246   5.183  1.6373 -3.9007  1.0955
  396TIP3    H2 1153   4.889   0.267   5.331 -1.2014 -0.5939  1.2015
  397TIP3   OH2 1154   7.007   3.856   3.679  0.1450  0.0326  0.4432
  397TIP3    H1 1155   6.912   3.865   3.691  0.1021 -1.0871  0.9921
  397TIP3    H2 1156   7.039   3.946   3.681 -0.6694  0.3371  2.3056
  398TIP3   OH2 1157   1.583   1.153   1.499 -0.1508  0.3839 -0.5037
  398TIP3    H1 1158   1.633   1.230   1.473  0.3108  0.3346  0.2139
  398TIP3    H2 1159   1.548   1.118   1.417  2.3897 -0.5695 -1.2576
  399TIP3   OH2 1160   6.414   2.729   1.146  0.0721 -0.5908 -0.0424
  399TIP3    H1 1161   6.453   2.767   1.067  1.9771  0.3730  1.2730
  399TIP3    H2 1162   6.408   2.802   1.207 -0.7511 -1.4531  0.9412
  400TIP3   OH2 1163   2.520   3.261   2.903  0.3029 -0.4583  0.1000
  400TIP3    H1 1164   2.442   3.240   2.853  0.4461 -2.5081  0.6481
  400TIP3    H2 1165   2.568   3.178   2.908  0.9816  0.0101  2.3899
  401TIP3   OH2 1166   4.673   3.115   1.414  0.3507  0.0749 -0.2413
  401TIP3    H1 1167   4.763   3.096   1.441  0.2470 -1.3008 -0.7926
  401TIP3    H2 1168   4.619   3.064   1.475 -0.0424  0.5385 -0.1998
  402TIP3   OH2 1169   0.784   3.019   5.851 -0.1554  0.0401 -0.3343
  402TIP3    H1 1170   0.792   2.924   5.857 -1.2983 -0.0552 -0.0368
  402TIP3    H2 1171   0.866   3.053   5.887 -0.5996 -0.8051  1.5952
  403TIP3   OH2 1172   5.473   0.344   3.176  0.0401 -0.1558 -0.0333
  403TIP3    H1 1173   5.395   0.291   3.188  0.2530 -0.4831 -0.0837
  403TIP3    H2 1174   5.485   0.389   3.260 -0.0648 -0.2865  0.0512
  404TIP3   OH2 1175   5.373   5.418   1.305 -0.2335  0.4689 -0.0530
  404TIP3    H1 1176   5.450   5.457   1.263 -0.1899  1.3453  0.7951
  404TIP3    H2 1177   5.333   5.490   1.353 -0.3427 -0.4474  1.2904
  405TIP3   OH2 1178   0.927   1.798   1.999  0.0091 -0.1478  0.0863
  405TIP3    H1 1179   0.944   1.756   2.083 -0.5761  0.0898  0.3330
  405TIP3    H2 1180   0.967   1.741   1.934  0.5184 -0.3001  0.5345
  406TIP3   OH2 1181   2.874   5.397   3.451  0.4584 -0.2730 -0.4426
  406TIP3    H1 1182   2.806   5.442   3.501  2.3580  0.0496  2.0402
  406TIP3    H2 1183   2.908   5.463   3.391  1.3439  0.8816  1.2383
  407TIP3   OH2 1184   2.374   6.335   0.029 -0.4881  0.5625  0.3077
  407TIP3    H1 1185   2.457   6.351  -0.017 -0.8373  1.9168  0.1354
  407TIP3    H2 1186   2.382   6.384   0.110 -1.4746  1.4599 -0.1173
  408TIP3   OH2 1187   0.712   4.860   3.681  0.5708  0.4116 -0.2084
  408TIP3    H1 1188   0.731   4.950   3.653 -0.6021  1.0391  0.9146
  408TIP3    H2 1189   0.693   4.814   3.599 -2.0838  2.0289 -0.6517
  409TIP3   OH2 1190   3.242   5.622   1.052 -0.0166  0.4255 -0.1836
  409TIP3    H1 1191   3.169   5.671   1.089  1.3780  0.3008  3.0199
  409TIP3    H2 1192   3.273   5.567   1.124  2.3808 -0.5537 -1.8445
  410TIP3   OH2 1193   6.129   0.617   1.571 -0.2743 -0.1929 -0.2021
  410TIP3    H1 1194   6.130   0.687   1.506 -0.3443 -0.3051 -0.3244
  410TIP3    H2 1195   6.039   0.587   1.573  0.0071 -1.1172 -1.0541
  411TIP3   OH2 1196   0.414   4.326   4.620 -0.3385  0.0253 -0.5308
  411TIP3    H1 1197   0.370   4.377   4.688  0.1882 -0.7393  0.4100
  411TIP3    H2 1198   0.368   4.242   4.620  1.8116 -1.2856  1.3803
  412TIP3   OH2 1199   1.514   4.923   3.670 -0.1443  0.7283  0.3541
  412TIP3    H1 1200   1.470   4.989   3.724  0.2797  2.0622 -0.8421
  412TIP3    H2 1201   1.574   4.974   3.615  0.4528 -0.7084 -0.3862
  413TIP3   OH2 1202   6.644   2.687   0.057  0.0313  0.3831  0.0621
  413TIP3    H1 1203   6.629   2.761   0.115  0.2354  0.4277  0.0574
  413TIP3    H2 1204   6.732   2.701   0.022 -0.3531  0.7316 -0.8049
  414TIP3   OH2 1205   6.284   5.628   0.043 -0.1340 -0.0124  0.0155
  414TIP3    H1 1206   6.379   5.632   0.027 -0.6329  0.7318 -3.6643
  414TIP3    H2 1207   6.265   5.535   0.052  0.7491 -0.3083 -0.9648
  415TIP3   OH2 1208   6.480   0.126   0.050  0.0224 -0.0369  0.1477
  415TIP3    H1 1209   6.397   0.175   0.050  0.3541  0.5393  0.2514
  415TIP3    H2 1210   6.454   0.035   0.067 -0.4634  0.3643  1.7889
  416TIP3   OH2 1211   2.625   1.070   1.977 -0.1323 -0.5760  0.0480
  416TIP3    H1 1212   2.604   1.088   1.886  0.2724 -0.7872 -0.0895
  416TIP3    H2 1213   2.586   1.143   2.026  0.5615  0.1017 -0.3946
  417TIP3   OH2 1214   4.068   5.978   1.174 -0.0508 -0.1605 -0.2283
  417TIP3    H1 1215   4.152   5.954   1.215  0.8979 -0.0508 -1.9863
  417TIP3    H2 1216   4.024   6.032   1.239  1.8888  0.9568  0.2566
  418TIP3   OH2 1217   6.556   6.673   2.849  0.7786 -0.1974  0.3303
  418TIP3    H1 1218   6.620   6.602   2.850 -0.7252 -1.6388 -0.0652
  418TIP3    H2 1219   6.592   6.737   2.788  2.2195 -0.5729  0.7590
  419TIP3   OH2 1220   0.532   4.065   2.056 -0.0696  0.2065 -0.2055
  419TIP3    H1 1221   0.486   4.055   1.972 -0.7410  2.3889 -0.1686
  419TIP3    H2 1222   0.517   4.156   2.080  0.9761 -0.1053  1.8097
  420TIP3   OH2 1223   3.558   4.212   3.290 -0.0143 -0.1257  0.4282
  420TIP3    H1 1224   3.564   4.292   3.341  1.7930  0.4772 -0.6458
  420TIP3    H2 1225   3.649   4.188   3.272 -0.5616 -1.4131 -0.7988
  421TIP3   OH2 1226   0.399   5.848   2.805 -0.4518 -0.1247  0.3531
  421TIP3    H1 1227   0.441   5.763   2.793  0.6059  0.3656  0.4833
  421TIP3    H2 1228   0.442   5.886   2.882 -0.4975  0.7797 -0.0570
  422TIP3   OH2 1229   4.117   1.703   3.358  0.2849 -0.1952 -0.1423
  422TIP3    H1 1230   4.060   1.779   3.342  2.1357  1.2920 -0.0735
  422TIP3    H2 1231   4.138   1.707   3.451 -0.8507 -1.7771  0.2264
  423TIP3   OH2 1232   4.695   3.128   2.021 -0.3368  0.2255  0.4096
  423TIP3    H1 1233   4.646   3.195   1.972  1.7209  1.7751  0.3135
  423TIP3    H2 1234   4.724   3.066   1.954 -0.8581  0.1653  0.2401
  424TIP3   OH2 1235   2.395   5.306   0.952 -0.3911 -0.5536 -0.2449
  424TIP3    H1 1236   2.445   5.387   0.967 -0.7982 -0.6080  1.6668
  424TIP3    H2 1237   2.304   5.330   0.968 -0.4254 -1.5586  1.3504
  425TIP3   OH2 1238   4.263   0.945   3.804 -0.4857 -0.5189 -0.0265
  425TIP3    H1 1239   4.339   0.889   3.819 -0.4306 -0.9026 -1.6030
  425TIP3    H2 1240   4.273   1.017   3.866  0.9013 -0.8160  0.1143
  426TIP3   OH2 1241   2.947   5.734   0.093 -0.1065 -0.0907 -0.4246
  426TIP3    H1 1242   2.947   5.830   0.092  1.6391 -0.0356  0.8254
  426TIP3    H2 1243   3.027   5.710   0.139 -1.4345 -2.1506  1.0262
  427TIP3   OH2 1244   5.135   4.034   2.902 -0.1415 -0.3128  0.4980
  427TIP3    H1 1245   5.068   4.018   2.836  0.7016 -0.0816 -0.4347
  427TIP3    H2 1246   5.114   4.119   2.939 -0.2856 -0.1806  0.1099
  428TIP3   OH2 1247   1.443   3.843   0.649 -0.0042 -0.0608  0.1178
  428TIP3    H1 1248   1.414   3.755   0.673 -1.3767  0.1542 -0.6239
  428TIP3    H2 1249   1.525   3.856   0.696 -1.2924 -0.5734  2.6932
  429TIP3   OH2 1250   1.091   2.367   0.787 -0.7478 -0.3288  0.7618
  429TIP3    H1 1251   0.996   2.375   0.796 -0.5195  1.6291  2.0574
  429TIP3    H2 1252   1.119   2.322   0.866 -0.5705 -0.7322  0.4714
  430TIP3   OH2 1253   1.114   4.206   1.561 -0.6356  0.0522  0.2757
  430TIP3    H1 1254   1.051   4.152   1.513 -0.1709 -0.4281  0.1920
  430TIP3    H2 1255   1.105   4.177   1.653  0.6430 -1.2607  0.0411
  431TIP3   OH2 1256   7.122   5.012   3.669 -0.5295  0.0314  0.7361
  431TIP3    H1 1257   7.090   4.933   3.713 -1.4272  0.1905  0.3812
  431TIP3    H2 1258   7.101   5.083   3.729  1.6860 -0.1175  1.7886
  432TIP3   OH2 1259   2.124   3.421   4.895 -0.6455  0.2100  0.3367
  432TIP3    H1 1260   2.074   3.422   4.977 -0.8656 -1.4174  0.2589
  432TIP3    H2 1261   2.063   3.454   4.829 -0.9403  0.1760  0.5905
  433TIP3   OH2 1262   5.581   0.325   0.041  0.1330 -0.6676  0.3379
  433TIP3    H1 1263   5.590   0.403  -0.013 -1.9078 -0.8626 -0.3624
  433TIP3    H2 1264   5.545   0.357   0.124 -0.3377 -0.8124  0.1913
  434TIP3   OH2 1265   4.315   1.008   4.280  0.1170  0.2715  0.1828
  434TIP3    H1 1266   4.393   1.010   4.335 -0.5549  1.1461  1.1375
  434TIP3    H2 1267   4.248   1.054   4.331 -1.0218 -0.4347 -0.6234
  435TIP3   OH2 1268   5.134   6.105   3.107 -0.1888  0.7527  0.1905
  435TIP3    H1 1269   5.206   6.167   3.097 -0.9071  1.7942  1.3471
  435TIP3    H2 1270   5.066   6.153   3.152 -0.9706 -0.7331  0.6667
  436TIP3   OH2 1271   3.781   5.786   1.726  0.0795 -0.8476 -0.0822
  436TIP3    H1 1272   3.850   5.721   1.714  1.1017  0.1707  0.1454
  436TIP3    H2 1273   3.798   5.824   1.812 -0.5425 -0.3173 -0.1849
  437TIP3   OH2 1274   0.468   4.383   2.923  0.5167  0.0736 -0.1332
  437TIP3    H1 1275   0.413   4.319   2.879 -0.0654 -0.9259  1.9021
  437TIP3    H2 1276   0.416   4.463   2.925 -0.2078 -0.4030  0.3526
  438TIP3   OH2 1277   0.079   3.538   4.530  0.2656 -0.0484 -0.4628
  438TIP3    H1 1278   0.127   3.585   4.462  1.1025  0.0717  0.1948
  438TIP3    H2 1279   0.012   3.600   4.560  1.8579  1.0891  0.9472
  439TIP3   OH2 1280   5.785   4.866   4.105  0.0489 -0.3087  0.2465
  439TIP3    H1 1281   5.809   4.824   4.188 -2.6981 -0.8073  0.8831
  439TIP3    H2 1282   5.791   4.796   4.040  1.2457 -0.1600  0.1781
  440TIP3   OH2 1283   2.832   3.263   0.572 -0.0016 -0.7207 -0.1355
  440TIP3    H1 1284   2.906   3.272   0.633 -0.2544  1.7323 -0.0897
  440TIP3    H2 1285   2.796   3.176   0.591  1.7186 -1.2184  1.1443
  441TIP3   OH2 1286   4.958   3.132   1.162 -0.3971  0.4376  0.2864
  441TIP3    H1 1287   4.976   3.050   1.208 -0.6067  1.4491  2.2852
  441TIP3    H2 1288   5.044   3.162   1.131 -0.0292  0.3931  1.2287
  442TIP3   OH2 1289   3.250   2.126   4.752 -0.0416 -0.5475 -0.5820
  442TIP3    H1 1290   3.268   2.035   4.772  0.4666 -0.6540 -1.4584
  442TIP3    H2 1291   3.336   2.168   4.747 -0.3205  0.3264  1.2572
  443TIP3   OH2 1292   6.553   2.783   1.753 -0.4906  0.0947 -0.3147
  443TIP3    H1 1293   6.457   2.785   1.752 -0.5137  0.6602  1.0502
  443TIP3    H2 1294   6.575   2.733   1.831  0.3208  0.6407 -0.1858
  444TIP3   OH2 1295   1.369   3.565   3.572  0.0874  0.7694 -0.7730
  444TIP3    H1 1296   1.274   3.553   3.571  0.2002 -0.2370 -0.6594
  444TIP3    H2 1297   1.391   3.572   3.665  0.3094 -0.7587 -0.6890
  445TIP3   OH2 1298   4.879   1.573   0.324 -0.2129  0.2020 -0.0299
  445TIP3    H1 1299   4.904   1.638   0.390 -0.6539 -1.6487  2.0942
  445TIP3    H2 1300   4.942   1.502   0.335 -0.8056 -0.5028 -1.0346
  446TIP3   OH2 1301   5.554   3.946   3.534 -0.6086  0.0461  0.2174
  446TIP3    H1 1302   5.511   3.921   3.452 -0.0918  2.3742 -0.8463
  446TIP3    H2 1303   5.581   4.037   3.520  0.5661  0.1265  2.5517
  447TIP3   OH2 1304   5.928   5.734   2.078  1.0720 -0.0009  0.3699
  447TIP3    H1 1305   5.861   5.764   2.016  1.5428 -0.8971 -0.6125
  447TIP3    H2 1306   5.881   5.676   2.137  0.7489  0.3055  0.4171
  448TIP3   OH2 1307   1.277   4.389   5.445 -0.6384 -0.3865 -0.1268
  448TIP3    H1 1308   1.229   4.366   5.525  1.7083 -0.8609  1.2506
  448TIP3    H2 1309   1.223   4.455   5.402 -1.0868  1.3974  2.9160
  449TIP3   OH2 1310   5.489   3.702   5.163 -0.4415  0.4678 -0.3397
  449TIP3    H1 1311   5.413   3.743   5.121 -0.7757 -0.3558 -0.5583
  449TIP3    H2 1312   5.477   3.721   5.256 -0.8009  0.5227 -0.3959
  450TIP3   OH2 1313   6.178   1.099   3.469 -0.3371 -0.0201  0.3977
  450TIP3    H1 1314   6.236   1.053   3.530 -0.2902 -0.4407  0.0334
  450TIP3    H2 1315   6.141   1.031   3.414 -1.9717  0.1252  1.2818
  451TIP3   OH2 1316   6.082   6.536   1.462 -0.0521 -0.3634 -0.1585
  451TIP3    H1 1317   6.112   6.625   1.448 -2.0081  0.4691  0.5855
  451TIP3    H2 1318   6.016   6.522   1.394 -1.3519 -0.4038  1.0708
  452TIP3   OH2 1319   6.311   3.035   4.761 -0.9023  0.0121 -0.1431
  452TIP3    H1 1320   6.297   2.955   4.711 -0.7846 -0.5246  0.6764
  452TIP3    H2 1321   6.261   3.102   4.713  2.3009  0.4722 -3.2899
  453TIP3   OH2 1322   0.163   4.312   5.839 -0.0390  0.0270 -0.2897
  453TIP3    H1 1323   0.209   4.394   5.860 -0.9743  1.4442 -3.2353
  453TIP3    H2 1324   0.207   4.279   5.761 -0.5603 -1.5878  0.0598
  454TIP3   OH2 1325   3.108   2.740   2.168 -0.0259 -0.4759 -0.1833
  454TIP3    H1 1326   3.079   2.673   2.230  0.3620  0.6791  1.3066
  454TIP3    H2 1327   3.176   2.789   2.216 -0.3365  1.0128 -1.1975
  455TIP3   OH2 1328   1.624   2.006   5.189  0.6717 -0.8707  0.5197
  455TIP3    H1 1329   1.584   1.929   5.230 -2.2401  0.1986 -0.1098
  455TIP3    H2 1330   1.654   2.059   5.263 -0.6227 -0.9441  1.1225
  456TIP3   OH2 1331   0.984   1.153   1.587 -0.2080 -0.2637  0.2161
  456TIP3    H1 1332   1.065   1.117   1.624 -1.0076 -3.6058 -1.0167
  456TIP3    H2 1333   0.914   1.115   1.640 -1.1526 -1.4481 -1.8199
  457TIP3   OH2 1334   2.264   0.802   4.610  0.4826  0.2104  0.1019
  457TIP3    H1 1335   2.213   0.867   4.657  3.5014  2.0206  1.1477
  457TIP3    H2 1336   2.226   0.801   4.522 -1.2369  1.4649  0.7783
  458TIP3   OH2 1337   6.766   1.212   2.397  0.1516  0.1762 -0.1904
  458TIP3    H1 1338   6.674   1.187   2.408  0.2039 -0.3139 -0.8045
  458TIP3    H2 1339   6.769   1.252   2.310  0.9674 -2.0467 -1.2530
  459TIP3   OH2 1340   5.696   0.769   5.480 -0.1095 -0.0743  0.0006
  459TIP3    H1 1341   5.722   0.782   5.389  0.2070  0.1349  0.1185
  459TIP3    H2 1342   5.722   0.679   5.500  0.3533  0.0694  0.0575
  460TIP3   OH2 1343   6.751   0.709   1.569 -0.3100  0.0359  0.0556
  460TIP3    H1 1344   6.715   0.632   1.614  0.5922 -0.2751  0.2667
  460TIP3    H2 1345   6.830   0.731   1.619 -0.8159  1.4046  0.2967
  461TIP3   OH2 1346   0.390   5.565   4.650 -0.1824 -1.0164 -0.3319
  461TIP3    H1 1347   0.323   5.568   4.582  0.2159 -1.5823 -0.7567
  461TIP3    H2 1348   0.343   5.534   4.728 -0.6604 -0.2741 -0.3093
  462TIP3   OH2 1349   3.239   1.201   3.741 -0.4220  0.3639 -0.5054
  462TIP3    H1 1350   3.294   1.197   3.820 -0.6467 -1.1072 -0.3819
  462TIP3    H2 1351   3.149   1.204   3.774 -0.4910  0.4041 -0.6945
  463TIP3   OH2 1352   3.193   5.799   0.278 -0.5114  0.6932  0.0149
  463TIP3    H1 1353   3.180   5.710   0.310  2.3818 -0.4487 -1.6846
  463TIP3    H2 1354   3.207   5.851   0.358  2.7838 -1.3694  0.9819
  464TIP3   OH2 1355   1.582   5.685   4.825 -0.0126  0.1635  0.0084
  464TIP3    H1 1356   1.674   5.661   4.816 -0.0287 -0.6584  1.5537
  464TIP3    H2 1357   1.549   5.626   4.893 -2.3510 -1.3545 -2.2442
  465TIP3   OH2 1358   1.350  -0.019   1.330 -0.1042  0.3783  0.1231
  465TIP3    H1 1359   1.323   0.072   1.317 -2.2178 -0.3130 -0.8547
  465TIP3    H2 1360   1.420  -0.033   1.268  2.8566  2.2599  2.7238
  466TIP3   OH2 1361   5.573   0.019   4.331 -0.3504 -0.0470 -0.6962
  466TIP3    H1 1362   5.664   0.023   4.304 -0.0171  0.0341  0.4113
  466TIP3    H2 1363   5.561   0.095   4.388 -0.4415 -1.3541  1.1122
  467TIP3   OH2 1364   2.385   1.458   3.797  0.1246 -0.1713 -0.4976
  467TIP3    H1 1365   2.463   1.487   3.749 -0.8584  2.0817 -0.8215
  467TIP3    H2 1366   2.392   1.502   3.882 -0.9423  0.2822 -0.6411
  468TIP3   OH2 1367   0.912   5.072   4.852 -0.2979  0.2767 -0.1530
  468TIP3    H1 1368   0.828   5.046   4.887 -0.0659 -1.1044 -0.5878
  468TIP3    H2 1369   0.975   5.014   4.895  0.3831  0.9277 -0.2442
  469TIP3   OH2 1370   3.107   3.171   0.408 -0.7014 -0.1956  0.6756
  469TIP3    H1 1371   3.195   3.165   0.445 -0.6742  0.8561  0.8253
  469TIP3    H2 1372   3.061   3.094   0.442  0.5797 -1.5978 -0.6526
  470TIP3   OH2 1373   5.058   1.558   1.738  0.5272  0.1477 -0.3242
  470TIP3    H1 1374   5.116   1.631   1.715 -0.3463  1.1043  0.3887
  470TIP3    H2 1375   5.010   1.540   1.657  0.2855  0.8241 -0.3444
  471TIP3   OH2 1376   3.283   5.031   2.530 -0.0627  0.1515  0.9416
  471TIP3    H1 1377   3.188   5.017   2.522  0.3117 -2.9921  0.9305
  471TIP3    H2 1378   3.316   5.019   2.441  0.3413  1.9223  0.8146
  472TIP3   OH2 1379   4.119   3.886   3.103  0.1601  0.3559 -0.2232
  472TIP3    H1 1380   4.082   3.904   3.017 -1.9177  1.0445  0.7427
  472TIP3    H2 1381   4.166   3.803   3.092 -0.3540  0.2454 -1.9229
  473TIP3   OH2 1382   2.339   3.884   5.775  0.6264 -0.0585 -0.2630
  473TIP3    H1 1383   2.288   3.963   5.757  0.8646 -0.1127 -1.2786
  473TIP3    H2 1384   2.274   3.813   5.777  0.5893 -0.0604 -1.0679
  474TIP3   OH2 1385   5.474   3.663   5.442  0.0280 -0.6764  0.1629
  474TIP3    H1 1386   5.434   3.577   5.426 -2.6192  0.6500 -0.9053
  474TIP3    H2 1387   5.431   3.695   5.521  0.8252 -0.2373  0.4241
  475TIP3   OH2 1388   3.029   3.421   4.241 -0.0773  0.4034 -0.3407
  475TIP3    H1 1389   3.048   3.440   4.149 -2.4902  0.8478 -0.8090
  475TIP3    H2 1390   3.071   3.492   4.289 -0.0807  1.0279 -1.2308
  476TIP3   OH2 1391   5.138   3.555   5.385  0.1517 -0.4848 -0.6689
  476TIP3    H1 1392   5.221   3.516   5.359  0.5309 -1.7532  2.1345
  476TIP3    H2 1393   5.080   3.480   5.399 -0.5093  0.2132  0.4223
  477TIP3   OH2 1394   5.082   2.371   1.993  0.0376  0.5587  0.1839
  477TIP3    H1 1395   5.157   2.422   2.024  1.3068 -0.8172 -0.4668
  477TIP3    H2 1396   5.028   2.434   1.945  0.9070  1.5316  0.4524
  478TIP3   OH2 1397   6.376   4.619   0.754  0.2273 -0.4310  0.5683
  478TIP3    H1 1398   6.419   4.536   0.730  1.0090 -0.4879  2.0272
  478TIP3    H2 1399   6.289   4.592   0.784 -0.5016 -0.4237 -1.4200
  479TIP3   OH2 1400   1.521   6.157   5.525  0.0646 -0.3279 -0.2956
  479TIP3    H1 1401   1.452   6.170   5.590  0.1693  1.4385 -0.4846
  479TIP3    H2 1402   1.532   6.243   5.485  0.6679 -1.1500 -2.0010
  480TIP3   OH2 1403   0.382   3.132   2.446 -0.6027  0.3700 -0.1435
  480TIP3    H1 1404   0.475   3.124   2.423 -0.4704  2.0583 -0.2992
  480TIP3    H2 1405   0.382   3.169   2.534 -1.1407  0.5878 -0.2358
  481TIP3   OH2 1406   1.294   2.094   2.881 -0.5100 -0.8272 -0.3757
  481TIP3    H1 1407   1.252   2.145   2.951  1.4871  2.1141 -1.1391
  481TIP3    H2 1408   1.270   2.140   2.801 -0.6258 -2.6166 -1.4188
  482TIP3   OH2 1409   1.305   1.988   4.308 -0.2136  0.4589  0.3192
  482TIP3    H1 1410   1.212   1.994   4.284 -0.8319 -0.7505  2.2015
  482TIP3    H2 1411   1.305   1.941   4.392  2.1429  0.0025  0.1234
  483TIP3   OH2 1412   5.837   4.571   2.219 -0.5292 -0.4916  0.1325
  483TIP3    H1 1413   5.746   4.550   2.199 -0.1516 -1.7866 -0.3639
  483TIP3    H2 1414   5.887   4.522   2.154  0.5222  0.2872  0.3335
  484TIP3   OH2 1415   3.793   4.845   4.368  0.8390  0.3105  0.5952
  484TIP3    H1 1416   3.777   4.778   4.302 -0.3985 -0.0534  1.2364
  484TIP3    H2 1417   3.796   4.927   4.318 -0.3754  0.0732  0.1039
  485TIP3   OH2 1418   4.610   5.321   1.691 -0.2354 -0.1138 -0.0845
  485TIP3    H1 1419   4.608   5.288   1.781  1.3378  0.4224  0.1880
  485TIP3    H2 1420   4.664   5.257   1.644  1.1795  0.9553  0.0017
  486TIP3   OH2 1421   6.142   5.819   5.612 -0.0119 -0.0283  0.3545
  486TIP3    H1 1422   6.133   5.909   5.581 -0.6078 -0.1043  0.2902
  486TIP3    H2 1423   6.220   5.820   5.667 -0.5448  0.7359  1.1237
  487TIP3   OH2 1424   0.766   2.916   5.578  0.2312 -0.9760  0.2543
  487TIP3    H1 1425   0.855   2.932   5.547  1.0388 -3.2972  1.1370
  487TIP3    H2 1426   0.735   3.001   5.608  1.9822 -0.0326 -0.4907
  488TIP3   OH2 1427   4.638   3.929   1.329 -0.7186  0.2329 -0.8718
  488TIP3    H1 1428   4.722   3.892   1.302  0.6843  1.4296  1.5149
  488TIP3    H2 1429   4.645   4.022   1.311 -1.8647  0.2421 -1.3637
  489TIP3   OH2 1430   4.900   5.123   2.344 -0.0471 -0.1179 -0.3475
  489TIP3    H1 1431   4.989   5.156   2.329 -0.1826  0.8268  0.7924
  489TIP3    H2 1432   4.873   5.163   2.426 -1.0898 -1.3496 -0.0540
  490TIP3   OH2 1433   0.635   5.102   3.515  0.1818 -0.1194 -0.2030
  490TIP3    H1 1434   0.585   5.184   3.519  1.1853  0.5533 -0.9937
  490TIP3    H2 1435   0.691   5.112   3.438  1.0967 -1.1122  0.3122
  491TIP3   OH2 1436   6.224   4.838   2.507 -0.2986  0.0541 -0.1396
  491TIP3    H1 1437   6.146   4.892   2.494  0.6003  1.5524  0.5061
  491TIP3    H2 1438   6.296   4.900   2.518  0.5703 -1.2242  2.1180
  492TIP3   OH2 1439   4.753   3.567   2.830  0.1170  0.1376 -0.0357
  492TIP3    H1 1440   4.780   3.646   2.782  1.4714 -0.1842  0.1517
  492TIP3    H2 1441   4.658   3.571   2.830  0.1486  1.6698 -0.2041
  493TIP3   OH2 1442   2.601   2.654   0.214  0.1912  0.1116 -0.3868
  493TIP3    H1 1443   2.526   2.704   0.245 -0.4904 -0.7737 -0.5754
  493TIP3    H2 1444   2.602   2.575   0.268  2.3229  1.0829  1.1405
  494TIP3   OH2 1445   5.801   5.930   2.292 -0.0176  0.1597  0.3938
  494TIP3    H1 1446   5.803   5.910   2.386  0.5608 -1.0017  0.1527
  494TIP3    H2 1447   5.890   5.909   2.262 -0.0547  1.0140 -0.3194
  495TIP3   OH2 1448   1.788   0.529   1.554  0.4002  0.1956 -0.1738
  495TIP3    H1 1449   1.774   0.515   1.461 -0.8686  0.6988 -0.0704
  495TIP3    H2 1450   1.883   0.543   1.562  0.6365 -0.6748 -1.2560
  496TIP3   OH2 1451   6.327   6.013   1.437 -0.0237 -0.1403  0.3940
  496TIP3    H1 1452   6.409   6.014   1.486  0.3291 -0.2478 -0.1802
  496TIP3    H2 1453   6.277   6.087   1.470 -0.4659 -1.1165  2.0334
  497TIP3   OH2 1454   0.968   2.101   3.030  0.5083  0.0327 -0.1581
  497TIP3    H1 1455   1.029   2.171   3.008 -0.0687  1.1553  1.6135
  497TIP3    H2 1456   0.891   2.146   3.064 -0.5329 -1.4226 -0.5100
  498TIP3   OH2 1457   6.640   5.864   1.172 -0.1089  0.0941  0.2498
  498TIP3    H1 1458   6.623   5.950   1.134 -2.5738 -0.6110 -0.3890
  498TIP3    H2 1459   6.678   5.883   1.258 -0.7038  1.8143  0.1667
  499TIP3   OH2 1460   1.034   5.433   2.201  0.2590 -0.1070  0.2235
  499TIP3    H1 1461   1.039   5.338   2.209 -1.5891 -0.1226  2.1344
  499TIP3    H2 1462   1.095   5.466   2.267  0.5539  0.0419 -0.1200
  500TIP3   OH2 1463   0.166   0.564   4.069 -0.1110 -0.5095 -0.2542
  500TIP3    H1 1464   0.247   0.532   4.109 -1.1683 -1.3541  1.3260
  500TIP3    H2 1465   0.178   0.549   3.975  1.0312 -1.8707  0.0765
  501TIP3   OH2 1466   5.188   5.078   2.829  0.2317  0.2962  0.1670
  501TIP3    H1 1467   5.125   5.076   2.757 -0.1940 -0.7373  0.5485
  501TIP3    H2 1468   5.175   4.995   2.875  1.8391  0.0838  0.2897
  502TIP3   OH2 1469   1.565   1.384   4.943  0.0886 -0.0139  0.0107
  502TIP3    H1 1470   1.557   1.448   5.014 -0.2638  1.5653 -1.3733
  502TIP3    H2 1471   1.504   1.314   4.965 -0.1531  0.5412  1.1543
  503TIP3   OH2 1472   6.668   5.691   2.373 -0.4074 -0.0612  0.0781
  503TIP3    H1 1473   6.685   5.775   2.414  0.6194  0.1895 -0.8009
  503TIP3    H2 1474   6.745   5.638   2.395  0.5116  0.3121 -2.0596
  504TIP3   OH2 1475   1.630   0.307   1.870 -0.2939  0.0966 -0.4478
  504TIP3    H1 1476   1.604   0.323   1.961 -0.9329  1.1325 -0.7956
  504TIP3    H2 1477   1.611   0.214   1.856 -1.1681  0.1721  0.1711
  505TIP3   OH2 1478   2.185   4.142   5.693  0.3464 -0.6877 -0.0143
  505TIP3    H1 1479   2.143   4.221   5.659  0.3788 -0.3858  0.6313
  505TIP3    H2 1480   2.242   4.174   5.763  0.3582 -1.2829  0.2509
  506TIP3   OH2 1481   4.843   1.828   0.240  0.4399 -0.1513 -0.0941
  506TIP3    H1 1482   4.809   1.747   0.278  0.1717 -0.5732 -1.1954
  506TIP3    H2 1483   4.799   1.835   0.156  0.7813  0.9263 -0.1918
  507TIP3   OH2 1484   5.909   5.344   4.242 -0.2190  0.0245 -0.4386
  507TIP3    H1 1485   5.940   5.262   4.204 -0.5667 -0.7868  0.9591
  507TIP3    H2 1486   5.955   5.412   4.193  0.8606 -1.0294 -0.9403
  508TIP3   OH2 1487   2.621   0.151   1.699 -0.1918  0.3668  0.3209
  508TIP3    H1 1488   2.550   0.095   1.669  0.4073 -0.1868 -0.0705
  508TIP3    H2 1489   2.633   0.128   1.791  1.4367 -1.6719 -0.3401
  509TIP3   OH2 1490   1.576   4.031   3.079  0.1627 -0.1034  0.5285
  509TIP3    H1 1491   1.597   4.124   3.090  1.2557 -0.3782  0.8793
  509TIP3    H2 1492   1.658   3.991   3.050 -0.2377 -0.9921  0.5824
  510TIP3   OH2 1493   7.160   4.114   0.501  0.6418 -0.1849  0.6051
  510TIP3    H1 1494   7.189   4.050   0.435 -0.9678 -0.1931 -0.1461
  510TIP3    H2 1495   7.229   4.180   0.502  0.9857 -0.4940 -0.6554
  511TIP3   OH2 1496   4.968   2.140   2.571 -0.6297  0.4338  0.0543
  511TIP3    H1 1497   4.991   2.104   2.657 -0.6543  2.1715  0.8516
  511TIP3    H2 1498   4.879   2.108   2.555  0.1356 -1.6205 -0.3418
  512TIP3   OH2 1499   1.522   5.044   5.347  0.7299  0.4859  0.3939
  512TIP3    H1 1500   1.464   5.120   5.347 -0.9586 -0.7267 -0.3383
  512TIP3    H2 1501   1.512   5.005   5.434 -0.6766 -0.4797 -0.1634
  513TIP3   OH2 1502   4.122   2.400   0.384  0.3474  0.1607  0.1666
  513TIP3    H1 1503   4.123   2.460   0.309  0.9116 -1.3498 -1.0856
  513TIP3    H2 1504   4.193   2.431   0.440 -0.0630  1.2980  0.0756
  514TIP3   OH2 1505   4.551   4.393   5.424 -0.3465 -0.2326  0.3221
  514TIP3    H1 1506   4.500   4.331   5.476  2.4485 -2.9467  0.1022
  514TIP3    H2 1507   4.548   4.358   5.335  1.0737  0.0674  0.1341
  515TIP3   OH2 1508   4.181   5.235   1.336 -0.2119 -0.0852 -0.3432
  515TIP3    H1 1509   4.176   5.329   1.325 -0.7895 -0.1466 -0.6135
  515TIP3    H2 1510   4.267   5.220   1.377 -0.1046  0.5463 -0.3343
  516TIP3   OH2 1511   3.278   3.084   1.578 -0.5392  0.2219 -0.1372
  516TIP3    H1 1512   3.351   3.083   1.639  0.2971  1.4781 -1.0849
  516TIP3    H2 1513   3.205   3.122   1.628  0.8777  3.9294 -0.6403
  517TIP3   OH2 1514   6.456   5.938   3.398 -0.1746 -0.1295  0.3308
  517TIP3    H1 1515   6.451   5.979   3.312  1.4522  0.6424  0.5654
  517TIP3    H2 1516   6.479   5.847   3.379  1.6038  0.3629 -0.0349
  518TIP3   OH2 1517   4.349   3.013   3.624  0.4944 -0.0957 -0.2540
  518TIP3    H1 1518   4.375   2.944   3.564  1.2872  0.7351 -0.9045
  518TIP3    H2 1519   4.253   3.015   3.619  0.5136 -0.5281 -0.9317
  519TIP3   OH2 1520   3.015   3.932   1.832  0.1965  0.1136  0.0166
  519TIP3    H1 1521   3.091   3.904   1.780 -0.1998  0.6647 -0.8836
  519TIP3    H2 1522   3.053   3.990   1.899  0.5488  0.6206 -0.6054
  520TIP3   OH2 1523   7.045   2.062   2.334  0.4530 -0.3330  0.2045
  520TIP3    H1 1524   7.052   2.106   2.249 -0.3095  2.1404  1.3161
  520TIP3    H2 1525   7.039   1.969   2.313  0.2164  0.2034 -2.4375
  521TIP3   OH2 1526   2.233   6.100   2.681 -0.2444  0.1689 -0.5432
  521TIP3    H1 1527   2.324   6.081   2.657  0.6420 -0.8545  3.0107
  521TIP3    H2 1528   2.182   6.073   2.606  2.2433 -1.2336 -1.8543
  522TIP3   OH2 1529   4.369   5.129   3.651  0.1863 -0.0552  0.0541
  522TIP3    H1 1530   4.396   5.156   3.563 -0.4685 -1.3183 -0.5699
  522TIP3    H2 1531   4.395   5.037   3.656  0.2629  0.0258  1.2032
  523TIP3   OH2 1532   3.132   5.139   5.400  0.2153  0.2541  0.0223
  523TIP3    H1 1533   3.208   5.127   5.344  1.0869 -0.0972  1.2387
  523TIP3    H2 1534   3.162   5.197   5.469 -1.2943  1.9828 -0.6848
  524TIP3   OH2 1535   6.901   1.758   5.753 -0.3325  0.5769 -0.2941
  524TIP3    H1 1536   6.838   1.731   5.686  0.7322 -0.1008 -1.0473
  524TIP3    H2 1537   6.969   1.805   5.704  1.1363 -1.0519  0.0906
  525TIP3   OH2 1538   7.121   6.363   5.071  0.1438  0.0129  0.0027
  525TIP3    H1 1539   7.104   6.285   5.019 -0.1297  0.0569  0.0233
  525TIP3    H2 1540   7.084   6.343   5.157  0.6793 -0.0966  0.2113
  526TIP3   OH2 1541   6.675   5.838   4.251 -0.3038 -0.3768  0.1986
  526TIP3    H1 1542   6.738   5.772   4.279  2.4847  1.6128 -0.9301
  526TIP3    H2 1543   6.608   5.839   4.319 -0.5172 -4.2716  0.2524
  527TIP3   OH2 1544   3.682   1.903   1.221 -0.4505  0.4138 -0.0848
  527TIP3    H1 1545   3.759   1.915   1.165 -0.8011  1.8921 -0.2712
  527TIP3    H2 1546   3.713   1.923   1.309 -0.1352 -1.0004  0.1535
  528TIP3   OH2 1547   1.133   1.582   3.110 -0.0114  0.2258  0.2646
  528TIP3    H1 1548   1.093   1.592   3.024 -0.1861 -1.7470  0.0719
  528TIP3    H2 1549   1.227   1.582   3.093 -0.0563 -0.7636 -0.0198
  529TIP3   OH2 1550   4.192   0.940   2.129  0.0172 -0.1559  0.2684
  529TIP3    H1 1551   4.141   0.899   2.199 -1.7464  1.1013 -0.2171
  529TIP3    H2 1552   4.177   1.034   2.140  2.0686  0.2568 -0.0529
  530TIP3   OH2 1553   3.094   6.322   1.674  0.6132  0.2622 -0.4137
  530TIP3    H1 1554   3.180   6.299   1.639 -0.0799 -1.5481 -1.0458
  530TIP3    H2 1555   3.038   6.333   1.597 -0.7050 -2.8654 -0.0865
  531TIP3   OH2 1556   6.192   5.793   3.370  0.4795 -0.0300  0.1609
  531TIP3    H1 1557   6.251   5.761   3.302  1.6962  1.6206  0.3805
  531TIP3    H2 1558   6.219   5.747   3.449 -0.8222 -1.8234 -0.3821
  532TIP3   OH2 1559   2.068   0.504   1.551  0.1670  0.2012 -0.0752
  532TIP3    H1 1560   2.145   0.546   1.587 -0.3814  0.8824  0.3348
  532TIP3    H2 1561   2.051   0.430   1.609 -0.0379  0.6089  0.3858
  533TIP3   OH2 1562   1.232   2.063   5.212  0.0939  0.1026  0.5655
  533TIP3    H1 1563   1.291   2.063   5.288  0.1991 -2.4522  0.5632
  533TIP3    H2 1564   1.248   1.979   5.169 -0.5538  1.1223 -1.8697
  534TIP3   OH2 1565   6.389   1.416   3.858  0.3496  0.2550  0.4935
  534TIP3    H1 1566   6.333   1.488   3.885 -0.9618  0.5917 -2.6880
  534TIP3    H2 1567   6.469   1.457   3.826  0.3848  0.1540  0.4489
  535TIP3   OH2 1568   7.096   2.160   3.134 -0.2109  0.1116  0.3237
  535TIP3    H1 1569   7.088   2.238   3.079  2.5095  0.9487  0.9393
  535TIP3    H2 1570   7.189   2.137   3.129 -0.2441 -0.9357  3.0022
  536TIP3   OH2 1571   4.726   2.939   0.035  0.2192  0.2738 -0.2216
  536TIP3    H1 1572   4.770   3.023   0.048  0.6945 -0.1930  1.4440
  536TIP3    H2 1573   4.797   2.874   0.037 -0.4990 -0.6381  3.9962
  537TIP3   OH2 1574   5.269   5.306   2.964  0.7166 -0.7347  0.1316
  537TIP3    H1 1575   5.235   5.244   2.899  2.5843 -1.5280 -0.1796
  537TIP3    H2 1576   5.260   5.261   3.048  0.7138 -0.8196  0.0858
  538TIP3   OH2 1577   3.595   5.347   1.286  0.1907  0.6368  0.1508
  538TIP3    H1 1578   3.665   5.360   1.221 -0.9164  0.0550 -1.2171
  538TIP3    H2 1579   3.526   5.407   1.258  0.1152  1.2055  1.4884
  539TIP3   OH2 1580   2.908   0.666   2.456  0.6046 -0.0219 -0.2328
  539TIP3    H1 1581   2.830   0.713   2.484  0.2448 -0.7122 -0.0476
  539TIP3    H2 1582   2.909   0.675   2.360  0.5135  0.3193 -0.2008
  540TIP3   OH2 1583   4.458   2.955   0.586 -0.5355  0.1923 -0.5487
  540TIP3    H1 1584   4.377   2.908   0.608  0.4074 -1.5437 -0.5632
  540TIP3    H2 1585   4.462   3.027   0.649 -0.6047 -1.4998  1.5075
  541TIP3   OH2 1586   0.455   2.479   4.421  0.0817  0.5036 -0.2650
  541TIP3    H1 1587   0.486   2.445   4.504  0.1905 -0.1540 -0.5646
  541TIP3    H2 1588   0.361   2.494   4.434  0.0262  0.0573 -0.1307
  542TIP3   OH2 1589   7.198   4.597   2.407 -0.5737 -0.2598 -0.2657
  542TIP3    H1 1590   7.198   4.632   2.496 -0.2619  4.2674 -1.7921
  542TIP3    H2 1591   7.112   4.558   2.397 -0.8281 -0.3766  1.8147
  543TIP3   OH2 1592   5.760   6.521   2.670 -0.0000  0.4621 -0.3826
  543TIP3    H1 1593   5.852   6.501   2.684 -0.1780 -2.7839 -2.7206
  543TIP3    H2 1594   5.719   6.512   2.756  1.5591 -0.1448  0.3224
  544TIP3   OH2 1595   5.012   0.993   0.965 -0.2259  0.2269 -0.4466
  544TIP3    H1 1596   5.044   0.950   1.045 -0.3242  0.7430 -0.1282
  544TIP3    H2 1597   4.947   1.056   0.995  0.0790  0.7623 -0.8883
  545TIP3   OH2 1598   5.546   1.862   0.413 -0.8531 -0.5224 -0.2299
  545TIP3    H1 1599   5.508   1.783   0.451  0.3660 -0.8082  0.4672
  545TIP3    H2 1600   5.507   1.934   0.463 -1.8189 -0.6789 -0.7362
  546TIP3   OH2 1601   5.556   0.058   2.046 -0.1225 -0.1755  0.6524
  546TIP3    H1 1602   5.639   0.103   2.027 -0.9594  1.3869  0.5694
  546TIP3    H2 1603   5.504   0.069   1.966 -1.4142  1.2343  1.6394
  547TIP3   OH2 1604   4.468   2.429   1.426 -0.3202  0.0591 -0.6647
  547TIP3    H1 1605   4.386   2.471   1.398 -0.0158  1.0938 -0.0620
  547TIP3    H2 1606   4.512   2.496   1.478  1.4887 -0.0148 -1.9926
  548TIP3   OH2 1607   2.677   4.819   2.470  0.4299  0.1069 -0.6348
  548TIP3    H1 1608   2.694   4.903   2.427  0.5700  0.6331  0.4284
  548TIP3    H2 1609   2.720   4.826   2.555  2.2744 -1.8516 -1.3234
  549TIP3   OH2 1610   7.057   1.028   0.633 -0.0333  0.5041  0.5292
  549TIP3    H1 1611   6.964   1.007   0.639  0.5326 -2.2611  0.9134
  549TIP3    H2 1612   7.078   1.017   0.541  0.2511 -0.6375  0.7196
  550TIP3   OH2 1613   5.556   3.022   1.468 -0.2011 -0.3862 -0.0950
  550TIP3    H1 1614   5.610   3.005   1.546  0.5714 -1.3567 -0.8186
  550TIP3    H2 1615   5.620   3.038   1.398 -0.8442 -1.4399 -0.9471
  551TIP3   OH2 1616   0.719   6.157   0.602 -0.3803 -0.0428  0.3049
  551TIP3    H1 1617   0.747   6.238   0.559  1.3615 -0.7690 -0.0163
  551TIP3    H2 1618   0.624   6.165   0.609 -0.2604  2.0242  0.2941
  552TIP3   OH2 1619   1.130   4.779   3.774 -0.2700 -0.5129 -0.1038
  552TIP3    H1 1620   1.135   4.791   3.869 -0.2449  0.4561 -0.2169
  552TIP3    H2 1621   1.165   4.691   3.759  2.5197  0.3989  0.5286
  553TIP3   OH2 1622   4.667   4.920   4.832  0.0004 -0.3780  0.2019
  553TIP3    H1 1623   4.592   4.948   4.885 -0.5823  0.8364 -1.1950
  553TIP3    H2 1624   4.739   4.977   4.861  0.6924 -2.1182  2.1549
  554TIP3   OH2 1625   6.714   6.048   2.193 -0.1762 -0.0705  0.1065
  554TIP3    H1 1626   6.673   6.130   2.221  0.0502 -0.5593  1.9823
  554TIP3    H2 1627   6.640   5.987   2.183 -0.2769  0.1604 -0.5838
  555TIP3   OH2 1628   1.098   6.527   3.569  0.0014  0.1954 -0.0500
  555TIP3    H1 1629   1.117   6.509   3.661 -1.5380  0.2208  0.2920
  555TIP3    H2 1630   1.097   6.441   3.528 -0.5648  0.0714  0.2170
  556TIP3   OH2 1631   6.241   6.027   2.667  0.0150  0.0859 -0.0990
  556TIP3    H1 1632   6.187   5.950   2.684  1.1719 -0.5509  0.8576
  556TIP3    H2 1633   6.179   6.099   2.659 -0.9385 -0.4372  2.0329
  557TIP3   OH2 1634   0.390   4.778   0.117  0.1478  0.8874  0.4512
  557TIP3    H1 1635   0.318   4.770   0.179  0.3680  0.4505  0.6502
  557TIP3    H2 1636   0.451   4.709   0.141 -1.1464 -1.3692 -2.1419
  558TIP3   OH2 1637   0.669   3.646   3.186  0.2573 -0.4573 -0.0520
  558TIP3    H1 1638   0.736   3.708   3.159 -0.4980  0.0201 -0.8602
  558TIP3    H2 1639   0.688   3.567   3.136  0.7007 -0.6070  0.3393
  559TIP3   OH2 1640   3.955   4.176   3.724 -0.4132  0.1067  0.0318
  559TIP3    H1 1641   3.893   4.117   3.682  0.4428 -1.1652  0.4691
  559TIP3    H2 1642   4.041   4.145   3.694  0.1454  0.0731  1.5439
  560TIP3   OH2 1643   0.868   4.514   2.884 -0.1820 -0.1040  0.3542
  560TIP3    H1 1644   0.957   4.541   2.907 -0.6658  1.9792  0.0547
  560TIP3    H2 1645   0.853   4.551   2.797 -1.4685 -0.0628  0.5671
  561TIP3   OH2 1646   4.894   3.184   4.376  0.0268 -0.2087 -0.3840
  561TIP3    H1 1647   4.821   3.234   4.413 -1.1078 -2.5030  0.6876
  561TIP3    H2 1648   4.882   3.190   4.281 -1.0621  0.1421 -0.2374
  562TIP3   OH2 1649   4.956   6.669   1.588  0.1097 -0.6892  0.7056
  562TIP3    H1 1650   5.034   6.705   1.546 -1.1051 -0.9583 -2.0057
  562TIP3    H2 1651   4.912   6.745   1.626  0.0531 -0.0032 -0.6641
  563TIP3   OH2 1652   1.127   1.489   1.335  0.1118  0.2083  0.5028
  563TIP3    H1 1653   1.053   1.550   1.337  0.9872  1.2922  2.1786
  563TIP3    H2 1654   1.137   1.461   1.426  1.6262 -0.0912  0.2609
  564TIP3   OH2 1655   3.060   3.255   1.680  0.0570  0.0209  0.4267
  564TIP3    H1 1656   3.025   3.279   1.594  0.8914 -0.2259  0.0057
  564TIP3    H2 1657   3.001   3.187   1.713  0.3477 -0.6627 -0.4343
  565TIP3   OH2 1658   4.043   4.644   0.817  0.9747  0.1830 -0.0108
  565TIP3    H1 1659   4.082   4.708   0.878 -0.6549 -0.0372  1.3243
  565TIP3    H2 1660   4.079   4.560   0.845  0.5491  0.1322  0.3940
  566TIP3   OH2 1661   4.831   2.621   1.189 -0.2991  0.3412  0.4511
  566TIP3    H1 1662   4.878   2.696   1.151  0.3600  0.0063  0.5932
  566TIP3    H2 1663   4.825   2.558   1.117 -1.0555  0.6090  0.2654
  567TIP3   OH2 1664   6.116   0.675   4.068 -0.5034  0.4558  0.4704
  567TIP3    H1 1665   6.161   0.593   4.085  1.3225  0.5495 -3.0392
  567TIP3    H2 1666   6.026   0.660   4.099  0.1324 -2.2874  1.2744
  568TIP3   OH2 1667   3.743   6.697   0.681  0.2312  0.8880 -0.3789
  568TIP3    H1 1668   3.749   6.627   0.617  1.8268  1.0442 -0.4328
  568TIP3    H2 1669   3.766   6.656   0.765  0.3170  1.1531 -0.2688
  569TIP3   OH2 1670   2.236   2.292   0.009 -0.4978  0.2327 -0.4375
  569TIP3    H1 1671   2.233   2.201   0.036 -2.8669  0.1863 -0.6496
  569TIP3    H2 1672   2.268   2.339   0.086  0.3961 -0.7136 -0.2130
  570TIP3   OH2 1673   5.489   0.848   5.622  0.3051 -0.1235 -0.1789
  570TIP3    H1 1674   5.551   0.798   5.569 -0.6973  0.7769 -2.3318
  570TIP3    H2 1675   5.544   0.910   5.670  1.3690 -1.9293  1.0111
  571TIP3   OH2 1676   3.044   6.779   5.444  0.2157  0.1403 -0.4214
  571TIP3    H1 1677   3.056   6.690   5.475  0.2973 -0.2597 -1.5391
  571TIP3    H2 1678   3.049   6.833   5.522 -0.3413 -0.8762  0.3436
  572TIP3   OH2 1679   1.791   6.198   4.051 -0.3904  0.5052 -0.4469
  572TIP3    H1 1680   1.804   6.103   4.061  2.4100  0.9387  1.0501
  572TIP3    H2 1681   1.708   6.215   4.095 -1.2202 -1.2961 -1.2060
  573TIP3   OH2 1682   3.406   3.998   0.383  0.1266  0.8319 -0.3445
  573TIP3    H1 1683   3.349   3.924   0.406  0.2535  0.9384  0.3150
  573TIP3    H2 1684   3.388   4.064   0.449  2.0020  0.3500  0.7282
  574TIP3   OH2 1685   4.549   4.603   4.425  0.0135  0.1475 -0.8225
  574TIP3    H1 1686   4.470   4.657   4.437  0.1282  0.3035 -0.7687
  574TIP3    H2 1687   4.591   4.603   4.511 -0.2061 -0.3789 -0.7082
  575TIP3   OH2 1688   5.574   6.664   3.460  0.0720  0.4794 -0.0108
  575TIP3    H1 1689   5.588   6.638   3.369 -1.0245 -3.3541  0.7247
  575TIP3    H2 1690   5.634   6.736   3.474  1.0926  0.4653 -3.4553
  576TIP3   OH2 1691   5.652   0.830   3.312  0.5696 -0.1285 -0.0622
  576TIP3    H1 1692   5.597   0.820   3.234 -0.0352 -0.7573  0.4323
  576TIP3    H2 1693   5.729   0.776   3.294 -0.0414 -1.0979  0.1988
  577TIP3   OH2 1694   1.609   2.563   4.656 -0.3653  0.4784  0.4799
  577TIP3    H1 1695   1.619   2.481   4.704 -0.6011  1.2266  1.8534
  577TIP3    H2 1696   1.534   2.606   4.698  0.1983  1.7080  0.2563
  578TIP3   OH2 1697   6.353   1.782   2.993 -0.2736  0.0091  0.8968
  578TIP3    H1 1698   6.371   1.833   2.914  0.0964 -1.1386  0.2182
  578TIP3    H2 1699   6.385   1.694   2.973 -1.1264 -0.5670  1.9476
  579TIP3   OH2 1700   5.961   5.061   2.917 -0.0072 -0.3397 -0.3869
  579TIP3    H1 1701   5.933   5.074   2.827 -2.0894 -1.8991 -0.0473
  579TIP3    H2 1702   6.047   5.021   2.910  0.5911  1.0992 -1.6126
  580TIP3   OH2 1703   0.557   4.083   1.464 -0.3114 -0.0347 -0.3109
  580TIP3    H1 1704   0.519   4.014   1.519  0.5073 -0.5194 -0.3381
  580TIP3    H2 1705   0.651   4.079   1.483 -0.3802  1.9285  0.6504
  581TIP3   OH2 1706   4.480   3.919   4.224  0.6209  0.0812  0.3614
  581TIP3    H1 1707   4.446   3.964   4.146 -0.5297 -0.5456  0.4825
  581TIP3    H2 1708   4.494   3.829   4.195  0.8358  0.0064  0.6970
  582TIP3   OH2 1709   6.015   3.064   3.624 -0.4037  0.6276 -0.1806
  582TIP3    H1 1710   6.063   2.981   3.617  0.2577  0.9940 -0.1453
  582TIP3    H2 1711   6.022   3.103   3.536 -4.0297 -1.0775 -1.3965
  583TIP3   OH2 1712   4.186   0.202   4.368  0.2848  0.1838  0.1928
  583TIP3    H1 1713   4.191   0.291   4.335  1.8370  0.3593  0.8162
  583TIP3    H2 1714   4.249   0.199   4.440  0.9062 -1.6154 -0.3492
  584TIP3   OH2 1715   1.739   0.966   5.184  0.2086  0.7011  0.2665
  584TIP3    H1 1716   1.760   1.029   5.114 -1.3664 -0.0356 -0.9358
  584TIP3    H2 1717   1.767   0.881   5.148 -1.9128  0.1181 -0.1357
  585TIP3   OH2 1718   3.614   2.826   5.899 -0.5384  0.0574  0.2166
  585TIP3    H1 1719   3.563   2.747   5.880 -0.2827 -0.7729  2.5830
  585TIP3    H2 1720   3.682   2.827   5.832 -0.7402 -1.5722 -0.0690
  586TIP3   OH2 1721   2.312   3.741   3.995 -0.2310  0.1424 -0.3466
  586TIP3    H1 1722   2.401   3.739   3.959 -0.5299  0.0753 -1.0950
  586TIP3    H2 1723   2.278   3.653   3.980 -0.2706  0.0301  0.3598
  587TIP3   OH2 1724   5.617   4.237   3.522  0.2991 -0.1085  0.9084
  587TIP3    H1 1725   5.634   4.298   3.451  0.9715 -1.7353 -0.3934
  587TIP3    H2 1726   5.657   4.277   3.599 -0.7952  1.8780  0.4995
  588TIP3   OH2 1727   6.322   3.279   2.640 -0.1886 -0.1332  0.3013
  588TIP3    H1 1728   6.236   3.281   2.682 -0.1853  0.4208  0.2902
  588TIP3    H2 1729   6.348   3.187   2.643 -1.8617 -0.7534 -1.8634
  589TIP3   OH2 1730   2.289   0.309   3.622 -0.0729  0.5878 -0.2052
  589TIP3    H1 1731   2.376   0.273   3.606  0.1571 -0.2932  2.4797
  589TIP3    H2 1732   2.296   0.351   3.708 -2.5722 -0.6544  0.7192
  590TIP3   OH2 1733   1.404   4.810   2.362  0.2524  0.2295 -0.4092
  590TIP3    H1 1734   1.326   4.840   2.314  0.1312  0.8086  0.1418
  590TIP3    H2 1735   1.446   4.749   2.302  0.2022  1.0800 -1.3468
  591TIP3   OH2 1736   4.645   4.126   1.674 -0.1010  0.7624  0.0634
  591TIP3    H1 1737   4.722   4.070   1.674 -0.8811 -0.3915  1.8801
  591TIP3    H2 1738   4.676   4.209   1.638  1.1080 -0.7389 -2.7346
  592TIP3   OH2 1739   2.909   2.231   1.967 -0.1775 -0.1758 -0.4035
  592TIP3    H1 1740   2.883   2.230   2.059  1.1375 -0.5775 -0.0115
  592TIP3    H2 1741   2.990   2.181   1.965 -0.1195 -0.0560 -1.7689
  593TIP3   OH2 1742   5.199   5.909   2.249 -0.1058 -0.2186  0.0805
  593TIP3    H1 1743   5.143   5.843   2.208 -0.8785  0.8822 -0.6902
  593TIP3    H2 1744   5.275   5.860   2.281  0.0431 -1.2886 -1.7591
  594TIP3   OH2 1745   6.179   5.684   1.948  0.3797 -0.4825 -0.0482
  594TIP3    H1 1746   6.236   5.723   2.015 -0.2672 -0.6218  0.6041
  594TIP3    H2 1747   6.090   5.705   1.977  0.0958  0.1085 -1.2863
  595TIP3   OH2 1748   6.177   5.394   2.918  0.3202  0.2426 -0.2922
  595TIP3    H1 1749   6.249   5.452   2.892 -0.5653  2.0429  0.9864
  595TIP3    H2 1750   6.160   5.341   2.841  1.8454  1.0025 -1.2143
  596TIP3   OH2 1751   7.212   5.477   4.356 -0.2479  0.3302 -0.2738
  596TIP3    H1 1752   7.218   5.431   4.273  0.9886  1.1393 -0.6657
  596TIP3    H2 1753   7.147   5.545   4.342 -0.1039  0.4113 -0.5602
  597TIP3   OH2 1754   5.701   3.026   0.656 -0.3235 -0.6092  0.1729
  597TIP3    H1 1755   5.631   3.032   0.591 -0.8689 -1.5745  0.6541
  597TIP3    H2 1756   5.774   2.986   0.609  0.3266  1.3637 -0.6299
  598TIP3   OH2 1757   0.907   5.350   0.711 -0.0076  0.4583 -0.9993
  598TIP3    H1 1758   0.878   5.268   0.671  1.1095 -1.2839  1.5660
  598TIP3    H2 1759   0.844   5.366   0.781  0.5162  1.1525 -0.6789
  599TIP3   OH2 1760   4.719   3.828   1.017  0.2466  0.0010 -0.0931
  599TIP3    H1 1761   4.740   3.904   0.963 -0.0793 -0.4899 -0.9217
  599TIP3    H2 1762   4.765   3.845   1.100  0.4775  0.9191 -0.3932
  600TIP3   OH2 1763   4.768   1.739   2.203 -0.0695 -0.3113  0.3310
  600TIP3    H1 1764   4.773   1.684   2.281  1.3512 -0.2645  0.2944
  600TIP3    H2 1765   4.700   1.804   2.223 -0.4335 -0.9300  1.1116
  601TIP3   OH2 1766   3.655   5.435   2.036  0.0801 -0.2727  0.0712
  601TIP3    H1 1767   3.626   5.424   2.126 -0.2288 -1.4706 -0.1543
  601TIP3    H2 1768   3.678   5.527   2.029  0.0625 -0.1567  1.3565
  602TIP3   OH2 1769   7.115   0.029   4.045  0.0046 -0.2386 -0.0090
  602TIP3    H1 1770   7.156   0.114   4.023  0.4792 -0.2678  0.7373
  602TIP3    H2 1771   7.115  -0.019   3.962  2.8115 -0.7787  0.1849
  603TIP3   OH2 1772   1.071   4.334   5.689 -0.3167 -0.7544  0.6558
  603TIP3    H1 1773   1.098   4.372   5.772  0.6903 -0.4384  0.1973
  603TIP3    H2 1774   0.980   4.309   5.703  0.0136 -1.2626  2.0416
  604TIP3   OH2 1775   5.743   0.840   1.651  0.1861 -0.3600 -0.3181
  604TIP3    H1 1776   5.752   0.792   1.568  0.8527 -1.1889  0.2182
  604TIP3    H2 1777   5.651   0.831   1.675  0.4513 -2.1074  0.1873
  605TIP3   OH2 1778   3.628   3.663   0.873  0.9088  0.3856  0.1214
  605TIP3    H1 1779   3.719   3.664   0.844  0.9762  3.9044 -0.0456
  605TIP3    H2 1780   3.632   3.681   0.967  0.4961  3.5867 -0.3365
  606TIP3   OH2 1781   6.919   6.041   1.679 -0.2448 -0.1730 -0.5132
  606TIP3    H1 1782   6.855   6.030   1.749 -0.0160 -0.3066 -0.3224
  606TIP3    H2 1783   6.900   6.127   1.642 -0.2273 -0.0077 -0.1420
  607TIP3   OH2 1784   0.596   0.190   2.782 -0.0472  0.0593 -0.3883
  607TIP3    H1 1785   0.554   0.276   2.771 -1.8206 -0.7756 -0.5210
  607TIP3    H2 1786   0.550   0.150   2.856  0.5904 -0.8792 -0.4824
  608TIP3   OH2 1787   0.392   5.436   3.712  0.2800  0.3826  0.0140
  608TIP3    H1 1788   0.470   5.434   3.768 -0.0379 -1.2038  0.4241
  608TIP3    H2 1789   0.332   5.373   3.751 -1.5989  2.1743  0.1956
  609TIP3   OH2 1790   4.415   5.648   4.242  0.0998  0.2899  0.0378
  609TIP3    H1 1791   4.455   5.570   4.280 -0.0038  0.4417  0.4595
  609TIP3    H2 1792   4.407   5.627   4.149  0.8952  0.1429 -0.0064
  610TIP3   OH2 1793   1.085   2.516   5.180  0.4854  0.2996  0.2049
  610TIP3    H1 1794   1.092   2.423   5.201 -0.1567  0.2857  0.3987
  610TIP3    H2 1795   1.097   2.521   5.086  0.3358 -0.0093  0.1673
  611TIP3   OH2 1796   1.253   0.774   1.467  0.0609  0.0537 -0.3519
  611TIP3    H1 1797   1.336   0.755   1.423 -0.1903  0.9274 -1.2465
  611TIP3    H2 1798   1.237   0.698   1.523  1.5170 -0.0685 -0.0775
  612TIP3   OH2 1799   1.500   1.902   3.391 -0.0095 -0.1808 -0.0326
  612TIP3    H1 1800   1.408   1.874   3.394 -0.1461  0.2835  1.8307
  612TIP3    H2 1801   1.498   1.988   3.349 -0.5431  0.1323  0.6104
  613TIP3   OH2 1802   4.683   0.582  -0.029 -0.7051 -0.1086 -0.4424
  613TIP3    H1 1803   4.641   0.622   0.047  1.0821  0.8321  0.0946
  613TIP3    H2 1804   4.695   0.491  -0.005  0.6944  0.3779  0.8196
  614TIP3   OH2 1805   4.801   2.126   3.901 -0.2174 -0.5886 -0.3883
  614TIP3    H1 1806   4.808   2.209   3.948 -1.6027 -0.6680 -0.0118
  614TIP3    H2 1807   4.892   2.094   3.897  0.3329  0.9290 -0.5568
  615TIP3   OH2 1808   3.371   5.111   5.293 -0.3841  0.5729 -0.6923
  615TIP3    H1 1809   3.415   5.195   5.284  1.1295  0.2238  2.3737
  615TIP3    H2 1810   3.423   5.051   5.238  1.8445  0.6130  1.2181
  616TIP3   OH2 1811   4.787   2.742   0.294  0.1520 -0.0605 -0.5978
  616TIP3    H1 1812   4.802   2.835   0.281  1.6394 -0.1154  0.4576
  616TIP3    H2 1813   4.874   2.702   0.288 -0.2222 -1.1474  0.6127
  617TIP3   OH2 1814   3.305   1.710   2.843 -0.3206  0.9103  0.3629
  617TIP3    H1 1815   3.337   1.778   2.785 -1.0906  1.6549  0.7849
  617TIP3    H2 1816   3.210   1.709   2.829 -0.1260 -1.8325 -1.5233
  618TIP3   OH2 1817   0.083   1.650   5.421 -0.1788 -0.4850 -0.1155
  618TIP3    H1 1818   0.076   1.674   5.328  0.3284  0.2981  0.0468
  618TIP3    H2 1819   0.119   1.727   5.464  0.5599 -1.1992  0.5797
  619TIP3   OH2 1820   5.708   0.257   3.630  0.1762  0.5138 -0.1220
  619TIP3    H1 1821   5.627   0.290   3.669 -0.3603 -1.4119  0.5074
  619TIP3    H2 1822   5.711   0.296   3.542 -0.7537  1.6139  0.3169
  620TIP3   OH2 1823   5.126   0.166   0.244 -0.0115 -0.1883  0.2086
  620TIP3    H1 1824   5.075   0.181   0.165 -0.5347  0.6577  0.6893
  620TIP3    H2 1825   5.195   0.105   0.218  0.2517  0.6228 -1.0698
  621TIP3   OH2 1826   3.534   5.951   3.031  0.1794 -0.4639  0.4345
  621TIP3    H1 1827   3.495   6.033   3.000 -0.8128 -0.1444  2.3712
  621TIP3    H2 1828   3.547   5.899   2.951 -3.5127 -0.2500 -0.4882
  622TIP3   OH2 1829   3.499   2.502   1.356  0.0165  0.4633 -0.0537
  622TIP3    H1 1830   3.557   2.446   1.305  0.4159  0.6941  0.1414
  622TIP3    H2 1831   3.553   2.533   1.429 -0.4734  0.3406  0.3700
  623TIP3   OH2 1832   4.850   5.472   0.871 -0.0897 -0.7502  0.1576
  623TIP3    H1 1833   4.837   5.379   0.854  2.0219 -1.4496  1.8368
  623TIP3    H2 1834   4.920   5.498   0.811  0.8685 -0.8462  1.2032
  624TIP3   OH2 1835   6.843   6.468   5.138  0.0238  0.2354  0.0169
  624TIP3    H1 1836   6.775   6.531   5.163  2.0820  2.8636 -0.4906
  624TIP3    H2 1837   6.835   6.462   5.043 -0.0163 -0.1174  0.0421
  625TIP3   OH2 1838   1.469   2.930   1.614 -0.1591 -0.0395 -0.4141
  625TIP3    H1 1839   1.442   2.970   1.532  0.4483  1.7317  0.1931
  625TIP3    H2 1840   1.405   2.960   1.678  0.4652  0.2114  0.1109
  626TIP3   OH2 1841   0.218   5.983   3.280  0.1308  0.0158  0.0099
  626TIP3    H1 1842   0.287   5.922   3.255  0.0356  0.1074 -0.4971
  626TIP3    H2 1843   0.157   5.982   3.206 -1.8201 -2.0357  1.5191
  627TIP3   OH2 1844   1.258   4.884   1.958 -0.1083  0.3865  0.0955
  627TIP3    H1 1845   1.240   4.813   2.019 -2.3630  1.9549  1.3870
  627TIP3    H2 1846   1.262   4.842   1.872  0.3521 -1.4848  1.0001
  628TIP3   OH2 1847   1.044   0.612   3.379 -0.1876 -0.1985  0.8597
  628TIP3    H1 1848   1.121   0.652   3.340 -1.4778  1.1928 -0.4323
  628TIP3    H2 1849   0.978   0.682   3.378 -2.2347 -2.0192 -0.5026
  629TIP3   OH2 1850   5.178   1.439   2.515  0.0187  0.1064  0.0045
  629TIP3    H1 1851   5.198   1.383   2.440  0.6196 -1.6531  1.3860
  629TIP3    H2 1852   5.196   1.528   2.486 -1.8344 -0.2532 -2.6066
  630TIP3   OH2 1853   6.926   6.238   4.169 -0.1416 -0.0019  0.4679
  630TIP3    H1 1854   6.857   6.172   4.182 -0.3636  0.1349  0.0028
  630TIP3    H2 1855   6.926   6.255   4.075 -0.4686  1.0689  0.6453
  631TIP3   OH2 1856   0.046   3.256   4.617 -0.3859 -0.1568 -0.2961
  631TIP3    H1 1857   0.063   3.341   4.577  2.0051 -1.0968 -1.4922
  631TIP3    H2 1858   0.074   3.266   4.708 -0.2986  0.3821 -0.3790
  632TIP3   OH2 1859   2.087   6.217   1.454 -0.0267  0.3516 -0.2580
  632TIP3    H1 1860   2.063   6.209   1.362  0.5826  1.3273 -0.5103
  632TIP3    H2 1861   2.181   6.234   1.454  0.6646 -2.7394  0.6918
  633TIP3   OH2 1862   0.870   0.820   2.437 -0.4088  0.2061  0.4306
  633TIP3    H1 1863   0.882   0.842   2.530 -1.9620 -0.2188  0.7720
  633TIP3    H2 1864   0.818   0.739   2.439 -0.5094  0.2351 -0.8046
  634TIP3   OH2 1865   5.372   1.317   5.590 -0.1134  0.1591  0.2848
  634TIP3    H1 1866   5.333   1.364   5.517 -0.1637  1.0023  0.8416
  634TIP3    H2 1867   5.326   1.233   5.593  0.0954 -0.0061 -0.8256
  635TIP3   OH2 1868   2.365   4.561   5.472 -0.2577  0.1475 -0.0815
  635TIP3    H1 1869   2.434   4.533   5.412  0.9749  1.3256  0.7146
  635TIP3    H2 1870   2.284   4.544   5.425  0.5941 -0.6305 -1.3406
  636TIP3   OH2 1871   5.177   3.798   4.670 -0.3581 -0.5613  0.5121
  636TIP3    H1 1872   5.159   3.749   4.590  2.1870 -1.6667  0.5091
  636TIP3    H2 1873   5.133   3.748   4.739  0.3676 -1.6475  0.2157
  637TIP3   OH2 1874   6.654   4.954   5.078  0.1583 -0.3553 -0.5500
  637TIP3    H1 1875   6.723   4.888   5.085 -0.7041 -1.3074 -0.7210
  637TIP3    H2 1876   6.588   4.927   5.142 -0.9804 -0.6447 -1.7900
  638TIP3   OH2 1877   6.819   5.751   5.311  0.0619  0.3607 -0.0846
  638TIP3    H1 1878   6.838   5.793   5.395  2.3553  1.0464 -0.8668
  638TIP3    H2 1879   6.760   5.812   5.266  0.9582  1.3010 -0.0119
  639TIP3   OH2 1880   4.194   0.417   0.229  0.3310 -0.0055  0.2049
  639TIP3    H1 1881   4.204   0.512   0.220 -0.6723  0.3686  2.4234
  639TIP3    H2 1882   4.262   0.391   0.290  1.6743 -1.0572 -1.6231
  640TIP3   OH2 1883   3.148   3.981   0.864 -0.2448  0.5963 -0.2931
  640TIP3    H1 1884   3.085   4.050   0.886  0.8208  1.6855 -0.5694
  640TIP3    H2 1885   3.213   3.985   0.934  1.5086  2.0285 -1.8803
  641TIP3   OH2 1886   4.180   2.643   5.127  0.2446 -0.0992 -0.2009
  641TIP3    H1 1887   4.224   2.613   5.048 -0.3675  1.4811 -1.1939
  641TIP3    H2 1888   4.094   2.602   5.125  0.5285 -0.7118  0.0855
  642TIP3   OH2 1889   3.671   4.804   0.737  0.6632 -0.0750  0.0381
  642TIP3    H1 1890   3.711   4.743   0.799 -0.5499  0.4740  1.4151
  642TIP3    H2 1891   3.719   4.886   0.750  0.1731  0.1382  0.5178
  643TIP3   OH2 1892   2.822   2.863   5.283 -0.1683  0.0896 -0.4096
  643TIP3    H1 1893   2.825   2.872   5.378  0.6350 -0.4576 -0.3773
  643TIP3    H2 1894   2.765   2.935   5.254 -1.4996 -0.5269  0.5843
  644TIP3   OH2 1895   1.639   2.764   3.623 -0.2665  0.2357 -0.0033
  644TIP3    H1 1896   1.592   2.699   3.570  0.2928  1.2254 -1.7817
  644TIP3    H2 1897   1.722   2.721   3.645 -0.5037 -0.1844  0.0800
  645TIP3   OH2 1898   1.628   4.415   2.018  0.2644  0.0706 -0.1341
  645TIP3    H1 1899   1.714   4.405   1.979  0.8389  0.0522  1.0952
  645TIP3    H2 1900   1.578   4.340   1.986  1.4990 -1.3536  1.1208
  646TIP3   OH2 1901   1.140   5.177   0.539 -0.2557 -0.4078 -0.1132
  646TIP3    H1 1902   1.181   5.091   0.542  1.0775  0.2060 -0.0095
  646TIP3    H2 1903   1.120   5.192   0.447  0.8843 -0.2234 -0.3446
  647TIP3   OH2 1904   0.283   2.792   5.245  0.5027  0.5566 -0.1834
  647TIP3    H1 1905   0.319   2.706   5.269  1.5997  1.3955  1.3428
  647TIP3    H2 1906   0.295   2.845   5.323 -1.0977  1.8417 -0.7499
  648TIP3   OH2 1907   6.360   2.617   4.488  0.1133 -0.0156  0.2319
  648TIP3    H1 1908   6.441   2.660   4.460 -0.3760  0.7492 -0.0458
  648TIP3    H2 1909   6.307   2.614   4.409 -0.3131 -0.0837  0.5213
  649TIP3   OH2 1910   4.613   5.087   2.405  0.4515 -0.0100 -0.2408
  649TIP3    H1 1911   4.683   5.147   2.380  0.9490 -0.1932  0.6622
  649TIP3    H2 1912   4.615   5.088   2.501  0.2008 -1.1556 -0.2172
  650TIP3   OH2 1913   6.347   2.489   4.164  0.4244  0.0971 -0.6059
  650TIP3    H1 1914   6.365   2.546   4.089 -0.7302  0.4420 -0.6492
  650TIP3    H2 1915   6.418   2.425   4.164  0.7821  0.4775 -1.6199
  651TIP3   OH2 1916   3.574   0.805   1.244 -0.2192 -0.0512 -0.0335
  651TIP3    H1 1917   3.624   0.763   1.314 -0.0062  1.0061  0.4696
  651TIP3    H2 1918   3.603   0.761   1.164  1.5734  0.5421  0.2377
  652TIP3   OH2 1919   7.131   5.924   3.574 -0.1754 -1.0586  0.3609
  652TIP3    H1 1920   7.039   5.900   3.568  0.1193 -1.8606 -2.0603
  652TIP3    H2 1921   7.139   6.004   3.523  0.3101 -0.2993  1.5612
  653TIP3   OH2 1922   0.459   4.536   1.756  0.0010  0.1188  0.0679
  653TIP3    H1 1923   0.435   4.597   1.826 -0.3560 -0.2952  0.3101
  653TIP3    H2 1924   0.402   4.460   1.769  0.0555 -0.0378 -0.5667
  654TIP3   OH2 1925   3.499   0.434   4.262  0.2688 -0.6000  0.5474
  654TIP3    H1 1926   3.475   0.505   4.202  2.4134  0.1884  0.5439
  654TIP3    H2 1927   3.492   0.355   4.209 -0.2848 -0.1916 -0.0044
  655TIP3   OH2 1928   0.841   6.628   4.351  0.0591  0.6520 -0.0543
  655TIP3    H1 1929   0.801   6.557   4.302  0.5007 -0.0559  0.6028
  655TIP3    H2 1930   0.786   6.704   4.331 -0.9541 -0.0550 -0.0408
  656TIP3   OH2 1931   5.900   2.661   1.033 -0.3189 -0.4678 -0.3419
  656TIP3    H1 1932   5.973   2.724   1.032 -0.6076 -0.1214 -1.2964
  656TIP3    H2 1933   5.922   2.600   1.103  1.2246 -0.7472 -1.0085
  657TIP3   OH2 1934   6.160   6.742   4.306  0.4549  0.4583 -0.7554
  657TIP3    H1 1935   6.253   6.739   4.332  0.1292 -2.7221  0.5243
  657TIP3    H2 1936   6.117   6.786   4.379  0.7276  0.0536 -0.3402
  658TIP3   OH2 1937   0.468   1.074   5.429  0.4679  0.0397 -0.3627
  658TIP3    H1 1938   0.524   1.012   5.382 -0.2158 -0.2236 -0.8566
  658TIP3    H2 1939   0.388   1.078   5.376 -0.2340 -0.0931  0.6636
  659TIP3   OH2 1940   2.183   0.265   5.194  0.3959  0.3324 -0.1028
  659TIP3    H1 1941   2.191   0.336   5.130  0.3105  0.3025 -0.1466
  659TIP3    H2 1942   2.120   0.298   5.258  1.0939  0.6965  0.4154
  660TIP3   OH2 1943   0.867   3.003   0.439 -0.3004  0.2904 -0.4871
  660TIP3    H1 1944   0.915   3.049   0.369  1.4467 -1.6101 -0.6465
  660TIP3    H2 1945   0.887   2.911   0.424 -0.8533 -0.2593  1.8421
  661TIP3   OH2 1946   2.179   2.489   0.883  0.1834  0.0654  0.7069
  661TIP3    H1 1947   2.177   2.568   0.936  0.1635  0.4991  0.0703
  661TIP3    H2 1948   2.252   2.502   0.823  1.5038 -1.2913  1.9364
  662TIP3   OH2 1949   4.406   1.992   5.609 -0.3351 -0.1653  0.4576
  662TIP3    H1 1950   4.463   2.011   5.683 -0.4264 -0.9727  0.7515
  662TIP3    H2 1951   4.371   1.904   5.628 -0.4350 -0.3418 -0.4923
  663TIP3   OH2 1952   3.827   0.087   5.436 -0.0502  0.3464  0.0142
  663TIP3    H1 1953   3.832   0.142   5.358 -2.3737  1.1434  0.3507
  663TIP3    H2 1954   3.786   0.006   5.406 -2.2328  1.1778  0.5849
  664TIP3   OH2 1955   2.791   1.606   1.539  0.4680 -0.1168  0.2175
  664TIP3    H1 1956   2.723   1.541   1.522 -0.5182  0.2964  2.2102
  664TIP3    H2 1957   2.865   1.579   1.484 -0.8179 -1.3807 -0.9669
  665TIP3   OH2 1958   0.281   4.024   3.961 -0.2505 -0.3082  1.1685
  665TIP3    H1 1959   0.186   4.010   3.964 -0.4683  1.1432  2.3538
  665TIP3    H2 1960   0.302   4.065   4.045  1.4107 -0.4365  0.8521
  666TIP3   OH2 1961   2.733   1.527   2.279  0.1501  0.5044 -0.2868
  666TIP3    H1 1962   2.682   1.472   2.220  0.2103 -0.5396  0.5994
  666TIP3    H2 1963   2.772   1.594   2.222 -0.9308  0.3835 -1.1975
  667TIP3   OH2 1964   2.140   0.415   4.274  0.1844  0.4513 -0.2960
  667TIP3    H1 1965   2.077   0.478   4.308 -0.2019 -0.0533 -0.0617
  667TIP3    H2 1966   2.155   0.442   4.184  0.7116  1.4122  0.0661
  668TIP3   OH2 1967   1.482   2.464   4.940  0.4144 -0.3721  0.5588
  668TIP3    H1 1968   1.515   2.383   4.980 -0.1380 -0.5392  0.6829
  668TIP3    H2 1969   1.490   2.530   5.009  2.2756  0.0613  0.0099
  669TIP3   OH2 1970   1.283   2.827   1.147 -0.3036 -0.2004 -0.0025
  669TIP3    H1 1971   1.328   2.781   1.219 -0.6196 -0.6211 -0.0684
  669TIP3    H2 1972   1.223   2.761   1.111  1.6290 -0.8496 -2.3138
  670TIP3   OH2 1973   0.411   5.995   5.704  0.2968 -0.5739  0.6351
  670TIP3    H1 1974   0.505   5.998   5.688  0.7314  2.3363  2.9355
  670TIP3    H2 1975   0.384   6.087   5.707 -2.5648 -1.3195  0.3972
  671TIP3   OH2 1976   3.690   4.554   2.271  0.5087 -0.7142  0.4644
  671TIP3    H1 1977   3.601   4.538   2.242  0.3929 -0.8010  0.8655
  671TIP3    H2 1978   3.711   4.641   2.237  0.4593 -0.9076 -0.0749
  672TIP3   OH2 1979   6.677   5.954   5.179 -0.0802 -0.4198  0.9943
  672TIP3    H1 1980   6.690   6.032   5.125  1.2655  0.2066  2.1374
  672TIP3    H2 1981   6.600   5.975   5.232 -0.5260 -0.4313  0.3552
  673TIP3   OH2 1982   3.326   0.682   0.247  0.5599  0.2700  0.0250
  673TIP3    H1 1983   3.327   0.718   0.158 -4.8781 -0.5158 -0.6532
  673TIP3    H2 1984   3.257   0.730   0.292  0.2058 -2.2572  2.4495
  674TIP3   OH2 1985   3.959   3.379   0.369  0.7029 -0.0919  0.2634
  674TIP3    H1 1986   4.026   3.317   0.399  0.5300 -0.2117  0.4029
  674TIP3    H2 1987   3.973   3.385   0.274 -0.0945 -1.3420  0.0444
  675TIP3   OH2 1988   6.111   5.502   4.100 -0.2147  0.3361 -0.3111
  675TIP3    H1 1989   6.126   5.529   4.009  0.6928 -0.4755 -0.4164
  675TIP3    H2 1990   6.127   5.582   4.151  0.6824  0.4551 -0.7538
  676TIP3   OH2 1991   6.026   6.392   1.050  0.2600  0.3612  0.4870
  676TIP3    H1 1992   5.987   6.355   0.971 -1.1928 -1.5912  1.9901
  676TIP3    H2 1993   5.997   6.483   1.051  0.1512  0.3588 -1.1154
  677TIP3   OH2 1994   1.137   5.712   3.249 -0.3884  0.3971  0.2827
  677TIP3    H1 1995   1.205   5.676   3.305  0.7682  2.6547  0.4512
  677TIP3    H2 1996   1.073   5.641   3.240  0.5054 -0.8009  2.5529
  678TIP3   OH2 1997   1.644   6.655   4.035 -0.0991 -0.4030 -0.3785
  678TIP3    H1 1998   1.729   6.677   4.074 -0.7547  0.0954  0.8335
  678TIP3    H2 1999   1.607   6.740   4.011 -0.1464 -0.6393 -1.1562
  679TIP3   OH2 2000   2.458   5.076   5.228 -0.5335  0.0644  0.5693
  679TIP3    H1 2001   2.372   5.056   5.191  0.4748  0.2277 -2.0660
  679TIP3    H2 2002   2.493   5.144   5.170  1.6409 -0.4845  1.1767
  680TIP3   OH2 2003   3.434   3.806   5.522  0.2002 -0.5360  0.6371
  680TIP3    H1 2004   3.385   3.800   5.604 -0.1475  1.0896  0.6014
  680TIP3    H2 2005   3.518   3.846   5.547 -0.4629  1.3486  0.0771
  681TIP3   OH2 2006   1.102   4.374   4.946 -0.1835 -0.4191 -0.6914
  681TIP3    H1 2007   1.154   4.298   4.974  1.1126  0.9311  0.8321
  681TIP3    H2 2008   1.012   4.352   4.969  0.2638 -1.2512  0.3363
  682TIP3   OH2 2009   1.338   2.717   4.673  0.0052 -0.3327  0.0477
  682TIP3    H1 2010   1.286   2.776   4.727  1.2383 -0.1322  1.0585
  682TIP3    H2 2011   1.286   2.637   4.668 -0.8844  0.2333  0.1230
  683TIP3   OH2 2012   6.938   0.738   0.203 -0.2461  0.2168  0.0501
  683TIP3    H1 2013   6.935   0.653   0.158 -0.4181 -0.1069  0.6666
  683TIP3    H2 2014   6.970   0.799   0.136  0.1676 -0.3870 -0.3149
  684TIP3   OH2 2015   3.917   2.939   1.613  0.6141  0.1676  0.4905
  684TIP3    H1 2016   3.880   2.861   1.571  0.9397 -0.1110  0.7191
  684TIP3    H2 2017   3.869   2.947   1.695 -0.8442  1.3756 -0.4030
  685TIP3   OH2 2018   6.309   3.110   4.077  0.1927 -0.1761 -0.1394
  685TIP3    H1 2019   6.229   3.133   4.030 -0.2601  1.0757  1.1872
  685TIP3    H2 2020   6.323   3.017   4.056 -0.0705  0.2625 -2.5485
  686TIP3   OH2 2021   4.123   4.598   4.715 -0.2667  0.0812  0.2482
  686TIP3    H1 2022   4.179   4.632   4.786  1.7379  0.2436 -1.3239
  686TIP3    H2 2023   4.116   4.671   4.654 -0.4140 -0.6440 -0.6165
  687TIP3   OH2 2024   6.188   6.401   1.816  0.0712  0.0560  0.3763
  687TIP3    H1 2025   6.113   6.374   1.762  0.3901 -1.0527  0.4588
  687TIP3    H2 2026   6.152   6.411   1.904  0.0720 -0.8063  0.4837
  688TIP3   OH2 2027   5.960   5.530   1.216 -0.1413 -0.3701  0.6363
  688TIP3    H1 2028   5.907   5.606   1.243 -1.4380  0.4551 -3.4480
  688TIP3    H2 2029   6.038   5.535   1.270 -0.5922  3.4082  1.2253
  689TIP3   OH2 2030   5.801   0.776   4.656 -0.3340  0.6509 -0.1702
  689TIP3    H1 2031   5.818   0.751   4.566 -0.1092  0.6414 -0.1247
  689TIP3    H2 2032   5.832   0.702   4.708 -0.9039  0.4497 -0.1100
  690TIP3   OH2 2033   2.291   2.284   1.409  0.0582 -0.4292 -0.4215
  690TIP3    H1 2034   2.386   2.293   1.410  0.1419 -1.1925 -0.4101
  690TIP3    H2 2035   2.264   2.327   1.328  0.4344 -0.3794 -0.5235
  691TIP3   OH2 2036   2.506   2.692   2.803 -0.5055  0.0756  0.0430
  691TIP3    H1 2037   2.434   2.722   2.859 -0.0894  0.1387  0.5609
  691TIP3    H2 2038   2.561   2.639   2.862  1.3472  2.2450  0.4244
  692TIP3   OH2 2039   5.040   4.114   1.126  0.4133  0.3500 -0.2996
  692TIP3    H1 2040   5.127   4.144   1.151  0.7949 -0.5752 -0.4563
  692TIP3    H2 2041   5.056   4.055   1.052 -0.4672  1.1753 -1.1785
  693TIP3   OH2 2042   2.428   2.928   2.518 -0.3576  0.5622 -0.6872
  693TIP3    H1 2043   2.351   2.874   2.537 -0.4636  0.3055 -1.7570
  693TIP3    H2 2044   2.463   2.891   2.437  0.1109  1.5214 -0.9303
  694TIP3   OH2 2045   2.157  -0.003   1.222  0.0777 -0.3890  0.0563
  694TIP3    H1 2046   2.252  -0.007   1.221  0.2379  1.0421 -3.2296
  694TIP3    H2 2047   2.136   0.041   1.305  2.3507  0.2459  0.3620
  695TIP3   OH2 2048   6.614   6.537   3.675  0.3728 -0.3407 -0.3035
  695TIP3    H1 2049   6.626   6.632   3.676  3.1300 -0.6063  1.3147
  695TIP3    H2 2050   6.626   6.510   3.766  1.2520 -2.3768 -0.9718
  696TIP3   OH2 2051   2.232   1.509   0.813  0.4361  0.7026 -0.1261
  696TIP3    H1 2052   2.221   1.540   0.903  0.9460  0.0911  0.1551
  696TIP3    H2 2053   2.223   1.414   0.819 -2.6295  0.8298 -1.2082
  697TIP3   OH2 2054   6.224   3.553   0.711  0.0373  0.3286  0.0925
  697TIP3    H1 2055   6.242   3.496   0.785  0.4297 -0.4044 -0.5550
  697TIP3    H2 2056   6.277   3.631   0.727  0.2600  0.0985  0.4854
  698TIP3   OH2 2057   2.422   0.296   5.616  0.1679  0.0258  0.1086
  698TIP3    H1 2058   2.457   0.227   5.560 -1.5023  1.2894 -2.7116
  698TIP3    H2 2059   2.394   0.250   5.695  0.9711 -2.1782 -0.8006
  699TIP3   OH2 2060   1.493   2.933   0.573  0.0211  0.2010 -0.3575
  699TIP3    H1 2061   1.481   2.859   0.633  1.3052 -0.0879 -0.4374
  699TIP3    H2 2062   1.480   2.895   0.486 -3.6231  0.9543 -0.3233
  700TIP3   OH2 2063   3.570   4.465   1.335 -0.1020 -0.6494 -0.2067
  700TIP3    H1 2064   3.588   4.449   1.242 -2.9433  0.6890 -1.0747
  700TIP3    H2 2065   3.581   4.559   1.346  1.3945 -0.9329  1.1884
  701TIP3   OH2 2066   1.014   0.625   1.614  0.0738  0.8161  0.5443
  701TIP3    H1 2067   1.076   0.668   1.673 -0.2709  1.1940  0.6396
  701TIP3    H2 2068   1.005   0.687   1.541  0.6969  0.2359 -0.0339
  702TIP3   OH2 2069   3.465   2.978   1.147  0.5775 -0.6136 -0.0143
  702TIP3    H1 2070   3.446   3.023   1.065  0.2206 -0.9102 -0.0976
  702TIP3    H2 2071   3.538   3.027   1.185 -0.8342  1.0396  0.6870
  703TIP3   OH2 2072   4.226   2.575   0.934  0.1665 -0.3947  0.2444
  703TIP3    H1 2073   4.220   2.658   0.981  1.0057 -0.2430  0.0949
  703TIP3    H2 2074   4.145   2.529   0.956  1.0000 -0.8040  2.6959
  704TIP3   OH2 2075   2.736   0.913   0.188  0.4321 -0.0256  0.0964
  704TIP3    H1 2076   2.689   0.995   0.174 -0.1901 -0.5424 -0.8897
  704TIP3    H2 2077   2.770   0.920   0.278 -0.0498  1.0841  0.2028
  705TIP3   OH2 2078   3.937   1.804   4.611  0.8052 -0.1853 -0.3375
  705TIP3    H1 2079   3.978   1.829   4.528 -1.0321  1.0453 -0.9353
  705TIP3    H2 2080   3.870   1.871   4.625  0.5371 -0.8379  1.7450
  706TIP3   OH2 2081   6.274   1.226   5.120  0.3753  0.4773  0.1845
  706TIP3    H1 2082   6.197   1.191   5.076 -0.1122  1.3450  0.3264
  706TIP3    H2 2083   6.272   1.320   5.102  1.9799  0.3818 -0.6951
  707TIP3   OH2 2084   1.952   5.617   5.106 -0.2858 -0.2495  0.0428
  707TIP3    H1 2085   2.011   5.664   5.047 -1.8914  0.6625 -0.9137
  707TIP3    H2 2086   1.990   5.529   5.113 -0.4516 -0.6651 -3.0339
  708TIP3   OH2 2087   6.009   2.747   2.558  0.4379 -0.3319 -0.2140
  708TIP3    H1 2088   6.083   2.804   2.539 -0.1489  1.1463  1.5717
  708TIP3    H2 2089   5.941   2.774   2.497  0.7130 -0.2872 -0.5008
  709TIP3   OH2 2090   6.459   1.379   2.173 -0.3851  0.7303  0.0183
  709TIP3    H1 2091   6.466   1.298   2.123 -1.8078  0.7732 -0.2971
  709TIP3    H2 2092   6.428   1.352   2.259  1.8409  0.6806  0.8671
  710TIP3   OH2 2093   0.192   4.863   2.859 -0.1577  0.3902 -0.3492
  710TIP3    H1 2094   0.140   4.809   2.800 -1.3393 -0.4559  1.3859
  710TIP3    H2 2095   0.258   4.905   2.802  0.1346 -2.0203 -1.9100
  711TIP3   OH2 2096   4.552   2.130   0.785 -0.6195 -0.1193  0.0791
  711TIP3    H1 2097   4.478   2.159   0.839 -0.3014  0.2261  0.3308
  711TIP3    H2 2098   4.604   2.075   0.843 -1.0787 -1.0069 -0.3194
  712TIP3   OH2 2099   6.162   4.467   1.429 -0.0939 -0.2546  0.3269
  712TIP3    H1 2100   6.202   4.382   1.408  2.2772  0.4235  1.7808
  712TIP3    H2 2101   6.080   4.444   1.472  0.2761 -1.7983  0.2943
  713TIP3   OH2 2102   1.914   6.712   1.030 -0.6127 -0.0835  0.0683
  713TIP3    H1 2103   1.888   6.733   0.940  0.0940  0.1323 -0.0945
  713TIP3    H2 2104   1.934   6.797   1.069 -1.6611 -0.1052  0.6786
  714TIP3   OH2 2105   3.767   2.225   1.451  0.2444 -0.0271 -0.0651
  714TIP3    H1 2106   3.739   2.267   1.532 -2.1574 -0.5230 -0.5635
  714TIP3    H2 2107   3.721   2.273   1.381 -0.5790 -1.8079 -0.8215
  715TIP3   OH2 2108   2.829   5.283   1.990  0.1816 -1.1236  0.3654
  715TIP3    H1 2109   2.768   5.346   2.030  0.4455  0.6305 -1.7603
  715TIP3    H2 2110   2.906   5.285   2.045  0.3672  0.8670  0.1107
  716TIP3   OH2 2111   4.338   4.067   4.024  0.1022 -0.4692 -0.2749
  716TIP3    H1 2112   4.326   4.161   4.038 -0.6405 -0.3688 -1.4225
  716TIP3    H2 2113   4.355   4.059   3.930  0.9812 -1.4148 -0.0522
  717TIP3   OH2 2114   4.046   4.400   5.122  0.2894  0.3305  0.4202
  717TIP3    H1 2115   4.106   4.365   5.188  1.2730 -0.6088 -0.9276
  717TIP3    H2 2116   4.100   4.414   5.044 -0.8253  1.4580 -0.2035
  718TIP3   OH2 2117   0.055   4.363   2.247 -0.4972  0.1071  0.2276
  718TIP3    H1 2118   0.067   4.454   2.272 -1.7889  1.3006 -2.9611
  718TIP3    H2 2119   0.134   4.341   2.197 -0.7639 -0.0635 -0.1238
  719TIP3   OH2 2120   4.781   2.497   1.445 -0.5355  0.0890  0.2979
  719TIP3    H1 2121   4.769   2.514   1.351 -2.0832 -1.1388  0.2334
  719TIP3    H2 2122   4.821   2.410   1.449  0.2428  0.4571  0.7770
  720TIP3   OH2 2123   2.280   2.032   2.107  1.0940 -0.0020 -0.3533
  720TIP3    H1 2124   2.357   1.986   2.074  2.2640  2.6807 -1.6435
  720TIP3    H2 2125   2.315   2.110   2.149 -0.8361  0.2035  0.9652
  721TIP3   OH2 2126   5.995   1.160   5.203 -0.0787 -0.0684 -0.0810
  721TIP3    H1 2127   6.018   1.178   5.112  1.4035 -2.2627 -0.2094
  721TIP3    H2 2128   5.991   1.246   5.245 -0.7516  0.9831 -2.1851
  722TIP3   OH2 2129   0.958   0.396   4.522 -0.2314  0.0751 -0.0171
  722TIP3    H1 2130   0.987   0.390   4.613  1.4117  0.6566 -0.4590
  722TIP3    H2 2131   0.865   0.377   4.525  0.1047 -1.6554  1.5653
  723TIP3   OH2 2132   1.835   1.134   2.864 -0.3086 -0.1504 -0.3515
  723TIP3    H1 2133   1.903   1.200   2.851  1.9127 -2.2316 -0.0279
  723TIP3    H2 2134   1.820   1.097   2.777 -0.1052 -0.5475 -0.2183
  724TIP3   OH2 2135   0.310   3.962   5.818 -0.2139  0.2589  0.4814
  724TIP3    H1 2136   0.327   4.047   5.778 -1.6132  0.3830  0.0744
  724TIP3    H2 2137   0.355   3.899   5.762 -0.2481  0.6306  0.0302
  725TIP3   OH2 2138   1.698   5.419   4.917 -0.6025  0.2351 -0.2994
  725TIP3    H1 2139   1.754   5.447   4.845  0.9616  1.3657  1.2691
  725TIP3    H2 2140   1.755   5.364   4.971 -1.5293 -0.0200  0.4425
  726TIP3   OH2 2141   6.788   0.290   0.176  0.2012 -0.4131 -0.8197
  726TIP3    H1 2142   6.784   0.262   0.267  0.3232 -2.1558 -1.3029
  726TIP3    H2 2143   6.701   0.270   0.141  0.7427 -1.6188 -1.5481
  727TIP3   OH2 2144   5.827   2.630   5.681  0.7822 -0.0258 -0.0907
  727TIP3    H1 2145   5.904   2.601   5.631 -0.1624 -1.1680 -0.9590
  727TIP3    H2 2146   5.779   2.549   5.699  0.3920  0.5262  1.5039
  728TIP3   OH2 2147   4.923   4.517   5.015  0.2120 -0.3106  0.2596
  728TIP3    H1 2148   4.965   4.472   5.089  0.9707 -0.5343 -0.2867
  728TIP3    H2 2149   4.873   4.588   5.055  0.3569 -0.6250  1.0120
  729TIP3   OH2 2150   2.174   6.028   4.442  0.3281 -0.4573 -0.4886
  729TIP3    H1 2151   2.196   5.950   4.494  1.4190 -1.4001 -2.2710
  729TIP3    H2 2152   2.113   5.996   4.375 -0.9668  0.7162  0.0838
  730TIP3   OH2 2153   6.972   4.522   2.123 -0.4716 -0.0542  1.0812
  730TIP3    H1 2154   6.938   4.455   2.182 -0.8961 -1.7747 -0.9830
  730TIP3    H2 2155   6.894   4.559   2.082 -0.1590  0.6207  1.0903
  731TIP3   OH2 2156   4.048   5.563   4.108 -0.2830 -0.3795  0.7100
  731TIP3    H1 2157   4.026   5.580   4.017  0.8500  0.2673  0.5352
  731TIP3    H2 2158   4.093   5.478   4.106  1.0187  0.2982  0.4432
  732TIP3   OH2 2159   3.209   4.356   0.137 -0.2852 -0.8054  0.2466
  732TIP3    H1 2160   3.182   4.448   0.139  0.2286 -0.6053 -0.9959
  732TIP3    H2 2161   3.226   4.334   0.228  1.0625  0.7887  0.4226
  733TIP3   OH2 2162   5.699   3.883   2.722 -0.4811  0.5104  0.4514
  733TIP3    H1 2163   5.639   3.847   2.788  1.6413 -0.4239  2.0205
  733TIP3    H2 2164   5.780   3.834   2.736  0.3745  1.0445 -2.2090
  734TIP3   OH2 2165   0.383   6.352   5.593 -0.4890 -0.1454 -0.6330
  734TIP3    H1 2166   0.467   6.396   5.585 -1.0983  1.1647 -0.1554
  734TIP3    H2 2167   0.385   6.284   5.526  0.2375  1.0331 -1.8728
  735TIP3   OH2 2168   6.300   2.535   5.187  0.0629  0.0292 -0.3954
  735TIP3    H1 2169   6.385   2.579   5.176 -0.5533  1.2802 -0.2846
  735TIP3    H2 2170   6.241   2.604   5.218 -0.4804 -1.3076  1.7299
  736TIP3   OH2 2171   4.428   5.367   4.243  0.0616  0.5972 -0.1650
  736TIP3    H1 2172   4.334   5.359   4.257 -0.0781  2.5615  0.4064
  736TIP3    H2 2173   4.439   5.366   4.148 -0.5529  0.4413 -0.2380
  737TIP3   OH2 2174   6.637   4.854   4.579 -0.4366  0.2346  0.1853
  737TIP3    H1 2175   6.669   4.932   4.535  1.2418 -0.6095 -0.1633
  737TIP3    H2 2176   6.684   4.782   4.536 -2.2589 -1.0198  0.1735
  738TIP3   OH2 2177   1.773   0.681   4.700  0.6609 -0.2552 -0.0201
  738TIP3    H1 2178   1.811   0.716   4.620 -0.0059 -1.0302 -0.6884
  738TIP3    H2 2179   1.745   0.759   4.749  0.4331  0.2023 -0.8665
  739TIP3   OH2 2180   1.279   5.237   3.407  0.2587  0.8085  0.3590
  739TIP3    H1 2181   1.207   5.294   3.379 -0.3561 -0.1092  0.0368
  739TIP3    H2 2182   1.305   5.272   3.492 -0.7565  1.0035  0.6020
  740TIP3   OH2 2183   2.896   3.958   5.128  0.3341 -0.1567  0.5922
  740TIP3    H1 2184   2.854   4.043   5.134 -2.0044 -1.1056 -1.1992
  740TIP3    H2 2185   2.900   3.938   5.035  1.6293 -1.6520  0.9120
  741TIP3   OH2 2186   3.398   5.326   0.388  0.2127 -0.0252  0.2226
  741TIP3    H1 2187   3.343   5.258   0.349 -1.1515  1.1252  0.0302
  741TIP3    H2 2188   3.462   5.347   0.321 -0.7973  0.4635 -0.6162
  742TIP3   OH2 2189   1.573   6.628   4.796 -0.2841 -0.2477 -0.1787
  742TIP3    H1 2190   1.635   6.670   4.736 -0.0460 -1.4537 -0.7982
  742TIP3    H2 2191   1.534   6.558   4.744 -2.2615  0.5440  0.1597
  743TIP3   OH2 2192   0.284   4.076   4.619  0.1139 -0.1819  0.3131
  743TIP3    H1 2193   0.199   4.108   4.649  0.2609 -0.4091  0.9732
  743TIP3    H2 2194   0.293   3.989   4.658  1.1053  0.2588  1.1246
  744TIP3   OH2 2195   2.385   4.011   1.167 -0.0298  0.6522  0.1331
  744TIP3    H1 2196   2.375   4.034   1.074 -1.0192  0.6742  0.2292
  744TIP3    H2 2197   2.313   4.057   1.210 -0.4515 -0.4934  0.7017
  745TIP3   OH2 2198   6.011   0.950   3.751  0.2081  0.4172  0.1704
  745TIP3    H1 2199   6.055   1.004   3.816  1.0567  0.7800 -0.6714
  745TIP3    H2 2200   5.922   0.938   3.785  0.6522  0.5273  1.4162
  746TIP3   OH2 2201   4.601   3.395   0.611 -0.8001  0.5778  0.4725
  746TIP3    H1 2202   4.635   3.461   0.671 -1.4039  1.6516 -0.3342
  746TIP3    H2 2203   4.565   3.327   0.668  0.1843  0.7490  1.3176
  747TIP3   OH2 2204   1.110   3.440   4.561  0.0439 -0.0126 -0.5831
  747TIP3    H1 2205   1.136   3.532   4.547  0.5385 -0.6032 -5.3824
  747TIP3    H2 2206   1.015   3.442   4.562 -0.0046  0.5022 -2.3909
  748TIP3   OH2 2207   2.684   5.309   2.342  0.0572  0.4978  0.2130
  748TIP3    H1 2208   2.723   5.377   2.287  0.2672 -0.1461 -0.4560
  748TIP3    H2 2209   2.596   5.296   2.307 -0.3607  1.1238  0.9848
  749TIP3   OH2 2210   5.932   4.363   1.656 -0.1217  0.2523 -0.3310
  749TIP3    H1 2211   5.967   4.425   1.719  2.3972 -0.4828 -0.8984
  749TIP3    H2 2212   5.987   4.285   1.666 -1.6081 -0.9836 -1.3475
  750TIP3   OH2 2213   2.667   6.385   0.246 -0.3769  0.2208  0.0159
  750TIP3    H1 2214   2.702   6.322   0.183 -1.2072 -1.0449  0.7514
  750TIP3    H2 2215   2.620   6.449   0.193 -2.0538 -1.4616 -0.6481
  751TIP3   OH2 2216   2.816   5.068   5.034  0.2563  0.1768  0.1071
  751TIP3    H1 2217   2.870   5.113   4.969 -0.8032  0.7869 -0.3778
  751TIP3    H2 2218   2.779   4.994   4.988 -1.1860  1.0978 -0.2644
  752TIP3   OH2 2219   5.378   3.845   5.622  0.7646  0.1930  0.7127
  752TIP3    H1 2220   5.285   3.821   5.626  0.3249  2.0006  2.1131
  752TIP3    H2 2221   5.382   3.914   5.556  1.4892 -1.2284 -0.8145
  753TIP3   OH2 2222   4.940   1.019   3.425  0.0489  0.1567 -0.1139
  753TIP3    H1 2223   4.999   1.082   3.468 -1.5755  1.3493  0.4789
  753TIP3    H2 2224   4.955   1.032   3.332  1.3336 -0.1918  0.0264
  754TIP3   OH2 2225   3.080   0.683   5.020 -0.6989 -0.1949 -0.3202
  754TIP3    H1 2226   3.017   0.613   5.035 -0.6572  0.3901  3.8775
  754TIP3    H2 2227   3.036   0.762   5.052  1.4523  0.4938  1.2196
  755TIP3   OH2 2228   3.202   1.528   0.857 -0.5356  0.2682  0.8188
  755TIP3    H1 2229   3.182   1.619   0.877 -1.1993  0.5027 -0.7636
  755TIP3    H2 2230   3.148   1.507   0.781 -0.6695 -1.5682  1.3652
  756TIP3   OH2 2231   0.510   3.350   3.819  0.5742  0.7857 -0.7034
  756TIP3    H1 2232   0.512   3.324   3.727 -0.5756  0.0744 -0.5510
  756TIP3    H2 2233   0.436   3.301   3.856  1.9789 -0.1844  0.9696
  757TIP3   OH2 2234   1.531   2.220   5.817 -0.3789 -0.3018  0.0240
  757TIP3    H1 2235   1.603   2.283   5.829 -1.8494  1.2973  0.9151
  757TIP3    H2 2236   1.550   2.151   5.880 -0.5280  1.0159  1.5953
  758TIP3   OH2 2237   4.934   0.976   1.285  0.2572 -0.5182  0.4591
  758TIP3    H1 2238   4.870   0.934   1.228 -1.4853  1.9715  0.4270
  758TIP3    H2 2239   4.924   0.931   1.369 -1.3133 -0.4217  0.3533
  759TIP3   OH2 2240   1.489   2.940   4.177 -0.0939  0.2230 -0.3096
  759TIP3    H1 2241   1.526   2.923   4.263  0.1409  1.7087 -0.0934
  759TIP3    H2 2242   1.395   2.925   4.188 -0.4281  2.6805  0.8957
  760TIP3   OH2 2243   2.306   1.829   2.681 -0.1541 -0.1950  0.0100
  760TIP3    H1 2244   2.283   1.867   2.596  0.7499 -0.4018 -0.3410
  760TIP3    H2 2245   2.400   1.811   2.674 -0.2502 -1.0274  0.7376
  761TIP3   OH2 2246   2.533   0.169   3.589  0.3111 -1.0443 -0.1372
  761TIP3    H1 2247   2.528   0.073   3.584 -0.9393 -0.9952 -0.1884
  761TIP3    H2 2248   2.516   0.198   3.499 -2.0778 -0.7285  0.3368
  762TIP3   OH2 2249   3.896   5.684   5.582 -0.0188  0.0813 -0.8456
  762TIP3    H1 2250   3.810   5.681   5.540  0.4803  1.5562 -2.0850
  762TIP3    H2 2251   3.937   5.600   5.559 -1.6715 -1.3634  1.1431
  763TIP3   OH2 2252   2.292   4.206   3.702  0.3692  0.0957 -0.1938
  763TIP3    H1 2253   2.319   4.116   3.684 -0.7545 -0.0461 -1.3299
  763TIP3    H2 2254   2.344   4.259   3.641  1.8424  0.3609  1.2336
  764TIP3   OH2 2255   5.252   0.362   2.128  0.3722 -0.0710 -0.0117
  764TIP3    H1 2256   5.281   0.307   2.055 -2.3242  0.5717 -1.6818
  764TIP3    H2 2257   5.234   0.300   2.199 -0.2311 -1.1030 -1.0361
  765TIP3   OH2 2258   6.278   6.551   3.683  0.2693 -0.4442 -0.1857
  765TIP3    H1 2259   6.192   6.578   3.652  1.0776  1.5733 -0.9115
  765TIP3    H2 2260   6.338   6.576   3.612  1.5575 -0.8177  0.7240
  766TIP3   OH2 2261   4.978   5.013   4.599 -0.3608  0.2558  0.4531
  766TIP3    H1 2262   4.957   4.931   4.642 -1.5846 -0.4534 -1.3799
  766TIP3    H2 2263   5.038   4.989   4.528  1.2122  1.3168  1.3465
  767TIP3   OH2 2264   2.940   5.494   1.818 -0.2703  0.3759  0.7122
  767TIP3    H1 2265   2.979   5.421   1.772  2.2327  1.0563  1.5956
  767TIP3    H2 2266   2.847   5.473   1.822  0.2168 -2.2223  0.0307
  768TIP3   OH2 2267   2.826   0.393   2.274 -0.1502  0.6564 -0.3222
  768TIP3    H1 2268   2.796   0.372   2.186 -0.2282 -0.1069 -0.1174
  768TIP3    H2 2269   2.910   0.348   2.283 -0.2340  0.5760  0.0627
  769TIP3   OH2 2270   6.517   1.211   5.273 -0.3754 -0.2458 -0.0290
  769TIP3    H1 2271   6.441   1.210   5.214 -0.5798  0.0420  0.2287
  769TIP3    H2 2272   6.572   1.139   5.242 -0.4764 -0.0902 -0.5836
  770TIP3   OH2 2273   0.978   0.922   0.024  0.0220 -0.4065  0.5932
  770TIP3    H1 2274   0.947   0.858   0.088 -0.0361 -0.5592  0.4116
  770TIP3    H2 2275   0.957   1.007   0.063  2.7630 -0.3762  2.2569
  771TIP3   OH2 2276   1.995   2.393   4.318 -0.0569  0.0110  0.3527
  771TIP3    H1 2277   2.037   2.421   4.237 -1.9442 -2.4704 -1.6511
  771TIP3    H2 2278   2.039   2.312   4.342 -1.0418 -0.5141  0.4442
  772TIP3   OH2 2279   1.420   2.429   4.502  0.1074 -0.3278  0.8014
  772TIP3    H1 2280   1.495   2.460   4.552  1.2932 -0.7918 -0.6427
  772TIP3    H2 2281   1.435   2.335   4.491  0.1869 -0.1347 -0.9254
  773TIP3   OH2 2282   5.613   2.302   2.169 -0.9312 -0.0792  0.4558
  773TIP3    H1 2283   5.643   2.392   2.157  1.6990 -0.9168  0.0402
  773TIP3    H2 2284   5.637   2.281   2.260 -0.3519 -0.7362  0.1620
  774TIP3   OH2 2285   2.559   6.511   0.960  0.2597  0.4597 -0.0317
  774TIP3    H1 2286   2.637   6.475   0.918  2.2400  2.3366  1.8541
  774TIP3    H2 2287   2.521   6.437   1.007  1.7673 -0.1781  0.2384
  775TIP3   OH2 2288   1.048   6.511   2.853  1.0589 -0.2682  0.2079
  775TIP3    H1 2289   1.105   6.579   2.888  3.7446 -2.2765  0.1203
  775TIP3    H2 2290   1.087   6.429   2.885 -0.2806 -1.8936 -2.0152
  776TIP3   OH2 2291   4.910   5.738   4.445 -0.3513 -0.0082  0.5022
  776TIP3    H1 2292   4.864   5.751   4.362  0.7913 -0.0200 -0.1445
  776TIP3    H2 2293   4.841   5.712   4.506 -1.3307  0.7624 -0.2468
  777TIP3   OH2 2294   6.940   3.260   2.236  0.3235 -0.4451 -0.0280
  777TIP3    H1 2295   6.848   3.250   2.259 -0.0047  1.4539 -0.3318
  777TIP3    H2 2296   6.984   3.273   2.320  0.5801 -2.7396  0.2546
  778TIP3   OH2 2297   5.402   0.627   2.225 -0.5478  0.3857  0.5002
  778TIP3    H1 2298   5.343   0.658   2.156 -0.8655  0.4365  0.7906
  778TIP3    H2 2299   5.359   0.549   2.261  0.2162 -0.3724 -0.1815
  779TIP3   OH2 2300   5.904   1.462   2.874 -0.3261  0.0007  0.2725
  779TIP3    H1 2301   5.950   1.544   2.890 -1.4821  0.3693  1.9866
  779TIP3    H2 2302   5.972   1.402   2.842  0.7062  1.3527 -0.1667
  780TIP3   OH2 2303   6.843   6.478   2.243 -1.0333 -0.4745 -0.4592
  780TIP3    H1 2304   6.786   6.417   2.289 -1.7418  0.1051 -0.5562
  780TIP3    H2 2305   6.852   6.441   2.155 -0.2463 -1.2150 -0.0770
  781TIP3   OH2 2306   1.524   4.274   3.345  0.0172 -0.1266  0.0169
  781TIP3    H1 2307   1.537   4.259   3.251 -0.4098  1.3184 -0.3110
  781TIP3    H2 2308   1.597   4.331   3.371 -0.0200 -0.2907  0.4891
  782TIP3   OH2 2309   2.892   4.195   4.316  0.1964 -0.1744 -0.1961
  782TIP3    H1 2310   2.884   4.250   4.238  0.5834  1.2195  0.6919
  782TIP3    H2 2311   2.986   4.182   4.327  0.1852  0.2135  0.4015
  783TIP3   OH2 2312   0.937   5.028   5.724  0.1526  0.3794 -0.0493
  783TIP3    H1 2313   0.842   5.026   5.737 -0.1722 -1.0888 -2.1606
  783TIP3    H2 2314   0.952   5.107   5.674 -0.4950 -1.0408 -2.6671
  784TIP3   OH2 2315   4.932   6.635   0.851 -0.2206  0.2529 -0.2804
  784TIP3    H1 2316   4.997   6.691   0.892  0.6616  0.1862 -1.5666
  784TIP3    H2 2317   4.923   6.561   0.912  1.2548  0.0315 -0.2931
  785TIP3   OH2 2318   0.514   0.209   0.284  0.8283  0.4288  0.0168
  785TIP3    H1 2319   0.553   0.296   0.273  1.0822  0.2532 -0.5072
  785TIP3    H2 2320   0.544   0.159   0.207  2.6769 -0.8528  1.4574
  786TIP3   OH2 2321   1.602   0.565   0.703  0.6082  0.4986 -0.3068
  786TIP3    H1 2322   1.533   0.555   0.769  0.4152  3.3030  0.0279
  786TIP3    H2 2323   1.570   0.633   0.644  2.0200  0.0593 -1.6585
  787TIP3   OH2 2324   5.899   2.254   3.320 -0.1478 -0.1609  0.0158
  787TIP3    H1 2325   5.934   2.205   3.245  0.6028 -1.2789  1.0647
  787TIP3    H2 2326   5.804   2.246   3.311 -0.1372  0.9798 -1.6067
  788TIP3   OH2 2327   1.011   4.470   4.232 -0.4564 -0.1256 -0.3782
  788TIP3    H1 2328   0.941   4.530   4.210 -1.2276 -0.3359  1.3612
  788TIP3    H2 2329   1.091   4.521   4.221 -0.9018  0.3620 -1.5480
  789TIP3   OH2 2330   4.657   2.797   1.941  0.0209  0.0822 -0.9420
  789TIP3    H1 2331   4.612   2.808   2.025  2.3595  0.3267  0.3671
  789TIP3    H2 2332   4.721   2.728   1.958 -0.2987 -0.7575 -2.9397
  790TIP3   OH2 2333   4.617   3.448   5.179  0.0561  0.0729 -0.2039
  790TIP3    H1 2334   4.633   3.496   5.260 -0.2487 -1.4313  0.7792
  790TIP3    H2 2335   4.534   3.483   5.146  0.8332  1.6205 -0.6009
  791TIP3   OH2 2336   4.084   2.157   3.208  0.4319  0.2942 -0.2565
  791TIP3    H1 2337   4.032   2.162   3.288  0.0348 -1.3102 -0.3927
  791TIP3    H2 2338   4.030   2.200   3.142  0.7314  1.5641  0.2953
  792TIP3   OH2 2339   4.941   2.589   2.588  0.1989  0.2761  0.3666
  792TIP3    H1 2340   4.895   2.512   2.622  1.4532  0.2273  2.0472
  792TIP3    H2 2341   5.024   2.554   2.555  0.9656  0.9357  1.5396
  793TIP3   OH2 2342   3.629   1.930   1.682  0.2325  0.2764 -0.2153
  793TIP3    H1 2343   3.565   2.001   1.685  0.6885  0.6582  0.8629
  793TIP3    H2 2344   3.601   1.869   1.751 -0.5682 -0.9740 -1.5894
  794TIP3   OH2 2345   1.342   3.947   2.002 -0.3007  0.4962  0.0549
  794TIP3    H1 2346   1.281   3.881   1.970 -1.3263  0.8978  1.0852
  794TIP3    H2 2347   1.427   3.903   2.004 -0.7268 -0.3758 -0.5223
  795TIP3   OH2 2348   4.969   5.901   4.138  0.3880  0.8406  0.6902
  795TIP3    H1 2349   4.910   5.964   4.180 -0.7960 -0.6229  1.3021
  795TIP3    H2 2350   5.004   5.948   4.062 -3.0797  1.2144 -0.8977
  796TIP3   OH2 2351   5.076   0.870   2.601 -0.0917 -0.1413  0.6422
  796TIP3    H1 2352   5.100   0.794   2.548  1.7976  0.9602 -0.1823
  796TIP3    H2 2353   5.024   0.925   2.541 -0.0004  0.0068  0.6994
  797TIP3   OH2 2354   4.058   2.140   5.199 -0.6902  0.3013  0.2284
  797TIP3    H1 2355   4.071   2.128   5.293  1.2564  2.9432  0.4238
  797TIP3    H2 2356   3.969   2.175   5.191 -1.1136 -0.5836  0.9940
  798TIP3   OH2 2357   2.897   4.822   0.524 -0.1893  0.4639 -0.0876
  798TIP3    H1 2358   2.877   4.865   0.441  0.3830  0.1637 -0.3917
  798TIP3    H2 2359   2.956   4.750   0.499  0.7398  0.9332  0.6867
  799TIP3   OH2 2360   5.418   3.243   0.050 -0.0684 -0.2152 -0.1595
  799TIP3    H1 2361   5.501   3.291   0.049 -0.6876  0.9027 -1.2646
  799TIP3    H2 2362   5.383   3.255  -0.039 -2.3265  1.0272  0.8080
  800TIP3   OH2 2363   5.854   5.501   1.617  0.1572  0.2193 -0.9550
  800TIP3    H1 2364   5.933   5.483   1.669 -1.4027  0.6433  1.7535
  800TIP3    H2 2365   5.809   5.416   1.612 -1.6445  0.8565  2.0270
  801TIP3   OH2 2366   3.373   2.788   2.292  0.4261  0.7194  0.2553
  801TIP3    H1 2367   3.451   2.796   2.237  0.3037 -0.3559 -0.0952
  801TIP3    H2 2368   3.385   2.705   2.339 -0.6506  0.3759 -0.0456
  802TIP3   OH2 2369   2.586   5.879   3.682  0.1329  0.3769 -0.0875
  802TIP3    H1 2370   2.511   5.939   3.679 -0.1861  0.1065  1.5348
  802TIP3    H2 2371   2.641   5.914   3.751  0.0542 -1.0543  0.7409
  803TIP3   OH2 2372   2.493   5.955   0.828  0.1278  0.0949 -0.3198
  803TIP3    H1 2373   2.524   6.023   0.769 -0.9741  0.1139 -0.9094
  803TIP3    H2 2374   2.446   5.894   0.772  1.7605 -1.6030  0.0776
  804TIP3   OH2 2375   5.537   3.459   5.006 -0.0513 -0.2898  0.1242
  804TIP3    H1 2376   5.586   3.505   5.074  1.8763  0.7822 -1.8606
  804TIP3    H2 2377   5.488   3.529   4.962  0.7974 -0.5240 -1.2300
  805TIP3   OH2 2378   6.219   0.186   3.421  0.0930  0.0632  0.4620
  805TIP3    H1 2379   6.165   0.149   3.491 -0.3786  0.6759  0.4345
  805TIP3    H2 2380   6.212   0.281   3.434 -0.2896  0.1923 -0.6211
  806TIP3   OH2 2381   2.707   0.369   5.277  0.0168  0.0042 -0.7443
  806TIP3    H1 2382   2.643   0.383   5.206  0.5815 -0.9688 -1.4619
  806TIP3    H2 2383   2.736   0.279   5.266 -0.2482 -0.3240  1.0579
  807TIP3   OH2 2384   4.081   1.733   5.586  0.4237  0.1639 -0.0355
  807TIP3    H1 2385   4.099   1.668   5.519  2.3211 -0.2816  0.8228
  807TIP3    H2 2386   3.988   1.725   5.604  0.1108 -0.4580 -1.8060
  808TIP3   OH2 2387   1.267   4.356   2.066 -0.4891 -0.4269  0.4827
  808TIP3    H1 2388   1.322   4.286   2.030 -0.7670 -0.5371  0.2712
  808TIP3    H2 2389   1.303   4.436   2.029  0.6705 -0.3277  1.7683
  809TIP3   OH2 2390   4.732   2.360   4.023  0.1579 -0.1807 -0.1945
  809TIP3    H1 2391   4.680   2.397   3.952  0.8931 -0.4921 -0.9154
  809TIP3    H2 2392   4.710   2.414   4.099 -0.9906 -0.1348 -0.5412
  810TIP3   OH2 2393   6.710   5.276   1.414  0.7801 -0.9266  0.1544
  810TIP3    H1 2394   6.790   5.321   1.441  1.8688 -1.0230 -2.5523
  810TIP3    H2 2395   6.653   5.346   1.382  0.9517 -1.1179 -0.5777
  811TIP3   OH2 2396   2.786   4.452   4.006  0.3182 -0.2798  0.4793
  811TIP3    H1 2397   2.709   4.409   4.043 -0.4656  2.1805  1.9698
  811TIP3    H2 2398   2.855   4.386   4.011 -1.3459 -2.1367  0.3074
  812TIP3   OH2 2399   1.543   5.950   4.783 -0.1127  0.6090 -0.0836
  812TIP3    H1 2400   1.636   5.966   4.763  0.1357 -0.6706 -0.0167
  812TIP3    H2 2401   1.536   5.855   4.789 -1.8722  0.5220 -2.2465
  813TIP3   OH2 2402   4.078   3.985   0.368  0.0358 -0.5152 -0.2899
  813TIP3    H1 2403   4.002   4.041   0.372 -0.1189 -0.7670  0.4653
  813TIP3    H2 2404   4.045   3.898   0.390  1.0353 -0.1129  3.4017
  814TIP3   OH2 2405   0.564   6.424   4.910  0.4866  0.1075  0.9234
  814TIP3    H1 2406   0.625   6.366   4.955  0.3864 -1.0656 -0.4077
  814TIP3    H2 2407   0.601   6.512   4.922  2.3944 -0.5560  0.2312
  815TIP3   OH2 2408   1.192   2.205   2.655  0.1571  0.1053  0.2741
  815TIP3    H1 2409   1.099   2.188   2.639  0.2591 -2.3039  1.8521
  815TIP3    H2 2410   1.238   2.154   2.588  0.3785 -0.3221  0.7495
  816TIP3   OH2 2411   3.086   1.061   4.998 -0.1269 -0.1657  0.1029
  816TIP3    H1 2412   3.166   1.103   4.968 -0.1315 -0.5829 -0.5189
  816TIP3    H2 2413   3.016   1.106   4.949 -0.1138 -1.0293 -0.7424
  817TIP3   OH2 2414   4.179   3.535   2.280 -0.1417 -0.0336 -0.3791
  817TIP3    H1 2415   4.210   3.449   2.306 -1.6727 -0.6130 -0.3442
  817TIP3    H2 2416   4.174   3.531   2.185 -0.5588 -0.1275 -0.3575
  818TIP3   OH2 2417   2.289   6.072   3.401  0.0767  0.3883 -0.0966
  818TIP3    H1 2418   2.301   6.153   3.450 -1.7396  0.6691 -0.0640
  818TIP3    H2 2419   2.355   6.076   3.332 -0.6457  2.3974 -0.7300
  819TIP3   OH2 2420   6.236   0.896   0.453 -0.2356 -0.0236  0.0622
  819TIP3    H1 2421   6.325   0.928   0.442 -0.3166  1.2425  2.3501
  819TIP3    H2 2422   6.245   0.821   0.512 -0.7125  0.6396  1.0090
  820TIP3   OH2 2423   4.247   1.919   3.874  0.0470 -0.3457  0.5935
  820TIP3    H1 2424   4.153   1.914   3.857  0.1814  1.5880 -1.2066
  820TIP3    H2 2425   4.259   2.005   3.915  1.0483 -0.5757  0.8144
  821TIP3   OH2 2426   5.930   0.691   0.563 -0.2321  0.3363  0.3344
  821TIP3    H1 2427   6.018   0.655   0.548 -0.8565 -1.2710  0.3169
  821TIP3    H2 2428   5.910   0.665   0.653 -0.9324  0.1198  0.1198
  822TIP3   OH2 2429   5.505   3.822   2.934  0.3557  0.7312  0.0670
  822TIP3    H1 2430   5.423   3.776   2.953  0.5861 -0.8463 -2.2827
  822TIP3    H2 2431   5.478   3.906   2.897 -0.2948 -0.0172 -1.2571
  823TIP3   OH2 2432   2.482   3.834   0.037 -0.2099 -0.4140  0.0974
  823TIP3    H1 2433   2.395   3.867   0.017  0.0433  0.7522  0.8299
  823TIP3    H2 2434   2.493   3.758  -0.020 -2.0086 -1.0647  0.5353
  824TIP3   OH2 2435   6.329   5.143   2.272 -0.6354 -0.2454 -0.2297
  824TIP3    H1 2436   6.367   5.223   2.306  0.1684 -0.7735  0.1453
  824TIP3    H2 2437   6.346   5.146   2.178  0.3225 -0.4511 -0.0760
  825TIP3   OH2 2438   6.492   3.246   5.449  0.0772  0.4352 -0.0346
  825TIP3    H1 2439   6.488   3.306   5.375  1.6484  1.5873  0.7734
  825TIP3    H2 2440   6.580   3.255   5.483  0.4512 -2.4609  0.0525
  826TIP3   OH2 2441   0.101   2.615   2.330  0.1252  0.0114  0.2163
  826TIP3    H1 2442   0.088   2.704   2.295  1.1481  0.5207  1.0750
  826TIP3    H2 2443   0.181   2.621   2.382  0.3493 -1.4907  0.0883
  827TIP3   OH2 2444   2.507   1.940   4.711  0.3367  0.1992 -0.0089
  827TIP3    H1 2445   2.601   1.938   4.692 -0.0513 -0.1852 -2.1426
  827TIP3    H2 2446   2.472   1.865   4.664 -1.2384  1.2467 -0.5724
  828TIP3   OH2 2447   5.552   2.125   1.225 -0.2911  0.0948  0.1010
  828TIP3    H1 2448   5.601   2.182   1.283  1.1272 -1.3302  0.3800
  828TIP3    H2 2449   5.550   2.172   1.141  1.8750  0.0961 -0.0129
  829TIP3   OH2 2450   0.077   3.413   5.899 -0.3213  0.1689  0.2122
  829TIP3    H1 2451   0.005   3.452   5.848 -0.9187  0.2150  1.0720
  829TIP3    H2 2452   0.146   3.479   5.898 -0.2134  0.0625 -0.7608
  830TIP3   OH2 2453   4.089   4.893   5.576 -0.6200 -0.3665 -0.5177
  830TIP3    H1 2454   4.112   4.903   5.483 -0.9363 -1.1819 -0.6995
  830TIP3    H2 2455   4.170   4.911   5.623  0.1158 -1.9660 -1.0786
  831TIP3   OH2 2456   5.929   4.727   5.618  0.0996  0.2188 -0.0043
  831TIP3    H1 2457   6.007   4.769   5.582 -0.2503 -0.1853 -1.2822
  831TIP3    H2 2458   5.857   4.760   5.564 -0.7867  1.3890  1.8042
  832TIP3   OH2 2459   2.401   6.359   5.881 -0.0339  0.4294 -0.7325
  832TIP3    H1 2460   2.403   6.277   5.832 -1.9378 -0.5932  0.7316
  832TIP3    H2 2461   2.321   6.402   5.851  0.0997  0.9674 -0.3242
  833TIP3   OH2 2462   7.005   5.544   0.384 -0.1013  0.2635 -0.3233
  833TIP3    H1 2463   6.923   5.530   0.432  1.5096 -0.1450  2.5475
  833TIP3    H2 2464   7.039   5.626   0.418 -0.5461  1.9590 -3.5682
  834TIP3   OH2 2465   2.039   5.821   1.082 -0.3672 -0.6339 -0.1804
  834TIP3    H1 2466   1.956   5.846   1.122  0.2423 -1.1713  1.4767
  834TIP3    H2 2467   2.058   5.892   1.020 -0.5654  1.0576  1.6194
  835TIP3   OH2 2468   6.944   0.997   3.761 -0.2608 -0.0247 -0.2256
  835TIP3    H1 2469   6.920   1.088   3.742  1.8235  0.7304  0.4774
  835TIP3    H2 2470   6.918   0.983   3.852  0.9261  0.4644  0.2128
  836TIP3   OH2 2471   0.865   0.743   4.522  0.2810  0.1753 -0.0447
  836TIP3    H1 2472   0.893   0.834   4.518  0.3282  0.1450 -0.4974
  836TIP3    H2 2473   0.897   0.712   4.607 -0.2009  0.7269  0.3446
  837TIP3   OH2 2474   1.449   6.288   5.165  0.3121 -0.1044 -0.3217
  837TIP3    H1 2475   1.451   6.193   5.148 -0.4002 -0.2387  0.3030
  837TIP3    H2 2476   1.521   6.323   5.112  1.0958 -1.0957  0.0441
  838TIP3   OH2 2477   4.207   4.885   2.388  0.4142  0.2624  0.4694
  838TIP3    H1 2478   4.266   4.822   2.429 -0.1645  0.0478  0.9853
  838TIP3    H2 2479   4.121   4.843   2.392  0.2200  0.5732 -0.2649
  839TIP3   OH2 2480   7.009   2.263   5.051  0.2858  0.3871  0.0678
  839TIP3    H1 2481   6.970   2.176   5.062 -3.3623  2.0259  1.6365
  839TIP3    H2 2482   6.982   2.290   4.963 -1.1407  1.0170  0.6738
  840TIP3   OH2 2483   6.617   0.858   2.967  0.4631 -0.0491  0.7744
  840TIP3    H1 2484   6.640   0.931   3.025 -2.0420 -0.5717  2.5809
  840TIP3    H2 2485   6.702   0.823   2.938  1.7554  2.6972  0.8927
  841TIP3   OH2 2486   4.137   0.376   5.563  0.4611 -0.6232 -0.3162
  841TIP3    H1 2487   4.171   0.432   5.633  1.3797  1.4292 -2.2706
  841TIP3    H2 2488   4.068   0.428   5.522  2.0444 -0.3469 -2.8779
  842TIP3   OH2 2489   1.995   2.021   5.375  0.9732  0.2585  0.5352
  842TIP3    H1 2490   1.997   1.937   5.330 -1.2925 -0.1564  1.0901
  842TIP3    H2 2491   2.015   2.085   5.306  0.6120 -0.5813 -0.3775
  843TIP3   OH2 2492   3.445   4.675   3.968  0.1694 -0.2496  0.0708
  843TIP3    H1 2493   3.534   4.708   3.952 -0.3036  0.4739 -1.2244
  843TIP3    H2 2494   3.419   4.714   4.051  0.6174  0.4927 -0.1298
  844TIP3   OH2 2495   3.490   4.308   1.541 -0.3815 -0.1891 -0.1809
  844TIP3    H1 2496   3.510   4.371   1.471 -2.7868  0.4123 -0.4214
  844TIP3    H2 2497   3.395   4.311   1.549 -0.2077 -0.1269  3.2663
  845TIP3   OH2 2498   2.429   1.231   1.507  0.0423 -0.0143 -0.4079
  845TIP3    H1 2499   2.442   1.325   1.499  1.5797 -0.3201 -2.7986
  845TIP3    H2 2500   2.436   1.199   1.417 -0.1659 -2.4473  0.3692
  846TIP3   OH2 2501   6.444   5.613   4.198  0.2705  0.2050 -0.2540
  846TIP3    H1 2502   6.475   5.700   4.225  0.9728 -0.3141  0.6763
  846TIP3    H2 2503   6.449   5.615   4.102 -0.8900  1.5995 -0.3195
  847TIP3   OH2 2504   4.093   0.649   2.324  0.4421 -0.2114  0.2169
  847TIP3    H1 2505   4.041   0.577   2.359  0.1398  0.2761  0.7793
  847TIP3    H2 2506   4.075   0.649   2.230  0.3511 -0.7915  0.2354
  848TIP3   OH2 2507   0.512   4.767   5.675  0.4277  0.4931 -0.3778
  848TIP3    H1 2508   0.562   4.694   5.639  0.8690  1.0913 -1.0085
  848TIP3    H2 2509   0.565   4.799   5.748  0.0757 -0.0089  0.1103
  849TIP3   OH2 2510   0.923   6.633   5.486  0.1700 -0.1952 -0.4376
  849TIP3    H1 2511   0.991   6.699   5.492  0.7346 -0.7399 -0.6846
  849TIP3    H2 2512   0.854   6.673   5.435  0.6081  0.1194 -0.7810
  850TIP3   OH2 2513   4.782   5.142   1.557 -0.1435 -0.0620  0.0979
  850TIP3    H1 2514   4.747   5.055   1.537 -0.0768  0.0359 -0.4675
  850TIP3    H2 2515   4.834   5.129   1.636 -0.7123 -0.3919  0.4185
  851TIP3   OH2 2516   4.576   2.243   1.587 -0.1304 -0.1624  0.7548
  851TIP3    H1 2517   4.531   2.263   1.669  0.8699  1.0644  1.0245
  851TIP3    H2 2518   4.537   2.302   1.523 -2.0634 -2.2131 -0.0971
  852TIP3   OH2 2519   1.997   1.782   3.594  0.0067 -0.0209  0.5204
  852TIP3    H1 2520   2.048   1.855   3.629  0.0123  0.0829  0.2924
  852TIP3    H2 2521   1.916   1.822   3.562  0.9870  0.2482 -1.8050
  853TIP3   OH2 2522   4.497   4.357   0.833 -0.0117  0.0691 -1.1239
  853TIP3    H1 2523   4.461   4.300   0.765 -1.4521  0.0298 -0.3817
  853TIP3    H2 2524   4.485   4.308   0.914 -0.1453  0.9215 -0.6134
  854TIP3   OH2 2525   3.875   0.264   5.224  0.0451 -0.3087  0.5850
  854TIP3    H1 2526   3.960   0.222   5.231 -0.8475 -2.0747  1.6702
  854TIP3    H2 2527   3.838   0.229   5.143  0.0149 -0.2359  0.5675
  855TIP3   OH2 2528   1.055   2.743   5.560 -0.2963  0.4654 -0.0868
  855TIP3    H1 2529   1.020   2.655   5.574  1.0971  0.1805  1.9913
  855TIP3    H2 2530   1.147   2.729   5.538 -0.2834  1.3744 -0.6532
  856TIP3   OH2 2531   3.306   6.616   5.630 -0.2694 -0.0954 -0.0034
  856TIP3    H1 2532   3.252   6.545   5.594  1.2057 -1.1299 -0.2450
  856TIP3    H2 2533   3.283   6.617   5.723 -1.2657  0.0142 -0.2345
  857TIP3   OH2 2534   0.078   1.005   3.794 -0.5727 -0.0336 -0.6716
  857TIP3    H1 2535   0.157   0.982   3.843 -0.1768  0.9028 -0.8512
  857TIP3    H2 2536   0.021   0.929   3.803 -0.6675  0.2438  1.5354
  858TIP3   OH2 2537   3.314   5.775  -0.002  0.0252 -0.2444  0.4082
  858TIP3    H1 2538   3.390   5.726   0.029 -1.1568 -2.2275  0.3280
  858TIP3    H2 2539   3.271   5.806   0.078  1.0838  1.2645  0.4469
  859TIP3   OH2 2540   1.244   5.043   3.155  0.6209  0.1215  0.0674
  859TIP3    H1 2541   1.234   5.034   3.250 -1.7909  0.6779 -0.0694
  859TIP3    H2 2542   1.315   5.107   3.145 -0.3587  1.5441  1.5823
  860TIP3   OH2 2543   0.919   5.534   1.973 -0.0243  0.0604 -0.9248
  860TIP3    H1 2544   0.976   5.590   1.921 -0.3497 -0.7804 -2.2394
  860TIP3    H2 2545   0.968   5.517   2.053  0.3615  1.6228 -0.8110
  861TIP3   OH2 2546   4.687   5.465   4.951 -0.2714 -0.0436  0.1481
  861TIP3    H1 2547   4.693   5.373   4.923 -2.3242 -1.3613  3.3974
  861TIP3    H2 2548   4.614   5.501   4.901 -0.8686 -0.8789  0.3957
  862TIP3   OH2 2549   5.210   1.690   2.336 -0.1408 -0.2698 -0.4713
  862TIP3    H1 2550   5.121   1.660   2.319 -0.1796 -0.2027 -0.3859
  862TIP3    H2 2551   5.199   1.777   2.374 -0.0201 -0.0574 -0.9153
  863TIP3   OH2 2552   0.107   2.474   3.884 -0.1680 -0.3440  0.1528
  863TIP3    H1 2553   0.169   2.502   3.817 -0.6661 -1.4642 -0.8062
  863TIP3    H2 2554   0.099   2.379   3.872 -3.1741 -0.0894 -0.7858
  864TIP3   OH2 2555   1.459   5.360   0.824  0.6513 -0.3830 -0.0359
  864TIP3    H1 2556   1.505   5.334   0.903 -0.4329  0.0263  0.7540
  864TIP3    H2 2557   1.443   5.454   0.834 -1.4867 -0.7250  0.3673
  865TIP3   OH2 2558   3.195   5.530   4.357  0.2005  0.5544  0.5485
  865TIP3    H1 2559   3.187   5.547   4.263  0.6960 -1.8281  0.0031
  865TIP3    H2 2560   3.279   5.568   4.381 -0.0015  1.3209  0.0600
  866TIP3   OH2 2561   0.577   5.385   3.912  0.3906  0.4215 -0.1711
  866TIP3    H1 2562   0.668   5.410   3.895  0.2860  0.2165 -1.0748
  866TIP3    H2 2563   0.560   5.416   4.001  1.0467  1.3050 -0.3386
  867TIP3   OH2 2564   1.625   4.570   2.758 -0.6895 -0.0496 -0.3068
  867TIP3    H1 2565   1.671   4.488   2.776  0.1430  0.4306 -0.1882
  867TIP3    H2 2566   1.690   4.625   2.715 -1.1927  0.6039 -0.2548
  868TIP3   OH2 2567   4.353   1.741   5.662 -0.0013 -0.2014 -1.0978
  868TIP3    H1 2568   4.358   1.700   5.748 -0.6335 -0.7304 -1.3089
  868TIP3    H2 2569   4.260   1.756   5.647  0.0797 -0.3547 -1.7996
  869TIP3   OH2 2570   4.782   1.901   5.235 -0.0145 -0.0165 -0.0079
  869TIP3    H1 2571   4.737   1.858   5.308 -0.6664 -2.2888 -1.6393
  869TIP3    H2 2572   4.713   1.951   5.191  0.0952  0.3163  0.1986
  870TIP3   OH2 2573   1.926   4.746   5.308 -0.6147 -0.3871  0.1182
  870TIP3    H1 2574   2.004   4.740   5.252  0.5739  1.2070  1.4863
  870TIP3    H2 2575   1.858   4.781   5.251 -0.5816 -2.4704 -1.2945
  871TIP3   OH2 2576   3.550   5.642   0.713 -0.2130  0.3604  0.3236
  871TIP3    H1 2577   3.508   5.727   0.697  0.0198  0.3676 -0.2748
  871TIP3    H2 2578   3.622   5.662   0.772  1.4164  1.0212 -1.7820
  872TIP3   OH2 2579   2.492   0.487   2.085  0.1380  0.4145  0.2705
  872TIP3    H1 2580   2.501   0.509   2.177 -1.3606 -0.2536  0.6149
  872TIP3    H2 2581   2.411   0.437   2.080  1.0255 -0.9778 -1.1683
  873TIP3   OH2 2582   5.201   2.593   5.379  0.0719  0.0676  0.1193
  873TIP3    H1 2583   5.205   2.498   5.377  3.1275  0.0898  0.5969
  873TIP3    H2 2584   5.243   2.618   5.462 -1.3589  1.8355  0.3867
  874TIP3   OH2 2585   3.339   2.194   0.444 -0.0513  0.1369 -0.2024
  874TIP3    H1 2586   3.421   2.157   0.410 -0.6684 -0.1393 -1.4416
  874TIP3    H2 2587   3.363   2.282   0.473  0.8142 -0.1589  0.0129
  875TIP3   OH2 2588   4.258   3.061   2.507  0.0355  1.0870 -0.1903
  875TIP3    H1 2589   4.262   2.973   2.469 -0.6536 -0.8490  3.7518
  875TIP3    H2 2590   4.346   3.078   2.539 -0.0453  1.4392 -0.1434
  876TIP3   OH2 2591   4.700   6.408   1.493 -0.2067  0.9640  0.4517
  876TIP3    H1 2592   4.740   6.485   1.454  1.5797 -0.6253 -1.0483
  876TIP3    H2 2593   4.756   6.387   1.568  0.9987 -0.4483 -0.8053
  877TIP3   OH2 2594   3.737   5.510   0.313 -0.2882 -0.1891  0.0762
  877TIP3    H1 2595   3.680   5.575   0.354  0.7327  0.4856  0.4769
  877TIP3    H2 2596   3.826   5.542   0.331  0.2107 -0.3230 -1.9606
  878TIP3   OH2 2597   3.763   1.833   2.624  0.0128 -0.2128  0.0304
  878TIP3    H1 2598   3.757   1.761   2.686 -2.0953  0.8026  1.1281
  878TIP3    H2 2599   3.699   1.897   2.656  1.7899  2.1817 -0.8460
  879TIP3   OH2 2600   0.430   1.863   5.213 -0.0120  0.2779 -0.5578
  879TIP3    H1 2601   0.425   1.824   5.300  1.1497  0.4122 -0.4139
  879TIP3    H2 2602   0.345   1.843   5.173 -0.7796  0.6636  0.7851
  880TIP3   OH2 2603   1.513   5.017   2.140 -0.1667 -0.2273  0.5516
  880TIP3    H1 2604   1.424   5.034   2.108  0.6541  2.0374 -0.7779
  880TIP3    H2 2605   1.507   4.932   2.183 -3.1206  0.1510  1.1071
  881TIP3   OH2 2606   3.175   5.890   4.779 -0.6411  0.4494 -0.1620
  881TIP3    H1 2607   3.131   5.818   4.824  0.0270  0.7378  0.9768
  881TIP3    H2 2608   3.103   5.943   4.744 -1.1507 -0.3154 -0.2868
  882TIP3   OH2 2609   3.996   5.689   1.930 -0.4457  1.0061 -0.3419
  882TIP3    H1 2610   4.021   5.674   1.839 -2.7972 -1.1900 -0.7500
  882TIP3    H2 2611   4.038   5.617   1.978 -2.1408 -0.0469 -0.3502
  883TIP3   OH2 2612   2.192   6.503   4.077 -0.0829  0.5928  0.3672
  883TIP3    H1 2613   2.111   6.456   4.057  0.7391 -1.5368  1.7041
  883TIP3    H2 2614   2.170   6.560   4.151 -0.3650 -0.0339  0.7743
  884TIP3   OH2 2615   3.146   4.364   5.061  0.8885  1.0802  0.1970
  884TIP3    H1 2616   3.078   4.374   4.995  0.3000 -1.5191  0.2962
  884TIP3    H2 2617   3.099   4.338   5.141  1.8875  0.2248  0.5333
  885TIP3   OH2 2618   2.915   3.862   1.211 -0.3017  0.1999  0.5889
  885TIP3    H1 2619   2.930   3.800   1.140 -0.3283  1.3698 -0.4847
  885TIP3    H2 2620   2.898   3.945   1.166  0.3265  1.1088  1.9791
  886TIP3   OH2 2621   1.316   2.104   1.223  0.2973  0.1168 -0.0532
  886TIP3    H1 2622   1.249   2.038   1.207  0.9667  0.0337 -3.1713
  886TIP3    H2 2623   1.385   2.057   1.271 -0.2634 -0.7839 -0.1090
  887TIP3   OH2 2624   3.811   4.238   5.036  0.5435 -0.6556  0.1476
  887TIP3    H1 2625   3.752   4.313   5.045  0.5436 -0.6136 -0.1683
  887TIP3    H2 2626   3.898   4.274   5.052  0.3754 -0.9928  1.9971
  888TIP3   OH2 2627   6.875   1.392   3.119  0.3565  0.0544 -0.4418
  888TIP3    H1 2628   6.794   1.370   3.073  0.7764 -0.2562 -1.0540
  888TIP3    H2 2629   6.846   1.429   3.202 -0.4219 -2.3714  0.4737
  889TIP3   OH2 2630   6.640   5.511   1.818  0.4875  0.0441 -0.0289
  889TIP3    H1 2631   6.556   5.502   1.863 -0.5829  2.4476 -1.3705
  889TIP3    H2 2632   6.646   5.433   1.763 -0.9655 -0.0928 -0.0236
  890TIP3   OH2 2633   5.082   1.234   0.684 -0.0215 -0.1422 -0.3677
  890TIP3    H1 2634   5.037   1.285   0.751 -0.4854 -0.7947 -0.1792
  890TIP3    H2 2635   5.172   1.267   0.686  0.3413 -1.1142  1.5723
  891TIP3   OH2 2636   5.286   6.676   3.465 -0.0937 -0.4076  0.3234
  891TIP3    H1 2637   5.271   6.609   3.399 -0.1040  1.7336 -1.9993
  891TIP3    H2 2638   5.378   6.664   3.490 -0.1378 -1.3693  0.0696
  892TIP3   OH2 2639   1.283   3.420   5.278 -0.4690  0.1516  0.6342
  892TIP3    H1 2640   1.363   3.420   5.225  0.1505 -0.3456  1.5362
  892TIP3    H2 2641   1.223   3.363   5.230 -0.3014  0.5702 -0.0828
  893TIP3   OH2 2642   4.338   5.938   3.287 -0.1623  0.1495  0.3680
  893TIP3    H1 2643   4.399   5.895   3.227  1.2264 -0.2253  1.9829
  893TIP3    H2 2644   4.392   5.999   3.338 -1.4117  0.9409  0.8070
  894TIP3   OH2 2645   5.299   1.050   4.379  0.3690  0.1233 -0.2572
  894TIP3    H1 2646   5.371   0.998   4.344 -0.2557 -1.3520  0.5548
  894TIP3    H2 2647   5.341   1.126   4.420  1.4941 -0.9462  0.6210
  895TIP3   OH2 2648   4.476   4.402   2.937 -0.0086  0.1901  0.3363
  895TIP3    H1 2649   4.469   4.480   2.993  0.2302  0.1690  0.3957
  895TIP3    H2 2650   4.409   4.343   2.970  1.6069 -0.7729  2.1173
  896TIP3   OH2 2651   5.285   6.626   4.750  0.3907 -0.1502 -0.3260
  896TIP3    H1 2652   5.193   6.616   4.776  0.4108 -1.1400 -0.5873
  896TIP3    H2 2653   5.298   6.560   4.682  1.6063 -0.8831  0.5687
  897TIP3   OH2 2654   1.847   1.400   5.734 -0.2642  0.4543 -0.0307
  897TIP3    H1 2655   1.895   1.458   5.794 -2.2049  1.6806  0.4443
  897TIP3    H2 2656   1.755   1.409   5.761 -1.3374  1.4735 -3.4819
  898TIP3   OH2 2657   1.924   4.828   1.798  0.3629 -0.0653 -0.3567
  898TIP3    H1 2658   1.932   4.860   1.708  0.8625 -1.1675 -0.7279
  898TIP3    H2 2659   1.991   4.760   1.805 -0.3777 -0.7297  0.5187
  899TIP3   OH2 2660   4.902   1.219   1.633  0.1377  0.1145 -0.2964
  899TIP3    H1 2661   4.816   1.247   1.603 -0.4413 -0.3026  0.9059
  899TIP3    H2 2662   4.886   1.179   1.718  1.4877 -0.2247 -0.1752
  900TIP3   OH2 2663   1.240   3.118   4.298 -0.0516  0.2422  0.1682
  900TIP3    H1 2664   1.200   3.097   4.214  2.3960 -1.4336 -0.6819
  900TIP3    H2 2665   1.219   3.043   4.354  1.2300 -0.3222 -0.0747
  901TIP3   OH2 2666   1.596   2.820   2.885  0.1126 -0.2950 -0.1679
  901TIP3    H1 2667   1.566   2.850   2.970 -0.3070 -0.5809 -0.2143
  901TIP3    H2 2668   1.533   2.753   2.859  0.2112 -0.1779 -0.7243
  902TIP3   OH2 2669   4.679   0.312   0.122 -0.0851  0.0782  0.2127
  902TIP3    H1 2670   4.774   0.301   0.126 -0.3076 -2.7419 -0.3028
  902TIP3    H2 2671   4.656   0.347   0.208  1.3369  0.2155  0.5686
  903TIP3   OH2 2672   1.314   5.831   1.761  0.1358 -0.0675  0.3009
  903TIP3    H1 2673   1.296   5.817   1.668  1.1164  0.6835 -0.0214
  903TIP3    H2 2674   1.278   5.753   1.805  0.6686 -0.9696 -0.8202
  904TIP3   OH2 2675   3.665   3.918   5.616  0.3034  0.8267  0.8534
  904TIP3    H1 2676   3.651   4.010   5.639  1.4372  0.7349  1.9619
  904TIP3    H2 2677   3.758   3.911   5.598 -0.2117  0.5105 -2.2279
  905TIP3   OH2 2678   6.764   0.288   1.762  0.2035 -0.5222 -0.3063
  905TIP3    H1 2679   6.824   0.300   1.835  0.0094  0.6926 -0.3327
  905TIP3    H2 2680   6.818   0.249   1.693  0.9723  0.5833 -0.3394
  906TIP3   OH2 2681   2.192   2.394   1.827 -0.1150 -0.3193  0.3024
  906TIP3    H1 2682   2.134   2.437   1.764  0.4008 -1.7262 -1.1682
  906TIP3    H2 2683   2.152   2.308   1.842  0.2621 -0.3511  1.2250
  907TIP3   OH2 2684   0.843   3.262   4.055 -0.3871 -0.4685  0.3533
  907TIP3    H1 2685   0.747   3.259   4.049 -0.3104 -0.6159 -1.2534
  907TIP3    H2 2686   0.860   3.316   4.132 -1.8081  2.2077 -1.0246
  908TIP3   OH2 2687   4.777   2.859   0.995  0.5158  0.1177  0.1645
  908TIP3    H1 2688   4.753   2.933   0.939 -1.9557 -0.6820  0.0780
  908TIP3    H2 2689   4.742   2.882   1.081  2.2244  0.2659  0.8577
  909TIP3   OH2 2690   2.377   1.817   5.231  0.0632 -0.2772  0.0702
  909TIP3    H1 2691   2.318   1.774   5.170  0.6113  0.0605 -0.7204
  909TIP3    H2 2692   2.330   1.817   5.314 -1.4817  0.8685 -0.7490
  910TIP3   OH2 2693   0.282   0.885   2.087  0.3190 -0.2768 -0.3711
  910TIP3    H1 2694   0.369   0.921   2.104  0.0070  0.8807 -1.1248
  910TIP3    H2 2695   0.255   0.923   2.004  0.8155 -3.9054 -2.3986
  911TIP3   OH2 2696   6.957   4.892   4.493 -0.0730  0.3747  0.7275
  911TIP3    H1 2697   6.971   4.878   4.587  0.8862 -2.0326  0.3126
  911TIP3    H2 2698   7.037   4.859   4.453  0.3655  3.1285 -0.8998
  912TIP3   OH2 2699   6.899   5.932   1.042  0.1357  0.3455 -0.1031
  912TIP3    H1 2700   6.822   5.890   1.081  1.4837 -0.2107  2.1293
  912TIP3    H2 2701   6.863   6.000   0.986 -1.9995 -0.2605  0.4459
  913TIP3   OH2 2702   3.145   5.417   3.041 -0.7525 -0.1823 -0.4305
  913TIP3    H1 2703   3.197   5.355   2.991  0.8144  0.5923  0.1775
  913TIP3    H2 2704   3.071   5.439   2.983 -1.4389 -2.6500 -0.6109
  914TIP3   OH2 2705   6.720   1.831   5.036  0.1909 -0.2941 -0.1564
  914TIP3    H1 2706   6.663   1.818   4.960 -1.5476 -1.7971  1.2846
  914TIP3    H2 2707   6.753   1.744   5.056  0.0105 -0.0747  1.2187
  915TIP3   OH2 2708   5.748   3.075   1.931 -0.7039  0.2974  0.2003
  915TIP3    H1 2709   5.768   3.158   1.974 -0.9614  0.3539  0.2087
  915TIP3    H2 2710   5.660   3.086   1.896 -0.0834  0.6548 -1.3186
  916TIP3   OH2 2711   4.153   0.165   1.319  0.0446 -0.0640 -0.2869
  916TIP3    H1 2712   4.165   0.203   1.232  1.5633 -0.6279 -0.3669
  916TIP3    H2 2713   4.241   0.165   1.358 -0.5400 -0.1404  1.1193
  917TIP3   OH2 2714   1.138   1.266   4.184 -0.2578  0.5120  0.0454
  917TIP3    H1 2715   1.221   1.313   4.170 -0.4455  1.1805  1.0986
  917TIP3    H2 2716   1.080   1.301   4.116 -0.2705  1.5323  0.5571
  918TIP3   OH2 2717   3.677   1.170   3.863  0.3578 -0.1739  0.8471
  918TIP3    H1 2718   3.754   1.179   3.920  0.5201 -0.9229  0.7539
  918TIP3    H2 2719   3.698   1.097   3.806 -1.0399 -1.3806  1.8120
  919TIP3   OH2 2720   3.823   6.089   1.342 -0.1674  0.7844 -0.2793
  919TIP3    H1 2721   3.777   6.064   1.422  2.6748  0.2316  1.3050
  919TIP3    H2 2722   3.811   6.184   1.336 -1.9668  0.5892 -0.2946
  920TIP3   OH2 2723   1.398   5.934   5.388  0.2938 -0.1491 -0.4765
  920TIP3    H1 2724   1.432   6.023   5.375 -0.2738 -0.2475 -3.2605
  920TIP3    H2 2725   1.432   5.884   5.315  1.0707 -2.4746  1.3388
  921TIP3   OH2 2726   3.737   4.677   0.402  0.0794  0.6436  0.6071
  921TIP3    H1 2727   3.811   4.730   0.372 -0.0634 -0.0631 -1.1384
  921TIP3    H2 2728   3.671   4.740   0.429  0.2672  1.3507 -0.5278
  922TIP3   OH2 2729   3.350   0.260   1.680  0.2837 -0.5704 -0.2482
  922TIP3    H1 2730   3.326   0.171   1.654  0.3896 -1.0868  1.3071
  922TIP3    H2 2731   3.441   0.252   1.710 -0.8223 -0.8759  3.6424
  923TIP3   OH2 2732   3.208   1.190   2.867  0.1899  0.1543 -0.0346
  923TIP3    H1 2733   3.233   1.163   2.955 -0.6704 -0.6382 -0.0205
  923TIP3    H2 2734   3.266   1.264   2.847 -0.6070  1.3255  1.7763
  924TIP3   OH2 2735   4.779   1.940   2.475 -0.1532 -0.3647  0.4551
  924TIP3    H1 2736   4.697   1.958   2.428 -0.1947 -0.1430  0.6166
  924TIP3    H2 2737   4.753   1.930   2.566  0.2949  1.9990  0.8974
  925TIP3   OH2 2738   1.800   4.461   1.005 -0.0998  0.4311  0.4138
  925TIP3    H1 2739   1.711   4.469   0.971  0.2419  1.5302 -0.2588
  925TIP3    H2 2740   1.839   4.391   0.952 -0.6886 -0.3753  1.0225
  926TIP3   OH2 2741   6.424   1.703   5.003  0.0231 -0.7585 -0.8410
  926TIP3    H1 2742   6.365   1.719   4.929 -0.8136 -0.2867 -0.0902
  926TIP3    H2 2743   6.469   1.622   4.980  0.0323 -0.4362 -2.0250
  927TIP3   OH2 2744   6.906   6.186   0.856 -0.1426  0.3685 -0.5237
  927TIP3    H1 2745   6.936   6.276   0.863  1.6925 -0.1226 -1.5298
  927TIP3    H2 2746   6.817   6.193   0.821 -0.9227  1.8282  1.5864
  928TIP3   OH2 2747   4.120   0.104   3.731 -0.0777 -0.2983 -0.0091
  928TIP3    H1 2748   4.152   0.194   3.725  0.7333 -0.6624 -1.8962
  928TIP3    H2 2749   4.025   0.113   3.739  0.1083  0.7275  1.6001
  929TIP3   OH2 2750   1.178   4.090   5.657  0.1013 -0.1270  0.3138
  929TIP3    H1 2751   1.169   4.184   5.641  1.5250 -0.0050  0.0127
  929TIP3    H2 2752   1.090   4.054   5.645 -0.4457  1.1545  0.3628
  930TIP3   OH2 2753   3.720   4.085   0.688  0.1484 -0.4571 -0.2162
  930TIP3    H1 2754   3.777   4.062   0.762  0.3203  1.1544  0.1916
  930TIP3    H2 2755   3.641   4.033   0.702 -0.2556  0.5774  1.7223
  931TIP3   OH2 2756   0.154   1.743   1.213 -0.4627 -0.7065  0.5731
  931TIP3    H1 2757   0.076   1.713   1.166 -0.6157 -1.5066  1.3116
  931TIP3    H2 2758   0.183   1.667   1.263  1.2195 -0.6315 -0.2095
  932TIP3   OH2 2759   6.734   4.984   2.434 -0.2819 -0.1658 -0.4025
  932TIP3    H1 2760   6.702   4.999   2.523 -0.0232  1.2743 -0.5148
  932TIP3    H2 2761   6.687   4.906   2.404 -1.6554  0.2990  0.4141
  933TIP3   OH2 2762   4.073   1.569   5.373 -0.3340  0.5928 -0.2982
  933TIP3    H1 2763   4.057   1.571   5.278  0.2968  1.2905 -0.4035
  933TIP3    H2 2764   4.084   1.476   5.394 -0.8360  0.4057 -0.8445
  934TIP3   OH2 2765   5.077   3.145   1.890 -0.1079 -0.4415  0.2823
  934TIP3    H1 2766   5.112   3.063   1.927  1.0386 -0.1418 -0.0842
  934TIP3    H2 2767   5.071   3.204   1.965 -0.0401 -0.5701  0.3908
  935TIP3   OH2 2768   1.402   0.683   4.055  0.6785  0.1378  0.2464
  935TIP3    H1 2769   1.371   0.770   4.033  0.9350  0.7301  2.0623
  935TIP3    H2 2770   1.494   0.682   4.027  0.6811  0.4754  0.2417
  936TIP3   OH2 2771   6.643   2.071   4.772 -0.5165  0.5823 -0.4964
  936TIP3    H1 2772   6.592   2.100   4.696 -1.4091 -1.0507 -0.5535
  936TIP3    H2 2773   6.585   2.085   4.847 -0.7721 -0.5079 -0.4702
  937TIP3   OH2 2774   2.246   0.446   4.616 -0.2488 -0.1655 -0.6620
  937TIP3    H1 2775   2.166   0.441   4.563 -1.5164  1.1744  1.0137
  937TIP3    H2 2776   2.262   0.539   4.628  0.9577 -0.4266 -0.0533
  938TIP3   OH2 2777   4.565   0.344   2.691  0.1286  0.2723  0.5000
  938TIP3    H1 2778   4.577   0.408   2.761 -1.3162 -0.2841  1.2992
  938TIP3    H2 2779   4.552   0.396   2.612 -0.6418  0.9545  1.0680
  939TIP3   OH2 2780   0.672   6.254   5.713 -0.3209 -0.2299  0.2252
  939TIP3    H1 2781   0.676   6.340   5.671  0.5624 -0.4553 -0.1830
  939TIP3    H2 2782   0.764   6.232   5.731 -0.4027 -1.6083 -0.8016
  940TIP3   OH2 2783   4.507   6.360   5.393  0.3662  0.2977  0.2899
  940TIP3    H1 2784   4.427   6.412   5.391 -0.4639 -0.9316 -0.7378
  940TIP3    H2 2785   4.577   6.423   5.405 -0.6954  1.5075  0.3137
  941TIP3   OH2 2786   1.537   1.194   1.143  0.4646 -0.4241  0.3374
  941TIP3    H1 2787   1.444   1.172   1.142 -0.0231  1.4566 -1.2937
  941TIP3    H2 2788   1.580   1.113   1.169 -1.6286 -1.2621  1.4542
  942TIP3   OH2 2789   5.457   2.803   4.807  0.5664 -0.1426  0.3253
  942TIP3    H1 2790   5.512   2.813   4.729 -0.5618  0.3989 -0.4339
  942TIP3    H2 2791   5.377   2.851   4.785  0.0413 -0.3873  1.6453
  943TIP3   OH2 2792   2.357   1.098   3.182 -0.2204  0.0880 -0.0257
  943TIP3    H1 2793   2.295   1.162   3.147 -1.1936 -0.2511  1.0309
  943TIP3    H2 2794   2.358   1.027   3.118  0.6796  1.0183 -1.0831
  944TIP3   OH2 2795   6.162   0.425   4.152  0.1137  0.2678 -0.4559
  944TIP3    H1 2796   6.111   0.378   4.219 -0.7753 -1.3547 -2.1726
  944TIP3    H2 2797   6.213   0.357   4.109  1.6553  1.4759 -0.6196
  945TIP3   OH2 2798   5.255   0.639   3.168 -0.2560 -0.5467 -0.2063
  945TIP3    H1 2799   5.248   0.613   3.260  0.3921  0.8384  0.2601
  945TIP3    H2 2800   5.165   0.662   3.144 -0.4566 -1.0704  0.0262
  946TIP3   OH2 2801   0.806   3.168   3.418 -0.6775  0.0007  0.1999
  946TIP3    H1 2802   0.768   3.109   3.483  1.0997 -1.1500  0.2539
  946TIP3    H2 2803   0.809   3.116   3.337 -0.1512  0.4127 -0.0496
  947TIP3   OH2 2804   7.188   0.410   0.166 -0.2948 -0.0487 -0.0373
  947TIP3    H1 2805   7.262   0.467   0.184 -0.5415  0.2119  0.1581
  947TIP3    H2 2806   7.157   0.436   0.079 -0.2175 -0.0943 -0.0787
  948TIP3   OH2 2807   5.680   2.090   2.429  0.5404 -0.4315  0.3077
  948TIP3    H1 2808   5.630   2.157   2.476 -2.1911 -2.0693 -0.0729
  948TIP3    H2 2809   5.748   2.140   2.382 -1.2035  2.0730  0.2400
  949TIP3   OH2 2810   3.727   0.842   2.759  0.2333 -0.3287 -0.5070
  949TIP3    H1 2811   3.733   0.759   2.712 -0.2158 -1.0475  0.6821
  949TIP3    H2 2812   3.760   0.823   2.846 -0.7793  0.4980  0.0763
  950TIP3   OH2 2813   2.987   5.462   0.612 -0.4774  0.1119  0.1071
  950TIP3    H1 2814   3.044   5.478   0.687 -0.9918  0.6243  0.3986
  950TIP3    H2 2815   2.906   5.427   0.650 -0.8088  0.5441 -0.1851
  951TIP3   OH2 2816   1.212   6.666   4.302  0.4151 -0.5280 -0.1573
  951TIP3    H1 2817   1.185   6.636   4.389  0.4318 -0.2320 -0.0499
  951TIP3    H2 2818   1.306   6.649   4.299  0.7084  0.8879  0.4726
  952TIP3   OH2 2819   3.268   2.792   1.277 -0.1795 -0.1083  0.6631
  952TIP3    H1 2820   3.183   2.822   1.309 -0.9781  1.4304 -2.5159
  952TIP3    H2 2821   3.330   2.860   1.305 -0.8131  1.0745 -0.6995
  953TIP3   OH2 2822   1.724   2.780   2.507 -0.3337  0.0041  0.7598
  953TIP3    H1 2823   1.694   2.838   2.437 -0.4754 -1.0223 -0.0417
  953TIP3    H2 2824   1.651   2.720   2.522 -0.4277  0.3986  2.0206
  954TIP3   OH2 2825   4.787   3.006   2.865  0.5177  0.5230 -0.0225
  954TIP3    H1 2826   4.801   3.082   2.809 -0.2440 -0.6437 -1.8542
  954TIP3    H2 2827   4.716   3.033   2.924  1.6457  1.9171  0.7810
  955TIP3   OH2 2828   2.399   5.630   4.548 -0.7020 -0.0216  0.1410
  955TIP3    H1 2829   2.356   5.624   4.462 -1.6962  0.1115  0.6163
  955TIP3    H2 2830   2.435   5.542   4.563 -0.6406 -0.0851 -0.3436
  956TIP3   OH2 2831   2.853   4.210   5.666  0.9151  0.2611 -0.3476
  956TIP3    H1 2832   2.819   4.125   5.695 -0.0789 -0.1472 -2.5225
  956TIP3    H2 2833   2.922   4.230   5.729 -0.0524 -1.2631  1.3146
  957TIP3   OH2 2834   6.534   5.923   4.808  0.0575  0.0865 -0.3003
  957TIP3    H1 2835   6.576   5.845   4.773 -1.9765 -0.8563 -0.8240
  957TIP3    H2 2836   6.473   5.950   4.739 -0.8786  0.7934  0.7609
  958TIP3   OH2 2837   3.221   2.159   0.148 -0.3588 -0.0081 -0.5940
  958TIP3    H1 2838   3.261   2.091   0.095  0.3970  0.6716 -0.9119
  958TIP3    H2 2839   3.270   2.158   0.230  0.2803  0.7663 -0.9509
  959TIP3   OH2 2840   6.025   4.369   3.520  1.1642 -0.8490  0.2446
  959TIP3    H1 2841   6.087   4.306   3.559  1.0250  0.0922  2.0591
  959TIP3    H2 2842   6.080   4.424   3.464  1.3153 -2.4361 -1.2592
  960TIP3   OH2 2843   6.220   6.057   4.049 -0.2327  0.4195 -0.1838
  960TIP3    H1 2844   6.213   5.967   4.015  0.5914  0.4088 -0.3481
  960TIP3    H2 2845   6.286   6.098   3.994  1.1399  0.4110  1.3808
  961TIP3   OH2 2846   2.069   2.537   0.404 -0.1932 -0.3783 -0.0440
  961TIP3    H1 2847   2.052   2.587   0.484 -2.3695 -3.8032  1.9213
  961TIP3    H2 2848   2.000   2.564   0.344 -0.2164  0.2812  0.2727
  962TIP3   OH2 2849   6.741   6.032   5.895  0.1327  0.1504 -0.1667
  962TIP3    H1 2850   6.650   6.005   5.878  0.2850 -1.9751  1.8852
  962TIP3    H2 2851   6.748   6.119   5.855 -2.7932  0.3794 -0.3950
  963TIP3   OH2 2852   3.665   3.863   3.758  0.2113 -0.2602 -0.0967
  963TIP3    H1 2853   3.717   3.900   3.686  1.1441 -0.8703  0.2495
  963TIP3    H2 2854   3.661   3.933   3.823  0.0014  0.0284 -0.4119
  964TIP3   OH2 2855   2.188   4.363   3.370  0.3355 -0.5840 -0.5802
  964TIP3    H1 2856   2.249   4.356   3.297  1.8293  0.0442  0.5522
  964TIP3    H2 2857   2.151   4.275   3.379 -0.2091 -0.5732 -2.3265
  965TIP3   OH2 2858   0.327   1.404   2.652 -0.2187 -0.7558 -0.0705
  965TIP3    H1 2859   0.280   1.322   2.669 -1.6963  0.2271  0.8920
  965TIP3    H2 2860   0.287   1.438   2.572  0.9395 -1.3259 -0.9154
  966TIP3   OH2 2861   0.185   1.101   5.872  0.9412  0.4490  0.1010
  966TIP3    H1 2862   0.182   1.174   5.933 -0.0764 -0.3166  1.0187
  966TIP3    H2 2863   0.229   1.135   5.794  0.3089  2.0936  0.4322
  967TIP3   OH2 2864   0.055   6.773   2.300  0.6206  0.4091 -0.3072
  967TIP3    H1 2865  -0.018   6.773   2.362 -0.2266 -3.9381 -0.9908
  967TIP3    H2 2866   0.126   6.729   2.346  1.7534  1.6493 -0.7959
  968TIP3   OH2 2867   6.858   3.957   4.045  0.0486 -0.2259  1.1561
  968TIP3    H1 2868   6.920   3.980   3.976 -2.0018 -2.0696 -1.4900
  968TIP3    H2 2869   6.783   4.014   4.031 -0.5109 -0.8187  1.6766
  969TIP3   OH2 2870   1.638   5.157   1.917  0.2464  0.2174 -0.6704
  969TIP3    H1 2871   1.563   5.119   1.872  0.9985  0.1897 -1.9360
  969TIP3    H2 2872   1.602   5.189   2.000 -0.4836 -2.9785  0.3990
  970TIP3   OH2 2873   7.101   0.703   4.322  0.0908 -0.1185 -0.7894
  970TIP3    H1 2874   7.191   0.692   4.352  0.1261 -0.0669 -0.8754
  970TIP3    H2 2875   7.090   0.797   4.311  1.4526 -0.2593 -5.0059
  971TIP3   OH2 2876   5.551   4.418   0.058  0.3729 -0.5438 -0.1133
  971TIP3    H1 2877   5.498   4.404  -0.020  0.5705 -1.5822 -0.0768
  971TIP3    H2 2878   5.641   4.427   0.025  0.4853 -1.1989  0.0003
  972TIP3   OH2 2879   5.403   4.398   1.720  0.2404 -0.2567 -0.6023
  972TIP3    H1 2880   5.467   4.348   1.669 -0.0664 -1.9636  0.5874
  972TIP3    H2 2881   5.322   4.393   1.669 -0.1891 -2.3567  0.1842
  973TIP3   OH2 2882   0.216   5.996   3.918 -0.1997  0.6352 -0.1291
  973TIP3    H1 2883   0.217   5.901   3.932 -0.1099  0.6923  0.2533
  973TIP3    H2 2884   0.274   6.031   3.986 -0.5753  1.0056  0.0005
  974TIP3   OH2 2885   3.010   5.588   2.056  0.0709  0.0869 -0.5384
  974TIP3    H1 2886   3.021   5.496   2.082 -1.7020 -0.6431 -2.1525
  974TIP3    H2 2887   3.022   5.587   1.961 -1.3107  1.2716 -0.7544
  975TIP3   OH2 2888   2.079   1.686   0.664  0.0686  0.7865 -0.0175
  975TIP3    H1 2889   2.111   1.644   0.744 -0.9842  0.6318  0.3377
  975TIP3    H2 2890   2.008   1.743   0.693  1.4619  2.8835 -0.4857
  976TIP3   OH2 2891   5.978   3.569   4.709 -0.3327  0.2384 -0.3310
  976TIP3    H1 2892   5.911   3.612   4.656 -0.1983 -0.3528 -0.9983
  976TIP3    H2 2893   5.962   3.600   4.798 -0.3808  1.4951 -0.7503
  977TIP3   OH2 2894   5.173   4.287   0.181  1.0634 -0.2554  0.1778
  977TIP3    H1 2895   5.224   4.366   0.198 -0.7874  0.8986  0.6270
  977TIP3    H2 2896   5.161   4.247   0.267  0.7641 -0.2269  0.1514
  978TIP3   OH2 2897   5.897   4.091   1.821 -0.0104  0.5037  0.2943
  978TIP3    H1 2898   5.872   4.183   1.826 -1.0397  0.2901 -0.5696
  978TIP3    H2 2899   5.969   4.082   1.884 -0.2030  1.7860  0.7233
  979TIP3   OH2 2900   1.353   5.354   2.939  0.1603  0.1821  0.1096
  979TIP3    H1 2901   1.273   5.319   2.900  1.6945 -1.2640 -1.9471
  979TIP3    H2 2902   1.331   5.445   2.962 -1.9798 -0.1064 -0.6330
  980TIP3   OH2 2903   2.420   4.245   0.285 -0.0640  0.4132 -0.9398
  980TIP3    H1 2904   2.392   4.156   0.265 -2.5949  0.6048  1.1801
  980TIP3    H2 2905   2.379   4.299   0.217 -1.2944  0.2392 -0.3608
  981TIP3   OH2 2906   3.529   2.327   0.723 -0.2745 -0.6204 -0.1427
  981TIP3    H1 2907   3.491   2.353   0.807  1.0032  0.6380  0.0868
  981TIP3    H2 2908   3.600   2.267   0.746 -0.1690 -0.5784 -0.3519
  982TIP3   OH2 2909   4.827   1.727   3.280 -0.3898  0.0851 -0.4951
  982TIP3    H1 2910   4.777   1.704   3.359 -0.8835 -0.1395 -0.8664
  982TIP3    H2 2911   4.763   1.722   3.210  0.3587 -1.1210 -1.1273
  983TIP3   OH2 2912   5.640   2.182   5.267 -0.0086 -0.8226  0.0752
  983TIP3    H1 2913   5.622   2.259   5.212  0.7019 -0.0798  0.8475
  983TIP3    H2 2914   5.713   2.139   5.224 -0.4963 -1.1558 -0.4353
  984TIP3   OH2 2915   6.649   2.043   2.405 -0.0337  0.2081  0.0751
  984TIP3    H1 2916   6.677   2.130   2.379 -0.9521  0.6607  0.5613
  984TIP3    H2 2917   6.588   2.057   2.477  0.4204 -0.8800  0.7090
  985TIP3   OH2 2918   0.111   3.451   0.449 -0.3711  0.1359 -0.6188
  985TIP3    H1 2919   0.040   3.389   0.436  0.2103 -0.9239  1.0595
  985TIP3    H2 2920   0.162   3.446   0.367 -0.8120 -0.9482 -0.8433
  986TIP3   OH2 2921   4.238   3.602   3.083 -0.0395  0.2344 -0.1654
  986TIP3    H1 2922   4.278   3.515   3.085 -1.3658 -0.4149 -0.2233
  986TIP3    H2 2923   4.277   3.645   3.008  2.0975  0.4584  0.9880
  987TIP3   OH2 2924   2.073   1.037   3.284  0.1241 -0.1665  0.6872
  987TIP3    H1 2925   2.033   1.117   3.252  0.9168 -0.2643 -0.5947
  987TIP3    H2 2926   2.063   1.042   3.379  1.3818  2.1355  0.7786
  988TIP3   OH2 2927   4.871   5.221   1.828  0.0268 -0.2599  0.4137
  988TIP3    H1 2928   4.936   5.179   1.885 -0.8417 -2.7008 -0.2637
  988TIP3    H2 2929   4.787   5.198   1.868 -0.5381 -0.6766 -0.9757
  989TIP3   OH2 2930   1.860   2.173   2.642 -0.2460 -0.4079 -0.8422
  989TIP3    H1 2931   1.891   2.086   2.617 -0.5239 -0.8832  0.4112
  989TIP3    H2 2932   1.930   2.209   2.696 -0.1431  0.1521 -1.3300
  990TIP3   OH2 2933   1.577   4.443   2.327  0.3196 -0.4252  0.1391
  990TIP3    H1 2934   1.611   4.459   2.239 -0.2024 -0.8872 -0.1598
  990TIP3    H2 2935   1.517   4.516   2.343  0.9240  0.0184  0.3862
  991TIP3   OH2 2936   0.198   5.555   4.025  0.4853  0.0511  0.1667
  991TIP3    H1 2937   0.254   5.485   4.059  0.2129  0.0584  0.6511
  991TIP3    H2 2938   0.145   5.514   3.958 -0.8353 -0.6331  1.5671
  992TIP3   OH2 2939   2.412   1.001   4.965 -0.0161 -0.2194  0.3973
  992TIP3    H1 2940   2.507   1.013   4.968  0.2852 -2.0732 -0.2037
  992TIP3    H2 2941   2.397   0.920   5.013 -1.2466 -0.1714  0.1140
  993TIP3   OH2 2942   6.031   1.497   4.172 -0.2003 -0.2625 -0.5363
  993TIP3    H1 2943   5.973   1.564   4.207  1.1174 -0.2300  1.7856
  993TIP3    H2 2944   5.974   1.443   4.116 -2.4940 -0.2762  1.6483
  994TIP3   OH2 2945   6.075   5.777   0.622  0.1457 -0.1524 -0.2164
  994TIP3    H1 2946   6.068   5.683   0.609  0.3103 -0.0361 -1.2696
  994TIP3    H2 2947   6.149   5.788   0.682 -0.7135 -0.7458  0.9918
  995TIP3   OH2 2948   3.766   5.979   0.187 -0.0293 -0.0725 -0.0918
  995TIP3    H1 2949   3.743   5.949   0.099 -2.4737 -0.0599  0.4745
  995TIP3    H2 2950   3.755   6.074   0.184 -3.8604 -0.3323  1.0903
  996TIP3   OH2 2951   3.783   5.462   0.833 -0.0855 -0.4451 -0.2039
  996TIP3    H1 2952   3.869   5.504   0.826 -0.4026  0.0361 -1.3929
  996TIP3    H2 2953   3.773   5.413   0.751 -1.3044  0.2073 -0.4667
  997TIP3   OH2 2954   0.930   2.606   0.519 -0.1658 -0.3695 -0.2474
  997TIP3    H1 2955   0.922   2.649   0.434 -0.8359  0.1201  0.0606
  997TIP3    H2 2956   0.903   2.516   0.503  3.0854 -1.3145 -1.3488
  998TIP3   OH2 2957   4.862   1.100   0.237  0.4140 -0.0284 -0.2958
  998TIP3    H1 2958   4.852   1.005   0.246 -0.8951  0.0205 -1.0228
  998TIP3    H2 2959   4.773   1.134   0.244  0.8302  1.1101 -0.4715
  999TIP3   OH2 2960   2.512   4.498   0.345  0.0499  0.2317 -0.8341
  999TIP3    H1 2961   2.482   4.509   0.435 -2.1982  0.5003 -1.5474
  999TIP3    H2 2962   2.489   4.408   0.323 -0.6606  0.5840 -1.5589
 1000TIP3   OH2 2963   3.667   1.314   2.683  0.2315 -0.3122  0.1834
 1000TIP3    H1 2964   3.703   1.225   2.683  2.2895  0.4105  2.3955
 1000TIP3    H2 2965   3.743   1.371   2.673 -0.6790  1.2254  1.5328
 1001TIP3   OH2 2966   2.264   6.397   4.766  0.1619 -0.2825  0.3637
 1001TIP3    H1 2967   2.200   6.456   4.727  0.9864  0.5197  0.1931
 1001TIP3    H2 2968   2.253   6.408   4.860  1.0597  0.9879  0.3319
 1002TIP3   OH2 2969   2.294   1.583   4.359 -0.2811  0.6773  0.2940
 1002TIP3    H1 2970   2.369   1.596   4.300  2.1719  0.6520  3.1813
 1002TIP3    H2 2971   2.235   1.525   4.310  1.7801  0.2886 -1.9481
 1003TIP3   OH2 2972   2.514   5.089   4.855  0.4852 -0.4889  0.3857
 1003TIP3    H1 2973   2.550   5.156   4.913  0.0929 -0.7574  0.9501
 1003TIP3    H2 2974   2.512   5.131   4.769 -4.3698  2.2093  1.4147
 1004TIP3   OH2 2975   1.392   3.653   5.528  0.2430  0.1028  0.5455
 1004TIP3    H1 2976   1.427   3.688   5.447  2.6650 -0.9478  1.0574
 1004TIP3    H2 2977   1.385   3.558   5.512 -1.5423  0.1418  0.8146
 1005TIP3   OH2 2978   0.744   3.853   1.920  0.0130 -0.1939  0.2146
 1005TIP3    H1 2979   0.724   3.909   1.844 -0.6870  1.8331  1.7947
 1005TIP3    H2 2980   0.697   3.772   1.903 -0.5852  0.4145 -1.2497
 1006TIP3   OH2 2981   4.401   4.958   4.275 -0.2812  0.1221 -0.3218
 1006TIP3    H1 2982   4.347   5.008   4.214 -0.8266  1.2688  1.0305
 1006TIP3    H2 2983   4.479   5.012   4.288  0.0644 -0.3544 -0.3917
 1007TIP3   OH2 2984   6.984   3.704   5.252 -0.0096 -0.3153 -0.1094
 1007TIP3    H1 2985   7.020   3.650   5.181  0.7526 -0.4888  0.4035
 1007TIP3    H2 2986   6.948   3.780   5.207 -0.4518 -0.8966 -0.7771
 1008TIP3   OH2 2987   2.492   2.653   4.208 -0.0892  0.5074  0.2934
 1008TIP3    H1 2988   2.569   2.609   4.243 -0.4291  0.5122  1.0453
 1008TIP3    H2 2989   2.434   2.582   4.180  0.7348  0.4898 -1.5478
 1009TIP3   OH2 2990   6.457   6.151   5.456  1.0322  0.1634  0.3764
 1009TIP3    H1 2991   6.423   6.232   5.494 -0.5919 -0.6538  0.7751
 1009TIP3    H2 2992   6.464   6.169   5.363  0.0862  0.5979  0.3699
 1010TIP3   OH2 2993   6.873   5.422   2.491 -0.2901  0.0258 -0.3603
 1010TIP3    H1 2994   6.906   5.512   2.501 -1.3040  0.2661  1.2946
 1010TIP3    H2 2995   6.816   5.426   2.415  0.5028  0.5207 -0.9401
 1011TIP3   OH2 2996   5.768   4.238   4.359  0.2827  0.1382  0.3446
 1011TIP3    H1 2997   5.765   4.301   4.431 -1.9763  0.7900 -0.2475
 1011TIP3    H2 2998   5.858   4.203   4.361  1.1381  2.2369  1.6491
 1012TIP3   OH2 2999   5.065   6.719   4.471  0.9669  0.3842  0.2244
 1012TIP3    H1 3000   5.024   6.648   4.422  0.1165  1.0875 -0.1210
 1012TIP3    H2 3001   5.089   6.784   4.404  3.2450 -0.2653  0.3489
 1013TIP3   OH2 3002   4.222   6.244   2.169 -0.6411  0.5992 -0.0646
 1013TIP3    H1 3003   4.228   6.183   2.243 -1.0586  0.4387 -0.1636
 1013TIP3    H2 3004   4.208   6.189   2.093 -1.8058  0.8633 -0.0540
 1014TIP3   OH2 3005   2.610   3.891   4.261 -0.1344 -0.4945 -0.7719
 1014TIP3    H1 3006   2.641   3.836   4.189 -0.9997 -2.7952  0.4919
 1014TIP3    H2 3007   2.685   3.895   4.321  0.1392  0.2766 -1.1565
 1015TIP3   OH2 3008   6.150   4.214   2.470 -0.0860 -0.4007  0.4299
 1015TIP3    H1 3009   6.118   4.141   2.524  1.2277 -0.3925  1.2610
 1015TIP3    H2 3010   6.171   4.282   2.534 -0.5069  0.4096 -0.2820
 1016TIP3   OH2 3011   1.054   5.323   3.259 -0.2280  0.2674  0.5057
 1016TIP3    H1 3012   0.973   5.286   3.294 -0.1128 -1.8838 -1.2580
 1016TIP3    H2 3013   1.026   5.400   3.211 -0.9412  0.6726  1.5326
 1017TIP3   OH2 3014   6.771   3.767   0.709 -0.1688 -0.4715 -0.0167
 1017TIP3    H1 3015   6.709   3.707   0.752 -0.2259 -0.1205  0.3977
 1017TIP3    H2 3016   6.825   3.710   0.655 -0.0887 -0.9278  0.5297
 1018TIP3   OH2 3017   4.220   3.609   2.538 -0.2152 -0.0437 -0.1140
 1018TIP3    H1 3018   4.193   3.613   2.446  0.5025  0.1025 -0.3267
 1018TIP3    H2 3019   4.313   3.587   2.535 -0.0262  0.6068  0.5495
 1019TIP3   OH2 3020   1.446   2.782   2.090  0.0642 -0.0047  0.3341
 1019TIP3    H1 3021   1.518   2.745   2.038 -1.0254  1.6052 -2.5544
 1019TIP3    H2 3022   1.371   2.726   2.071 -0.0016 -0.3377  1.5081
 1020TIP3   OH2 3023   3.868   4.609   5.185  0.4463  0.5833  0.0472
 1020TIP3    H1 3024   3.928   4.542   5.151  0.0868  0.6596 -0.7639
 1020TIP3    H2 3025   3.874   4.600   5.280 -0.7186 -1.6334 -0.0328
 1021TIP3   OH2 3026   6.641   0.376   2.312 -0.3554  0.3725  0.3424
 1021TIP3    H1 3027   6.561   0.363   2.364  0.2813 -2.0083  0.8519
 1021TIP3    H2 3028   6.711   0.380   2.377  0.2181 -0.3136 -0.2253
 1022TIP3   OH2 3029   0.423   1.273   2.201  0.4389 -0.2831  0.3863
 1022TIP3    H1 3030   0.362   1.326   2.148  1.6311 -0.6638 -1.4690
 1022TIP3    H2 3031   0.503   1.272   2.149  1.6394 -0.8107  2.1975
 1023TIP3   OH2 3032   5.444   1.048   5.046 -1.0170 -0.3238  0.1499
 1023TIP3    H1 3033   5.400   1.045   5.132 -1.1479 -1.1540  0.0600
 1023TIP3    H2 3034   5.522   1.102   5.061 -2.2912  1.6279  0.1942
 1024TIP3   OH2 3035   3.860   6.252   5.124 -0.4109 -0.6764 -0.3695
 1024TIP3    H1 3036   3.765   6.260   5.127 -0.2758  1.9744 -0.3788
 1024TIP3    H2 3037   3.888   6.256   5.215 -0.2893 -1.8913 -0.3327
 1025TIP3   OH2 3038   5.589   2.073   3.748  0.4560  0.2347 -0.0522
 1025TIP3    H1 3039   5.631   2.002   3.698  0.3678 -0.4239  0.7886
 1025TIP3    H2 3040   5.593   2.043   3.839 -0.7811  0.7073  0.1677
 1026TIP3   OH2 3041   2.714   4.439   5.638 -0.0492 -0.2955 -0.4467
 1026TIP3    H1 3042   2.779   4.369   5.644  1.0980  0.7294 -0.4410
 1026TIP3    H2 3043   2.677   4.431   5.550 -0.6984 -1.5324 -0.0833
 1027TIP3   OH2 3044   3.803   4.083   4.809  0.1306 -0.3891 -0.0066
 1027TIP3    H1 3045   3.807   4.140   4.885  0.3646  0.1323 -0.4002
 1027TIP3    H2 3046   3.891   4.087   4.771  0.6024 -2.2200  0.8143
 1028TIP3   OH2 3047   5.576   5.469   3.071  0.0156  0.0424 -0.3783
 1028TIP3    H1 3048   5.549   5.435   3.157  1.4971 -1.3720 -0.4191
 1028TIP3    H2 3049   5.500   5.518   3.040 -0.9536 -0.3322  1.2609
 1029TIP3   OH2 3050   5.291   5.434   4.093 -0.1724  0.2513  0.1520
 1029TIP3    H1 3051   5.308   5.410   4.184  0.5055 -0.6750 -0.2006
 1029TIP3    H2 3052   5.202   5.471   4.094  0.1750  1.1239  1.3308
 1030TIP3   OH2 3053   5.369   5.754   1.080 -0.5536 -0.2745  0.3065
 1030TIP3    H1 3054   5.324   5.685   1.031 -1.7978  1.8345 -1.7291
 1030TIP3    H2 3055   5.374   5.827   1.019  1.4424  1.2177  2.0880
 1031TIP3   OH2 3056   6.228   1.579   2.780  0.5353 -0.1758  0.2236
 1031TIP3    H1 3057   6.214   1.490   2.813  1.2147 -0.3405  0.0786
 1031TIP3    H2 3058   6.151   1.627   2.809  0.8009 -0.4753  1.4751
 1032TIP3   OH2 3059   0.175   6.715   4.568  0.4889 -0.0986  0.5301
 1032TIP3    H1 3060   0.080   6.721   4.553  0.6166 -0.7596 -0.6822
 1032TIP3    H2 3061   0.183   6.682   4.657 -0.4469 -0.6636  0.4200
 1033TIP3   OH2 3062   6.396   1.379   0.481 -0.1397  0.0231  0.3654
 1033TIP3    H1 3063   6.399   1.378   0.385  0.6931  1.4979  0.3531
 1033TIP3    H2 3064   6.482   1.411   0.507 -0.0214 -1.2552  1.6604
 1034TIP3   OH2 3065   3.737   1.414   0.344 -0.5690  0.2095 -0.0798
 1034TIP3    H1 3066   3.646   1.419   0.316 -0.3155 -0.1392 -0.9765
 1034TIP3    H2 3067   3.774   1.498   0.319 -0.2258 -0.2705 -1.2479
 1035TIP3   OH2 3068   4.626   3.810   0.162  0.4077 -0.3862  0.8853
 1035TIP3    H1 3069   4.679   3.852   0.094  3.0882 -2.9016  1.2040
 1035TIP3    H2 3070   4.536   3.836   0.142  1.4908  2.4144 -1.0000
 1036TIP3   OH2 3071   4.134   5.051   0.367 -0.7825  0.0894  0.0388
 1036TIP3    H1 3072   4.067   5.082   0.428 -0.1107  0.8512  0.4097
 1036TIP3    H2 3073   4.206   5.022   0.423 -1.0371 -1.3324 -0.3350
 1037TIP3   OH2 3074   3.257   6.362   2.737 -0.6646 -0.0115  0.1658
 1037TIP3    H1 3075   3.254   6.336   2.645  0.2425  0.2852  0.0445
 1037TIP3    H2 3076   3.179   6.416   2.749  0.0041  1.2164 -0.8287
 1038TIP3   OH2 3077   2.140   1.466   5.608  0.1217  0.9444 -0.4809
 1038TIP3    H1 3078   2.154   1.391   5.550  0.2453  1.0031 -0.5277
 1038TIP3    H2 3079   2.049   1.456   5.638  0.6946 -0.2313  0.9687
 1039TIP3   OH2 3080   5.620   3.098   4.056  0.0340 -0.0840 -0.4459
 1039TIP3    H1 3081   5.673   3.090   3.977  0.8774 -0.4296  0.1438
 1039TIP3    H2 3082   5.541   3.144   4.027  0.7390  0.6300 -1.2903
 1040TIP3   OH2 3083   1.987   5.648   3.348 -0.3126 -0.2009  0.0069
 1040TIP3    H1 3084   1.916   5.681   3.404 -0.0130 -0.2726  0.4405
 1040TIP3    H2 3085   1.945   5.627   3.265 -0.8413 -0.4525  0.3333
 1041TIP3   OH2 3086   0.465   4.332   0.077 -0.1758  0.0476 -0.4345
 1041TIP3    H1 3087   0.394   4.316   0.015 -1.1066 -1.5489  0.9666
 1041TIP3    H2 3088   0.522   4.256   0.069  1.3867  1.2649 -1.4758
 1042TIP3   OH2 3089   1.349   5.172   1.589 -0.7044 -1.1403  0.0568
 1042TIP3    H1 3090   1.370   5.138   1.676 -1.1123 -1.3901  0.0593
 1042TIP3    H2 3091   1.268   5.221   1.602 -0.6755 -1.0374 -0.1509
 1043TIP3   OH2 3092   2.197   2.036   0.052  0.0122 -1.3049  0.0082
 1043TIP3    H1 3093   2.207   1.992   0.137  0.6197 -0.9327  0.1321
 1043TIP3    H2 3094   2.218   1.968  -0.012  0.4556 -1.3360  0.1829
 1044TIP3   OH2 3095   3.795   4.952   2.648  0.2318  0.3969  0.4817
 1044TIP3    H1 3096   3.764   4.866   2.677  1.3079 -0.1758 -0.0400
 1044TIP3    H2 3097   3.729   5.013   2.682 -0.0268 -0.5223  1.7086
 1045TIP3   OH2 3098   2.609   3.540   1.221 -0.5230 -0.1992  0.5064
 1045TIP3    H1 3099   2.664   3.574   1.292  0.4096 -0.2462 -0.1687
 1045TIP3    H2 3100   2.600   3.614   1.160 -0.8906 -0.3093  0.4229
 1046TIP3   OH2 3101   7.048   2.497   3.539 -0.1687  0.1397 -0.0277
 1046TIP3    H1 3102   7.004   2.438   3.601  1.4384 -0.5446  0.4990
 1046TIP3    H2 3103   7.122   2.447   3.507 -0.4581  0.8131 -1.8729
 1047TIP3   OH2 3104   7.127   3.893   1.173 -0.3810 -0.1269 -0.4163
 1047TIP3    H1 3105   7.117   3.905   1.079  0.1829 -0.0114 -0.4671
 1047TIP3    H2 3106   7.221   3.902   1.188 -0.5980  0.9940  0.3175
 1048TIP3   OH2 3107   2.589   2.357   4.302 -0.2674  0.5037  0.1238
 1048TIP3    H1 3108   2.604   2.351   4.207  0.1410  3.6646 -0.1265
 1048TIP3    H2 3109   2.566   2.268   4.328  1.6848 -0.9483 -2.5533
 1049TIP3   OH2 3110   3.997   5.864   4.297 -1.0197  0.2266 -0.6945
 1049TIP3    H1 3111   4.064   5.796   4.296 -0.3253  0.8839 -0.2230
 1049TIP3    H2 3112   4.014   5.913   4.378 -2.8281 -0.3375  0.0812
 1050TIP3   OH2 3113   3.440   2.545   4.932 -0.2732 -0.1282 -0.2629
 1050TIP3    H1 3114   3.527   2.515   4.958  0.2694  1.0389 -0.6717
 1050TIP3    H2 3115   3.454   2.631   4.892 -1.2554 -1.1259 -2.9477
 1051TIP3   OH2 3116   2.026   6.184   1.189  0.1162  0.9726 -0.2411
 1051TIP3    H1 3117   2.007   6.267   1.147 -0.8946  0.8160 -0.1279
 1051TIP3    H2 3118   1.962   6.123   1.153  1.6246 -0.0813 -1.2606
 1052TIP3   OH2 3119   5.178   5.669   1.762  0.9804  0.4731 -0.8949
 1052TIP3    H1 3120   5.191   5.678   1.857 -3.1611  0.3532 -0.1604
 1052TIP3    H2 3121   5.207   5.580   1.742 -1.6834 -0.9745  1.1363
 1053TIP3   OH2 3122   4.649   1.966   1.584 -0.0475 -0.3730  0.0905
 1053TIP3    H1 3123   4.619   2.051   1.553 -0.0118 -0.6231 -0.6373
 1053TIP3    H2 3124   4.701   1.930   1.513  0.3698 -0.7869  0.5911
 1054TIP3   OH2 3125   0.313   0.259   5.148 -0.2534 -0.1243 -0.1642
 1054TIP3    H1 3126   0.378   0.189   5.152 -1.0606 -0.9240 -0.7727
 1054TIP3    H2 3127   0.321   0.295   5.060  0.3739  0.7758  0.2479
 1055TIP3   OH2 3128   4.840   3.246   3.506 -0.0073 -0.2285  0.0911
 1055TIP3    H1 3129   4.841   3.159   3.545  0.0361 -0.2898 -0.0431
 1055TIP3    H2 3130   4.922   3.250   3.456  0.5206  0.2994  0.9871
 1056TIP3   OH2 3131   6.364   2.134   1.567 -0.0014 -0.2003  0.5671
 1056TIP3    H1 3132   6.395   2.126   1.657  1.3675 -1.6357  0.0066
 1056TIP3    H2 3133   6.440   2.115   1.513 -0.7738  0.7031 -0.9311
 1057TIP3   OH2 3134   3.935   5.473   5.814  0.2558  0.4313  0.2318
 1057TIP3    H1 3135   3.999   5.545   5.820 -0.0105  0.5826  1.4185
 1057TIP3    H2 3136   3.962   5.425   5.736  2.1951  0.1594  0.9937
 1058TIP3   OH2 3137   4.735   1.673   1.185 -0.9200  0.1904 -0.0820
 1058TIP3    H1 3138   4.679   1.750   1.174  0.2481  1.0803  0.0380
 1058TIP3    H2 3139   4.789   1.671   1.106 -0.7645 -0.3650  0.0321
 1059TIP3   OH2 3140   2.071   6.613   0.473 -0.2521  0.0325  0.2550
 1059TIP3    H1 3141   1.977   6.600   0.471 -0.0903 -1.1681 -0.4329
 1059TIP3    H2 3142   2.086   6.691   0.419 -1.1201  2.4829  3.2880
 1060TIP3   OH2 3143   5.261   4.861   1.475  0.6365  0.3918 -0.3330
 1060TIP3    H1 3144   5.316   4.927   1.516  0.9326 -0.5533  0.8200
 1060TIP3    H2 3145   5.275   4.782   1.526 -1.6363  0.0627 -0.1079
 1061TIP3   OH2 3146   2.548   6.591   0.435 -0.7353  0.7590 -0.1492
 1061TIP3    H1 3147   2.559   6.676   0.394 -0.5154  0.6092 -0.4075
 1061TIP3    H2 3148   2.513   6.535   0.366  1.5074 -0.0141 -0.7772
 1062TIP3   OH2 3149   0.975   3.293   5.329  0.2172  0.0023 -0.0353
 1062TIP3    H1 3150   0.991   3.234   5.403  3.0316 -0.0415 -0.5561
 1062TIP3    H2 3151   1.041   3.269   5.265 -1.4749  0.7570 -2.1707
 1063TIP3   OH2 3152   2.217   0.998   0.163 -0.1032 -0.5106 -0.0559
 1063TIP3    H1 3153   2.198   0.907   0.139  0.3706 -0.9089  1.0409
 1063TIP3    H2 3154   2.160   1.049   0.106 -1.9864 -1.5531  0.7762
 1064TIP3   OH2 3155   5.914   5.003   1.380  0.3083 -0.2427  0.1917
 1064TIP3    H1 3156   5.947   4.948   1.451 -2.0310 -1.8976  0.0772
 1064TIP3    H2 3157   5.827   4.969   1.360  0.4256  0.8600 -2.7527
 1065TIP3   OH2 3158   1.540   6.367   3.176  0.1542 -0.3082  0.1267
 1065TIP3    H1 3159   1.615   6.380   3.234 -1.5585  1.5567  2.0570
 1065TIP3    H2 3160   1.529   6.272   3.174  2.4237 -0.6366 -0.1063
 1066TIP3   OH2 3161   4.234   1.876   4.675 -0.3049  0.2211 -0.1942
 1066TIP3    H1 3162   4.311   1.830   4.642 -0.5124  0.3135 -0.8184
 1066TIP3    H2 3163   4.160   1.822   4.645 -0.5221  0.6240 -0.3799
 1067TIP3   OH2 3164   0.173   1.115   4.508  0.8035 -0.0982 -0.0033
 1067TIP3    H1 3165   0.197   1.080   4.594 -0.7053 -0.7861  0.1658
 1067TIP3    H2 3166   0.170   1.038   4.451 -0.7242 -0.0087 -0.0672
 1068TIP3   OH2 3167   1.424   4.585   5.255 -0.4285 -0.2056 -0.5125
 1068TIP3    H1 3168   1.420   4.606   5.162 -0.9415 -0.9043 -0.6586
 1068TIP3    H2 3169   1.344   4.621   5.292 -0.5324 -0.4851 -0.4637
 1069TIP3   OH2 3170   1.231   0.017   1.659  0.1429 -0.1467  0.3352
 1069TIP3    H1 3171   1.216   0.110   1.678  0.1798 -0.2981  1.1601
 1069TIP3    H2 3172   1.146  -0.025   1.675  0.5389 -0.5012  1.7030
 1070TIP3   OH2 3173   4.452   5.478   5.217 -0.4505  0.9289  0.1135
 1070TIP3    H1 3174   4.433   5.551   5.157 -1.8134 -0.9430 -1.8864
 1070TIP3    H2 3175   4.367   5.440   5.235  0.0004  1.0993  2.9427
 1071TIP3   OH2 3176   1.321   6.698   4.623 -0.3918 -0.2506 -0.0706
 1071TIP3    H1 3177   1.351   6.610   4.646 -1.3254  0.0647  2.7338
 1071TIP3    H2 3178   1.228   6.686   4.601  0.0684 -0.2705 -2.2252
 1072TIP3   OH2 3179   3.100   3.655   2.125  0.2153  0.1091 -0.3303
 1072TIP3    H1 3180   3.040   3.709   2.073  1.0286  1.4305  0.0735
 1072TIP3    H2 3181   3.092   3.688   2.214 -0.9685 -1.9736  0.4189
 1073TIP3   OH2 3182   3.248   6.051   1.245  0.5667  0.3272 -0.0661
 1073TIP3    H1 3183   3.177   5.999   1.208  0.1320  0.9992 -0.2044
 1073TIP3    H2 3184   3.315   5.988   1.268  0.7022 -0.1547 -1.6816
 1074TIP3   OH2 3185   0.010   0.506   2.168 -0.5010  0.0185 -0.5536
 1074TIP3    H1 3186   0.074   0.514   2.098 -0.0909 -2.2101 -0.4900
 1074TIP3    H2 3187  -0.014   0.413   2.169 -0.4727 -0.0448  2.2580
 1075TIP3   OH2 3188   2.893   4.389   1.685  0.2804 -0.6012  0.5936
 1075TIP3    H1 3189   2.808   4.388   1.642 -0.2706  0.6720  1.5725
 1075TIP3    H2 3190   2.956   4.368   1.616 -0.5262  1.7363 -0.9441
 1076TIP3   OH2 3191   6.766   2.893   4.576 -0.1213 -0.5946  0.3841
 1076TIP3    H1 3192   6.695   2.858   4.522  0.1758  0.3839 -0.6941
 1076TIP3    H2 3193   6.724   2.953   4.637 -0.2839 -0.3706  0.0555
 1077TIP3   OH2 3194   4.101   1.868   5.059  0.7270  0.2503  0.1176
 1077TIP3    H1 3195   4.012   1.861   5.095  0.3583  1.2173 -0.5591
 1077TIP3    H2 3196   4.138   1.944   5.104  0.2695  1.4621 -1.4784
 1078TIP3   OH2 3197   4.727   0.843   2.381  0.3928 -0.3745 -0.3706
 1078TIP3    H1 3198   4.745   0.915   2.442 -0.7239  0.3123 -0.8188
 1078TIP3    H2 3199   4.778   0.865   2.303 -0.4936  0.3163 -0.7667
 1079TIP3   OH2 3200   1.068   1.137   3.816 -0.0242  0.2068  0.3916
 1079TIP3    H1 3201   1.143   1.156   3.874 -0.9793 -0.9144  2.0833
 1079TIP3    H2 3202   1.037   1.051   3.844 -1.5575  0.3562 -0.7133
 1080TIP3   OH2 3203   5.576   5.950   2.668  0.4469 -0.1205 -0.3237
 1080TIP3    H1 3204   5.631   6.027   2.654  1.2568 -0.4172  1.0020
 1080TIP3    H2 3205   5.495   5.969   2.620  0.8407  1.3097 -0.4718
 1081TIP3   OH2 3206   4.113   0.363   1.142 -0.6187  0.1430 -0.5012
 1081TIP3    H1 3207   4.199   0.390   1.173  0.2877 -2.8249 -0.1073
 1081TIP3    H2 3208   4.107   0.398   1.053 -0.9539  4.0929  0.8616
 1082TIP3   OH2 3209   0.418   4.540   3.316  0.0563  0.0086 -0.0726
 1082TIP3    H1 3210   0.347   4.483   3.285 -1.1826  1.2910  0.3152
 1082TIP3    H2 3211   0.488   4.479   3.341 -0.8927 -1.2982 -0.4838
 1083TIP3   OH2 3212   3.538   5.436   0.968  0.3028 -0.1070  0.0978
 1083TIP3    H1 3213   3.499   5.512   0.925 -0.3167  0.2950  1.3343
 1083TIP3    H2 3214   3.626   5.429   0.929 -0.0469  0.5464 -0.8443
 1084TIP3   OH2 3215   3.516   5.038   2.701 -0.1179 -0.1002 -0.7349
 1084TIP3    H1 3216   3.447   5.008   2.642 -0.4437 -0.9815  0.0694
 1084TIP3    H2 3217   3.478   5.030   2.789  0.9066 -0.3402 -0.3027
 1085TIP3   OH2 3218   7.109   5.150   1.847  0.2524  0.6352  0.5164
 1085TIP3    H1 3219   7.153   5.188   1.923  0.9563  0.0518  0.4096
 1085TIP3    H2 3220   7.154   5.068   1.831 -1.0148 -0.0910  0.5279
 1086TIP3   OH2 3221   0.672   2.173   4.637  0.5514 -0.2787  0.7515
 1086TIP3    H1 3222   0.731   2.248   4.627  0.1194  0.1363  1.2062
 1086TIP3    H2 3223   0.587   2.212   4.655  0.6176 -0.8661  2.6144
 1087TIP3   OH2 3224   6.698   0.133   2.161  0.0557  0.0773 -0.1984
 1087TIP3    H1 3225   6.671   0.219   2.192 -0.4726  0.1918 -0.9559
 1087TIP3    H2 3226   6.786   0.121   2.196  0.0593  0.8460  0.0580
 1088TIP3   OH2 3227   4.163   1.733   1.606 -0.3269  0.2858  0.2797
 1088TIP3    H1 3228   4.230   1.772   1.661 -1.2463 -0.0527  1.6886
 1088TIP3    H2 3229   4.109   1.807   1.578 -2.3461  0.1218  3.3225
 1089TIP3   OH2 3230   1.426   1.688   0.123  0.4233 -0.3756  0.5317
 1089TIP3    H1 3231   1.434   1.694   0.028 -1.0994  0.2178  0.4105
 1089TIP3    H2 3232   1.342   1.645   0.138  0.9741 -1.1181  1.6186
 1090TIP3   OH2 3233   4.891   5.299   2.825 -0.3180 -0.0339  0.0907
 1090TIP3    H1 3234   4.948   5.286   2.900  0.2501 -2.4877 -0.6735
 1090TIP3    H2 3235   4.836   5.220   2.823 -0.7346  0.2579 -1.6935
 1091TIP3   OH2 3236   4.126   1.199   2.754 -0.3855 -0.0306 -0.4651
 1091TIP3    H1 3237   4.081   1.246   2.684 -1.7144 -0.6305 -0.0392
 1091TIP3    H2 3238   4.109   1.107   2.737  2.4938 -0.4870 -1.4905
 1092TIP3   OH2 3239   2.768   1.884   5.429 -0.2126 -0.7348  0.0241
 1092TIP3    H1 3240   2.740   1.814   5.370  0.7371  0.5045 -1.9750
 1092TIP3    H2 3241   2.841   1.845   5.478  0.3700 -1.1666 -1.1317
 1093TIP3   OH2 3242   1.749   0.944   4.822 -0.0138  0.0000 -0.6075
 1093TIP3    H1 3243   1.808   1.012   4.856  0.4640  0.5840 -2.4932
 1093TIP3    H2 3244   1.669   0.991   4.798 -0.7420 -0.5694  0.5631
 1094TIP3   OH2 3245   1.593   2.387   4.042 -0.2578  1.0131 -0.2552
 1094TIP3    H1 3246   1.558   2.476   4.042 -2.8300  0.1702  2.0440
 1094TIP3    H2 3247   1.544   2.342   3.973 -3.1778  0.1493  2.1550
 1095TIP3   OH2 3248   1.558   5.249   2.488  0.7973 -0.4597 -0.4832
 1095TIP3    H1 3249   1.543   5.341   2.508  1.2212 -0.0758 -1.8129
 1095TIP3    H2 3250   1.548   5.204   2.572  3.2181  1.1025  0.7631
 1096TIP3   OH2 3251   4.937   0.518   2.704 -0.0982  0.1688  0.1332
 1096TIP3    H1 3252   4.899   0.567   2.777  1.6154 -0.6153  1.6346
 1096TIP3    H2 3253   4.964   0.435   2.743  0.3300 -0.5215 -1.5554
 1097TIP3   OH2 3254   0.209   2.974   4.044 -0.9064  0.3007 -0.2489
 1097TIP3    H1 3255   0.134   2.986   4.102 -0.2941  1.5344  0.3254
 1097TIP3    H2 3256   0.183   2.903   3.986 -1.9186 -0.3126  0.9062
 1098TIP3   OH2 3257   0.769   3.212   1.494 -0.5116 -0.5951  0.0496
 1098TIP3    H1 3258   0.753   3.120   1.471 -0.2239 -0.9708  1.2770
 1098TIP3    H2 3259   0.797   3.209   1.585 -0.3587  0.7106  0.0595
 1099TIP3   OH2 3260   0.304   2.106   0.312  0.0771  0.2771  0.8759
 1099TIP3    H1 3261   0.371   2.040   0.329 -0.3062 -0.6094 -0.9044
 1099TIP3    H2 3262   0.230   2.057   0.276 -0.5349  1.5667  0.3163
 1100TIP3   OH2 3263   6.733   0.860   5.066 -0.1459  0.2566  0.1954
 1100TIP3    H1 3264   6.643   0.889   5.080 -0.3066 -0.5377  0.8269
 1100TIP3    H2 3265   6.726   0.783   5.009  0.1436  0.2772  0.1266
 1101TIP3   OH2 3266   1.783   6.193   3.372 -0.0864  0.3669 -0.0859
 1101TIP3    H1 3267   1.821   6.239   3.298  0.6697 -0.1177 -0.0086
 1101TIP3    H2 3268   1.795   6.253   3.446 -0.8661  0.8619 -0.3513
 1102TIP3   OH2 3269   2.892   3.560   3.520 -0.1997 -0.2473  0.1484
 1102TIP3    H1 3270   2.942   3.628   3.474  2.4094 -1.0233  1.6436
 1102TIP3    H2 3271   2.801   3.591   3.518  0.8390  3.1507  0.5467
 1103TIP3   OH2 3272   4.305   4.303   5.176  0.2327  0.3160 -0.4790
 1103TIP3    H1 3273   4.397   4.326   5.171  0.4174 -0.3283 -0.2103
 1103TIP3    H2 3274   4.300   4.242   5.250 -0.2110 -0.5465 -1.1976
 1104TIP3   OH2 3275   7.153   0.327   3.008 -0.2466  0.2160  0.3773
 1104TIP3    H1 3276   7.086   0.391   3.033  1.0214  2.0395 -0.6427
 1104TIP3    H2 3277   7.108   0.268   2.947 -0.7878  1.9397 -0.9954
 1105TIP3   OH2 3278   1.890   3.944   4.929  0.1008  0.2461 -0.2003
 1105TIP3    H1 3279   1.981   3.952   4.956  1.1575 -1.5623 -2.8152
 1105TIP3    H2 3280   1.871   3.850   4.934 -0.8707  0.3161 -1.7496
 1106TIP3   OH2 3281   4.661   0.944   2.724 -0.3062 -0.2388 -0.5366
 1106TIP3    H1 3282   4.727   0.919   2.789 -0.3160 -2.6764 -1.3639
 1106TIP3    H2 3283   4.578   0.929   2.768 -0.3214  0.5303 -0.2933
 1107TIP3   OH2 3284   2.301   3.111   0.159  0.4007  0.0804  0.2388
 1107TIP3    H1 3285   2.340   3.128   0.074  0.2988 -0.3887  0.0975
 1107TIP3    H2 3286   2.338   3.178   0.216 -1.0178  1.6467 -0.5954
 1108TIP3   OH2 3287   1.675   5.769   3.792  0.1527  0.0544 -0.0409
 1108TIP3    H1 3288   1.618   5.789   3.866  0.6084  0.4144  0.2207
 1108TIP3    H2 3289   1.653   5.679   3.768 -0.4129  0.1423  0.1546
 1109TIP3   OH2 3290   1.232   1.253   3.247 -0.1719  0.2761 -0.2081
 1109TIP3    H1 3291   1.290   1.256   3.171 -1.2469  1.2481 -1.0107
 1109TIP3    H2 3292   1.153   1.209   3.215  0.2319 -1.4296  0.9849
 1110TIP3   OH2 3293   1.995   0.738   0.348 -0.3228  0.0603 -0.2972
 1110TIP3    H1 3294   2.001   0.699   0.435  0.7651  0.8206 -0.0150
 1110TIP3    H2 3295   1.902   0.759   0.337 -0.5879 -0.7303  0.3671
 1111TIP3   OH2 3296   5.598   6.490   2.897 -0.2204  0.0163  0.0973
 1111TIP3    H1 3297   5.617   6.524   2.985 -1.1783 -0.0319  0.3350
 1111TIP3    H2 3298   5.562   6.403   2.912 -1.5625  0.4791 -0.2377
 1112TIP3   OH2 3299   2.163   5.694   2.994  0.7069  0.7825 -0.5323
 1112TIP3    H1 3300   2.145   5.785   3.020 -0.6511  2.0278 -4.8613
 1112TIP3    H2 3301   2.222   5.702   2.919  0.5092 -1.9152 -1.0622
 1113TIP3   OH2 3302   4.044   0.121   2.836  0.2863  0.0006 -0.1427
 1113TIP3    H1 3303   3.961   0.151   2.873 -0.3319 -1.3764 -0.3586
 1113TIP3    H2 3304   4.028   0.118   2.741  0.5023 -0.4446 -0.1692
 1114TIP3   OH2 3305   2.519   5.153   0.486  0.2496 -0.9124  0.2138
 1114TIP3    H1 3306   2.437   5.200   0.473  0.0518 -0.7652  1.8433
 1114TIP3    H2 3307   2.493   5.067   0.519  0.7144 -1.2858 -0.3763
 1115TIP3   OH2 3308   4.565   6.057   1.191  0.3858  0.1197 -0.3484
 1115TIP3    H1 3309   4.603   6.097   1.269  1.5908  0.0374 -0.8742
 1115TIP3    H2 3310   4.506   6.124   1.156  1.7484  1.1664 -0.7591
 1116TIP3   OH2 3311   4.196   4.605   2.021  0.1614  0.6309  0.0219
 1116TIP3    H1 3312   4.229   4.555   2.096 -0.0592  1.2939  0.5741
 1116TIP3    H2 3313   4.131   4.548   1.980 -0.9989  0.9169  1.3731
 1117TIP3   OH2 3314   6.395   6.337   3.579 -0.2364 -0.1343 -0.6252
 1117TIP3    H1 3315   6.333   6.376   3.641 -0.6421 -1.7752  0.0491
 1117TIP3    H2 3316   6.468   6.399   3.577 -0.0950 -0.1148  1.6855
 1118TIP3   OH2 3317   1.861   5.162   0.053  0.0571  0.7842 -0.5416
 1118TIP3    H1 3318   1.905   5.176  -0.031  1.3535  0.2191  0.0268
 1118TIP3    H2 3319   1.793   5.230   0.056 -1.3724 -0.3872 -2.9279
 1119TIP3   OH2 3320   4.590   1.586   0.346 -0.1534 -0.2425 -0.4961
 1119TIP3    H1 3321   4.526   1.628   0.288  1.0170 -0.1815 -1.7730
 1119TIP3    H2 3322   4.641   1.530   0.289 -0.5797 -2.1518  0.9149
 1120TIP3   OH2 3323   1.183   3.762   0.911 -0.3169  0.1382 -0.3591
 1120TIP3    H1 3324   1.203   3.762   1.005 -3.5160  2.1195  0.4824
 1120TIP3    H2 3325   1.103   3.709   0.904 -0.0517 -0.0983 -2.0301
 1121TIP3   OH2 3326   2.497   5.447   3.786  0.4314 -0.4267 -0.0503
 1121TIP3    H1 3327   2.549   5.417   3.711 -0.8685 -0.4983 -0.9656
 1121TIP3    H2 3328   2.485   5.541   3.770 -0.3215 -0.5481 -0.2518
 1122TIP3   OH2 3329   6.643   0.460   1.022 -0.4504 -0.2032 -0.0422
 1122TIP3    H1 3330   6.734   0.433   1.013 -0.1423  0.6132  0.4840
 1122TIP3    H2 3331   6.602   0.391   1.074 -0.2314 -0.7729 -0.6249
 1123TIP3   OH2 3332   4.286   4.109   0.232  0.1154 -0.6277 -0.0034
 1123TIP3    H1 3333   4.207   4.086   0.280 -0.7266 -0.3691 -1.1928
 1123TIP3    H2 3334   4.257   4.178   0.171  1.6193  0.6257  0.6326
 1124TIP3   OH2 3335   2.244   3.655   2.372 -0.5949 -0.4810 -0.4592
 1124TIP3    H1 3336   2.278   3.740   2.342 -1.2039 -0.2603 -0.5279
 1124TIP3    H2 3337   2.313   3.621   2.429 -0.2842 -0.0070 -0.5429
 1125TIP3   OH2 3338   6.512   1.871   0.043 -0.4067  0.1374  0.3234
 1125TIP3    H1 3339   6.573   1.904  -0.022 -0.0900  1.6733  1.3389
 1125TIP3    H2 3340   6.497   1.780   0.018  0.4749  0.3923 -1.2862
 1126TIP3   OH2 3341   6.973   4.603   2.622 -0.2876 -0.5549  0.2147
 1126TIP3    H1 3342   6.989   4.644   2.707  1.1162  0.5044 -0.5091
 1126TIP3    H2 3343   6.948   4.676   2.565 -0.1912 -1.0768 -0.5132
 1127TIP3   OH2 3344   6.774   0.812   1.326 -0.5758 -0.0665  0.3520
 1127TIP3    H1 3345   6.851   0.767   1.292 -0.8583  0.3104 -0.8160
 1127TIP3    H2 3346   6.775   0.793   1.420  0.2997 -1.0068  0.1677
 1128TIP3   OH2 3347   6.240   2.410   1.816 -0.1764  0.2902 -0.0795
 1128TIP3    H1 3348   6.225   2.490   1.867  0.3435  0.8998 -0.8486
 1128TIP3    H2 3349   6.156   2.365   1.818 -0.6174  1.0798 -0.0014
 1129TIP3   OH2 3350   3.573   0.696   4.181 -0.3376 -0.2853  0.0217
 1129TIP3    H1 3351   3.529   0.771   4.223  0.8306  1.0212 -0.9725
 1129TIP3    H2 3352   3.525   0.683   4.099  0.1539  0.1298 -0.3365
 1130TIP3   OH2 3353   4.687   1.401   3.558  0.2263  0.0218 -0.1698
 1130TIP3    H1 3354   4.641   1.441   3.484  0.2789 -0.6019 -0.5512
 1130TIP3    H2 3355   4.642   1.436   3.635  0.9805  1.6601 -0.4358
 1131TIP3   OH2 3356   4.749   4.228   0.489  0.1636 -0.0960  0.7804
 1131TIP3    H1 3357   4.766   4.269   0.405  3.4238  0.0831  1.4186
 1131TIP3    H2 3358   4.750   4.134   0.471 -1.7140 -0.0530  0.2603
 1132TIP3   OH2 3359   1.751   1.472   4.188  0.0245  0.5072 -0.4186
 1132TIP3    H1 3360   1.802   1.487   4.108  1.8443  0.8691  0.7458
 1132TIP3    H2 3361   1.811   1.493   4.259 -1.4302 -0.1389  1.0732
 1133TIP3   OH2 3362   3.314   3.033   0.519  0.8965  0.6893 -0.2118
 1133TIP3    H1 3363   3.366   3.048   0.439  0.3718  3.0264 -0.1947
 1133TIP3    H2 3364   3.354   3.091   0.584 -2.1900  3.3664 -0.4674
 1134TIP3   OH2 3365   7.016   4.831   0.991 -0.0492  0.3108 -0.0750
 1134TIP3    H1 3366   6.995   4.775   0.916 -1.2177 -1.6568  1.5951
 1134TIP3    H2 3367   7.110   4.847   0.984  0.1742 -1.2106 -1.1104
 1135TIP3   OH2 3368   4.419   1.679   3.257 -0.9324  0.1006  0.6051
 1135TIP3    H1 3369   4.511   1.705   3.247 -0.4942 -1.6561 -0.2777
 1135TIP3    H2 3370   4.370   1.759   3.237  0.3939  1.3193  1.9790
 1136TIP3   OH2 3371   3.941   0.073   4.375  0.3683  0.5288  0.2171
 1136TIP3    H1 3372   4.028   0.105   4.400  0.0035  1.4782  0.3178
 1136TIP3    H2 3373   3.902   0.146   4.327 -0.4269  0.1648  0.3018
 1137TIP3   OH2 3374   1.568   0.259   0.468 -0.1367  0.1422 -0.6028
 1137TIP3    H1 3375   1.486   0.307   0.451 -0.4429 -0.1037  0.1456
 1137TIP3    H2 3376   1.562   0.182   0.411 -1.4459 -1.0062  1.0101
 1138TIP3   OH2 3377   0.075   0.779   5.502 -0.0969 -0.3942 -0.0591
 1138TIP3    H1 3378   0.060   0.784   5.596  0.1476 -1.6452  0.0612
 1138TIP3    H2 3379   0.170   0.779   5.493  0.0506  3.4869 -0.5834
 1139TIP3   OH2 3380   3.419   0.179   0.059  0.0422 -0.3840 -0.2131
 1139TIP3    H1 3381   3.386   0.134   0.138 -0.2396 -0.7245 -0.5204
 1139TIP3    H2 3382   3.356   0.249   0.044 -0.2421 -0.6907 -0.4782
 1140TIP3   OH2 3383   1.611   5.455   2.799  0.3455  0.8034 -0.4236
 1140TIP3    H1 3384   1.538   5.405   2.836  1.0499  1.4114  1.9464
 1140TIP3    H2 3385   1.578   5.545   2.791  0.9522  1.1990  1.1837
 1141TIP3   OH2 3386   0.054   5.033   4.565  0.1123  0.1328 -0.7686
 1141TIP3    H1 3387  -0.022   5.084   4.592  0.4172  1.5180 -2.3968
 1141TIP3    H2 3388   0.126   5.068   4.618 -0.4521 -1.7950  1.4442
 1142TIP3   OH2 3389   6.727   6.629   1.735 -0.1008  0.1141 -0.3158
 1142TIP3    H1 3390   6.683   6.545   1.724  0.3188 -0.5081  2.1627
 1142TIP3    H2 3391   6.806   6.608   1.784  0.0597  1.9270  0.2736
 1143TIP3   OH2 3392   2.228   6.409   1.253  0.2854  0.3489  0.1014
 1143TIP3    H1 3393   2.186   6.450   1.328  0.2036  0.2268  0.1221
 1143TIP3    H2 3394   2.156   6.384   1.196  0.1611 -1.7413  1.0705
 1144TIP3   OH2 3395   0.700   3.807   4.406 -0.2417 -0.4050  0.5034
 1144TIP3    H1 3396   0.766   3.811   4.336 -0.4915 -0.6173  0.2527
 1144TIP3    H2 3397   0.616   3.817   4.360 -0.4803 -1.6742  0.6243
 1145TIP3   OH2 3398   2.225   4.156   2.081 -0.2880 -0.0006  0.1934
 1145TIP3    H1 3399   2.252   4.232   2.029 -0.4772  1.0777  1.6161
 1145TIP3    H2 3400   2.154   4.117   2.030  1.3615 -0.6699 -1.7246
 1146TIP3   OH2 3401   4.797   0.247   1.313  1.0921  0.0957  0.1288
 1146TIP3    H1 3402   4.851   0.234   1.235 -1.5924 -1.6813 -1.6247
 1146TIP3    H2 3403   4.759   0.161   1.331 -0.6276  1.0812  1.6192
 1147TIP3   OH2 3404   6.753   5.159   0.992  0.3179 -0.3425  0.1144
 1147TIP3    H1 3405   6.719   5.115   0.915 -0.5652 -2.0034  1.3925
 1147TIP3    H2 3406   6.697   5.129   1.064  0.1197  2.3316  1.1971
 1148TIP3   OH2 3407   0.157   0.812   5.772  0.3716 -0.2111  0.0540
 1148TIP3    H1 3408   0.249   0.785   5.769  0.4642  0.1722 -1.0722
 1148TIP3    H2 3409   0.160   0.907   5.784  0.2013  0.0877 -1.9034
 1149TIP3   OH2 3410   3.945   3.705   2.213  0.4007  0.0476  0.3100
 1149TIP3    H1 3411   3.992   3.641   2.266  0.2583 -1.1461 -0.9703
 1149TIP3    H2 3412   3.939   3.666   2.126  0.6174  1.9428 -0.6209
 1150TIP3   OH2 3413   5.919   6.324   5.470 -0.1265 -0.0639 -0.2474
 1150TIP3    H1 3414   5.920   6.353   5.379 -0.1334  1.0876  0.0944
 1150TIP3    H2 3415   5.826   6.312   5.491 -0.5890  3.7781  0.7636
 1151TIP3   OH2 3416   2.022   3.161   0.224  0.3921 -0.6715 -0.1973
 1151TIP3    H1 3417   1.966   3.085   0.238  0.9603 -1.2762 -1.1068
 1151TIP3    H2 3418   2.104   3.124   0.191  1.0106  0.2643  0.2551
 1152TIP3   OH2 3419   3.747   0.964   3.685 -0.3522 -0.4740  0.1443
 1152TIP3    H1 3420   3.838   0.954   3.713  0.1780 -0.0174 -1.3026
 1152TIP3    H2 3421   3.749   1.037   3.623 -1.6050 -0.8643 -0.3888
 1153TIP3   OH2 3422   1.074   6.548   5.788  0.2266  0.2922  0.7512
 1153TIP3    H1 3423   1.155   6.579   5.748  0.9392 -0.4760  1.5613
 1153TIP3    H2 3424   1.012   6.541   5.715 -0.0309  3.6266  0.5164
 1154TIP3   OH2 3425   4.626   4.582   0.917  0.5257  0.5109 -0.0390
 1154TIP3    H1 3426   4.583   4.505   0.880  0.9989  0.1457  0.1630
 1154TIP3    H2 3427   4.691   4.607   0.851  0.2785  0.8261 -0.1677
 1155TIP3   OH2 3428   1.993   2.256   5.235 -0.4121  0.8941  0.0402
 1155TIP3    H1 3429   1.905   2.284   5.208 -1.1114 -0.4321  0.8290
 1155TIP3    H2 3430   2.052   2.298   5.173 -1.5344  2.4983 -0.0059
 1156TIP3   OH2 3431   2.649   4.425   1.552 -0.4054  0.4046  0.4190
 1156TIP3    H1 3432   2.590   4.458   1.484  0.8663  0.9897 -0.4348
 1156TIP3    H2 3433   2.631   4.480   1.628 -0.6116  0.9006  0.0158
 1157TIP3   OH2 3434   4.567   1.645   5.501  0.4154 -0.4141 -0.1678
 1157TIP3    H1 3435   4.579   1.731   5.460  1.0284 -0.0095  0.8218
 1157TIP3    H2 3436   4.491   1.656   5.558  0.6147 -0.4651  0.1097
 1158TIP3   OH2 3437   3.262   1.492   3.964  0.5971  0.5550 -0.1796
 1158TIP3    H1 3438   3.316   1.413   3.959 -0.6602 -0.3180 -0.5602
 1158TIP3    H2 3439   3.252   1.520   3.873 -0.4543  0.0785 -0.2280
 1159TIP3   OH2 3440   0.307   4.385   2.128 -0.2596 -0.1851  0.2179
 1159TIP3    H1 3441   0.240   4.373   2.061 -0.3351  1.7288 -0.1073
 1159TIP3    H2 3442   0.355   4.464   2.100 -0.6019  0.9684  2.6281
 1160TIP3   OH2 3443   3.377   6.737   4.631  0.0662 -0.2516  0.4462
 1160TIP3    H1 3444   3.348   6.668   4.572 -1.9720 -0.3364  1.4393
 1160TIP3    H2 3445   3.435   6.694   4.693  2.1376 -0.1860 -1.3308
 1161TIP3   OH2 3446   3.805   1.569   3.581 -0.1007 -0.1284  0.3832
 1161TIP3    H1 3447   3.769   1.538   3.664 -0.5734  0.8013  0.5371
 1161TIP3    H2 3448   3.840   1.490   3.539 -0.8735 -0.7913  0.9496
 1162TIP3   OH2 3449   0.166   4.331   1.548 -0.0318 -0.3821 -0.7029
 1162TIP3    H1 3450   0.116   4.250   1.551  1.6308 -1.4495 -0.6888
 1162TIP3    H2 3451   0.139   4.373   1.467 -1.1221 -0.7838 -0.5686
 1163TIP3   OH2 3452   3.657   5.448   2.340  0.0541  0.1240 -0.3573
 1163TIP3    H1 3453   3.604   5.485   2.410  0.2101 -0.2501 -0.0405
 1163TIP3    H2 3454   3.738   5.499   2.341 -0.8886  1.7956 -1.8925
 1164TIP3   OH2 3455   4.847   1.703   0.928  0.3496 -0.4063 -0.2021
 1164TIP3    H1 3456   4.754   1.708   0.906 -0.0348  0.1578  1.4010
 1164TIP3    H2 3457   4.886   1.779   0.884 -0.2677  0.3187  0.4678
 1165TIP3   OH2 3458   0.089   2.171   1.033 -0.3091 -0.2172 -0.0880
 1165TIP3    H1 3459   0.168   2.218   1.059 -0.4460  0.2600 -0.5223
 1165TIP3    H2 3460   0.018   2.236   1.040 -0.9870 -1.1040  2.0485
 1166TIP3   OH2 3461   6.515   1.254   3.576  0.1072 -0.0319 -0.2008
 1166TIP3    H1 3462   6.523   1.259   3.480  4.3502  0.4344  0.0035
 1166TIP3    H2 3463   6.471   1.335   3.601 -0.4143  0.1668 -1.6499
 1167TIP3   OH2 3464   3.568   0.617   4.467 -0.3654  0.1737 -0.0394
 1167TIP3    H1 3465   3.610   0.678   4.407 -0.3229 -0.4812 -0.6983
 1167TIP3    H2 3466   3.523   0.554   4.410  0.5280 -1.0785  0.5796
 1168TIP3   OH2 3467   4.600   2.339   5.297 -0.6563 -0.7270 -0.1025
 1168TIP3    H1 3468   4.583   2.318   5.389 -0.5750 -1.0957 -0.1684
 1168TIP3    H2 3469   4.524   2.306   5.250 -0.1828 -1.5715 -0.2946
 1169TIP3   OH2 3470   1.796   6.602   0.509  0.1506  0.0068 -0.4526
 1169TIP3    H1 3471   1.800   6.697   0.497  0.2315  0.3620  1.9750
 1169TIP3    H2 3472   1.709   6.586   0.545  1.0003 -0.5059  1.4473
 1170TIP3   OH2 3473   4.950   3.656   1.507 -0.7277  0.1485 -0.0999
 1170TIP3    H1 3474   4.881   3.660   1.573 -1.2263 -0.1943 -0.5955
 1170TIP3    H2 3475   4.938   3.735   1.455 -0.6407  0.1691 -0.0897
 1171TIP3   OH2 3476   1.187   3.231   3.126  0.5695  0.2190 -0.1673
 1171TIP3    H1 3477   1.201   3.159   3.064 -2.0574 -0.5562  0.0185
 1171TIP3    H2 3478   1.128   3.291   3.079 -0.4501  0.2424  1.0990
 1172TIP3   OH2 3479   2.783   4.212   5.208  0.6946 -0.0000 -0.3948
 1172TIP3    H1 3480   2.717   4.215   5.276  2.5404  0.6012  1.4744
 1172TIP3    H2 3481   2.864   4.238   5.252  2.3567 -1.5181 -2.3736
 1173TIP3   OH2 3482   4.157   2.543   1.413 -0.3614 -0.5171  0.2306
 1173TIP3    H1 3483   4.077   2.591   1.433 -1.2542 -1.1073 -1.6710
 1173TIP3    H2 3484   4.139   2.454   1.441  0.2364 -0.3523  1.1867
 1174TIP3   OH2 3485   2.885   5.926   3.705 -0.3394  0.3767  0.1466
 1174TIP3    H1 3486   2.824   5.876   3.650 -1.0778  1.3868  0.0129
 1174TIP3    H2 3487   2.905   6.004   3.654  0.7694  0.2495  0.3668
 1175TIP3   OH2 3488   4.531   6.681   0.669  0.0252 -0.9169  0.2888
 1175TIP3    H1 3489   4.610   6.627   0.660  1.3211  0.7537  1.1078
 1175TIP3    H2 3490   4.517   6.687   0.763  0.2955  0.6722  0.2496
 1176TIP3   OH2 3491   4.889   4.291   0.238 -0.0981  0.0527 -0.5539
 1176TIP3    H1 3492   4.981   4.278   0.218 -0.0188  1.8437 -1.6590
 1176TIP3    H2 3493   4.843   4.262   0.159 -0.6131 -1.8952  0.4082
 1177TIP3   OH2 3494   2.941   5.088   2.821 -0.7740 -1.3920  0.1925
 1177TIP3    H1 3495   2.964   5.056   2.908 -0.5479 -4.3009 -0.8367
 1177TIP3    H2 3496   3.025   5.102   2.777 -0.8859  0.1420  0.4113
 1178TIP3   OH2 3497   2.476   3.160   3.942  0.3431 -0.1882 -0.2815
 1178TIP3    H1 3498   2.535   3.234   3.938 -0.4631  0.4868 -0.0313
 1178TIP3    H2 3499   2.480   3.130   4.033 -0.1108  0.2165 -0.1214
 1179TIP3   OH2 3500   6.283   1.217   1.863 -0.2929 -0.4570 -0.2200
 1179TIP3    H1 3501   6.227   1.190   1.790  0.1134  0.1300 -0.7615
 1179TIP3    H2 3502   6.236   1.291   1.903 -1.1781 -1.6144  0.9739
 1180TIP3   OH2 3503   6.172   2.587   2.004 -0.5339  0.3438  0.0953
 1180TIP3    H1 3504   6.088   2.625   1.976 -0.3578  1.1774  0.6463
 1180TIP3    H2 3505   6.198   2.641   2.079 -0.4105 -1.0673  1.1093
 1181TIP3   OH2 3506   2.782   0.416   3.391  0.4258  0.0678  0.3880
 1181TIP3    H1 3507   2.730   0.397   3.313 -0.1417 -0.9057  0.9783
 1181TIP3    H2 3508   2.857   0.466   3.359  0.0648 -0.0928 -0.7345
 1182TIP3   OH2 3509   6.524   0.350   3.420 -0.4436 -0.2115  0.3051
 1182TIP3    H1 3510   6.517   0.415   3.491  1.5240 -1.0248  1.3150
 1182TIP3    H2 3511   6.477   0.274   3.453  0.2205 -0.4879  0.6250
 1183TIP3   OH2 3512   4.815   1.677   5.071  0.4649 -0.0110  0.1425
 1183TIP3    H1 3513   4.822   1.605   5.134  3.2905 -1.8004 -1.9556
 1183TIP3    H2 3514   4.833   1.756   5.122  1.1679 -1.2055  1.8297
 1184TIP3   OH2 3515   4.621   5.137   4.308  0.0622 -0.1477 -0.2072
 1184TIP3    H1 3516   4.662   5.135   4.394  0.6266  0.8384 -0.4339
 1184TIP3    H2 3517   4.596   5.229   4.295 -1.1156 -0.5042 -0.5952
 1185TIP3   OH2 3518   4.435   0.291   3.785 -0.3006 -0.5197  0.1815
 1185TIP3    H1 3519   4.354   0.341   3.773 -0.2179 -0.4544 -0.1111
 1185TIP3    H2 3520   4.464   0.271   3.696 -0.5950 -1.5157  0.2914
 1186TIP3   OH2 3521   2.502   4.118   4.995  0.0661  1.2922  0.2520
 1186TIP3    H1 3522   2.438   4.147   4.930 -2.1975 -0.8696  1.3525
 1186TIP3    H2 3523   2.576   4.086   4.943 -1.5592 -0.1397 -1.3365
 1187TIP3   OH2 3524   0.158   6.098   4.827  0.1179 -0.1150  0.4359
 1187TIP3    H1 3525   0.100   6.090   4.902 -0.6304  0.2411 -0.1017
 1187TIP3    H2 3526   0.169   6.008   4.796 -1.4850 -0.0367 -0.4563
 1188TIP3   OH2 3527   3.045   1.781   3.938  0.3001 -0.2029 -0.0342
 1188TIP3    H1 3528   2.974   1.780   3.874 -0.0844 -1.4397  0.3803
 1188TIP3    H2 3529   3.124   1.797   3.886 -0.0511 -0.7662 -0.7664
 1189TIP3   OH2 3530   6.177   4.428   2.901  0.2482  0.4106 -0.2900
 1189TIP3    H1 3531   6.087   4.454   2.883  0.7531  0.4028 -3.4373
 1189TIP3    H2 3532   6.208   4.391   2.818  3.0852  0.1791  0.7584
 1190TIP3   OH2 3533   4.153   2.927   5.177 -0.1335 -0.3485  0.0752
 1190TIP3    H1 3534   4.131   2.934   5.270  1.3610  1.4919  0.3369
 1190TIP3    H2 3535   4.175   2.834   5.165 -0.3806 -0.6227  1.5210
 1191TIP3   OH2 3536   1.887   1.285   1.438  0.2615  0.4558  0.3023
 1191TIP3    H1 3537   1.942   1.359   1.465  0.9836  0.5706 -1.3541
 1191TIP3    H2 3538   1.812   1.325   1.395  0.0942  0.2480  0.4009
 1192TIP3   OH2 3539   0.994   3.641   5.785  0.0229  0.0619  0.4163
 1192TIP3    H1 3540   0.972   3.657   5.693 -0.8044 -1.6491  0.2677
 1192TIP3    H2 3541   0.930   3.692   5.834 -1.9613 -1.8212 -0.0283
 1193TIP3   OH2 3542   5.734   4.325   1.454 -0.9525 -0.3274  0.3325
 1193TIP3    H1 3543   5.764   4.266   1.385  0.2142  1.1556 -0.4756
 1193TIP3    H2 3544   5.814   4.352   1.499 -1.3864  1.0851  0.3074
 1194TIP3   OH2 3545   6.013   3.225   5.581  0.1826  0.2561 -0.0915
 1194TIP3    H1 3546   6.079   3.213   5.650 -0.5530 -0.3779  0.5256
 1194TIP3    H2 3547   5.963   3.144   5.583 -0.4678  0.6377 -0.7228
 1195TIP3   OH2 3548   7.087   3.779   3.030  0.9618  0.1842  0.2590
 1195TIP3    H1 3549   7.058   3.843   2.966  2.0037 -0.0556 -0.4715
 1195TIP3    H2 3550   7.168   3.816   3.066  0.9307 -0.1653  0.6925
 1196TIP3   OH2 3551   1.639   0.152   0.230 -0.2875 -0.1695  0.3432
 1196TIP3    H1 3552   1.640   0.194   0.144  3.6554  0.9959  0.7776
 1196TIP3    H2 3553   1.686   0.070   0.217 -0.3461 -0.3512  1.2486
 1197TIP3   OH2 3554   4.624   3.142   4.095 -0.0178 -0.2591 -0.4725
 1197TIP3    H1 3555   4.616   3.144   3.999 -0.4008  1.5281 -0.4282
 1197TIP3    H2 3556   4.714   3.113   4.110  0.3521  0.3545 -1.4000
 1198TIP3   OH2 3557   2.235   0.462   0.618  0.0862 -1.3325 -0.1020
 1198TIP3    H1 3558   2.249   0.500   0.705 -0.5533 -0.2020 -0.4670
 1198TIP3    H2 3559   2.317   0.476   0.571 -0.0588 -0.6103 -0.1477
 1199TIP3   OH2 3560   3.507   0.479   1.282  0.4602  0.2159  0.0137
 1199TIP3    H1 3561   3.436   0.432   1.325  1.5312 -0.3514  1.2103
 1199TIP3    H2 3562   3.511   0.440   1.194 -0.2159 -0.2741  0.1908
 1200TIP3   OH2 3563   2.699   1.365   3.158 -0.0361 -0.1323 -0.8472
 1200TIP3    H1 3564   2.662   1.277   3.170  0.3283 -0.0002  1.8988
 1200TIP3    H2 3565   2.793   1.353   3.172 -0.1034  0.8083  0.6138
 1201TIP3   OH2 3566   4.585   1.012   0.002  0.2543  0.4105 -0.1670
 1201TIP3    H1 3567   4.574   0.986   0.093 -0.2971 -0.4274 -0.4539
 1201TIP3    H2 3568   4.662   0.964  -0.028 -1.1497 -1.5663 -0.8871
 1202TIP3   OH2 3569   0.891   3.568   5.134 -0.1906 -0.4689  0.1076
 1202TIP3    H1 3570   0.957   3.568   5.203  0.6520 -1.6183 -0.6698
 1202TIP3    H2 3571   0.821   3.624   5.168  1.6168  1.6861  0.5187
 1203TIP3   OH2 3572   6.249   0.041   1.676 -0.4630 -0.1083  0.0107
 1203TIP3    H1 3573   6.240  -0.024   1.745 -0.6503  0.7767  0.8457
 1203TIP3    H2 3574   6.302  -0.002   1.609  0.1754 -0.8040  0.9377
 1204TIP3   OH2 3575   3.788   1.964   1.466  0.0625 -0.1835  0.0215
 1204TIP3    H1 3576   3.777   2.059   1.461 -0.6595 -0.2953 -0.9133
 1204TIP3    H2 3577   3.735   1.937   1.542  1.6729  0.3204  1.3872
 1205TIP3   OH2 3578   0.896   3.063   5.069 -0.0916 -0.4548  0.9612
 1205TIP3    H1 3579   0.832   3.075   4.998  3.0979  0.8083 -1.9842
 1205TIP3    H2 3580   0.944   2.984   5.044  2.3026  1.0242  0.5228
 1206TIP3   OH2 3581   2.126   4.396   5.616  0.3198  0.0531  0.4083
 1206TIP3    H1 3582   2.174   4.411   5.534 -1.9371 -0.0187 -1.0328
 1206TIP3    H2 3583   2.034   4.387   5.588 -0.5828  0.3876  3.0006
 1207TIP3   OH2 3584   2.534   4.225   5.762 -0.5549 -0.1984 -0.4375
 1207TIP3    H1 3585   2.617   4.273   5.757  1.1563 -2.2890  3.2853
 1207TIP3    H2 3586   2.469   4.290   5.784  1.1453  0.9205  1.6762
 1208TIP3   OH2 3587   2.752   4.564   5.155  0.3101 -0.2939 -0.4016
 1208TIP3    H1 3588   2.742   4.562   5.060 -0.1804  0.9880 -0.3872
 1208TIP3    H2 3589   2.764   4.656   5.177  2.5288 -0.7540  0.5866
 1209TIP3   OH2 3590   5.884   3.511   0.015  0.6908  0.1148 -0.5381
 1209TIP3    H1 3591   5.828   3.535   0.088  2.1104  2.3779 -0.1184
 1209TIP3    H2 3592   5.910   3.594  -0.024  1.7803 -0.9632 -2.2474
 1210TIP3   OH2 3593   0.089   5.729   2.589  0.0963 -0.0686  0.1439
 1210TIP3    H1 3594   0.052   5.765   2.509  2.1419  3.8217  0.7442
 1210TIP3    H2 3595   0.017   5.731   2.652 -0.4528  0.8392 -0.4940
 1211TIP3   OH2 3596   5.831   2.524   3.655  0.3083  0.5398  0.2527
 1211TIP3    H1 3597   5.793   2.595   3.602  0.9464  1.0221  0.4251
 1211TIP3    H2 3598   5.778   2.447   3.633 -0.0998  0.9621 -0.2949
 1212TIP3   OH2 3599   2.715   2.596   5.331 -0.0642  0.4639 -0.1993
 1212TIP3    H1 3600   2.757   2.678   5.303  0.9471 -0.6392 -2.1682
 1212TIP3    H2 3601   2.650   2.578   5.263 -1.1985  0.2706  0.9037
 1213TIP3   OH2 3602   3.874   2.418   4.052 -0.1509  0.1248  0.0207
 1213TIP3    H1 3603   3.915   2.338   4.019 -0.5282  0.7741 -2.1534
 1213TIP3    H2 3604   3.781   2.408   4.032 -0.2507  0.9700  0.0117
 1214TIP3   OH2 3605   5.656   3.977   1.726 -0.4406 -0.0413  0.2361
 1214TIP3    H1 3606   5.739   4.018   1.751 -1.6215  1.6481  1.6114
 1214TIP3    H2 3607   5.673   3.938   1.641  1.6505  0.5975  0.3110
 1215TIP3   OH2 3608   6.759   1.566   5.161  0.1600  0.2263  0.5056
 1215TIP3    H1 3609   6.693   1.544   5.226 -1.2387  0.5542 -0.7582
 1215TIP3    H2 3610   6.834   1.510   5.183 -1.2800 -1.7335  0.7271
 1216TIP3   OH2 3611   6.590   6.432   3.940  0.2969 -0.0312 -0.6979
 1216TIP3    H1 3612   6.581   6.435   4.036 -1.9967  0.4740 -0.8754
 1216TIP3    H2 3613   6.528   6.364   3.913 -0.9831  1.5982 -1.9940
 1217TIP3   OH2 3614   6.121   2.157   0.694  0.1919  0.2038  0.0946
 1217TIP3    H1 3615   6.142   2.151   0.788  0.9686 -0.8020 -0.1355
 1217TIP3    H2 3616   6.198   2.199   0.656 -0.2066  0.7883 -0.0748
 1218TIP3   OH2 3617   1.578   3.100   0.779 -0.1298 -0.6496 -0.5195
 1218TIP3    H1 3618   1.531   3.045   0.717 -0.1591 -2.0944  0.7242
 1218TIP3    H2 3619   1.524   3.100   0.858 -0.2702  1.4385 -0.5537
 1219TIP3   OH2 3620   3.687   0.032   1.896  0.2383 -0.5526  0.4125
 1219TIP3    H1 3621   3.623   0.084   1.848  0.3439  0.3093  1.1700
 1219TIP3    H2 3622   3.752   0.097   1.925  1.5074 -1.4060 -0.4092
 1220TIP3   OH2 3623   0.809   5.724   5.743  0.2242 -0.2025  0.0039
 1220TIP3    H1 3624   0.812   5.628   5.737  2.7319 -0.2379  0.8437
 1220TIP3    H2 3625   0.729   5.741   5.793 -2.2226 -1.5658 -3.0386
 1221TIP3   OH2 3626   6.968   5.256   5.611  0.0489  0.0319 -0.4034
 1221TIP3    H1 3627   7.058   5.291   5.604 -0.3667  1.2833  0.1272
 1221TIP3    H2 3628   6.920   5.300   5.541 -0.2804 -0.2070 -0.3292
 1222TIP3   OH2 3629   6.974   5.584   5.130 -0.2644 -0.2241 -0.1634
 1222TIP3    H1 3630   6.913   5.629   5.189 -0.6780 -1.0109  0.0183
 1222TIP3    H2 3631   6.919   5.555   5.057 -0.1294 -1.0213  0.0446
 1223TIP3   OH2 3632   1.011   1.383   3.994 -0.2908  0.0003  0.3309
 1223TIP3    H1 3633   1.024   1.340   3.909 -0.2577  1.5813 -0.5236
 1223TIP3    H2 3634   1.019   1.477   3.974 -1.6234  0.4816  1.8446
 1224TIP3   OH2 3635   0.759   5.639   0.076  0.0223 -0.3576  0.2096
 1224TIP3    H1 3636   0.665   5.623   0.063 -0.3544  0.4595  1.6289
 1224TIP3    H2 3637   0.762   5.700   0.150  1.6753 -0.2103  0.0455
 1225TIP3   OH2 3638   1.479   1.040   2.302 -0.0784  0.2181  1.0046
 1225TIP3    H1 3639   1.403   0.981   2.304  0.0852  0.0202  1.7141
 1225TIP3    H2 3640   1.548   0.989   2.261 -0.3749  0.4664  0.1728
 1226TIP3   OH2 3641   4.942   1.247   1.339 -0.0346 -0.2601  0.3001
 1226TIP3    H1 3642   4.932   1.154   1.321 -0.2294  0.3415 -3.4718
 1226TIP3    H2 3643   4.910   1.258   1.429 -0.4186 -3.7004  0.7145
 1227TIP3   OH2 3644   3.042   5.867   5.099  0.1582  0.7452  0.3222
 1227TIP3    H1 3645   3.069   5.789   5.051 -1.0958  0.5965 -0.1820
 1227TIP3    H2 3646   3.071   5.852   5.189 -2.7391 -1.7965  1.0155
 1228TIP3   OH2 3647   2.524   0.355   5.070 -0.2671 -0.6213  0.7695
 1228TIP3    H1 3648   2.514   0.265   5.103  0.3117 -1.4716 -1.2319
 1228TIP3    H2 3649   2.492   0.351   4.980  1.1363  0.8138  0.1626
 1229TIP3   OH2 3650   5.234   4.184   3.222 -0.1778  0.4513  0.0099
 1229TIP3    H1 3651   5.217   4.089   3.216  1.2355  0.2746 -1.9750
 1229TIP3    H2 3652   5.160   4.224   3.176  0.8098  0.0916 -1.9889
 1230TIP3   OH2 3653   5.246   0.720   5.530  0.0058  0.2019  0.0172
 1230TIP3    H1 3654   5.220   0.687   5.616  1.3288  1.9885  1.1606
 1230TIP3    H2 3655   5.319   0.778   5.547  0.2824  0.6521 -2.3364
 1231TIP3   OH2 3656   7.013   2.886   4.464  0.2495  0.5042 -0.1463
 1231TIP3    H1 3657   7.061   2.967   4.483  0.7858  0.0863  0.3113
 1231TIP3    H2 3658   6.934   2.892   4.519  0.0070  0.9710 -0.5380
 1232TIP3   OH2 3659   0.949   1.284   2.650  0.3531  0.1366 -0.4237
 1232TIP3    H1 3660   0.911   1.214   2.597  0.3750 -0.5784  0.4813
 1232TIP3    H2 3661   1.034   1.302   2.609  1.3219 -1.8949  0.5910
 1233TIP3   OH2 3662   4.934   0.239   1.561  0.1855 -0.0782 -0.0732
 1233TIP3    H1 3663   4.917   0.250   1.467 -1.3176  1.6924  0.3425
 1233TIP3    H2 3664   4.897   0.153   1.582 -2.7577  0.9638 -0.4890
 1234TIP3   OH2 3665   5.343   1.359   3.388 -0.0300 -0.0015 -0.6512
 1234TIP3    H1 3666   5.415   1.334   3.331  0.4156 -0.1306 -0.0335
 1234TIP3    H2 3667   5.385   1.399   3.464 -0.6582  1.2894 -0.9505
 1235TIP3   OH2 3668   6.579   3.138   0.690 -0.4367  0.3370 -0.2680
 1235TIP3    H1 3669   6.542   3.191   0.761  0.1600 -1.6434  1.6179
 1235TIP3    H2 3670   6.672   3.160   0.689 -0.0867 -0.9888  0.8729
 1236TIP3   OH2 3671   5.199   1.515   4.330 -0.5825 -0.1608 -0.3827
 1236TIP3    H1 3672   5.226   1.452   4.263  0.7081  0.7138 -0.7285
 1236TIP3    H2 3673   5.198   1.465   4.412  0.1706 -0.6962 -0.6928
 1237TIP3   OH2 3674   6.267   6.199   2.284  0.0849  0.1019 -0.2941
 1237TIP3    H1 3675   6.302   6.135   2.222 -0.7150  0.7840 -1.5007
 1237TIP3    H2 3676   6.328   6.273   2.279 -0.2037  0.3253 -0.6012
 1238TIP3   OH2 3677   3.462   6.493   3.312  0.3595 -0.2471 -0.0503
 1238TIP3    H1 3678   3.444   6.578   3.353  1.8101 -0.1103  0.3738
 1238TIP3    H2 3679   3.535   6.511   3.253  1.7210 -1.4726  1.1788
 1239TIP3   OH2 3680   0.876   5.270   4.564  0.1850  0.1852 -0.3611
 1239TIP3    H1 3681   0.880   5.185   4.607 -1.6789  0.7373  1.0045
 1239TIP3    H2 3682   0.967   5.299   4.561  0.6159 -0.9021  1.1232
 1240TIP3   OH2 3683   6.442   5.253   1.511  0.3715  0.3533  0.1823
 1240TIP3    H1 3684   6.476   5.312   1.444  1.5400 -1.9297 -1.3944
 1240TIP3    H2 3685   6.393   5.309   1.571  1.3837  2.8568 -1.1986
 1241TIP3   OH2 3686   3.609   4.350   1.906 -0.0272 -0.5939 -0.2742
 1241TIP3    H1 3687   3.595   4.439   1.873 -0.0968 -0.4079  0.2392
 1241TIP3    H2 3688   3.676   4.360   1.974 -0.7682 -0.7707  0.4942
 1242TIP3   OH2 3689   3.169   1.504   4.259 -0.0617 -0.2034  0.0531
 1242TIP3    H1 3690   3.155   1.599   4.251  0.7012 -0.0896  0.0153
 1242TIP3    H2 3691   3.189   1.476   4.170  1.3551 -0.1158  0.3187
 1243TIP3   OH2 3692   2.875   4.973   4.425  0.5278 -0.7424 -0.2181
 1243TIP3    H1 3693   2.902   4.995   4.336  0.2017  0.9749  0.0752
 1243TIP3    H2 3694   2.932   4.901   4.450  3.8204  1.6667 -0.2040
 1244TIP3   OH2 3695   6.797   6.042   4.787 -0.1181 -0.2875  0.2509
 1244TIP3    H1 3696   6.807   5.956   4.746  0.2591  0.3891 -1.1381
 1244TIP3    H2 3697   6.702   6.053   4.795 -0.1800 -0.6630  0.0695
 1245TIP3   OH2 3698   5.289   3.603   3.533  0.5107  0.0086 -0.6421
 1245TIP3    H1 3699   5.295   3.660   3.610 -0.1604 -0.0425 -0.5480
 1245TIP3    H2 3700   5.208   3.629   3.490  0.5130 -0.4597 -0.9351
 1246TIP3   OH2 3701   4.137   1.856   0.104 -0.6684 -0.3258  0.4834
 1246TIP3    H1 3702   4.144   1.763   0.082 -0.2016 -0.5292  1.4625
 1246TIP3    H2 3703   4.063   1.887   0.052 -0.4651 -1.1086 -0.3011
 1247TIP3   OH2 3704   0.960   1.032   4.550  0.3407 -0.0366 -0.1623
 1247TIP3    H1 3705   0.974   1.017   4.457 -1.6509 -0.9319 -0.3682
 1247TIP3    H2 3706   0.972   1.127   4.561 -0.5110  0.2562 -1.5672
 1248TIP3   OH2 3707   1.831   1.432   0.376 -0.0061  0.6055  0.5612
 1248TIP3    H1 3708   1.900   1.392   0.323  1.5631  3.7218  0.0106
 1248TIP3    H2 3709   1.750   1.409   0.333  0.9358 -0.4552 -0.7146
 1249TIP3   OH2 3710   2.642   6.530   2.594  0.2260 -0.0253  0.1265
 1249TIP3    H1 3711   2.673   6.459   2.650  2.5713  0.6369 -0.2222
 1249TIP3    H2 3712   2.554   6.503   2.567  0.8088 -2.5029  0.4675
 1250TIP3   OH2 3713   4.297   6.382   2.766  0.2272 -0.7715  0.4928
 1250TIP3    H1 3714   4.217   6.420   2.803  0.7456 -0.3847  1.2223
 1250TIP3    H2 3715   4.328   6.447   2.703 -0.4830 -1.2928 -0.4186
 1251TIP3   OH2 3716   6.403   1.212   4.370  0.1218 -0.2814  0.6134
 1251TIP3    H1 3717   6.441   1.281   4.423  2.1777 -0.3719 -0.6356
 1251TIP3    H2 3718   6.316   1.244   4.347  1.2861  2.2730 -0.5606
 1252TIP3   OH2 3719   5.827   3.134   5.100 -0.1579 -0.2016  0.3040
 1252TIP3    H1 3720   5.742   3.151   5.061 -1.9420 -1.3530  3.2996
 1252TIP3    H2 3721   5.848   3.214   5.148 -0.0967 -0.2989  0.4419
 1253TIP3   OH2 3722   3.153   5.701   4.110 -0.0256 -0.1911 -0.4694
 1253TIP3    H1 3723   3.206   5.637   4.064  1.7509  0.7243  0.2293
 1253TIP3    H2 3724   3.084   5.724   4.048  0.8945 -0.7700 -1.7378
 1254TIP3   OH2 3725   3.072   4.345   4.715 -0.9371  0.4709 -0.0339
 1254TIP3    H1 3726   2.980   4.346   4.690 -0.5088 -0.0549 -1.7444
 1254TIP3    H2 3727   3.098   4.253   4.710  0.5514  0.9402 -3.2038
 1255TIP3   OH2 3728   6.578   4.108   4.664 -0.3665  0.2249 -0.4227
 1255TIP3    H1 3729   6.583   4.012   4.665  0.9075  0.2652 -0.7014
 1255TIP3    H2 3730   6.581   4.133   4.757  0.3503  0.0140 -0.3784
 1256TIP3   OH2 3731   5.893   5.843   5.038  0.8197 -0.3508 -0.3028
 1256TIP3    H1 3732   5.939   5.922   5.065 -0.5666  0.1663  0.6114
 1256TIP3    H2 3733   5.890   5.849   4.942 -3.1202  3.0454 -0.1970
 1257TIP3   OH2 3734   3.886   2.171   3.400  0.1121  0.2280  0.0698
 1257TIP3    H1 3735   3.908   2.196   3.490  0.3122  1.0762 -0.2006
 1257TIP3    H2 3736   3.805   2.219   3.381  1.1099  1.6153 -0.8479
 1258TIP3   OH2 3737   2.606   1.778   5.724 -0.4840 -0.1969  0.2392
 1258TIP3    H1 3738   2.533   1.760   5.783 -1.1739 -0.9214 -0.7944
 1258TIP3    H2 3739   2.574   1.848   5.667 -0.7823 -1.2040 -0.8724
 1259TIP3   OH2 3740   1.408   0.101   5.872 -0.4830 -0.3300  0.1956
 1259TIP3    H1 3741   1.353   0.055   5.808 -1.5043  0.5546  0.4305
 1259TIP3    H2 3742   1.348   0.154   5.923  0.4374 -0.3242  1.3164
 1260TIP3   OH2 3743   4.511   1.121   1.499 -0.1379 -0.0001 -0.0067
 1260TIP3    H1 3744   4.513   1.074   1.583 -2.2948  0.3511  0.2836
 1260TIP3    H2 3745   4.570   1.071   1.443  0.7149 -0.7211  1.4692
 1261TIP3   OH2 3746   6.073   5.036   2.315 -0.4696 -0.2579  0.0925
 1261TIP3    H1 3747   6.050   5.045   2.222  0.0011  1.1135  0.0876
 1261TIP3    H2 3748   6.162   5.071   2.321 -1.1875  1.4918  1.3736
 1262TIP3   OH2 3749   3.817   4.626   1.336 -0.2235  0.6312 -0.5137
 1262TIP3    H1 3750   3.836   4.538   1.369 -0.4874  1.3630  1.7835
 1262TIP3    H2 3751   3.787   4.612   1.247  0.5647 -1.5222 -0.5024
 1263TIP3   OH2 3752   4.870   6.419   2.016  0.1748  0.4700 -0.3345
 1263TIP3    H1 3753   4.961   6.416   1.985  0.0886  2.2985 -0.9154
 1263TIP3    H2 3754   4.831   6.491   1.966 -0.9400  1.2755  1.5935
 1264TIP3   OH2 3755   1.900   6.053   0.980  0.7214 -0.4405  0.1980
 1264TIP3    H1 3756   1.918   6.132   0.930 -1.3599  0.4943  0.7883
 1264TIP3    H2 3757   1.883   5.985   0.915 -0.6909  0.4421 -0.4038
 1265TIP3   OH2 3758   1.327   2.863   3.516  0.3708  0.5620 -0.0728
 1265TIP3    H1 3759   1.320   2.771   3.539  0.0045  0.5989 -0.0290
 1265TIP3    H2 3760   1.252   2.905   3.559 -1.3049  0.3687 -2.5746
 1266TIP3   OH2 3761   5.515   6.066   1.277 -0.2910 -0.0599 -0.1655
 1266TIP3    H1 3762   5.496   6.139   1.218 -0.3697  0.2576  0.2462
 1266TIP3    H2 3763   5.535   6.108   1.361  1.5964 -0.3911 -0.4024
 1267TIP3   OH2 3764   1.363   0.574   0.042 -0.1957  0.4382 -0.5583
 1267TIP3    H1 3765   1.406   0.652   0.006 -1.3461  0.5475 -1.7597
 1267TIP3    H2 3766   1.413   0.501   0.006  0.9467  0.5965  0.6471
 1268TIP3   OH2 3767   1.334   5.078   3.812  0.0676 -0.3088 -0.7729
 1268TIP3    H1 3768   1.319   5.037   3.897  0.7045 -0.4759 -0.7321
 1268TIP3    H2 3769   1.265   5.043   3.756 -0.0492 -0.5944 -0.4527
 1269TIP3   OH2 3770   1.790   2.204   0.983  0.3547 -0.0096 -0.4084
 1269TIP3    H1 3771   1.778   2.141   0.913  0.7318 -0.1864 -0.3135
 1269TIP3    H2 3772   1.882   2.197   1.008  0.8416  1.7415 -1.5045
 1270TIP3   OH2 3773   6.859   2.611   5.601 -0.2248 -1.3055  0.1507
 1270TIP3    H1 3774   6.893   2.699   5.618  3.4964 -2.7736  1.1265
 1270TIP3    H2 3775   6.766   2.617   5.626  0.0523  2.1053  0.8811
 1271TIP3   OH2 3776   4.987   2.729   5.265  0.3084  0.4257 -0.1493
 1271TIP3    H1 3777   5.009   2.801   5.206  1.5449  1.3164  1.3050
 1271TIP3    H2 3778   5.072   2.690   5.288 -0.2356 -0.6312  0.1623
 1272TIP3   OH2 3779   5.442   0.245   4.654 -0.1885 -0.0694  0.8756
 1272TIP3    H1 3780   5.471   0.198   4.733 -0.6475 -1.8068  0.0522
 1272TIP3    H2 3781   5.521   0.250   4.600 -0.7954 -2.8891 -0.4363
 1273TIP3   OH2 3782   6.038   3.429   3.041 -0.5030 -0.1924 -0.4432
 1273TIP3    H1 3783   6.066   3.460   2.955  1.0346 -0.9588 -0.2535
 1273TIP3    H2 3784   6.001   3.507   3.083 -1.6418  0.1125 -1.9050
 1274TIP3   OH2 3785   1.905   2.630   4.124 -0.3838  0.4772 -0.1417
 1274TIP3    H1 3786   1.841   2.681   4.074 -1.2500 -2.1178 -1.9096
 1274TIP3    H2 3787   1.961   2.590   4.057 -0.8714 -2.2442  0.9625
 1275TIP3   OH2 3788   4.153   5.321   4.059 -0.2644 -0.1441  0.2618
 1275TIP3    H1 3789   4.116   5.241   4.023 -0.1537 -0.6668  1.2668
 1275TIP3    H2 3790   4.232   5.337   4.007 -1.1168  0.2029 -0.9761
 1276TIP3   OH2 3791   0.845   1.128   2.459 -0.0171 -0.1839 -0.1369
 1276TIP3    H1 3792   0.831   1.034   2.443  0.6997 -0.4027  0.4686
 1276TIP3    H2 3793   0.886   1.160   2.378 -1.2315 -0.1587 -0.7581
 1277TIP3   OH2 3794   5.165   0.584   4.644 -1.0229 -0.6004 -0.4270
 1277TIP3    H1 3795   5.179   0.662   4.590 -0.4413 -0.3168  0.1220
 1277TIP3    H2 3796   5.168   0.616   4.734  2.4667 -1.6898 -0.0289
 1278TIP3   OH2 3797   6.692   2.166   5.611 -0.4449  0.6278 -0.0745
 1278TIP3    H1 3798   6.598   2.177   5.603 -0.7946 -2.6396 -2.8013
 1278TIP3    H2 3799   6.728   2.202   5.530  0.9217  3.0072  1.4676
 1279TIP3   OH2 3800   5.466   3.853   0.617 -0.1332 -0.2177 -0.0129
 1279TIP3    H1 3801   5.486   3.761   0.599  1.4179 -0.2893  1.7401
 1279TIP3    H2 3802   5.537   3.902   0.575  0.4670 -0.0355  1.1701
 1280TIP3   OH2 3803   1.385   2.796   0.793 -0.2052 -0.2055  0.0792
 1280TIP3    H1 3804   1.318   2.731   0.811 -0.1154  0.2018  2.1536
 1280TIP3    H2 3805   1.373   2.863   0.861  1.7564  0.2833  0.0082
 1281TIP3   OH2 3806   4.326   3.999   3.431 -0.4441  0.2788 -0.0143
 1281TIP3    H1 3807   4.244   4.011   3.383 -0.0411 -1.0883 -1.1086
 1281TIP3    H2 3808   4.382   3.949   3.371  1.0559  0.8358  0.8626
 1282TIP3   OH2 3809   4.867   4.778   2.729 -0.2273 -0.1701 -0.5720
 1282TIP3    H1 3810   4.935   4.718   2.698  0.3345  0.8890 -1.4290
 1282TIP3    H2 3811   4.821   4.805   2.650  0.7395  1.9838 -0.4691
 1283TIP3   OH2 3812   5.559   1.444   5.136 -0.6130  0.1772 -0.1905
 1283TIP3    H1 3813   5.606   1.388   5.075 -0.9524  0.7770 -1.0198
 1283TIP3    H2 3814   5.596   1.531   5.123 -0.4816  0.2661  0.6794
 1284TIP3   OH2 3815   6.442   3.452   3.196 -0.1222  0.1230  0.7368
 1284TIP3    H1 3816   6.355   3.453   3.236 -0.4856  0.2387 -0.0383
 1284TIP3    H2 3817   6.425   3.445   3.102  0.6925  0.5975  0.5457
 1285TIP3   OH2 3818   6.681   3.561   2.875  0.1736 -0.1699  0.7162
 1285TIP3    H1 3819   6.735   3.483   2.892 -0.6781 -0.9629 -0.1009
 1285TIP3    H2 3820   6.617   3.532   2.811  0.4280  1.4757 -0.3446
 1286TIP3   OH2 3821   4.142   3.467   4.323  0.1079 -0.6152  0.1215
 1286TIP3    H1 3822   4.166   3.529   4.391  1.7834 -1.4127  0.3025
 1286TIP3    H2 3823   4.155   3.515   4.241  2.2095 -0.9302  0.2235
 1287TIP3   OH2 3824   7.141   1.076   4.234  0.2076  0.0230  0.0229
 1287TIP3    H1 3825   7.210   1.010   4.242  1.0597  0.9703  0.7083
 1287TIP3    H2 3826   7.155   1.116   4.149  0.9721  0.7155  0.4676
 1288TIP3   OH2 3827   3.695   0.645   4.715  0.2202  0.2079 -0.1851
 1288TIP3    H1 3828   3.634   0.703   4.761  1.3271 -0.2958  2.0798
 1288TIP3    H2 3829   3.642   0.606   4.645 -2.2337 -0.5473  1.9195
 1289TIP3   OH2 3830   0.174   1.588   5.779 -0.7231 -0.3839  0.1019
 1289TIP3    H1 3831   0.091   1.630   5.802 -1.3038 -0.9944 -0.7976
 1289TIP3    H2 3832   0.156   1.542   5.697  1.5088  2.5448 -2.2524
 1290TIP3   OH2 3833   5.495   5.872   5.277  0.0339  0.1749  0.6623
 1290TIP3    H1 3834   5.485   5.856   5.371 -3.5926  0.7793  0.5299
 1290TIP3    H2 3835   5.575   5.825   5.254 -0.0970 -1.8658  3.6440
 1291TIP3   OH2 3836   3.574   2.563   4.258  0.6671  0.2541 -0.4440
 1291TIP3    H1 3837   3.541   2.625   4.322 -0.6706 -1.7844  0.9738
 1291TIP3    H2 3838   3.503   2.554   4.194  0.0156 -1.1807  0.4259
 1292TIP3   OH2 3839   4.918   1.485   3.082  0.0979 -0.1024 -0.4675
 1292TIP3    H1 3840   4.896   1.561   3.028 -0.6004  0.5077  0.6424
 1292TIP3    H2 3841   5.009   1.499   3.108 -0.0940  0.4636 -0.0970
 1293TIP3   OH2 3842   2.095   6.391   5.825  0.1307  0.4348  0.1644
 1293TIP3    H1 3843   2.048   6.310   5.802  0.7838 -0.1319  0.7638
 1293TIP3    H2 3844   2.087   6.446   5.747  0.1227 -0.4262 -0.4596
 1294TIP3   OH2 3845   5.948   2.838   1.387  0.0399  0.5217  0.6389
 1294TIP3    H1 3846   5.975   2.765   1.331  0.5539 -0.4256  2.0664
 1294TIP3    H2 3847   5.974   2.812   1.475 -0.8503  1.9134  1.3568
 1295TIP3   OH2 3848   3.146   4.126   2.827 -0.1666  0.2952  0.2564
 1295TIP3    H1 3849   3.099   4.147   2.746 -0.8480 -1.9559 -0.0133
 1295TIP3    H2 3850   3.202   4.052   2.803  1.5942  1.2382  1.2454
 1296TIP3   OH2 3851   4.415   3.652   3.818 -0.4635  1.2138  0.1000
 1296TIP3    H1 3852   4.369   3.592   3.758 -0.8446  2.5759 -1.0394
 1296TIP3    H2 3853   4.345   3.708   3.853  0.0693  2.0273 -0.1132
 1297TIP3   OH2 3854   2.721   5.867   3.157  0.4062 -0.3037 -0.2787
 1297TIP3    H1 3855   2.786   5.820   3.105  2.1675  2.5317 -0.8509
 1297TIP3    H2 3856   2.742   5.844   3.248 -0.3629 -2.4449 -0.5934
 1298TIP3   OH2 3857   1.033   3.457   3.071  0.0366  0.4256  0.6407
 1298TIP3    H1 3858   0.942   3.453   3.099  0.3932 -1.6652  1.6947
 1298TIP3    H2 3859   1.074   3.520   3.131 -0.7929  1.8722 -0.2519
 1299TIP3   OH2 3860   1.296   3.414   1.623 -0.0584  0.0899  0.3987
 1299TIP3    H1 3861   1.356   3.384   1.692  0.8715 -0.3610 -0.5781
 1299TIP3    H2 3862   1.324   3.503   1.604 -1.8337  1.0970  2.2198
 1300TIP3   OH2 3863   6.478   4.302   3.981 -0.5491 -0.6900 -0.0177
 1300TIP3    H1 3864   6.403   4.256   4.019 -0.2060 -3.1114 -2.0406
 1300TIP3    H2 3865   6.440   4.380   3.941 -1.5071 -0.2993  1.5458
 1301TIP3   OH2 3866   0.400   0.037   2.492  0.0118  0.7253 -0.3896
 1301TIP3    H1 3867   0.387   0.028   2.587  3.3023  0.9235  0.1762
 1301TIP3    H2 3868   0.402   0.132   2.477 -1.0861  0.6988 -0.7991
 1302TIP3   OH2 3869   1.239   5.313   2.424 -0.6701 -0.1231  0.6236
 1302TIP3    H1 3870   1.300   5.385   2.439 -1.4676  0.9425 -0.9604
 1302TIP3    H2 3871   1.290   5.250   2.371 -0.6296  0.3062  0.1456
 1303TIP3   OH2 3872   5.845   5.037   3.618  0.3136  0.2157 -0.3121
 1303TIP3    H1 3873   5.817   5.069   3.703 -1.3348 -3.0819  0.5636
 1303TIP3    H2 3874   5.764   5.010   3.575  1.4194 -1.9149 -1.2165
 1304TIP3   OH2 3875   6.061   0.559   5.484 -0.1932  0.2996 -0.1356
 1304TIP3    H1 3876   6.069   0.637   5.538  0.1429 -0.1519  0.4809
 1304TIP3    H2 3877   6.126   0.498   5.519 -1.5407 -0.8658  0.4861
 1305TIP3   OH2 3878   0.431   1.987   5.635 -0.6774  0.3899  0.4773
 1305TIP3    H1 3879   0.483   2.026   5.705  1.2972  0.4833 -0.9594
 1305TIP3    H2 3880   0.458   1.895   5.635 -0.7093  0.3788 -0.0929
 1306TIP3   OH2 3881   5.110   1.197   2.146  0.1818 -0.4329 -0.3604
 1306TIP3    H1 3882   5.060   1.278   2.138  1.8945  0.7989  0.5644
 1306TIP3    H2 3883   5.174   1.215   2.215  1.7987 -1.9513 -1.3627
 1307TIP3   OH2 3884   2.363   5.052   1.407 -0.2752  0.0710  0.8768
 1307TIP3    H1 3885   2.357   5.094   1.493  3.3005 -0.7034  1.6575
 1307TIP3    H2 3886   2.408   4.969   1.424 -1.3605 -1.0916 -1.5050
 1308TIP3   OH2 3887   3.592   1.672   3.966 -0.0798 -0.1402 -0.6185
 1308TIP3    H1 3888   3.601   1.727   4.044  0.2792  0.1251 -0.8490
 1308TIP3    H2 3889   3.530   1.604   3.993  3.2742 -2.7132  1.3834
 1309TIP3   OH2 3890   6.308   5.209   4.403  0.3465  1.1615  0.2860
 1309TIP3    H1 3891   6.297   5.127   4.450  1.9468  0.1986 -0.9204
 1309TIP3    H2 3892   6.346   5.269   4.468 -1.2495  1.1297  1.2985
 1310TIP3   OH2 3893   3.769   3.498   2.766  0.1179  0.1045  0.3209
 1310TIP3    H1 3894   3.745   3.572   2.711  0.6050 -0.1203 -0.2129
 1310TIP3    H2 3895   3.686   3.461   2.794 -0.1725  2.3037  2.6446
 1311TIP3   OH2 3896   0.835   4.221   4.641 -0.1893  0.0866 -0.1826
 1311TIP3    H1 3897   0.925   4.234   4.670 -0.6612  3.1008  0.2721
 1311TIP3    H2 3898   0.828   4.272   4.560 -1.0144 -1.7040 -1.3008
 1312TIP3   OH2 3899   5.948   1.857   3.866 -0.4232  0.2922 -0.4028
 1312TIP3    H1 3900   6.026   1.805   3.883 -0.7785 -0.4847 -1.0840
 1312TIP3    H2 3901   5.928   1.842   3.774 -1.0938  0.8678 -0.3607
 1313TIP3   OH2 3902   5.239   3.399   0.201 -0.0782  0.5579  0.1991
 1313TIP3    H1 3903   5.327   3.417   0.233  0.4417  0.6551 -1.2002
 1313TIP3    H2 3904   5.252   3.334   0.132 -1.2375 -0.3109  0.7589
 1314TIP3   OH2 3905   0.185   1.465   3.638 -0.0889  0.5443 -0.0494
 1314TIP3    H1 3906   0.157   1.382   3.676  0.7547  0.2966  0.0634
 1314TIP3    H2 3907   0.161   1.530   3.704  1.4423  0.1091  0.9982
 1315TIP3   OH2 3908   4.879   3.808   2.790  0.3409 -0.0443 -0.1939
 1315TIP3    H1 3909   4.869   3.899   2.763 -1.5872 -0.2043 -0.1852
 1315TIP3    H2 3910   4.974   3.792   2.788  0.5829  1.2273 -2.5479
 1316TIP3   OH2 3911   2.881   1.292   5.823  0.3069  0.3323 -0.5113
 1316TIP3    H1 3912   2.903   1.272   5.914 -1.8523  1.0847  0.2357
 1316TIP3    H2 3913   2.963   1.323   5.784  1.1382  0.5592  1.3395
 1317TIP3   OH2 3914   2.740   6.626   0.657  0.2663 -0.4169 -0.0392
 1317TIP3    H1 3915   2.688   6.592   0.585  1.6165 -0.3080 -1.0999
 1317TIP3    H2 3916   2.744   6.721   0.641  1.2077 -0.4875 -0.2654
 1318TIP3   OH2 3917   5.044   3.737   2.540 -0.6423  0.1955  0.1857
 1318TIP3    H1 3918   5.041   3.653   2.585  0.0127 -1.3983 -2.5286
 1318TIP3    H2 3919   5.099   3.792   2.596 -0.9502 -1.2016  1.9402
 1319TIP3   OH2 3920   1.841   6.543   0.225  0.1142  0.4978 -0.3665
 1319TIP3    H1 3921   1.809   6.456   0.204  0.8416  0.5257 -1.6735
 1319TIP3    H2 3922   1.803   6.563   0.310 -1.0059 -0.6143 -0.5908
 1320TIP3   OH2 3923   2.175   1.222   0.827 -0.2527  0.2391 -0.3023
 1320TIP3    H1 3924   2.242   1.158   0.802 -0.2816  0.5179 -1.1554
 1320TIP3    H2 3925   2.093   1.184   0.796 -0.2201  0.8632 -1.2208
 1321TIP3   OH2 3926   7.089   3.525   5.079 -1.0334  0.0705  0.4931
 1321TIP3    H1 3927   7.092   3.445   5.026 -2.4404 -0.2534  0.8537
 1321TIP3    H2 3928   7.179   3.555   5.083 -0.4572 -1.5680  0.4457
 1322TIP3   OH2 3929   6.598   6.589   5.016  0.4661 -0.4284  0.5206
 1322TIP3    H1 3930   6.552   6.513   4.980  0.8149 -1.5510  2.3543
 1322TIP3    H2 3931   6.580   6.586   5.110 -0.8673  2.7174  0.4696
 1323TIP3   OH2 3932   0.406   3.904   0.134 -1.2645 -0.5210 -0.3045
 1323TIP3    H1 3933   0.449   3.961   0.198 -1.5903  1.8653 -2.0789
 1323TIP3    H2 3934   0.478   3.867   0.083 -1.1054  1.8381 -1.9373
 1324TIP3   OH2 3935   0.037   3.085   0.939  0.4181 -0.1383 -0.3818
 1324TIP3    H1 3936   0.093   3.087   0.861  0.4517 -2.2087 -0.4508
 1324TIP3    H2 3937   0.098   3.076   1.012  0.2740 -0.4197 -0.2968
 1325TIP3   OH2 3938   5.318   3.099   0.548 -0.5895  0.7664  0.0119
 1325TIP3    H1 3939   5.325   3.006   0.570  2.8353  1.1242  0.9229
 1325TIP3    H2 3940   5.322   3.101   0.453  0.3431  0.0046  0.0168
 1326TIP3   OH2 3941   5.648   5.368   1.057 -0.2377  0.4634 -0.3905
 1326TIP3    H1 3942   5.646   5.448   1.110  2.7381 -0.2854  1.0424
 1326TIP3    H2 3943   5.609   5.301   1.113 -1.9730  0.6614 -1.2822
 1327TIP3   OH2 3944   4.736   2.558   2.387 -1.0980 -0.0447 -0.0317
 1327TIP3    H1 3945   4.812   2.570   2.445 -0.3895  0.6310 -1.0640
 1327TIP3    H2 3946   4.773   2.520   2.307 -2.3785 -3.1445  0.7113
 1328TIP3   OH2 3947   3.029   5.172   3.474 -0.3052 -0.3929 -0.3952
 1328TIP3    H1 3948   3.078   5.175   3.392  1.8427 -1.2971  0.7861
 1328TIP3    H2 3949   2.982   5.255   3.476  0.9574  0.4119 -1.7451
 1329TIP3   OH2 3950   0.589   0.135   1.710 -0.6104  0.1652 -0.6614
 1329TIP3    H1 3951   0.546   0.194   1.648  0.8599  1.4280 -0.5500
 1329TIP3    H2 3952   0.678   0.125   1.677 -0.6370 -1.5289 -0.3204
 1330TIP3   OH2 3953   3.957   0.203   2.212  0.2589 -0.0403  0.1969
 1330TIP3    H1 3954   3.961   0.135   2.278  0.7722 -1.3473 -1.1224
 1330TIP3    H2 3955   3.940   0.284   2.261  0.3282 -0.9982  1.8589
 1331TIP3   OH2 3956   3.086   5.764   2.784  0.6407 -0.3408 -0.0940
 1331TIP3    H1 3957   3.180   5.745   2.785  1.2887  2.3762  0.2698
 1331TIP3    H2 3958   3.076   5.830   2.716 -0.9480 -0.2861  0.1652
 1332TIP3   OH2 3959   5.852   1.622   4.384  0.4306  0.2856  0.5437
 1332TIP3    H1 3960   5.889   1.709   4.396  0.0316  0.4463  0.5963
 1332TIP3    H2 3961   5.763   1.637   4.355  0.5871 -0.1055 -0.1663
 1333TIP3   OH2 3962   3.551   0.924   2.503  0.6862 -0.1479 -0.2446
 1333TIP3    H1 3963   3.600   0.924   2.585 -0.1469 -0.5735  0.2719
 1333TIP3    H2 3964   3.542   0.832   2.479 -1.6500 -0.2892  0.8251
 1334TIP3   OH2 3965   1.388   1.275   2.240 -0.7444  0.3312 -0.2883
 1334TIP3    H1 3966   1.360   1.252   2.152  0.0027  1.4536 -0.8454
 1334TIP3    H2 3967   1.427   1.195   2.276 -0.8028 -0.0518 -1.0740
 1335TIP3   OH2 3968   0.702   6.088   2.055  0.4955  0.0714  0.0716
 1335TIP3    H1 3969   0.644   6.039   2.113 -1.4008  0.5555 -1.2995
 1335TIP3    H2 3970   0.714   6.172   2.098 -2.2353  1.0497 -0.8661
 1336TIP3   OH2 3971   7.120   1.793   0.801 -0.8170 -0.8547  0.1677
 1336TIP3    H1 3972   7.159   1.873   0.836 -0.8722 -0.0696 -1.4507
 1336TIP3    H2 3973   7.160   1.723   0.851 -0.5890  0.1619  1.4759
 1337TIP3   OH2 3974   5.866   6.632   4.547 -0.5368 -0.6657 -0.4386
 1337TIP3    H1 3975   5.815   6.713   4.546  1.7705  0.9069  1.2019
 1337TIP3    H2 3976   5.821   6.575   4.484 -2.2956  1.8158 -1.5837
 1338TIP3   OH2 3977   2.425   6.681   0.647  0.4272 -0.5033  0.0858
 1338TIP3    H1 3978   2.481   6.749   0.685  1.1840 -2.7300  3.4839
 1338TIP3    H2 3979   2.473   6.650   0.570  0.4698  2.1277 -1.0277
 1339TIP3   OH2 3980   4.056   4.088   4.619 -0.1680 -0.0156 -0.1771
 1339TIP3    H1 3981   4.060   4.180   4.645 -0.1670 -0.1221  0.2056
 1339TIP3    H2 3982   4.138   4.074   4.572 -0.2848  0.2460 -0.4651
 1340TIP3   OH2 3983   5.850   3.384   0.294  0.3209 -0.6019 -0.1982
 1340TIP3    H1 3984   5.857   3.471   0.333  0.2220 -1.9301  3.0751
 1340TIP3    H2 3985   5.922   3.379   0.232  1.6705  1.0851  1.1404
 1341TIP3   OH2 3986   0.188   3.683   4.237 -0.2801  0.2070 -0.4870
 1341TIP3    H1 3987   0.177   3.769   4.277  0.8143  0.1077  0.0666
 1341TIP3    H2 3988   0.252   3.696   4.168  0.5589 -0.3141  0.1694
 1342TIP3   OH2 3989   3.819   2.779   2.880  0.3300  0.1711 -0.4626
 1342TIP3    H1 3990   3.784   2.867   2.872 -0.6291 -0.0441  0.9706
 1342TIP3    H2 3991   3.906   2.790   2.918  0.3822  0.5091 -0.6783
 1343TIP3   OH2 3992   2.629   2.783   0.628  0.4143  0.3014  0.1674
 1343TIP3    H1 3993   2.591   2.775   0.715  0.3932 -2.2693 -0.0172
 1343TIP3    H2 3994   2.601   2.870   0.598  0.6842  1.3787  2.7891
 1344TIP3   OH2 3995   6.257   3.661   1.307  0.1237  0.3588  0.0287
 1344TIP3    H1 3996   6.332   3.721   1.318  0.5821 -0.1896 -0.0523
 1344TIP3    H2 3997   6.216   3.658   1.393  0.3783  0.4243  0.1561
 1345TIP3   OH2 3998   3.901   0.140   2.590 -0.3582 -0.1422 -0.2305
 1345TIP3    H1 3999   3.890   0.227   2.552 -0.5060 -0.2384 -0.4091
 1345TIP3    H2 4000   3.815   0.119   2.627 -0.0734  0.1848  0.6586
 1346TIP3   OH2 4001   6.253   6.060   0.559 -0.3797 -0.0899  0.0426
 1346TIP3    H1 4002   6.209   6.000   0.619 -0.1440  1.1051  1.4545
 1346TIP3    H2 4003   6.303   6.002   0.500 -0.0889 -1.2926  1.3982
 1347TIP3   OH2 4004   1.507   3.515   3.366  0.0192 -0.0272  0.3688
 1347TIP3    H1 4005   1.484   3.425   3.344 -0.3597  0.4401 -1.2840
 1347TIP3    H2 4006   1.450   3.537   3.440 -1.9734 -0.2418 -1.0264
 1348TIP3   OH2 4007   0.182   0.440   4.605  0.1331  0.2999  0.2893
 1348TIP3    H1 4008   0.184   0.349   4.574 -2.4349  0.8367 -1.7728
 1348TIP3    H2 4009   0.111   0.442   4.669 -0.4904  1.0068 -0.4020
 1349TIP3   OH2 4010   4.712   2.548   4.216 -0.0105  0.3624 -0.0422
 1349TIP3    H1 4011   4.652   2.547   4.290  0.1421  1.3207  0.1011
 1349TIP3    H2 4012   4.701   2.634   4.177  1.4712  0.6727  0.1504
 1350TIP3   OH2 4013   5.241   5.624   3.883 -0.2502  0.2517  0.4692
 1350TIP3    H1 4014   5.174   5.648   3.946 -0.6782  0.2426  0.0241
 1350TIP3    H2 4015   5.277   5.542   3.915 -1.0548 -0.1930  0.2540
 1351TIP3   OH2 4016   0.245   5.018   0.031 -0.3265 -0.0203  0.4767
 1351TIP3    H1 4017   0.314   4.969   0.074 -1.4500 -0.1164  2.2559
 1351TIP3    H2 4018   0.164   4.984   0.068 -1.2817  0.9384 -0.6387
 1352TIP3   OH2 4019   1.471   4.182   1.906 -0.3795 -0.5624 -0.1989
 1352TIP3    H1 4020   1.541   4.137   1.953 -0.5611  0.7875  1.4992
 1352TIP3    H2 4021   1.393   4.129   1.922 -0.3032 -0.4798  0.5096
 1353TIP3   OH2 4022   0.891   5.255   1.955 -0.1882  0.0015  0.1591
 1353TIP3    H1 4023   0.897   5.349   1.966  0.7219 -0.1280  0.8909
 1353TIP3    H2 4024   0.804   5.232   1.987  0.4417  0.3182  2.2358
 1354TIP3   OH2 4025   3.561   5.282   0.704 -0.0999  0.4729  0.3363
 1354TIP3    H1 4026   3.492   5.294   0.768 -1.2653 -1.8483 -0.3736
 1354TIP3    H2 4027   3.515   5.259   0.623  1.4593  0.2548 -0.5308
 1355TIP3   OH2 4028   4.994   1.332   2.834  0.5138  0.3958 -0.2640
 1355TIP3    H1 4029   5.056   1.291   2.895  0.6332  0.7815 -0.1259
 1355TIP3    H2 4030   4.914   1.342   2.886  0.7359  1.0820 -0.0517
 1356TIP3   OH2 4031   5.735   3.020   0.918  0.5262  0.3315  0.1230
 1356TIP3    H1 4032   5.738   3.008   0.823  2.4377  2.2370 -0.1217
 1356TIP3    H2 4033   5.793   3.094   0.935 -1.1907  1.2242  2.6117
 1357TIP3   OH2 4034   5.355   0.676   0.274  0.3799  0.2872  0.2674
 1357TIP3    H1 4035   5.360   0.582   0.291 -0.1762 -0.2973 -2.3653
 1357TIP3    H2 4036   5.370   0.684   0.180  0.7016  2.8781  0.4739
 1358TIP3   OH2 4037   2.543   4.513   3.175  0.0745  0.4299 -0.1613
 1358TIP3    H1 4038   2.473   4.456   3.143 -0.4740  1.3066 -0.5576
 1358TIP3    H2 4039   2.506   4.557   3.251  1.0084 -0.8305  1.0682
 1359TIP3   OH2 4040   5.905   0.344   2.809 -0.3959 -0.2676  0.0595
 1359TIP3    H1 4041   5.865   0.306   2.731  0.7772 -2.0823  0.2899
 1359TIP3    H2 4042   5.931   0.432   2.782 -1.0234 -0.4525 -1.2305
 1360TIP3   OH2 4043   4.572   6.303   2.135 -0.2758 -0.1117 -0.3516
 1360TIP3    H1 4044   4.512   6.244   2.179 -2.1708  1.0257 -1.2643
 1360TIP3    H2 4045   4.520   6.342   2.064  2.1029 -0.5079 -2.4529
 1361TIP3   OH2 4046   0.820   4.485   0.568 -0.3536  0.5686 -0.0907
 1361TIP3    H1 4047   0.844   4.417   0.630 -1.0393 -0.3537 -0.8070
 1361TIP3    H2 4048   0.730   4.508   0.591  0.2607  2.1387  0.9232
 1362TIP3   OH2 4049   5.526   6.328   0.216  0.5159 -0.1268  0.4751
 1362TIP3    H1 4050   5.470   6.314   0.139  0.4347  0.1813  0.4745
 1362TIP3    H2 4051   5.478   6.393   0.268  0.8922  0.1623  0.4606
 1363TIP3   OH2 4052   2.595   4.174   3.775 -0.7020  0.2027 -0.1512
 1363TIP3    H1 4053   2.637   4.242   3.722  2.8433  0.4525  2.5487
 1363TIP3    H2 4054   2.603   4.094   3.722  0.9731  0.7757 -0.8368
 1364TIP3   OH2 4055   3.727   4.035   3.557 -0.2515  0.4676 -0.7998
 1364TIP3    H1 4056   3.733   4.127   3.530 -1.5465  0.5686 -0.8153
 1364TIP3    H2 4057   3.761   3.987   3.482  1.2139  0.9513 -0.4707
 1365TIP3   OH2 4058   6.401   5.906   4.337 -0.0717 -0.1264  0.0187
 1365TIP3    H1 4059   6.386   5.929   4.429  2.7940 -0.4514  0.6578
 1365TIP3    H2 4060   6.405   5.990   4.292  0.7226  0.1667  0.6065
 1366TIP3   OH2 4061   2.587   0.699   4.061  0.0368 -0.0557  0.3373
 1366TIP3    H1 4062   2.495   0.724   4.067 -0.2709 -0.9436 -0.4301
 1366TIP3    H2 4063   2.597   0.666   3.972  1.2672  0.6482  0.1947
 1367TIP3   OH2 4064   4.647   2.660   5.538 -0.3012 -0.4670  0.0309
 1367TIP3    H1 4065   4.624   2.570   5.560 -0.2624  0.0357  2.3922
 1367TIP3    H2 4066   4.605   2.713   5.605  0.0738  1.2597 -1.0217
 1368TIP3   OH2 4067   2.117   4.996   3.035  0.3167 -0.0844  0.2121
 1368TIP3    H1 4068   2.130   4.961   2.947 -0.2988 -0.2133  0.1666
 1368TIP3    H2 4069   2.106   4.918   3.091  1.7935 -0.0391  0.5928
 1369TIP3   OH2 4070   2.814   6.640   2.407 -0.5196  0.0933 -0.1071
 1369TIP3    H1 4071   2.884   6.656   2.471 -1.2855 -1.4509  1.1781
 1369TIP3    H2 4072   2.734   6.668   2.452 -1.2188 -2.1254  0.1243
 1370TIP3   OH2 4073   1.485   6.368   3.723 -0.8350  0.2309  0.1385
 1370TIP3    H1 4074   1.500   6.406   3.637  2.9949  0.4497  0.7183
 1370TIP3    H2 4075   1.460   6.442   3.778  0.1383  0.7612 -0.1095
 1371TIP3   OH2 4076   5.986   0.391   1.073  0.2798  0.4382  0.1839
 1371TIP3    H1 4077   5.915   0.386   1.009  0.3546 -1.9097  0.2096
 1371TIP3    H2 4078   6.062   0.419   1.022 -0.0929  0.4565 -0.3668
 1372TIP3   OH2 4079   1.517   0.251   5.411 -0.0253 -0.2491  0.1761
 1372TIP3    H1 4080   1.542   0.337   5.445  0.1780 -0.2986  0.1550
 1372TIP3    H2 4081   1.452   0.219   5.473  1.4593 -1.0037  1.4060
 1373TIP3   OH2 4082   0.962   4.786   4.675  0.2265  0.0046  0.2875
 1373TIP3    H1 4083   1.013   4.867   4.685  0.3093 -0.2569  2.4126
 1373TIP3    H2 4084   1.029   4.717   4.672  0.1315 -0.0692 -1.0719
 1374TIP3   OH2 4085   5.605   0.927   0.165  0.4984  0.3430 -0.0714
 1374TIP3    H1 4086   5.605   0.978   0.246  0.8335  0.4964 -0.1672
 1374TIP3    H2 4087   5.512   0.913   0.146  0.4276 -0.3393  0.7393
 1375TIP3   OH2 4088   4.455   3.286   3.076 -0.0522 -0.2929 -0.6300
 1375TIP3    H1 4089   4.498   3.371   3.086 -1.6306  0.3341  1.6237
 1375TIP3    H2 4090   4.467   3.265   2.983 -2.1922  3.8620 -2.1322
 1376TIP3   OH2 4091   1.307   0.860   2.970  0.2059  0.4456  0.2829
 1376TIP3    H1 4092   1.351   0.886   3.051 -0.8651  0.9363  0.7340
 1376TIP3    H2 4093   1.367   0.886   2.900  1.6012 -0.8954  0.9285
 1377TIP3   OH2 4094   0.384   4.844   4.717 -0.9329 -0.3043  0.1063
 1377TIP3    H1 4095   0.295   4.817   4.693 -1.5188  1.1938  0.5271
 1377TIP3    H2 4096   0.433   4.839   4.634 -2.0681  1.4012 -0.7250
 1378TIP3   OH2 4097   3.483   4.115   4.036 -0.4720  0.1892 -0.4952
 1378TIP3    H1 4098   3.520   4.199   4.063 -0.7046  0.2610 -0.3957
 1378TIP3    H2 4099   3.489   4.116   3.940 -1.4449  0.7764 -0.5639
 1379TIP3   OH2 4100   5.469   3.241   0.734 -0.3346  0.3392  0.2166
 1379TIP3    H1 4101   5.541   3.275   0.681  0.4521 -0.4461  0.7405
 1379TIP3    H2 4102   5.417   3.189   0.673  1.1601 -1.4530  0.3596
 1380TIP3   OH2 4103   4.849   2.858   5.888  0.0513  0.0578  0.2021
 1380TIP3    H1 4104   4.845   2.778   5.941  1.9711 -0.2640 -0.0547
 1380TIP3    H2 4105   4.788   2.842   5.816  2.3081 -2.4114 -1.3561
 1381TIP3   OH2 4106   6.733   4.243   2.461  0.3786 -0.2898 -0.4044
 1381TIP3    H1 4107   6.692   4.268   2.378 -0.5850  0.1381  0.1719
 1381TIP3    H2 4108   6.671   4.274   2.527  0.2261 -2.2087  0.4232
 1382TIP3   OH2 4109   2.659   0.269   2.657  0.1960  0.0388 -0.7216
 1382TIP3    H1 4110   2.684   0.342   2.715 -1.2240 -0.1145  0.1307
 1382TIP3    H2 4111   2.719   0.198   2.681 -0.6397 -0.1680  0.9416
 1383TIP3   OH2 4112   3.033   2.546   1.312 -0.1768  0.8000  0.6883
 1383TIP3    H1 4113   2.982   2.622   1.284  0.4579  0.4952 -1.4965
 1383TIP3    H2 4114   2.967   2.482   1.339 -0.9292  0.9410 -0.6869
 1384TIP3   OH2 4115   2.251   5.852   0.224  1.0430  0.4610  0.4410
 1384TIP3    H1 4116   2.160   5.855   0.194  1.1299  1.6834  0.2478
 1384TIP3    H2 4117   2.258   5.768   0.268  0.0735 -0.0564 -0.3372
 1385TIP3   OH2 4118   4.613   3.591   4.860  0.2721  0.7388 -0.4434
 1385TIP3    H1 4119   4.611   3.498   4.837 -3.8787  0.6143 -0.3080
 1385TIP3    H2 4120   4.684   3.599   4.923  0.0212 -2.6222  0.4592
 1386TIP3   OH2 4121   7.027   1.185   3.145 -0.4272  0.1177 -0.2789
 1386TIP3    H1 4122   6.974   1.260   3.115 -0.1626  0.8491  1.0133
 1386TIP3    H2 4123   7.018   1.186   3.240 -0.3097 -1.4433 -0.2362
 1387TIP3   OH2 4124   1.193   0.767   0.618 -0.5720 -0.2627 -0.3444
 1387TIP3    H1 4125   1.144   0.685   0.631 -1.1562  0.3773  1.9665
 1387TIP3    H2 4126   1.148   0.810   0.545 -2.0531 -0.7316  0.2484
 1388TIP3   OH2 4127   5.436   0.806   4.315  0.0579 -0.1128 -0.1326
 1388TIP3    H1 4128   5.446   0.757   4.396  0.9196 -0.4392 -0.4204
 1388TIP3    H2 4129   5.526   0.816   4.282 -0.0274  2.0890  0.1731
 1389TIP3   OH2 4130   5.017   1.904   3.349 -0.5892 -0.2444 -0.2156
 1389TIP3    H1 4131   4.945   1.847   3.323  0.2155 -1.4144  0.0731
 1389TIP3    H2 4132   5.058   1.860   3.423  0.8272  0.0702 -0.7813
 1390TIP3   OH2 4133   0.038   6.611   5.404  0.5180  0.0290 -0.2497
 1390TIP3    H1 4134   0.128   6.644   5.406 -0.5563  3.2995  0.7017
 1390TIP3    H2 4135   0.008   6.628   5.314 -0.0083  1.8756  0.2168
 1391TIP3   OH2 4136   2.253   4.137   4.856  0.5165 -0.1941 -0.1232
 1391TIP3    H1 4137   2.262   4.227   4.826 -0.7118 -0.2309 -0.6832
 1391TIP3    H2 4138   2.196   4.096   4.792 -1.2668 -0.6006  1.6138
 1392TIP3   OH2 4139   1.841   3.283   0.617 -0.1761  0.1471 -0.4371
 1392TIP3    H1 4140   1.808   3.211   0.563 -0.2140  0.7285 -1.2147
 1392TIP3    H2 4141   1.767   3.343   0.625  0.1514  0.5833 -0.6474
 1393TIP3   OH2 4142   4.570   2.326   2.154 -0.1583  0.0962  0.4743
 1393TIP3    H1 4143   4.491   2.373   2.183  0.3209 -0.4571  2.8882
 1393TIP3    H2 4144   4.624   2.320   2.232  2.2252  0.2537 -1.0787
 1394TIP3   OH2 4145   1.762   2.748   2.152  0.4910  0.4328  0.0198
 1394TIP3    H1 4146   1.774   2.659   2.186  0.2069  0.1330 -0.6447
 1394TIP3    H2 4147   1.691   2.784   2.205 -0.7807 -0.4577 -1.0332
 1395TIP3   OH2 4148   5.379   2.982   3.430  0.5373 -0.0989 -0.5655
 1395TIP3    H1 4149   5.354   2.912   3.490  1.5849 -0.6563 -0.7572
 1395TIP3    H2 4150   5.398   2.938   3.347  1.7168  0.3365 -0.5460
 1396TIP3   OH2 4151   5.795   0.709   5.823 -0.6934 -0.2258  0.0428
 1396TIP3    H1 4152   5.807   0.711   5.728  0.2071  1.7754  0.1317
 1396TIP3    H2 4153   5.822   0.797   5.851 -0.6678 -0.8797  2.1793
 1397TIP3   OH2 4154   1.933   0.551   4.370 -0.2299 -0.3783  0.4183
 1397TIP3    H1 4155   1.873   0.496   4.420 -0.4036 -2.7784 -2.1479
 1397TIP3    H2 4156   1.876   0.601   4.311  0.1550 -1.4988 -0.9432
 1398TIP3   OH2 4157   5.999   4.208   4.104 -0.4629 -0.1125 -0.3805
 1398TIP3    H1 4158   5.957   4.122   4.110 -1.7664  0.4891 -0.5720
 1398TIP3    H2 4159   6.089   4.189   4.076 -0.1489 -1.5372  1.4055
 1399TIP3   OH2 4160   2.634   6.652   4.646  0.4457 -0.2508  0.4779
 1399TIP3    H1 4161   2.661   6.575   4.697  1.8861 -0.1962 -0.1363
 1399TIP3    H2 4162   2.539   6.653   4.653  0.3020 -2.5340 -0.1144
 1400TIP3   OH2 4163   2.894   1.622   4.507  0.1006 -0.2275 -0.9246
 1400TIP3    H1 4164   2.891   1.669   4.424 -0.6085 -3.7592 -3.1087
 1400TIP3    H2 4165   2.803   1.618   4.536  0.3694  1.1913  0.2596
 1401TIP3   OH2 4166   2.354   1.693   0.567  0.1707 -0.2722 -0.3418
 1401TIP3    H1 4167   2.355   1.678   0.473 -0.0935 -1.9757 -0.1146
 1401TIP3    H2 4168   2.261   1.704   0.589  0.2142 -0.0850 -0.2458
 1402TIP3   OH2 4169   3.999   2.510   1.796  0.2528 -1.0464 -0.8899
 1402TIP3    H1 4170   4.085   2.525   1.836 -0.7363 -0.7902  1.2751
 1402TIP3    H2 4171   3.975   2.422   1.822 -0.3239 -0.9580 -1.1074
 1403TIP3   OH2 4172   4.747   0.216   2.515  0.3295 -0.6439  0.1650
 1403TIP3    H1 4173   4.700   0.265   2.582  0.4308 -0.3678  0.0365
 1403TIP3    H2 4174   4.700   0.132   2.509  1.5868 -1.5673  2.1044
 1404TIP3   OH2 4175   3.227   0.541   1.652  0.5322  0.0595 -0.5291
 1404TIP3    H1 4176   3.288   0.470   1.630 -0.6046 -0.6412 -1.5718
 1404TIP3    H2 4177   3.244   0.607   1.585  1.6816  0.8632  0.5200
 1405TIP3   OH2 4178   5.199   2.650   2.469 -0.1972 -0.3077 -0.1991
 1405TIP3    H1 4179   5.147   2.587   2.418  0.3663 -0.9385 -0.0065
 1405TIP3    H2 4180   5.169   2.735   2.438 -1.9605 -0.6266  0.5162
 1406TIP3   OH2 4181   1.668   3.813   2.805 -0.5804 -0.5267  0.0460
 1406TIP3    H1 4182   1.758   3.792   2.780 -1.3211 -1.7716 -1.7267
 1406TIP3    H2 4183   1.656   3.768   2.889  0.5294 -0.0632  0.4809
 1407TIP3   OH2 4184   5.185   1.956   2.452  0.0602  0.0210  0.2612
 1407TIP3    H1 4185   5.169   2.005   2.371 -0.0875  0.6392  0.6555
 1407TIP3    H2 4186   5.154   2.014   2.521 -1.8709 -1.3576  0.6506
 1408TIP3   OH2 4187   1.785   1.799   5.058 -0.1381  0.2503 -0.5274
 1408TIP3    H1 4188   1.751   1.876   5.104  0.5871  2.0287 -2.7755
 1408TIP3    H2 4189   1.753   1.808   4.968  0.5914 -1.7057 -1.0376
 1409TIP3   OH2 4190   3.581   1.317   5.281 -0.0764  0.4475 -0.0054
 1409TIP3    H1 4191   3.534   1.385   5.330 -0.6460  1.6200 -2.0306
 1409TIP3    H2 4192   3.512   1.256   5.255 -0.0002  0.5495 -0.4471
 1410TIP3   OH2 4193   3.471   4.470   0.712  0.0324 -0.1264  0.2755
 1410TIP3    H1 4194   3.512   4.539   0.659 -0.9164  0.9715  0.9172
 1410TIP3    H2 4195   3.544   4.425   0.754  0.8009 -0.8232 -1.6941
 1411TIP3   OH2 4196   7.061   5.231   1.332 -0.8223  0.0142 -0.0875
 1411TIP3    H1 4197   7.026   5.143   1.317 -0.3770 -0.2328  0.2702
 1411TIP3    H2 4198   7.154   5.224   1.309 -0.4206 -0.0382  1.4183
 1412TIP3   OH2 4199   3.925   3.764   5.821 -0.4761 -0.1524 -0.0794
 1412TIP3    H1 4200   4.018   3.752   5.837 -0.3089  2.5042  1.5724
 1412TIP3    H2 4201   3.921   3.804   5.734  0.0044  0.2005  0.0527
 1413TIP3   OH2 4202   6.155   3.715   5.061  0.2022  0.6889  0.2674
 1413TIP3    H1 4203   6.229   3.773   5.043  0.3356  0.6304  0.6254
 1413TIP3    H2 4204   6.100   3.763   5.122  0.3401  0.4162  0.6074
 1414TIP3   OH2 4205   6.595   0.180   3.804 -0.3148 -0.1598 -0.0406
 1414TIP3    H1 4206   6.641   0.206   3.884  0.1435 -1.0528 -0.0045
 1414TIP3    H2 4207   6.620   0.089   3.790 -0.7754 -0.1631 -0.9365
 1415TIP3   OH2 4208   2.514   1.164   5.309  0.0433 -0.1160  0.1661
 1415TIP3    H1 4209   2.520   1.181   5.215 -0.1289 -2.0541 -0.2342
 1415TIP3    H2 4210   2.527   1.250   5.350 -0.8616  0.9466 -1.6478
 1416TIP3   OH2 4211   0.081   6.260   3.861 -0.4780 -0.9305  0.5989
 1416TIP3    H1 4212   0.116   6.171   3.857  2.6131  0.0854  2.0667
 1416TIP3    H2 4213   0.090   6.293   3.771 -1.4407 -1.9414  0.0922
 1417TIP3   OH2 4214   0.516   3.992   2.313  0.0051  0.7778  0.5829
 1417TIP3    H1 4215   0.528   4.008   2.219 -1.3475 -0.7644  0.0998
 1417TIP3    H2 4216   0.469   4.069   2.344  0.5399  1.3433  0.0263
 1418TIP3   OH2 4217   5.513   5.523   0.056  0.3107  0.1496  0.3644
 1418TIP3    H1 4218   5.476   5.548  -0.029 -1.1141  1.6227  1.3607
 1418TIP3    H2 4219   5.492   5.596   0.114  3.4260  0.3265  1.4353
 1419TIP3   OH2 4220   3.849   6.280   5.432  0.5710  0.2229  0.0011
 1419TIP3    H1 4221   3.847   6.376   5.432  0.3059  0.2186  0.1143
 1419TIP3    H2 4222   3.861   6.257   5.524 -0.4304  0.1318  0.1185
 1420TIP3   OH2 4223   2.569   1.231   0.969 -0.3147 -0.3558 -0.3019
 1420TIP3    H1 4224   2.645   1.266   1.015 -0.7213 -0.1783  0.2582
 1420TIP3    H2 4225   2.541   1.302   0.911 -0.9868  0.1830  0.6475
 1421TIP3   OH2 4226   1.955   1.729   1.884 -0.0088 -0.5323 -0.2081
 1421TIP3    H1 4227   2.013   1.749   1.811  0.8083 -0.4044  0.4548
 1421TIP3    H2 4228   2.001   1.763   1.961 -1.0083 -0.3537  0.3290
 1422TIP3   OH2 4229   3.168   4.458   2.641  0.1393  0.7437 -0.3763
 1422TIP3    H1 4230   3.218   4.477   2.561 -1.0105 -0.0540 -1.3172
 1422TIP3    H2 4231   3.226   4.485   2.712  1.9878 -0.2968 -1.4097
 1423TIP3   OH2 4232   0.881   2.948   1.009  0.2488 -0.0075  0.1687
 1423TIP3    H1 4233   0.877   2.884   0.938  2.6165 -0.4900  0.3888
 1423TIP3    H2 4234   0.847   3.029   0.970 -0.9418 -0.8868 -0.6930
 1424TIP3   OH2 4235   1.950   2.916   0.313 -0.1241  0.1706 -0.0831
 1424TIP3    H1 4236   1.895   2.937   0.389  0.4192  0.4163  0.2541
 1424TIP3    H2 4237   1.940   2.821   0.302  0.7880 -0.0941  1.1087
 1425TIP3   OH2 4238   6.453   0.586   0.394 -0.2895  0.2955  0.4090
 1425TIP3    H1 4239   6.486   0.507   0.352  0.0200  1.1394 -1.0203
 1425TIP3    H2 4240   6.476   0.657   0.333 -4.1347  1.0758 -0.3862
 1426TIP3   OH2 4241   5.049   2.667   0.262  0.5472  0.1079  0.1994
 1426TIP3    H1 4242   5.136   2.706   0.257  1.0736 -1.1374 -1.0530
 1426TIP3    H2 4243   5.054   2.608   0.338  0.1195  1.4854  1.3592
 1427TIP3   OH2 4244   5.846   1.277   0.839  0.3729  0.1036 -0.9179
 1427TIP3    H1 4245   5.924   1.267   0.784 -0.0083  0.5694 -1.5539
 1427TIP3    H2 4246   5.787   1.208   0.810  1.2581 -1.4922  0.8608
 1428TIP3   OH2 4247   0.565   3.211   4.085 -0.2297  0.0523 -0.0190
 1428TIP3    H1 4248   0.515   3.183   4.162 -0.6504 -0.4828 -0.4795
 1428TIP3    H2 4249   0.565   3.306   4.091  1.9282  0.0132  2.0258
 1429TIP3   OH2 4250   0.140   5.338   3.834  0.7591  0.4584 -0.2047
 1429TIP3    H1 4251   0.064   5.370   3.785  1.3044  2.3490  0.0869
 1429TIP3    H2 4252   0.162   5.255   3.792 -0.8414  0.3746 -0.9547
 1430TIP3   OH2 4253   5.807   2.129   5.632 -0.2451  0.5346 -0.7936
 1430TIP3    H1 4254   5.896   2.141   5.665 -0.6197  0.3775  0.3159
 1430TIP3    H2 4255   5.758   2.094   5.707 -1.6709  2.3652 -0.8137
 1431TIP3   OH2 4256   0.178   2.998   5.730  0.8987  0.8565  0.0822
 1431TIP3    H1 4257   0.265   3.028   5.705  0.8415  0.8568 -0.1191
 1431TIP3    H2 4258   0.119   3.049   5.675  0.6903  1.9970  1.3256
 1432TIP3   OH2 4259   5.971   5.504   4.625  0.1661 -0.0629  0.7481
 1432TIP3    H1 4260   5.935   5.561   4.693 -0.7604  1.4975 -0.9706
 1432TIP3    H2 4261   6.010   5.564   4.561 -1.8685 -1.1880 -1.7193
 1433TIP3   OH2 4262   1.566   6.294   1.690  0.1758  0.1840 -0.9326
 1433TIP3    H1 4263   1.518   6.235   1.749 -0.9407  0.3462 -1.6409
 1433TIP3    H2 4264   1.511   6.373   1.686  0.3554  0.2698 -1.9947
 1434TIP3   OH2 4265   7.221   0.218   1.306 -0.8407 -0.2691 -0.2121
 1434TIP3    H1 4266   7.155   0.284   1.327 -0.0604  0.4401  0.0728
 1434TIP3    H2 4267   7.216   0.155   1.378 -1.7658 -0.6788 -0.6151
 1435TIP3   OH2 4268   2.006   0.244   3.316  0.1344  0.3066 -0.0602
 1435TIP3    H1 4269   2.049   0.314   3.366  1.6509  0.2849 -1.2370
 1435TIP3    H2 4270   1.986   0.285   3.232 -0.6735 -0.1740 -0.1073
 1436TIP3   OH2 4271   3.523   2.857   5.164  0.0506 -0.5447  0.8326
 1436TIP3    H1 4272   3.594   2.916   5.186 -1.0245  0.8899  0.6226
 1436TIP3    H2 4273   3.544   2.775   5.209  0.3791  0.7256  3.1186
 1437TIP3   OH2 4274   5.784   6.371   0.298  0.0408  0.2617 -0.0115
 1437TIP3    H1 4275   5.698   6.345   0.265 -0.3618 -0.1053  1.2743
 1437TIP3    H2 4276   5.842   6.299   0.273 -0.3038 -0.1176  0.2555
 1438TIP3   OH2 4277   0.994   1.162   0.556 -0.1342  0.3798 -0.3044
 1438TIP3    H1 4278   1.009   1.095   0.490 -1.4415  0.1594 -0.4144
 1438TIP3    H2 4279   1.025   1.243   0.516  0.6350 -0.0069 -0.5130
 1439TIP3   OH2 4280   0.614   0.943   5.809 -0.6585 -0.1503  0.0628
 1439TIP3    H1 4281   0.695   0.966   5.855 -0.5748  1.2501 -0.7328
 1439TIP3    H2 4282   0.587   0.861   5.849  1.1660 -0.6704  0.3337
 1440TIP3   OH2 4283   1.794   4.345   3.362 -0.0020 -0.3545  0.2289
 1440TIP3    H1 4284   1.786   4.306   3.449 -0.8083 -1.4650 -0.3110
 1440TIP3    H2 4285   1.835   4.277   3.309 -1.3406 -0.4638 -0.7146
 1441TIP3   OH2 4286   5.274   2.539   1.002  0.0956  0.2006 -0.2655
 1441TIP3    H1 4287   5.273   2.570   0.911  0.3635 -0.7053 -0.5889
 1441TIP3    H2 4288   5.320   2.607   1.050  0.2306  0.5411 -0.8647
 1442TIP3   OH2 4289   2.118   4.721   4.639 -0.5701  0.1478 -0.1782
 1442TIP3    H1 4290   2.071   4.801   4.616 -0.1084  0.4535 -0.0839
 1442TIP3    H2 4291   2.184   4.750   4.702  0.6593 -0.0222 -1.3516
 1443TIP3   OH2 4292   0.406   2.207   5.429 -0.2547  0.1039  0.0768
 1443TIP3    H1 4293   0.385   2.135   5.489  0.9848 -2.0821 -1.9767
 1443TIP3    H2 4294   0.490   2.183   5.391  0.6364  3.1219 -0.0678
 1444TIP3   OH2 4295   1.793   5.930   4.243 -0.4311  0.3695 -0.1393
 1444TIP3    H1 4296   1.735   5.880   4.300  1.8743  0.3627  2.3460
 1444TIP3    H2 4297   1.791   6.019   4.278 -0.4371  0.8331 -1.2629
 1445TIP3   OH2 4298  -0.009   5.751   4.706  0.1853  0.3402 -0.5787
 1445TIP3    H1 4299   0.016   5.712   4.790 -2.2239  0.7309  0.3969
 1445TIP3    H2 4300  -0.005   5.678   4.644 -0.9398 -0.7012  0.5203
 1446TIP3   OH2 4301   2.171   5.014   0.523 -0.0317  0.0695  0.0093
 1446TIP3    H1 4302   2.079   5.005   0.549 -0.1202  0.4057 -0.1823
 1446TIP3    H2 4303   2.220   4.963   0.587 -0.5642 -2.3239 -1.3509
 1447TIP3   OH2 4304   6.502   3.480   2.646  0.1502  0.4488  0.0173
 1447TIP3    H1 4305   6.430   3.420   2.665  0.6766  0.4616  2.4339
 1447TIP3    H2 4306   6.519   3.468   2.552 -0.6942 -2.1312  0.1023
 1448TIP3   OH2 4307   0.434   2.804   4.026  0.4154 -0.1470  0.1374
 1448TIP3    H1 4308   0.369   2.873   4.039  1.5176  0.6967  1.3153
 1448TIP3    H2 4309   0.445   2.764   4.112  0.3074 -1.3618 -0.3849
 1449TIP3   OH2 4310   3.531   5.052   3.758 -0.0428 -0.1279  0.1179
 1449TIP3    H1 4311   3.494   5.070   3.672 -0.7122  0.1612  0.4602
 1449TIP3    H2 4312   3.605   4.994   3.740 -0.1081  0.0136 -0.6591
 1450TIP3   OH2 4313   1.668   3.522   4.036 -0.2191  0.0933  0.1506
 1450TIP3    H1 4314   1.678   3.613   4.066 -1.2443  0.3735 -0.3063
 1450TIP3    H2 4315   1.621   3.478   4.107 -0.5072  0.1496 -0.0027
 1451TIP3   OH2 4316   5.199   5.377   0.547  0.3212  0.4513 -0.7000
 1451TIP3    H1 4317   5.222   5.357   0.638 -1.1982  2.3401  0.1805
 1451TIP3    H2 4318   5.161   5.296   0.513 -1.0790  0.2791  1.1049
 1452TIP3   OH2 4319   3.419   3.746   5.250 -0.0118  0.1103  0.4290
 1452TIP3    H1 4320   3.417   3.750   5.346  1.4089  0.8614  0.4622
 1452TIP3    H2 4321   3.512   3.757   5.228 -0.4955  1.6039 -1.0930
 1453TIP3   OH2 4322   5.138   3.624   4.373  0.2281  0.0984 -0.0991
 1453TIP3    H1 4323   5.224   3.606   4.335  0.5174  2.3186 -0.6936
 1453TIP3    H2 4324   5.076   3.578   4.316  1.0216 -2.3164  0.8950
 1454TIP3   OH2 4325   4.653   1.305   2.963  0.0990  0.2024 -0.9590
 1454TIP3    H1 4326   4.595   1.371   3.001 -0.0344  0.3067 -1.3310
 1454TIP3    H2 4327   4.644   1.318   2.868 -0.9409 -1.1946 -1.0897
 1455TIP3   OH2 4328   5.012   6.627   2.422 -0.0126 -0.0146 -0.5539
 1455TIP3    H1 4329   5.091   6.682   2.427  1.1291 -1.6973  0.9766
 1455TIP3    H2 4330   4.973   6.633   2.510 -2.0082  1.2617 -1.4369
 1456TIP3   OH2 4331   5.842   2.061   5.100  0.5074  0.0328  0.7851
 1456TIP3    H1 4332   5.778   2.017   5.043 -0.3005  1.0754  0.8683
 1456TIP3    H2 4333   5.921   2.066   5.047  0.2826 -0.5468  0.3823
 1457TIP3   OH2 4334   6.099   3.676   3.390  0.0262  0.5480  0.2537
 1457TIP3    H1 4335   6.106   3.627   3.471 -1.8071  0.2096  0.2476
 1457TIP3    H2 4336   6.142   3.621   3.324  0.9166  0.5175  0.8421
 1458TIP3   OH2 4337   5.452   6.519   4.565  0.5452  0.1546  0.2218
 1458TIP3    H1 4338   5.434   6.535   4.472 -0.3430  0.5799  0.4575
 1458TIP3    H2 4339   5.473   6.606   4.600  0.4367  0.0619  0.5128
 1459TIP3   OH2 4340   2.740   6.358   1.504  0.0884  0.4734  0.2610
 1459TIP3    H1 4341   2.796   6.434   1.488 -0.4286  0.6985 -0.5644
 1459TIP3    H2 4342   2.671   6.365   1.438  0.3873 -1.0742 -0.2441
 1460TIP3   OH2 4343   3.111   5.200   1.025  0.6232 -0.0811  0.1171
 1460TIP3    H1 4344   3.197   5.233   1.049  1.4872 -1.4497 -0.9916
 1460TIP3    H2 4345   3.056   5.279   1.019  1.7159  0.7761  1.0920
 1461TIP3   OH2 4346   6.906   3.336   0.428  0.1126 -0.0406 -0.3341
 1461TIP3    H1 4347   6.979   3.294   0.382 -0.0780 -2.2172  1.1683
 1461TIP3    H2 4348   6.830   3.281   0.406 -0.4025  0.2350  0.7183
 1462TIP3   OH2 4349   1.303   0.925   5.175 -0.2380 -0.2089 -0.5397
 1462TIP3    H1 4350   1.351   0.867   5.235 -0.2191  0.0363 -0.3170
 1462TIP3    H2 4351   1.344   0.911   5.090  0.8731  0.7217 -0.1715
 1463TIP3   OH2 4352   5.125   4.887   4.924  0.5260 -0.0270 -0.1365
 1463TIP3    H1 4353   5.176   4.908   4.846 -0.5725 -3.9331 -2.1837
 1463TIP3    H2 4354   5.052   4.833   4.892 -1.5585  0.3913  3.3225
 1464TIP3   OH2 4355   4.231   2.035   0.826 -0.3330 -0.0995 -0.1148
 1464TIP3    H1 4356   4.204   2.057   0.915  0.0144 -1.9426  0.4814
 1464TIP3    H2 4357   4.256   2.119   0.787 -2.9216  1.1387  0.6511
 1465TIP3   OH2 4358   7.043   2.210   3.710 -0.3512 -0.4109 -0.1369
 1465TIP3    H1 4359   7.128   2.185   3.746 -0.5703 -0.0722  0.6328
 1465TIP3    H2 4360   7.005   2.127   3.681  0.4389 -0.5060 -0.9470
 1466TIP3   OH2 4361   0.947   6.257   5.696  0.3561  0.3046 -0.4141
 1466TIP3    H1 4362   1.023   6.275   5.639  1.0331 -0.2428  0.2863
 1466TIP3    H2 4363   0.979   6.189   5.756 -0.6526  0.1844 -0.0059
 1467TIP3   OH2 4364   2.118   1.810   4.651 -0.0469  0.0836 -0.3340
 1467TIP3    H1 4365   2.060   1.836   4.580  0.4377  0.0342 -0.7516
 1467TIP3    H2 4366   2.060   1.773   4.717 -0.3483 -1.5190 -1.4417
 1468TIP3   OH2 4367   4.449   3.967   2.952  0.5173 -0.5038 -0.0256
 1468TIP3    H1 4368   4.410   4.052   2.973 -1.0251 -0.5594 -2.3680
 1468TIP3    H2 4369   4.515   3.986   2.886  0.4168 -1.0857 -0.2995
 1469TIP3   OH2 4370   1.342   2.368   1.882  0.1478 -0.7381 -0.4184
 1469TIP3    H1 4371   1.297   2.445   1.848  0.8011 -0.5504 -0.8683
 1469TIP3    H2 4372   1.361   2.314   1.805  1.6985 -0.2701 -0.3843
 1470TIP3   OH2 4373   2.182   3.758   3.295  0.0172  0.5887 -0.3339
 1470TIP3    H1 4374   2.219   3.793   3.214  2.9699 -1.7829 -0.2004
 1470TIP3    H2 4375   2.107   3.707   3.268 -1.2177  2.6656 -1.0733
 1471TIP3   OH2 4376   6.262   5.706   3.625 -0.2115 -0.4743  0.4735
 1471TIP3    H1 4377   6.199   5.671   3.688  0.7577  0.5272  2.0704
 1471TIP3    H2 4378   6.343   5.657   3.643  0.0357 -0.2824 -0.1095
 1472TIP3   OH2 4379   2.619   3.092   4.578  0.4002 -0.2653 -0.3336
 1472TIP3    H1 4380   2.605   3.132   4.664 -0.0118 -1.0222 -0.0382
 1472TIP3    H2 4381   2.710   3.112   4.557 -0.1778  2.0218 -0.8353
 1473TIP3   OH2 4382   3.728   2.402   1.234 -0.3660 -0.4205  0.1201
 1473TIP3    H1 4383   3.803   2.457   1.211 -0.9836  0.3979  0.0339
 1473TIP3    H2 4384   3.750   2.316   1.198 -0.1728  0.2061 -1.3279
 1474TIP3   OH2 4385   0.956   1.705   2.616 -0.1491  0.1660  0.2466
 1474TIP3    H1 4386   0.895   1.751   2.558 -0.8331 -2.6783 -1.4274
 1474TIP3    H2 4387   0.900   1.666   2.683 -0.2420 -2.1491 -1.0876
 1475TIP3   OH2 4388   6.141   5.269   1.510 -0.3473  0.0372  0.1788
 1475TIP3    H1 4389   6.119   5.198   1.571 -0.8481 -0.6802 -0.8179
 1475TIP3    H2 4390   6.140   5.229   1.424 -1.6825  1.4665 -0.5335
 1476TIP3   OH2 4391   1.265   3.992   0.175 -0.1267 -0.8204 -0.3288
 1476TIP3    H1 4392   1.314   3.970   0.255 -0.7845  1.4382  0.7645
 1476TIP3    H2 4393   1.180   4.023   0.207 -0.1369  0.8184 -1.8490
 1477TIP3   OH2 4394   5.975   0.843   2.557 -0.3123  0.1269  0.3736
 1477TIP3    H1 4395   5.921   0.921   2.545  0.1750  0.2440 -1.3220
 1477TIP3    H2 4396   6.054   0.861   2.505 -0.7460 -1.9926 -1.1560
 1478TIP3   OH2 4397   5.765   0.215   3.037 -0.9506 -0.4564  0.2492
 1478TIP3    H1 4398   5.682   0.196   2.995 -1.2362  0.9556  0.1083
 1478TIP3    H2 4399   5.820   0.251   2.967 -0.1768 -1.4680  0.3161
 1479TIP3   OH2 4400   0.560   6.755   5.667  0.5601  0.5938 -0.1272
 1479TIP3    H1 4401   0.497   6.806   5.718 -0.4072  0.8767 -1.5582
 1479TIP3    H2 4402   0.562   6.798   5.581  1.7924 -0.1528 -0.4997
 1480TIP3   OH2 4403   0.980   3.170   5.593 -0.1017  0.1802  0.8740
 1480TIP3    H1 4404   1.034   3.232   5.642  0.2265 -0.5671  1.4901
 1480TIP3    H2 4405   1.041   3.104   5.561 -0.3741  0.4283 -0.2112
 1481TIP3   OH2 4406   4.280   5.776   0.384 -0.1107  0.0729 -0.0650
 1481TIP3    H1 4407   4.198   5.820   0.362 -0.6953 -1.6794 -1.6524
 1481TIP3    H2 4408   4.284   5.701   0.325  3.0293  0.5058 -0.5804
 1482TIP3   OH2 4409   4.965   1.816   5.543 -0.0613 -0.2304  0.0783
 1482TIP3    H1 4410   4.996   1.903   5.569  2.5583 -1.5353  1.7257
 1482TIP3    H2 4411   4.894   1.797   5.604  0.4403  0.1124  0.7848
 1483TIP3   OH2 4412   0.775   2.289   2.040 -0.5938  0.3918 -0.2301
 1483TIP3    H1 4413   0.746   2.334   1.960  0.8152  0.8756 -0.5022
 1483TIP3    H2 4414   0.756   2.197   2.024 -1.1110  0.5841 -0.7642
 1484TIP3   OH2 4415   4.067   0.272   0.002  0.0887 -0.2746  0.3694
 1484TIP3    H1 4416   4.000   0.235   0.059 -0.0872  1.0135  1.0072
 1484TIP3    H2 4417   4.112   0.337   0.055 -0.1108  0.9982 -0.9635
 1485TIP3   OH2 4418   3.776   2.102   2.507 -0.0869 -0.0341 -0.6435
 1485TIP3    H1 4419   3.812   2.027   2.554  3.2648  1.3046 -0.8404
 1485TIP3    H2 4420   3.778   2.077   2.415  0.1644 -0.0385 -0.6368
 1486TIP3   OH2 4421   5.375   2.963   5.549 -0.5710  0.4435 -0.6197
 1486TIP3    H1 4422   5.462   2.971   5.587 -1.1048 -1.0257  1.0829
 1486TIP3    H2 4423   5.386   2.905   5.474 -0.1236  0.0357 -0.2421
 1487TIP3   OH2 4424   4.662   6.514   2.474  0.0896 -0.1630  0.0657
 1487TIP3    H1 4425   4.666   6.609   2.478  1.7585 -0.1051 -1.6158
 1487TIP3    H2 4426   4.753   6.487   2.461 -0.4771 -1.9133 -0.5777
 1488TIP3   OH2 4427   3.754   4.493   1.095  0.1759 -0.2062 -0.1292
 1488TIP3    H1 4428   3.773   4.445   1.014  2.8995  0.1720  0.1957
 1488TIP3    H2 4429   3.720   4.577   1.065 -0.0127 -0.5218 -0.8351
 1489TIP3   OH2 4430   5.224   5.330   0.804  0.9283  0.2987  0.1551
 1489TIP3    H1 4431   5.162   5.259   0.816  1.6583 -0.2486  0.8607
 1489TIP3    H2 4432   5.198   5.396   0.868 -0.4472  1.2131 -1.2682
 1490TIP3   OH2 4433   5.853   2.402   4.835  0.4992  0.8325  0.5244
 1490TIP3    H1 4434   5.848   2.350   4.755 -0.9276  0.2716  0.9463
 1490TIP3    H2 4435   5.909   2.476   4.813  2.1009 -0.5706 -0.2646
 1491TIP3   OH2 4436   0.090   1.065   0.750 -0.4410 -0.0552 -0.2095
 1491TIP3    H1 4437   0.010   1.101   0.714 -0.7834 -0.6953 -0.1061
 1491TIP3    H2 4438   0.123   1.133   0.810 -0.6290  0.4157 -0.6376
 1492TIP3   OH2 4439   1.816   4.718   0.781  0.4611  0.0122 -0.4303
 1492TIP3    H1 4440   1.741   4.665   0.755  0.7148 -0.2785 -0.5869
 1492TIP3    H2 4441   1.817   4.714   0.877 -0.1634  0.6421 -0.3935
 1493TIP3   OH2 4442   1.805   2.779   0.543  0.0581 -0.4910  0.1365
 1493TIP3    H1 4443   1.764   2.797   0.628 -1.5660  0.2638 -0.7564
 1493TIP3    H2 4444   1.765   2.696   0.515  0.1693 -0.4574 -0.1238
 1494TIP3   OH2 4445   6.567   6.709   0.267 -0.7327 -0.1015  0.1598
 1494TIP3    H1 4446   6.537   6.651   0.338  2.5919 -1.8252  0.3592
 1494TIP3    H2 4447   6.553   6.657   0.187 -0.9900  0.2941 -0.0542
 1495TIP3   OH2 4448   2.137   1.848   0.985  0.6912  0.4923  0.0668
 1495TIP3    H1 4449   2.111   1.755   0.988 -0.8085  0.9132  1.4615
 1495TIP3    H2 4450   2.222   1.847   0.940  1.7373 -1.8060  1.8661
 1496TIP3   OH2 4451   5.818   5.059   5.142  0.0200 -0.0874  0.6398
 1496TIP3    H1 4452   5.871   5.135   5.168  1.5129 -1.0294  0.4626
 1496TIP3    H2 4453   5.838   5.047   5.049  0.2783 -1.0808  0.8239
 1497TIP3   OH2 4454   4.830   5.199   0.032 -0.2306 -0.4245  0.3958
 1497TIP3    H1 4455   4.845   5.204   0.126 -0.9247  0.8524  0.4674
 1497TIP3    H2 4456   4.736   5.214   0.022 -0.3006 -1.3798 -0.4526
 1498TIP3   OH2 4457   1.223   2.625   3.652 -0.3516  0.7199  0.1429
 1498TIP3    H1 4458   1.297   2.566   3.641  0.1650  0.5864  3.4718
 1498TIP3    H2 4459   1.146   2.571   3.635  0.2137  0.2947 -1.1736
 1499TIP3   OH2 4460   3.105   5.644   4.926  0.4167  0.4472  0.1417
 1499TIP3    H1 4461   3.183   5.596   4.954  1.2053  0.4167 -1.9330
 1499TIP3    H2 4462   3.077   5.599   4.847  1.5646  3.6485 -2.2863
 1500TIP3   OH2 4463   4.258   4.137   4.422 -0.4080 -0.1956  0.3374
 1500TIP3    H1 4464   4.341   4.106   4.460 -1.1928 -1.4414  1.0878
 1500TIP3    H2 4465   4.261   4.232   4.434  1.3264 -0.1051 -0.5283
 1501TIP3   OH2 4466   6.811   0.501   5.212 -0.0172 -0.0402 -0.2664
 1501TIP3    H1 4467   6.794   0.548   5.131 -0.6240  0.3881  0.0975
 1501TIP3    H2 4468   6.827   0.410   5.185  0.8742  0.3061 -0.9502
 1502TIP3   OH2 4469   1.334   0.381   4.013  0.3499  0.2398 -0.9703
 1502TIP3    H1 4470   1.361   0.316   4.078 -2.1258  0.9778  0.9042
 1502TIP3    H2 4471   1.399   0.451   4.021 -0.1405  0.5192  1.0956
 1503TIP3   OH2 4472   1.918   0.338   0.826  0.1743  0.4612  0.1555
 1503TIP3    H1 4473   1.857   0.268   0.848  0.6610  0.4284  1.4686
 1503TIP3    H2 4474   1.883   0.376   0.746 -1.9513  0.8943  1.2243
 1504TIP3   OH2 4475   3.019   0.046   3.612  0.2189 -0.3133  0.5643
 1504TIP3    H1 4476   3.032  -0.011   3.688  1.3433 -0.8627 -0.0183
 1504TIP3    H2 4477   2.955  -0.000   3.557  0.2509 -0.4513  0.6445
 1505TIP3   OH2 4478   2.344   6.316   5.552 -0.3782  0.1057 -0.2931
 1505TIP3    H1 4479   2.320   6.402   5.517 -0.7656  0.4073  0.6710
 1505TIP3    H2 4480   2.285   6.255   5.508  0.8195  0.1264 -2.0146
 1506TIP3   OH2 4481   3.739   0.614   2.626 -1.1285  0.0637 -0.0786
 1506TIP3    H1 4482   3.703   0.556   2.693  2.5754 -1.3771  0.9619
 1506TIP3    H2 4483   3.750   0.558   2.549 -1.4758  0.5795 -0.5105
 1507TIP3   OH2 4484   0.176   5.118   1.611  0.2282 -0.0106 -0.1964
 1507TIP3    H1 4485   0.201   5.101   1.520  0.2940  2.5594 -0.7451
 1507TIP3    H2 4486   0.088   5.156   1.605  0.4970  0.8058  0.7321
 1508TIP3   OH2 4487   3.500   3.567   1.748  0.3023 -0.3841 -0.5200
 1508TIP3    H1 4488   3.474   3.635   1.686  1.3140  0.6091  0.1143
 1508TIP3    H2 4489   3.421   3.516   1.762 -0.1079 -0.2552 -2.1426
 1509TIP3   OH2 4490   0.879   4.927   0.187  0.2801  0.4642 -0.0851
 1509TIP3    H1 4491   0.948   4.945   0.124 -0.3618 -0.0789 -0.9734
 1509TIP3    H2 4492   0.830   5.009   0.193  0.4673  0.5800 -0.1405
 1510TIP3   OH2 4493   1.140   5.376   4.495 -0.5572 -0.1037  0.9194
 1510TIP3    H1 4494   1.171   5.296   4.452 -1.8356  0.3027 -0.8648
 1510TIP3    H2 4495   1.197   5.385   4.572  2.8787 -0.1252 -1.3661
 1511TIP3   OH2 4496   2.439   1.496   5.173  0.0009  0.3448  0.0365
 1511TIP3    H1 4497   2.452   1.466   5.263 -3.8566 -3.6939 -0.4258
 1511TIP3    H2 4498   2.344   1.497   5.162  0.2439  3.0138 -3.4354
 1512TIP3   OH2 4499   3.185   3.475   5.752 -0.3793 -0.5809  0.1380
 1512TIP3    H1 4500   3.136   3.489   5.834  2.2247  0.0138  1.7173
 1512TIP3    H2 4501   3.216   3.385   5.758  0.7342 -0.2082  0.4224
 1513TIP3   OH2 4502   2.529   2.653   4.776 -0.1243  0.0721 -0.1355
 1513TIP3    H1 4503   2.444   2.609   4.776 -1.1961  1.9164 -2.3836
 1513TIP3    H2 4504   2.526   2.708   4.855 -0.9919  0.0578 -0.1433
 1514TIP3   OH2 4505   5.149   6.428   2.732 -0.0338  0.4228 -0.2801
 1514TIP3    H1 4506   5.201   6.500   2.698 -0.8124  0.8540 -0.5801
 1514TIP3    H2 4507   5.143   6.366   2.659 -1.9379  1.4741 -1.0828
 1515TIP3   OH2 4508   5.250   0.499   3.920 -0.2481 -0.4119  0.4625
 1515TIP3    H1 4509   5.298   0.446   3.856 -0.6189  0.5642 -0.6553
 1515TIP3    H2 4510   5.311   0.509   3.993  1.4629  1.0980 -1.0609
 1516TIP3   OH2 4511   3.426   1.736   0.861 -0.6669 -0.1692 -0.5624
 1516TIP3    H1 4512   3.331   1.742   0.873 -0.6320 -0.2399 -0.2283
 1516TIP3    H2 4513   3.462   1.785   0.935 -0.4468  0.2085 -0.9173
 1517TIP3   OH2 4514   3.738   4.440   2.786 -0.3415  0.1663 -0.0340
 1517TIP3    H1 4515   3.706   4.529   2.801 -0.2348 -0.1352  2.2981
 1517TIP3    H2 4516   3.827   4.452   2.753 -0.0318  0.9484  1.0208
 1518TIP3   OH2 4517   0.337   3.433   1.963  0.0851  0.1371 -0.0392
 1518TIP3    H1 4518   0.359   3.370   1.894  0.2197  2.6408 -2.4608
 1518TIP3    H2 4519   0.241   3.441   1.958 -0.0260 -0.4741  0.8711
 1519TIP3   OH2 4520   5.698   1.375   5.372  0.2201 -0.0040  0.1688
 1519TIP3    H1 4521   5.671   1.286   5.396 -0.8196  0.1568 -0.3562
 1519TIP3    H2 4522   5.646   1.396   5.294  0.4364  1.0727  0.2976
 1520TIP3   OH2 4523   4.951   1.621   4.840 -0.2981  0.6696 -0.0373
 1520TIP3    H1 4524   4.979   1.530   4.852 -0.6461  0.4455 -0.8165
 1520TIP3    H2 4525   4.897   1.640   4.916  3.1873  1.6668  2.4157
 1521TIP3   OH2 4526   1.292   0.630   3.187  0.1421  0.5045  0.6015
 1521TIP3    H1 4527   1.285   0.560   3.122  1.9058  0.8035  0.0044
 1521TIP3    H2 4528   1.292   0.711   3.134 -0.1755  0.8509  1.1274
 1522TIP3   OH2 4529   2.522   2.580   3.474  0.2799  0.1376 -0.4887
 1522TIP3    H1 4530   2.527   2.564   3.380 -1.8267 -0.8881 -0.4693
 1522TIP3    H2 4531   2.495   2.496   3.511  0.1720  0.7836  0.9381
 1523TIP3   OH2 4532   5.393   2.814   2.654  0.1421  0.4842 -0.2551
 1523TIP3    H1 4533   5.328   2.865   2.605 -0.1732  0.6763  0.3633
 1523TIP3    H2 4534   5.342   2.756   2.710  0.5075  0.2224 -0.1851
 1524TIP3   OH2 4535   0.309   3.381   2.627 -0.1536 -0.0077  0.0814
 1524TIP3    H1 4536   0.291   3.474   2.634 -0.4286 -0.0981  0.5981
 1524TIP3    H2 4537   0.224   3.338   2.634  0.1341 -0.4008  2.0122
 1525TIP3   OH2 4538   3.637   6.442   2.176 -0.0634 -0.0272  0.3832
 1525TIP3    H1 4539   3.576   6.369   2.178  1.0719 -0.9950  0.9084
 1525TIP3    H2 4540   3.705   6.419   2.240  1.2071  0.6957 -0.6511
 1526TIP3   OH2 4541   4.088   0.946   0.628 -0.0879 -0.1847 -0.2405
 1526TIP3    H1 4542   4.067   0.999   0.704  1.7100 -1.0151  0.8990
 1526TIP3    H2 4543   4.107   0.859   0.663 -2.2149 -1.4558 -1.9777
 1527TIP3   OH2 4544   6.216   2.480   0.873  0.2147  0.2160 -0.5948
 1527TIP3    H1 4545   6.191   2.570   0.849  0.5211  0.4752  0.0130
 1527TIP3    H2 4546   6.307   2.472   0.843  1.1064  1.0439  1.6539
 1528TIP3   OH2 4547   4.210   6.402   0.686  0.2674 -0.2430 -0.4456
 1528TIP3    H1 4548   4.163   6.387   0.769 -0.6564 -0.8636 -1.0603
 1528TIP3    H2 4549   4.301   6.380   0.706  0.0752 -0.3041  0.4335
 1529TIP3   OH2 4550   0.493   5.184   0.668 -0.3176 -0.0334  0.0168
 1529TIP3    H1 4551   0.466   5.266   0.710  0.2826  0.9126 -1.3937
 1529TIP3    H2 4552   0.503   5.207   0.576  1.1575 -1.3789 -0.1834
 1530TIP3   OH2 4553   1.101   0.792   0.283 -0.2657 -0.3471 -0.4269
 1530TIP3    H1 4554   1.085   0.721   0.221 -0.3552  1.1976 -2.2653
 1530TIP3    H2 4555   1.194   0.811   0.275 -0.3676  0.1638 -0.4439
 1531TIP3   OH2 4556   6.398   6.232   3.898  0.3043 -0.5411 -0.5372
 1531TIP3    H1 4557   6.391   6.184   3.815 -2.1221 -1.9470  0.3767
 1531TIP3    H2 4558   6.320   6.288   3.900  0.7391  0.0538  0.4582
 1532TIP3   OH2 4559   2.667   5.591   1.713  0.3810  0.0183 -0.2084
 1532TIP3    H1 4560   2.612   5.660   1.674  0.8425  1.1466  1.0464
 1532TIP3    H2 4561   2.674   5.525   1.645 -0.3970  1.0464 -1.3366
 1533TIP3   OH2 4562   5.963   5.622   5.721 -0.2657 -0.1514  0.6682
 1533TIP3    H1 4563   5.988   5.701   5.672 -0.5961 -0.4052  0.0808
 1533TIP3    H2 4564   6.038   5.605   5.778  0.6061 -0.4573 -0.5188
 1534TIP3   OH2 4565   2.540   1.315   4.785 -0.1036 -0.4064  0.1386
 1534TIP3    H1 4566   2.587   1.300   4.703  1.2000 -2.9136  1.2273
 1534TIP3    H2 4567   2.453   1.279   4.770 -0.6450  1.1953 -0.8054
 1535TIP3   OH2 4568   7.077   3.124   3.471 -0.1495 -0.1173  0.5494
 1535TIP3    H1 4569   7.121   3.191   3.418  0.0232 -0.5064  0.1976
 1535TIP3    H2 4570   7.137   3.106   3.543  0.6727 -1.2754 -0.4005
 1536TIP3   OH2 4571   0.519   2.201   2.140 -0.4109 -0.3620  0.0980
 1536TIP3    H1 4572   0.435   2.169   2.173 -1.1661  0.7888 -0.6317
 1536TIP3    H2 4573   0.522   2.171   2.049 -0.0747 -0.3181  0.0951
 1537TIP3   OH2 4574   3.937   2.260   3.010 -0.3401 -0.6605 -0.4672
 1537TIP3    H1 4575   3.844   2.241   3.020 -0.5814  0.8863  0.4696
 1537TIP3    H2 4576   3.949   2.273   2.916 -1.2102 -0.2510 -0.5265
 1538TIP3   OH2 4577   1.654   2.607   0.908 -0.4849  0.0074 -0.3275
 1538TIP3    H1 4578   1.612   2.637   0.827  0.4336  3.0946  0.2051
 1538TIP3    H2 4579   1.739   2.574   0.880 -0.1638  1.0723 -0.6654
 1539TIP3   OH2 4580   5.605   4.127   3.853 -0.5166 -0.0375  0.2666
 1539TIP3    H1 4581   5.509   4.120   3.855 -0.4080 -3.3035 -0.4347
 1539TIP3    H2 4582   5.632   4.063   3.787  2.2425 -0.1415  1.3732
 1540TIP3   OH2 4583   1.729   3.053   3.557 -0.3841 -0.1170  0.1304
 1540TIP3    H1 4584   1.707   2.984   3.495  0.7588  0.0823 -0.5281
 1540TIP3    H2 4585   1.724   3.134   3.506  1.4788 -0.0317  0.0034
 1541TIP3   OH2 4586   1.829   4.439   5.587 -0.1818 -0.1934 -0.0573
 1541TIP3    H1 4587   1.841   4.501   5.658  0.0727 -1.3645  0.9555
 1541TIP3    H2 4588   1.800   4.358   5.630 -2.2507 -0.2986 -1.4910
 1542TIP3   OH2 4589   2.958   5.734   2.320  0.1175  0.1066 -0.2823
 1542TIP3    H1 4590   2.900   5.810   2.322 -1.6025 -1.0936 -1.5794
 1542TIP3    H2 4591   2.982   5.724   2.227  1.1528 -0.3443  0.0139
 1543TIP3   OH2 4592   1.929   4.973   0.668  0.1950  0.3804 -0.4017
 1543TIP3    H1 4593   1.890   4.959   0.582  0.2185  1.7234 -0.6488
 1543TIP3    H2 4594   1.906   4.894   0.718 -1.0050  0.1977 -1.2052
 1544TIP3   OH2 4595   0.032   0.359   5.072  0.0141 -0.0515  0.3018
 1544TIP3    H1 4596  -0.022   0.307   5.013  0.3287  0.9823 -0.9445
 1544TIP3    H2 4597   0.112   0.307   5.083 -0.3659 -0.6112  0.4564
 1545TIP3   OH2 4598   0.479   4.796   4.463  0.7837 -0.2448 -0.9050
 1545TIP3    H1 4599   0.574   4.784   4.460  0.5887 -1.7477 -2.0898
 1545TIP3    H2 4600   0.447   4.755   4.383 -0.8061  1.0099 -0.9608
 1546TIP3   OH2 4601   2.081   3.052   1.223 -0.1283 -0.0681  0.5165
 1546TIP3    H1 4602   2.143   3.107   1.174 -0.0957  0.4421  1.1071
 1546TIP3    H2 4603   2.134   3.017   1.296 -0.2191 -0.6650  0.2979
 1547TIP3   OH2 4604   2.703   2.555   1.826 -0.9252 -0.0056  0.1684
 1547TIP3    H1 4605   2.758   2.567   1.904 -0.1795  0.8677 -0.4756
 1547TIP3    H2 4606   2.613   2.565   1.859 -0.6073  0.6474  0.8782
 1548TIP3   OH2 4607   0.541   3.216   4.518 -0.2108  0.1061  0.2358
 1548TIP3    H1 4608   0.555   3.286   4.454  1.4661 -0.6369 -0.2717
 1548TIP3    H2 4609   0.540   3.261   4.602  0.9079  0.7580 -0.0736
 1549TIP3   OH2 4610   6.081   6.026   3.714 -0.2761  0.0256 -0.9422
 1549TIP3    H1 4611   6.051   5.935   3.703  2.3429 -1.5384  2.7301
 1549TIP3    H2 4612   6.036   6.057   3.792  1.9527  0.2020  0.3742
 1550TIP3   OH2 4613   3.918   1.559   0.638  0.0820 -0.1056  0.0861
 1550TIP3    H1 4614   3.845   1.612   0.672  0.8726  1.3349 -0.3811
 1550TIP3    H2 4615   3.914   1.570   0.543  0.9427  0.0426  0.0592
 1551TIP3   OH2 4616   5.043   5.986   2.564  0.2176  0.2018 -0.2872
 1551TIP3    H1 4617   5.010   6.076   2.568  1.8100  0.8105 -0.3225
 1551TIP3    H2 4618   5.004   5.950   2.484 -0.3064  0.8930 -0.3560
 1552TIP3   OH2 4619   5.429   3.061   0.944  0.0603 -0.3533 -0.2538
 1552TIP3    H1 4620   5.503   3.002   0.958  1.6720  1.8816  1.5701
 1552TIP3    H2 4621   5.444   3.098   0.857 -0.4247 -1.8046 -0.9912
 1553TIP3   OH2 4622   7.228   6.792   3.128 -0.1722  0.1383  0.3328
 1553TIP3    H1 4623   7.240   6.705   3.089 -1.4655  0.2206 -0.2939
 1553TIP3    H2 4624   7.134   6.803   3.135 -0.0427  1.5645  0.2474
 1554TIP3   OH2 4625   0.567   4.365   1.391  0.1198 -0.9404 -0.7429
 1554TIP3    H1 4626   0.642   4.379   1.334  2.7501 -2.4047  2.0755
 1554TIP3    H2 4627   0.576   4.275   1.422 -1.2854 -0.3474  1.6885
 1555TIP3   OH2 4628   2.585   1.986   0.222 -0.6047  0.1173  0.2516
 1555TIP3    H1 4629   2.586   2.059   0.160 -1.2480 -1.0522 -1.1645
 1555TIP3    H2 4630   2.493   1.976   0.245 -0.6476 -0.8812 -0.3280
 1556TIP3   OH2 4631   3.598   0.901   1.767  0.2482  0.3344  0.1457
 1556TIP3    H1 4632   3.628   0.865   1.851  3.2045 -0.3952 -1.0926
 1556TIP3    H2 4633   3.547   0.978   1.792  0.4365 -0.2340  2.6212
 1557TIP3   OH2 4634   6.479   3.291   3.980  0.4666  0.2236  0.0228
 1557TIP3    H1 4635   6.436   3.207   3.998 -1.6058  1.1240 -0.4584
 1557TIP3    H2 4636   6.483   3.335   4.065 -0.0657  0.3336 -0.0018
 1558TIP3   OH2 4637   6.225   1.492   1.704  0.0637 -0.3821 -0.1907
 1558TIP3    H1 4638   6.136   1.527   1.713  0.1932 -0.3307  1.0595
 1558TIP3    H2 4639   6.278   1.544   1.765  1.4503  1.1147 -2.5197
 1559TIP3   OH2 4640   5.938   3.819   1.794  0.2138  0.2784 -0.2478
 1559TIP3    H1 4641   5.940   3.914   1.807  1.2243  0.1178  0.9348
 1559TIP3    H2 4642   6.022   3.799   1.752  0.8267 -0.2865  1.1794
 1560TIP3   OH2 4643   4.422   1.610   3.548  0.4450 -0.0893 -0.2704
 1560TIP3    H1 4644   4.401   1.650   3.464 -2.6542  2.1499  1.3543
 1560TIP3    H2 4645   4.364   1.534   3.554  0.0667  0.2235  0.1317
 1561TIP3   OH2 4646   1.005   0.885   3.315  0.1375  0.4756 -0.1123
 1561TIP3    H1 4647   0.942   0.955   3.298  0.6115  0.6915 -1.0396
 1561TIP3    H2 4648   1.090   0.925   3.296  0.4457 -0.2104 -0.1807
 1562TIP3   OH2 4649   1.846   5.276   3.588 -0.1127 -0.3717  0.5230
 1562TIP3    H1 4650   1.914   5.289   3.522  0.7834  0.2252  1.5288
 1562TIP3    H2 4651   1.844   5.359   3.636 -0.6278 -0.8566  1.3533
 1563TIP3   OH2 4652   0.729   4.177   3.306 -0.0966  0.0425 -0.3791
 1563TIP3    H1 4653   0.789   4.102   3.311 -0.3190 -0.1752 -0.8383
 1563TIP3    H2 4654   0.721   4.194   3.212 -2.1587 -1.0876 -0.4694
 1564TIP3   OH2 4655   0.984   3.391   1.460 -0.0290  0.1960  0.1467
 1564TIP3    H1 4656   0.909   3.339   1.431  1.4833 -3.2318  1.8276
 1564TIP3    H2 4657   1.060   3.343   1.429  1.5051  2.1635  0.7002
 1565TIP3   OH2 4658   5.707   2.743   4.274  0.5042 -0.2431  0.0436
 1565TIP3    H1 4659   5.617   2.775   4.281  0.7479  0.7986 -1.0919
 1565TIP3    H2 4660   5.699   2.648   4.270 -0.4370 -0.2369  1.2856
 1566TIP3   OH2 4661   4.443   1.438   3.068 -0.9196 -0.3585 -0.1740
 1566TIP3    H1 4662   4.399   1.482   3.141 -1.4335  0.4720 -0.9628
 1566TIP3    H2 4663   4.378   1.437   2.998 -0.6463 -1.7103 -0.4310
 1567TIP3   OH2 4664   1.145   2.703   1.587  0.9002  0.4706  0.0366
 1567TIP3    H1 4665   1.190   2.783   1.616  2.2623  0.1505 -1.1065
 1567TIP3    H2 4666   1.213   2.636   1.587 -0.2619 -0.7555  1.1141
 1568TIP3   OH2 4667   2.681   0.080   4.899  0.4893  0.2865 -0.5849
 1568TIP3    H1 4668   2.703   0.098   4.807 -0.9667 -0.9661 -1.2239
 1568TIP3    H2 4669   2.595   0.121   4.911  0.3980 -0.0834  0.0472
 1569TIP3   OH2 4670   5.610   1.533   2.844 -0.5274  0.4682 -0.4061
 1569TIP3    H1 4671   5.560   1.451   2.852  0.2800  0.0152  0.1530
 1569TIP3    H2 4672   5.695   1.506   2.809  0.6020  0.6982  1.9580
 1570TIP3   OH2 4673   4.247   4.267   4.918  0.2663  0.4117  0.2013
 1570TIP3    H1 4674   4.294   4.298   4.996  0.0388  0.0628  0.4783
 1570TIP3    H2 4675   4.262   4.173   4.917 -1.0830  0.1697  0.7435
 1571TIP3   OH2 4676   4.241   2.157   0.233  0.2091  0.1714 -0.1030
 1571TIP3    H1 4677   4.314   2.213   0.259  0.9623 -1.2721  1.0461
 1571TIP3    H2 4678   4.173   2.175   0.298 -0.8211  2.0537 -1.5879
 1572TIP3   OH2 4679   3.901   5.105   0.512 -0.2381  0.6686  0.0587
 1572TIP3    H1 4680   3.868   5.091   0.600 -1.9465 -2.9586 -0.9991
 1572TIP3    H2 4681   3.829   5.148   0.465 -0.7648 -0.6980 -0.4276
 1573TIP3   OH2 4682   0.875   0.829   1.782 -0.3032 -0.0299  0.7718
 1573TIP3    H1 4683   0.836   0.774   1.850  0.4172 -0.0052  1.2117
 1573TIP3    H2 4684   0.873   0.774   1.703  0.5333 -0.7485  1.2388
 1574TIP3   OH2 4685   6.954   1.932   5.315 -0.2569  0.4872  0.0365
 1574TIP3    H1 4686   6.867   1.958   5.285 -0.7980 -1.0170  0.2195
 1574TIP3    H2 4687   7.011   1.949   5.241 -1.2503 -1.3877 -1.2479
 1575TIP3   OH2 4688   2.569   1.012   5.776 -0.1963  0.3817 -0.3819
 1575TIP3    H1 4689   2.482   0.975   5.791  0.3580 -1.8976 -2.1401
 1575TIP3    H2 4690   2.585   1.068   5.851 -2.3199 -0.8001  1.0549
 1576TIP3   OH2 4691   1.211   3.025   2.947  0.3792 -0.1141  0.6683
 1576TIP3    H1 4692   1.203   3.025   2.852  1.1946 -2.1853  0.5463
 1576TIP3    H2 4693   1.157   2.951   2.975  0.5862  0.1347  1.7593
 1577TIP3   OH2 4694   4.379   3.046   1.586 -0.0135 -0.5086  0.2982
 1577TIP3    H1 4695   4.300   3.027   1.535 -0.3747 -0.1063  0.6960
 1577TIP3    H2 4696   4.391   3.140   1.577 -0.5274 -0.3031  1.5660
 1578TIP3   OH2 4697   0.334   5.449   2.925  0.3487  0.0568 -0.0596
 1578TIP3    H1 4698   0.360   5.361   2.953 -0.6888  0.0923  1.1035
 1578TIP3    H2 4699   0.305   5.437   2.834 -0.4905 -0.9729  0.3104
 1579TIP3   OH2 4700   3.703   0.515   3.450  0.0136 -0.4843 -0.1068
 1579TIP3    H1 4701   3.674   0.606   3.446 -1.2830 -0.7416  1.9138
 1579TIP3    H2 4702   3.650   0.470   3.384 -0.1282  0.0348 -0.3539
 1580TIP3   OH2 4703   1.376   3.577   5.054 -0.1634  0.1290 -0.1173
 1580TIP3    H1 4704   1.402   3.663   5.021 -2.1754  0.4018 -1.1846
 1580TIP3    H2 4705   1.292   3.559   5.011 -0.3933 -1.8417  1.0058
 1581TIP3   OH2 4706   3.592   4.047   1.219  0.5340 -0.3620  0.1614
 1581TIP3    H1 4707   3.587   4.062   1.313  0.5393  0.6468  0.0178
 1581TIP3    H2 4708   3.680   4.076   1.195  0.3999 -0.2600 -0.2102
 1582TIP3   OH2 4709   2.366   5.591   1.850  0.4846  0.5402  0.0425
 1582TIP3    H1 4710   2.363   5.573   1.756  1.0332 -0.8371  0.2580
 1582TIP3    H2 4711   2.369   5.687   1.857 -4.1588  0.9694 -1.1631
 1583TIP3   OH2 4712   1.749   4.405   0.685 -0.5514  0.4216 -0.1897
 1583TIP3    H1 4713   1.804   4.383   0.609 -0.3645  0.0829  0.0400
 1583TIP3    H2 4714   1.683   4.336   0.688 -1.3790  1.1646 -0.8282
 1584TIP3   OH2 4715   6.173   6.109   4.839 -0.1911  0.1785 -0.3488
 1584TIP3    H1 4716   6.212   6.175   4.896  0.8469 -0.8147  0.1389
 1584TIP3    H2 4717   6.079   6.126   4.841 -0.4106 -0.8534  3.0201
 1585TIP3   OH2 4718   5.075   5.112   0.515 -0.2576 -0.0172 -0.7728
 1585TIP3    H1 4719   5.138   5.065   0.461  1.0203 -0.0332  0.6663
 1585TIP3    H2 4720   5.022   5.043   0.556 -0.0446 -0.0945 -0.6246
 1586TIP3   OH2 4721   2.635   0.717   5.894 -0.1986 -0.0368 -0.5249
 1586TIP3    H1 4722   2.675   0.781   5.953 -1.0145 -0.0249  0.0201
 1586TIP3    H2 4723   2.640   0.758   5.807  0.6803  0.0954 -0.4188
 1587TIP3   OH2 4724   2.300   6.172   5.076  0.5646  0.4398  0.0651
 1587TIP3    H1 4725   2.386   6.212   5.076  0.4558  0.6756 -0.3128
 1587TIP3    H2 4726   2.315   6.082   5.047  0.8579  0.0807  1.2751
 1588TIP3   OH2 4727   5.717   5.709   5.220 -0.4827 -0.2156  0.5533
 1588TIP3    H1 4728   5.763   5.743   5.143 -1.9322 -0.3603 -0.4256
 1588TIP3    H2 4729   5.783   5.705   5.288  0.7290  0.4165 -0.5466
 1589TIP3   OH2 4730   4.839   2.110   3.331 -0.3365 -0.4797  0.3240
 1589TIP3    H1 4731   4.901   2.038   3.325 -0.6373 -0.7034 -0.2248
 1589TIP3    H2 4732   4.777   2.084   3.399 -0.7457 -0.9912 -0.2233
 1590TIP3   OH2 4733   0.470   4.883   2.432  0.1351  0.2981 -0.6703
 1590TIP3    H1 4734   0.473   4.887   2.528 -1.7907 -1.6246 -0.4504
 1590TIP3    H2 4735   0.561   4.882   2.405  0.7241  1.1803  1.1164
 1591TIP3   OH2 4736   0.182   0.432   3.218 -0.2086  0.3984  0.3108
 1591TIP3    H1 4737   0.236   0.459   3.143 -0.5789  2.7160  0.7988
 1591TIP3    H2 4738   0.234   0.457   3.295  0.3827 -2.3914  0.9057
 1592TIP3   OH2 4739   5.703   1.540   3.570 -0.6991  0.2516 -0.1341
 1592TIP3    H1 4740   5.614   1.504   3.576 -1.8487  2.9538  0.6074
 1592TIP3    H2 4741   5.695   1.610   3.505  0.8338  0.7053  0.1364
 1593TIP3   OH2 4742   5.995   6.490   2.430  0.5584 -0.3590 -0.2715
 1593TIP3    H1 4743   6.033   6.557   2.372 -0.8742  0.5302 -0.2271
 1593TIP3    H2 4744   5.912   6.528   2.459  0.8332 -1.1521  1.7024
 1594TIP3   OH2 4745   1.966   5.323   3.120  0.6298  0.4582 -0.2831
 1594TIP3    H1 4746   1.878   5.354   3.098  0.0644  0.5730  1.8470
 1594TIP3    H2 4747   2.003   5.293   3.037 -1.0618  1.2692 -1.3887
 1595TIP3   OH2 4748   7.021   4.134   4.211  0.3347 -0.6702 -0.5754
 1595TIP3    H1 4749   6.968   4.200   4.167 -1.1265 -0.3656  1.5030
 1595TIP3    H2 4750   6.972   4.053   4.200  0.5530 -0.8144 -0.4887
 1596TIP3   OH2 4751   1.023   2.344   3.337 -0.1012  0.1251  0.4399
 1596TIP3    H1 4752   0.956   2.276   3.339 -0.6984  0.6434 -0.8737
 1596TIP3    H2 4753   1.047   2.351   3.244  1.1329  0.5737  0.7722
 1597TIP3   OH2 4754   6.997   4.017   1.691  0.2158  0.1672 -0.6021
 1597TIP3    H1 4755   6.931   3.996   1.625  0.6181  0.6521 -1.1664
 1597TIP3    H2 4756   6.958   4.089   1.741 -0.1319 -0.2688 -0.2352
 1598TIP3   OH2 4757   0.240   5.601   3.550 -0.3112  0.1868 -0.1086
 1598TIP3    H1 4758   0.150   5.567   3.546  0.2372 -1.2103 -2.5865
 1598TIP3    H2 4759   0.286   5.538   3.605  0.5241 -3.0786 -4.0867
 1599TIP3   OH2 4760   4.046   6.599   1.680  0.4603  0.5411  0.0476
 1599TIP3    H1 4761   4.019   6.579   1.591  1.2403  0.3457 -0.1581
 1599TIP3    H2 4762   4.117   6.663   1.669  1.0364 -0.0072  0.4833
 1600TIP3   OH2 4763   1.432   4.173   0.038 -0.3152 -0.3031 -0.1069
 1600TIP3    H1 4764   1.408   4.109  -0.028  0.5233 -0.1973 -0.5237
 1600TIP3    H2 4765   1.393   4.140   0.119 -3.4347  0.7815 -1.0221
 1601TIP3   OH2 4766   6.637   3.822   3.021 -0.4216  0.2560 -0.5863
 1601TIP3    H1 4767   6.643   3.779   2.936  0.4175  0.5380 -0.6832
 1601TIP3    H2 4768   6.696   3.771   3.077 -0.2254  0.6445 -0.4347
 1602TIP3   OH2 4769   3.587   5.322   1.790  0.2824  0.1254  0.2998
 1602TIP3    H1 4770   3.666   5.279   1.757 -0.2489  0.4839 -1.6024
 1602TIP3    H2 4771   3.618   5.383   1.856  1.6867  0.6338 -0.7836
 1603TIP3   OH2 4772   1.552   4.062   5.747  0.1344  0.3008  0.0230
 1603TIP3    H1 4773   1.595   3.994   5.696 -0.4152  0.0045 -0.0536
 1603TIP3    H2 4774   1.496   4.014   5.808 -0.4985  0.6881 -0.2408
 1604TIP3   OH2 4775   2.623   2.379   4.035  0.2578 -0.8380 -0.1473
 1604TIP3    H1 4776   2.706   2.418   4.062 -0.7300  1.4513 -0.1244
 1604TIP3    H2 4777   2.595   2.433   3.962 -0.9656 -1.9127 -0.5034
 1605TIP3   OH2 4778   4.476   4.437   1.669  0.1878  0.5143  0.6911
 1605TIP3    H1 4779   4.385   4.438   1.696  0.0465 -0.3050  0.2725
 1605TIP3    H2 4780   4.479   4.490   1.590 -0.0070  0.1941  0.4683
 1606TIP3   OH2 4781   1.832   1.419   0.662 -0.0842  0.2410 -0.0663
 1606TIP3    H1 4782   1.925   1.397   0.659 -0.2880 -0.9045  1.2517
 1606TIP3    H2 4783   1.801   1.400   0.573  0.4136 -1.9372  0.1689
 1607TIP3   OH2 4784   4.312   1.401   4.125 -0.2465 -0.7143  0.4815
 1607TIP3    H1 4785   4.366   1.453   4.183 -3.0722  2.9509  0.1983
 1607TIP3    H2 4786   4.355   1.406   4.040  0.1718  0.1343  0.7391
 1608TIP3   OH2 4787   5.020   2.307   3.994  0.9060  0.3303  0.1944
 1608TIP3    H1 4788   5.066   2.369   4.050 -1.1094  1.9298  0.1703
 1608TIP3    H2 4789   4.928   2.322   4.012  0.3153 -1.8923 -0.6788
 1609TIP3   OH2 4790   3.194   4.603   4.634 -0.3779 -0.0865 -0.2634
 1609TIP3    H1 4791   3.151   4.525   4.669 -2.2594  0.7341 -0.6300
 1609TIP3    H2 4792   3.227   4.648   4.712 -0.8688 -0.3575  0.1102
 1610TIP3   OH2 4793   5.843   0.031   5.502 -0.1521  0.0023  0.0316
 1610TIP3    H1 4794   5.776   0.073   5.448 -1.5284 -0.8135  1.0533
 1610TIP3    H2 4795   5.799  -0.045   5.541  0.9971  0.1591  1.7366
 1611TIP3   OH2 4796   2.955   2.287   4.114 -0.1016  0.7120 -0.0205
 1611TIP3    H1 4797   3.037   2.296   4.164 -0.6024 -0.0676  0.9653
 1611TIP3    H2 4798   2.910   2.370   4.129  0.0001  0.6990  0.3789
 1612TIP3   OH2 4799   4.081   2.879   0.732  0.3595  0.5018 -0.2353
 1612TIP3    H1 4800   4.060   2.970   0.711 -0.1282 -0.0837 -2.5932
 1612TIP3    H2 4801   4.054   2.830   0.654 -0.7170 -1.8735  1.5131
 1613TIP3   OH2 4802   2.328   5.388   3.471  0.5769 -0.5226  0.0114
 1613TIP3    H1 4803   2.321   5.368   3.378 -1.1819  0.7242 -0.1803
 1613TIP3    H2 4804   2.390   5.461   3.476  0.7104 -0.6234 -0.1649
 1614TIP3   OH2 4805   4.355   1.238   4.827 -0.1216 -0.6108  0.1063
 1614TIP3    H1 4806   4.337   1.156   4.873 -1.8412  0.3584  1.2700
 1614TIP3    H2 4807   4.419   1.283   4.881  2.4870 -2.0048 -1.6101
 1615TIP3   OH2 4808   4.314   1.801   1.310  1.1461  0.0839  0.0875
 1615TIP3    H1 4809   4.275   1.763   1.231  3.3928 -0.8431 -0.6624
 1615TIP3    H2 4810   4.239   1.829   1.363 -0.4432  0.0355 -2.0136
 1616TIP3   OH2 4811   5.653   4.553   1.728 -0.1949 -0.1818  0.1799
 1616TIP3    H1 4812   5.742   4.556   1.762  0.4179  0.9267 -1.4047
 1616TIP3    H2 4813   5.632   4.459   1.726  0.4618 -0.3896  1.6729
 1617TIP3   OH2 4814   3.519   6.794   5.779 -0.5372 -0.4323  0.3175
 1617TIP3    H1 4815   3.449   6.733   5.802 -2.1919  1.0134 -0.5807
 1617TIP3    H2 4816   3.495   6.828   5.693  1.0663  0.4258  0.1594
 1618TIP3   OH2 4817   0.617   3.611   1.900 -0.0692 -0.1127  0.2322
 1618TIP3    H1 4818   0.558   3.582   1.970 -0.5401  0.5809  0.1335
 1618TIP3    H2 4819   0.567   3.599   1.820 -0.3861  1.2212  0.2128
 1619TIP3   OH2 4820   2.749   4.062   4.038 -0.4919 -0.6652  0.4985
 1619TIP3    H1 4821   2.732   4.014   3.957  0.9121 -2.4263  1.1762
 1619TIP3    H2 4822   2.674   4.042   4.094 -2.7797  2.5656 -1.0725
 1620TIP3   OH2 4823   5.978   5.825   0.359  0.4679  0.1226  0.0121
 1620TIP3    H1 4824   5.913   5.754   0.356 -0.5592  1.0419 -1.3015
 1620TIP3    H2 4825   6.036   5.802   0.431 -1.3509 -0.7322  1.3008
 1621TIP3   OH2 4826   5.037   0.941   0.677 -0.2598 -0.1112  0.2106
 1621TIP3    H1 4827   4.955   0.933   0.725  1.0801 -0.9480  2.5722
 1621TIP3    H2 4828   5.065   1.031   0.691  0.6182 -0.6151  2.0001
 1622TIP3   OH2 4829   1.323   4.286   3.023 -0.3147 -0.2480  0.0458
 1622TIP3    H1 4830   1.235   4.251   3.010  0.2359 -1.3197 -1.0011
 1622TIP3    H2 4831   1.327   4.365   2.969 -0.0450 -1.2659 -1.4865
 1623TIP3   OH2 4832   3.999   2.805   2.539 -0.1356 -0.2129 -0.3197
 1623TIP3    H1 4833   3.923   2.863   2.529  0.5928  1.0661  1.1955
 1623TIP3    H2 4834   4.057   2.830   2.468 -0.0636  0.5419  0.0016
 1624TIP3   OH2 4835   0.341   2.152   1.279 -0.0929  0.1839 -0.0328
 1624TIP3    H1 4836   0.357   2.082   1.216 -1.6068 -1.2138  1.0485
 1624TIP3    H2 4837   0.284   2.213   1.232 -0.4284 -0.3524 -0.3369
 1625TIP3   OH2 4838   3.733   4.176   2.379 -0.6078 -0.4878  0.2840
 1625TIP3    H1 4839   3.642   4.155   2.403 -0.8284  0.8994  0.7805
 1625TIP3    H2 4840   3.743   4.144   2.290 -1.7926 -0.1353  0.0048
 1626TIP3   OH2 4841   3.130   1.323   0.645 -0.4793 -0.3610 -0.1389
 1626TIP3    H1 4842   3.080   1.293   0.721  0.3149 -1.6036 -0.0801
 1626TIP3    H2 4843   3.068   1.377   0.596 -1.7430 -1.4763  0.1663
 1627TIP3   OH2 4844   3.130   1.022   5.267 -0.0849  0.0360  0.2109
 1627TIP3    H1 4845   3.113   1.045   5.176  0.5670  1.3196  0.4026
 1627TIP3    H2 4846   3.047   1.037   5.311 -0.5819 -1.1725 -0.2546
 1628TIP3   OH2 4847   6.305   6.632   1.709  0.0027  0.8526  0.7585
 1628TIP3    H1 4848   6.274   6.553   1.754 -0.1472  1.9587  2.7114
 1628TIP3    H2 4849   6.253   6.636   1.629  1.4831 -2.1348 -0.5147
 1629TIP3   OH2 4850   2.030   3.325   1.560  0.0514 -0.2716 -0.4192
 1629TIP3    H1 4851   2.024   3.230   1.549  1.3447 -0.4522  0.3092
 1629TIP3    H2 4852   1.997   3.341   1.648 -0.6047  0.0297 -0.7073
 1630TIP3   OH2 4853   5.466   6.161   4.015 -0.1448  0.0429 -0.3377
 1630TIP3    H1 4854   5.408   6.227   4.054 -0.8992 -1.1934  0.6994
 1630TIP3    H2 4855   5.438   6.078   4.053  0.7381 -0.9132 -1.6645
 1631TIP3   OH2 4856   5.127   3.974   2.289 -0.2752  0.4889 -0.1993
 1631TIP3    H1 4857   5.096   3.903   2.345 -1.9902  1.7546  0.5489
 1631TIP3    H2 4858   5.132   3.936   2.202 -1.8436 -0.4078  0.0631
 1632TIP3   OH2 4859   6.924   3.527   1.012 -0.3620 -0.8100 -0.2469
 1632TIP3    H1 4860   6.918   3.623   1.008 -1.3264 -0.9016 -2.0214
 1632TIP3    H2 4861   7.010   3.507   0.975 -1.0220 -0.6910 -1.9143
 1633TIP3   OH2 4862   7.075   1.437   0.300 -0.1073  0.0772  0.6957
 1633TIP3    H1 4863   7.128   1.408   0.374  1.6949 -0.5116 -0.7346
 1633TIP3    H2 4864   7.134   1.496   0.251 -0.9173 -0.2546 -0.7286
 1634TIP3   OH2 4865   0.983   4.988   3.148 -0.3897 -0.4681 -0.0970
 1634TIP3    H1 4866   1.072   5.024   3.152 -0.6416  0.2029 -0.3694
 1634TIP3    H2 4867   0.985   4.930   3.072 -0.3766  0.1007 -0.5399
 1635TIP3   OH2 4868   2.074   4.339   3.774 -0.2258 -0.0042 -0.1893
 1635TIP3    H1 4869   2.015   4.306   3.707 -0.5457 -1.0526  0.5899
 1635TIP3    H2 4870   2.158   4.299   3.754 -0.3140 -0.2920  0.0082
 1636TIP3   OH2 4871   3.859   1.940   1.871 -0.0032  0.4236 -0.2944
 1636TIP3    H1 4872   3.782   1.965   1.819  0.5483  1.5374 -0.6115
 1636TIP3    H2 4873   3.902   2.023   1.890  0.9346 -0.1631  0.1764
 1637TIP3   OH2 4874   5.295   5.220   5.838 -0.6862  0.4376  0.3784
 1637TIP3    H1 4875   5.225   5.280   5.813 -1.0531 -0.2975 -0.4251
 1637TIP3    H2 4876   5.345   5.206   5.757 -0.2465  0.1235  0.6947
 1638TIP3   OH2 4877   2.176   3.261   2.352  0.0236 -0.5385  0.1147
 1638TIP3    H1 4878   2.177   3.213   2.269  1.0149  0.7359 -0.6575
 1638TIP3    H2 4879   2.267   3.256   2.383  0.1951  0.8931 -0.0587
 1639TIP3   OH2 4880   2.767   2.901   1.266  0.3435 -0.1280 -0.7966
 1639TIP3    H1 4881   2.839   2.837   1.262  0.8355  0.2754  0.8423
 1639TIP3    H2 4882   2.807   2.984   1.242  0.9326  0.4364  1.8141
 1640TIP3   OH2 4883   3.173   3.500   1.813 -0.3705  0.6642 -0.3399
 1640TIP3    H1 4884   3.096   3.544   1.849 -0.2054  1.2234 -0.6615
 1640TIP3    H2 4885   3.145   3.409   1.803  0.0491  0.1149  2.5539
 1641TIP3   OH2 4886   6.995   5.620   0.096 -0.1787  0.0930 -0.0015
 1641TIP3    H1 4887   7.021   5.609   0.188 -0.1385 -1.5566 -0.1793
 1641TIP3    H2 4888   6.944   5.701   0.095 -0.2530  0.0943  1.4963
 1642TIP3   OH2 4889   1.408   0.872   4.625 -0.2294  0.3001  0.6473
 1642TIP3    H1 4890   1.423   0.778   4.630 -0.9437 -0.2129 -3.4915
 1642TIP3    H2 4891   1.326   0.887   4.671  0.0780 -0.9777  1.6620
 1643TIP3   OH2 4892   6.252   2.802   2.829  0.3360  0.4024  0.0643
 1643TIP3    H1 4893   6.291   2.885   2.802 -1.5045  1.7499  1.3303
 1643TIP3    H2 4894   6.265   2.798   2.924 -2.2437  0.7992  0.5149
 1644TIP3   OH2 4895   5.577   0.114   2.866  0.1373 -0.1705  0.2173
 1644TIP3    H1 4896   5.495   0.164   2.873  0.9886  1.2141  0.8112
 1644TIP3    H2 4897   5.597   0.114   2.772 -0.1252  0.2067  0.1579
 1645TIP3   OH2 4898   1.236   4.973   0.857 -0.4047 -0.0441 -0.3302
 1645TIP3    H1 4899   1.194   4.974   0.943  2.9776 -0.5169  1.4910
 1645TIP3    H2 4900   1.239   5.066   0.832 -0.2776  0.2469  0.7008
 1646TIP3   OH2 4901   4.111   4.704   3.411  0.1603 -0.3230 -0.2536
 1646TIP3    H1 4902   4.206   4.697   3.398 -0.1294 -0.3616 -2.7196
 1646TIP3    H2 4903   4.083   4.772   3.351 -1.4903 -0.8732 -0.1657
 1647TIP3   OH2 4904   5.302   6.767   1.243 -0.2036 -0.3093 -0.2983
 1647TIP3    H1 4905   5.263   6.785   1.158 -0.5684  0.0600 -0.0613
 1647TIP3    H2 4906   5.237   6.799   1.306  1.1921  2.0006  0.1131
 1648TIP3   OH2 4907   0.176   4.284   0.503 -0.3442  0.2690 -0.2039
 1648TIP3    H1 4908   0.219   4.370   0.500  0.4260 -0.0955  0.1006
 1648TIP3    H2 4909   0.210   4.244   0.583 -0.3432 -0.5090 -0.5912
 1649TIP3   OH2 4910   5.367   1.296   4.194 -0.9326  0.0706  0.4635
 1649TIP3    H1 4911   5.449   1.268   4.156 -0.7072  1.9205 -0.5604
 1649TIP3    H2 4912   5.301   1.236   4.158 -0.2113 -0.5669  0.2006
 1650TIP3   OH2 4913   0.776   0.576   5.708 -0.3724 -0.7030  0.4605
 1650TIP3    H1 4914   0.866   0.600   5.683 -0.2017  0.2995  1.9177
 1650TIP3    H2 4915   0.720   0.636   5.659 -0.0600  0.9830  2.0636
 1651TIP3   OH2 4916   3.335   2.227   1.091 -0.1282  0.3260  0.4291
 1651TIP3    H1 4917   3.286   2.205   1.011 -0.3759  1.9805  0.1008
 1651TIP3    H2 4918   3.405   2.162   1.093  1.4974  1.7416 -2.6335
 1652TIP3   OH2 4919   0.490   2.168   0.775 -0.8662 -0.3590  0.0864
 1652TIP3    H1 4920   0.544   2.117   0.714  0.5479  0.9540  0.1931
 1652TIP3    H2 4921   0.417   2.199   0.722 -0.7683 -0.9589 -0.4195
 1653TIP3   OH2 4922   3.472   2.595   2.498  0.4705  0.6375 -0.8760
 1653TIP3    H1 4923   3.543   2.619   2.558  0.7764  0.5469 -1.2000
 1653TIP3    H2 4924   3.470   2.499   2.500 -0.6133  0.6541  0.2582
 1654TIP3   OH2 4925   2.215   3.120   2.138  0.2612 -0.0095 -0.5426
 1654TIP3    H1 4926   2.168   3.151   2.061 -0.3031  1.3055  0.2936
 1654TIP3    H2 4927   2.307   3.118   2.111  0.1193  0.8291 -1.1456
 1655TIP3   OH2 4928   3.207   5.857   3.508 -0.5524 -0.1226  0.2741
 1655TIP3    H1 4929   3.139   5.870   3.441 -0.1718  0.1604 -0.0629
 1655TIP3    H2 4930   3.214   5.942   3.551 -1.2261 -0.4704  1.0910
 1656TIP3   OH2 4931   4.190   3.022   4.781  0.4440  0.7397  0.5388
 1656TIP3    H1 4932   4.153   3.043   4.696  0.0465 -0.8123  0.2843
 1656TIP3    H2 4933   4.279   2.990   4.761  0.0610 -0.4082  0.5918
 1657TIP3   OH2 4934   1.732   5.310   4.626 -0.3842  0.0698  0.3488
 1657TIP3    H1 4935   1.823   5.295   4.654 -0.6033 -1.7230  0.2221
 1657TIP3    H2 4936   1.725   5.265   4.542 -1.7411 -0.9795  1.0007
 1658TIP3   OH2 4937   0.759   1.741   5.276  0.1681  0.0577 -0.0436
 1658TIP3    H1 4938   0.713   1.716   5.196  0.5307 -0.5105 -0.0826
 1658TIP3    H2 4939   0.807   1.820   5.253  0.3813 -0.1822 -0.4316
 1659TIP3   OH2 4940   3.374   2.987   3.752  0.3735  0.3461  0.3735
 1659TIP3    H1 4941   3.331   2.911   3.714  2.2884  0.1380 -1.5268
 1659TIP3    H2 4942   3.356   2.980   3.846 -2.9680 -0.1198 -0.1827
 1660TIP3   OH2 4943   3.499   3.363   0.298 -0.4680  0.8774  0.3018
 1660TIP3    H1 4944   3.568   3.334   0.359 -0.9403 -1.9221 -0.3958
 1660TIP3    H2 4945   3.537   3.441   0.256  2.6293 -0.8828 -0.5295
 1661TIP3   OH2 4946   2.632   2.835   4.034 -0.3483  0.0330 -0.0018
 1661TIP3    H1 4947   2.579   2.758   4.054  0.5433 -0.1374  2.0802
 1661TIP3    H2 4948   2.572   2.896   3.992 -1.4114 -1.2662 -0.4466
 1662TIP3   OH2 4949   5.210   1.754   2.633  0.2903  0.9043 -0.4114
 1662TIP3    H1 4950   5.218   1.811   2.557 -0.6355 -1.2154 -2.2120
 1662TIP3    H2 4951   5.300   1.728   2.653  0.4128 -1.3348 -3.1872
 1663TIP3   OH2 4952   3.751   2.561   0.051 -0.1889 -0.1686 -0.6643
 1663TIP3    H1 4953   3.752   2.657   0.052  0.3284 -0.1739  0.4013
 1663TIP3    H2 4954   3.830   2.536   0.004 -0.0106 -0.0759 -0.4120
 1664TIP3   OH2 4955   1.315   3.433   1.354  0.6774  0.7306  0.2156
 1664TIP3    H1 4956   1.409   3.438   1.339  0.9126 -0.0777  1.2623
 1664TIP3    H2 4957   1.307   3.389   1.439 -0.6574 -0.6191 -0.5516
 1665TIP3   OH2 4958   4.547   5.519   2.206  0.4977 -0.0749  0.4067
 1665TIP3    H1 4959   4.468   5.472   2.232 -0.5372  1.0468 -0.5764
 1665TIP3    H2 4960   4.609   5.503   2.276 -1.0858  0.1814  1.9324
 1666TIP3   OH2 4961   1.996   1.080   1.289  0.0978 -1.1271 -0.2447
 1666TIP3    H1 4962   1.932   1.029   1.239  1.4402 -4.4457  1.1491
 1666TIP3    H2 4963   1.944   1.120   1.360 -0.7048 -2.6446  0.0693
 1667TIP3   OH2 4964   7.058   3.163   2.817 -0.3131 -0.0061  0.1896
 1667TIP3    H1 4965   7.051   3.120   2.732  2.0613 -0.3789  0.1178
 1667TIP3    H2 4966   7.020   3.100   2.878  1.4501 -1.5086 -0.1531
 1668TIP3   OH2 4967   0.543   5.614   2.874  0.0188 -0.5576  0.1368
 1668TIP3    H1 4968   0.602   5.578   2.808  2.4897 -0.6510  2.2365
 1668TIP3    H2 4969   0.477   5.546   2.887  0.0500 -0.9387 -1.5065
 1669TIP3   OH2 4970   0.865   0.923   2.697  0.2048  0.1705 -0.1388
 1669TIP3    H1 4971   0.818   0.979   2.758 -0.7384  0.7624 -1.3576
 1669TIP3    H2 4972   0.838   0.834   2.721  0.5668  0.3122  0.8607
 1670TIP3   OH2 4973   3.549   0.058   5.503 -0.6100 -0.3481 -0.4355
 1670TIP3    H1 4974   3.561   0.001   5.579 -1.7274 -0.3540 -0.2352
 1670TIP3    H2 4975   3.626   0.115   5.502 -1.4937  1.0270  1.9353
 1671TIP3   OH2 4976   0.383   1.678   4.491 -0.1136  0.1587 -0.3251
 1671TIP3    H1 4977   0.415   1.588   4.499  2.0101  0.9926  2.2960
 1671TIP3    H2 4978   0.463   1.730   4.479 -1.0608  1.8810  0.5090
 1672TIP3   OH2 4979   5.107   1.618   3.801 -0.4213  0.1637 -0.5694
 1672TIP3    H1 4980   5.022   1.643   3.837 -0.4816 -1.0543  0.2011
 1672TIP3    H2 4981   5.169   1.680   3.840 -0.7232 -0.0690  0.3130
 1673TIP3   OH2 4982   4.914   2.498   5.471 -0.2550  0.1382  0.0808
 1673TIP3    H1 4983   4.881   2.417   5.510 -0.5114  0.6503  0.9494
 1673TIP3    H2 4984   5.008   2.497   5.489 -0.2710  0.0787  0.1580
 1674TIP3   OH2 4985   2.886   3.667   1.025  0.3083  0.0184  0.0465
 1674TIP3    H1 4986   2.876   3.719   0.945  1.2040  0.0660 -0.0453
 1674TIP3    H2 4987   2.855   3.580   1.001 -0.3994  0.2927 -0.0464
 1675TIP3   OH2 4988   5.315   4.581   2.210 -0.3338  0.7819 -0.5506
 1675TIP3    H1 4989   5.260   4.559   2.135 -0.3247  0.7497 -0.5479
 1675TIP3    H2 4990   5.282   4.665   2.240 -0.5049  0.6748 -0.4344
 1676TIP3   OH2 4991   6.626   1.065   0.843  0.0120  1.0069  0.3652
 1676TIP3    H1 4992   6.663   1.029   0.924  1.6378  2.2366  0.2147
 1676TIP3    H2 4993   6.531   1.055   0.854  0.2870 -2.0740  0.8596
 1677TIP3   OH2 4994   3.703   4.981   4.878 -0.1528 -0.1077  0.2487
 1677TIP3    H1 4995   3.753   5.013   4.953  0.1663  0.9735 -0.4025
 1677TIP3    H2 4996   3.748   4.901   4.851  2.2876  1.6829 -1.3383
 1678TIP3   OH2 4997   5.333   2.101   3.637  0.5224  0.1960  0.1531
 1678TIP3    H1 4998   5.328   2.196   3.624  1.8195  0.4369  1.2213
 1678TIP3    H2 4999   5.398   2.090   3.706 -0.3586 -1.4244  0.7669
 1679TIP3   OH2 5000   3.493   2.328   5.480 -1.0478  0.3284  0.4941
 1679TIP3    H1 5001   3.470   2.253   5.534  0.7661 -0.2467  0.5503
 1679TIP3    H2 5002   3.410   2.360   5.444 -1.8786 -1.5040  0.7205
 1680TIP3   OH2 5003   5.740   6.830   4.168  0.0569 -0.0845  0.5883
 1680TIP3    H1 5004   5.811   6.767   4.179 -0.6674 -1.0845 -0.2966
 1680TIP3    H2 5005   5.676   6.785   4.113 -0.3675  1.5099 -0.2876
 1681TIP3   OH2 5006   6.524   0.724   5.318 -0.2860 -0.3010 -0.1927
 1681TIP3    H1 5007   6.430   0.723   5.298  0.0270  0.1768 -1.9182
 1681TIP3    H2 5008   6.555   0.806   5.280  0.7911 -0.3362  0.5887
 1682TIP3   OH2 5009   4.881   2.272   2.914  0.3029  0.2979  0.2045
 1682TIP3    H1 5010   4.830   2.238   2.988  0.6579 -1.0902 -0.1600
 1682TIP3    H2 5011   4.909   2.194   2.866  1.0976  1.1233 -0.7231
 1683TIP3   OH2 5012   3.398   0.808   3.998 -0.6440 -0.1685  1.0745
 1683TIP3    H1 5013   3.364   0.894   4.024 -1.0833 -0.2180  0.6796
 1683TIP3    H2 5014   3.325   0.766   3.953  0.5350  0.5778 -1.7723
 1684TIP3   OH2 5015   0.585   3.230   3.243  0.2538  0.0642  0.5952
 1684TIP3    H1 5016   0.649   3.231   3.314  1.0301  1.3640 -0.0701
 1684TIP3    H2 5017   0.544   3.317   3.248 -0.9682 -0.5023  0.5744
 1685TIP3   OH2 5018   4.401   2.708   0.283  0.4686 -0.4486 -0.0408
 1685TIP3    H1 5019   4.376   2.651   0.210  0.7385 -0.4055 -0.1653
 1685TIP3    H2 5020   4.452   2.779   0.243 -0.6562  0.4012 -0.0185
 1686TIP3   OH2 5021   4.172   3.189   4.387  0.3479  0.2149 -0.5960
 1686TIP3    H1 5022   4.262   3.182   4.356  0.5678 -0.8043  0.2304
 1686TIP3    H2 5023   4.145   3.277   4.360  1.4673  0.4111 -1.1551
 1687TIP3   OH2 5024   5.517   2.774   5.104  0.0410 -0.0655 -0.2176
 1687TIP3    H1 5025   5.608   2.789   5.129  0.6638 -0.5952 -2.0651
 1687TIP3    H2 5026   5.511   2.803   5.013 -1.3072 -1.2510 -0.5510
 1688TIP3   OH2 5027   3.231   3.784   1.705  0.1350 -0.4116  0.4115
 1688TIP3    H1 5028   3.232   3.727   1.782 -0.0251 -0.2196  0.5565
 1688TIP3    H2 5029   3.322   3.810   1.694  0.0362  0.2540  1.0593
 1689TIP3   OH2 5030   4.717   1.322   1.476 -0.4763 -0.1016 -0.2390
 1689TIP3    H1 5031   4.639   1.295   1.525 -0.1787 -1.4825 -0.4954
 1689TIP3    H2 5032   4.685   1.343   1.389 -0.9911  2.2527  0.4226
 1690TIP3   OH2 5033   4.021   4.243   2.895  0.3851  1.1285  0.3683
 1690TIP3    H1 5034   4.016   4.308   2.825  2.1729  0.0798 -0.8151
 1690TIP3    H2 5035   3.967   4.170   2.864  1.2663  0.6182 -0.0211
 1691TIP3   OH2 5036   3.258   4.987   0.537 -0.4664  0.3960  0.1117
 1691TIP3    H1 5037   3.259   5.056   0.470 -0.5255 -0.7636 -1.1384
 1691TIP3    H2 5038   3.232   5.032   0.617 -1.0043  1.7326 -0.7637
 1692TIP3   OH2 5039   3.575   5.959   4.877 -0.6174 -0.2578  0.1981
 1692TIP3    H1 5040   3.630   5.928   4.948 -0.9178  0.8697  0.9492
 1692TIP3    H2 5041   3.590   5.897   4.806  2.0771  0.3236  0.1506
 1693TIP3   OH2 5042   5.107   1.628   1.238  0.1479  0.4024 -0.5561
 1693TIP3    H1 5043   5.096   1.723   1.225  0.2424  0.5343  0.2577
 1693TIP3    H2 5044   5.022   1.599   1.271 -1.2688 -0.5373 -4.4954
 1694TIP3   OH2 5045   6.626   4.712   1.845 -0.9885 -0.6217 -0.7607
 1694TIP3    H1 5046   6.696   4.775   1.864 -1.3358 -0.5106  0.2397
 1694TIP3    H2 5047   6.606   4.673   1.930 -1.1063 -1.7493 -1.2907
 1695TIP3   OH2 5048   0.141   0.957   1.044 -0.1168  0.2418  0.1706
 1695TIP3    H1 5049   0.204   1.005   0.990 -0.5669  0.2838 -0.3306
 1695TIP3    H2 5050   0.190   0.882   1.077 -0.0285 -0.2210 -0.9484
 1696TIP3   OH2 5051   0.987   0.132   2.747  0.1171 -0.0504  0.1005
 1696TIP3    H1 5052   0.965   0.066   2.813  0.9420 -0.0701  0.3676
 1696TIP3    H2 5053   0.960   0.093   2.664 -0.2664 -0.3251  0.3488
 1697TIP3   OH2 5054   1.445   5.505   2.474  0.3378  0.4317  0.6419
 1697TIP3    H1 5055   1.383   5.542   2.412 -1.0573 -0.9422  1.1565
 1697TIP3    H2 5056   1.442   5.564   2.550 -0.0011  0.6215  0.4806
 1698TIP3   OH2 5057   0.663   2.157   5.283  0.6705 -0.4412  0.5008
 1698TIP3    H1 5058   0.728   2.086   5.287  0.3432 -0.7204  0.9719
 1698TIP3    H2 5059   0.614   2.140   5.203 -0.3661 -1.6096  1.3486
 1699TIP3   OH2 5060   5.268   6.199   4.566  0.9168  0.1961  0.0755
 1699TIP3    H1 5061   5.202   6.131   4.582  1.0497 -0.0732 -0.4977
 1699TIP3    H2 5062   5.313   6.170   4.486  1.5844  0.4904  0.3424
 1700TIP3   OH2 5063   4.474   0.664   2.816 -0.3421  0.3191 -0.2551
 1700TIP3    H1 5064   4.419   0.639   2.743 -0.7324  2.6521 -0.8512
 1700TIP3    H2 5065   4.413   0.691   2.885  0.0244 -1.4653  0.8442
 1701TIP3   OH2 5066   3.985   0.431   4.823  0.3459  0.2125 -0.0894
 1701TIP3    H1 5067   3.944   0.502   4.873  2.3057  0.3551  1.4388
 1701TIP3    H2 5068   3.973   0.353   4.878  0.7538 -0.0474 -0.3632
 1702TIP3   OH2 5069   3.248   4.392   4.424  0.5939  0.0654 -0.3451
 1702TIP3    H1 5070   3.203   4.427   4.347  1.1063 -0.6434 -0.9778
 1702TIP3    H2 5071   3.231   4.457   4.492  0.1175  0.7004 -1.0423
 1703TIP3   OH2 5072   0.246   0.191   0.389 -0.3030  0.0352 -1.0297
 1703TIP3    H1 5073   0.175   0.203   0.326 -1.1182  0.4242 -0.0688
 1703TIP3    H2 5074   0.325   0.189   0.336 -0.9904  0.1155 -2.0838
 1704TIP3   OH2 5075   3.742   5.430   3.346  0.8341  0.1168  0.3602
 1704TIP3    H1 5076   3.682   5.404   3.416  0.1483 -1.6494 -0.8174
 1704TIP3    H2 5077   3.687   5.440   3.269  1.7635  0.5542 -0.2712
 1705TIP3   OH2 5078   5.339   1.782   4.216 -0.4014 -0.3317 -0.2560
 1705TIP3    H1 5079   5.280   1.838   4.166  1.8057  1.5616 -0.9354
 1705TIP3    H2 5080   5.294   1.768   4.300 -1.4763  1.6788 -0.4324
 1706TIP3   OH2 5081   0.095   1.850   4.742  0.0157 -0.3819 -0.2979
 1706TIP3    H1 5082   0.166   1.866   4.805 -0.6726 -0.0459  0.4133
 1706TIP3    H2 5083   0.026   1.810   4.794 -1.4791  2.0307 -0.2887
 1707TIP3   OH2 5084   2.625   2.000   2.313 -0.3168  0.7605 -0.2019
 1707TIP3    H1 5085   2.576   2.082   2.318  0.2435  1.3357 -2.8305
 1707TIP3    H2 5086   2.581   1.950   2.244  0.4813 -0.3680  0.0808
 1708TIP3   OH2 5087   6.475   6.207   5.188 -0.0367 -0.0500 -0.5023
 1708TIP3    H1 5088   6.408   6.269   5.160  1.1681  1.8747  0.6249
 1708TIP3    H2 5089   6.548   6.222   5.129  0.3579 -0.1970 -0.0590
 1709TIP3   OH2 5090   0.203   2.939   1.336 -0.4848  0.0818 -0.1382
 1709TIP3    H1 5091   0.139   2.945   1.407 -0.7237 -1.0003 -0.2368
 1709TIP3    H2 5092   0.184   3.014   1.280  0.2050  1.4044  1.3146
 1710TIP3   OH2 5093   3.614   0.243   1.753 -0.4068  0.0807  0.5716
 1710TIP3    H1 5094   3.660   0.305   1.809 -1.2784  1.0320  0.2690
 1710TIP3    H2 5095   3.672   0.232   1.677 -0.6381  1.2714  0.1881
 1711TIP3   OH2 5096   1.343   4.923   1.451 -0.6861  0.9205 -0.0508
 1711TIP3    H1 5097   1.419   4.904   1.505  0.0418  0.7274 -1.1031
 1711TIP3    H2 5098   1.332   5.018   1.457 -0.4640  0.9282  0.2418
 1712TIP3   OH2 5099   2.617   3.612   3.211 -0.7054 -0.0175  0.1812
 1712TIP3    H1 5100   2.614   3.608   3.115 -0.0758 -0.9381  0.1911
 1712TIP3    H2 5101   2.538   3.565   3.239 -0.8721  0.2218  0.1176
 1713TIP3   OH2 5102   4.977   0.725   5.241 -0.1725 -0.0840 -0.2236
 1713TIP3    H1 5103   4.903   0.689   5.290 -0.6960  0.1080 -0.8601
 1713TIP3    H2 5104   5.016   0.649   5.197 -0.5535 -0.0503 -0.6209
 1714TIP3   OH2 5105   2.318   2.075   3.476 -0.1177  0.3803 -0.1037
 1714TIP3    H1 5106   2.409   2.070   3.446  0.3476  0.0322  1.2827
 1714TIP3    H2 5107   2.318   2.029   3.560 -1.2023  1.8819  0.7665
 1715TIP3   OH2 5108   2.319   0.986   0.851 -0.3084 -0.1417  0.8544
 1715TIP3    H1 5109   2.410   0.975   0.823 -0.4103 -1.3314  0.9534
 1715TIP3    H2 5110   2.273   0.910   0.814 -1.5123  1.0701 -0.2383
 1716TIP3   OH2 5111   4.392   6.322   1.713  0.6223 -0.1081 -0.0461
 1716TIP3    H1 5112   4.356   6.368   1.788 -1.1009  1.1749 -1.5880
 1716TIP3    H2 5113   4.447   6.387   1.669  2.0549 -1.0074  0.3371
 1717TIP3   OH2 5114   4.579   1.757   4.950  0.4724 -0.3336 -0.0022
 1717TIP3    H1 5115   4.651   1.819   4.968  0.1224 -0.0014  0.2788
 1717TIP3    H2 5116   4.607   1.676   4.992  1.3804 -0.6739 -1.1823
 1718TIP3   OH2 5117   2.394   0.892   1.566 -0.1235 -0.5783  0.2452
 1718TIP3    H1 5118   2.490   0.893   1.565 -0.0516  1.3969  2.1091
 1718TIP3    H2 5119   2.369   0.975   1.607 -2.6650 -0.9174 -0.4230
 1719TIP3   OH2 5120   3.810   2.104   4.206 -0.7137 -0.2277  0.0939
 1719TIP3    H1 5121   3.901   2.109   4.234 -0.8138  0.0368  0.3873
 1719TIP3    H2 5122   3.799   2.015   4.172 -0.2353 -0.1225 -0.3416
 1720TIP3   OH2 5123   3.574   0.380   5.882 -0.7050 -0.2847 -0.0993
 1720TIP3    H1 5124   3.529   0.445   5.828 -1.3201 -1.1364 -0.6282
 1720TIP3    H2 5125   3.660   0.371   5.843 -0.2994  0.8273  0.4890
 1721TIP3   OH2 5126   6.547   3.081   3.771  0.3756 -0.1132  0.0277
 1721TIP3    H1 5127   6.576   3.128   3.693 -0.1108  1.2728  0.6488
 1721TIP3    H2 5128   6.458   3.051   3.750  0.2092  0.3399  0.0752
 1722TIP3   OH2 5129   4.947   6.389   1.661  0.0649 -0.1169  0.1599
 1722TIP3    H1 5130   4.967   6.478   1.690  0.1597 -0.4220  1.0671
 1722TIP3    H2 5131   5.013   6.334   1.704 -0.1323 -0.6505 -0.2062
 1723TIP3   OH2 5132   1.200   5.833   2.131  0.0658  0.1156 -0.1743
 1723TIP3    H1 5133   1.238   5.779   2.060 -0.9768  0.4674 -1.0255
 1723TIP3    H2 5134   1.162   5.908   2.086 -2.5939 -0.7387  0.4961
 1724TIP3   OH2 5135   4.072   3.651   5.302 -0.0321 -0.8337  0.0940
 1724TIP3    H1 5136   4.149   3.694   5.339 -0.2633  1.1232 -1.5079
 1724TIP3    H2 5137   3.999   3.710   5.323 -0.2094  0.2366 -3.0596
 1725TIP3   OH2 5138   3.202   5.564   3.657 -0.2241  0.1020 -0.3765
 1725TIP3    H1 5139   3.210   5.657   3.680 -0.8578  0.4595 -1.5125
 1725TIP3    H2 5140   3.269   5.521   3.710 -0.2225  1.1436  0.5149
 1726TIP3   OH2 5141   3.954   0.483   4.450  0.5418  0.0345 -0.3637
 1726TIP3    H1 5142   3.936   0.576   4.464 -0.7233 -0.0749 -1.1070
 1726TIP3    H2 5143   3.870   0.440   4.463  0.8334 -0.8543 -1.2602
 1727TIP3   OH2 5144   5.149   1.476   3.197 -0.4442 -0.1362 -0.3864
 1727TIP3    H1 5145   5.189   1.446   3.279 -0.8780 -1.9877 -0.8138
 1727TIP3    H2 5146   5.196   1.557   3.177 -1.4980  1.3374  2.5505
 1728TIP3   OH2 5147   6.646   0.283   1.204 -0.2960 -0.1977 -0.1796
 1728TIP3    H1 5148   6.730   0.242   1.182 -0.0931  0.6089 -0.9463
 1728TIP3    H2 5149   6.670   0.356   1.261 -0.5197 -0.2273 -0.0491
 1729TIP3   OH2 5150   1.950   3.798   5.426  0.0907  0.5459 -0.6792
 1729TIP3    H1 5151   2.011   3.862   5.390  1.6113  0.9147  2.2067
 1729TIP3    H2 5152   1.933   3.829   5.515 -2.4958 -0.8514 -0.6147
 1730TIP3   OH2 5153   2.378   3.518   1.670 -0.3083 -0.5062  0.0772
 1730TIP3    H1 5154   2.464   3.559   1.677  0.3994 -1.8366 -0.2898
 1730TIP3    H2 5155   2.349   3.538   1.581 -1.0077  1.0646  0.6335
 1731TIP3   OH2 5156   5.394   1.661   0.524 -0.7978  0.1881 -0.2505
 1731TIP3    H1 5157   5.444   1.580   0.535 -1.8995 -0.8060 -2.0527
 1731TIP3    H2 5158   5.404   1.707   0.607 -0.2415 -1.8605  0.8819
 1732TIP3   OH2 5159   4.196   2.003   2.055 -0.6097  0.5770  0.4859
 1732TIP3    H1 5160   4.138   2.074   2.028  0.1620  0.7470 -0.8486
 1732TIP3    H2 5161   4.185   1.936   1.987  1.9315  1.3118 -0.8047
 1733TIP3   OH2 5162   3.586   3.479   4.820  0.3377 -0.2232 -0.4593
 1733TIP3    H1 5163   3.651   3.418   4.783 -0.2553 -0.6470 -0.8268
 1733TIP3    H2 5164   3.588   3.462   4.914  0.1480 -0.8611 -0.5613
 1734TIP3   OH2 5165   2.489   4.155   2.527 -0.4359  0.6227 -0.2699
 1734TIP3    H1 5166   2.424   4.187   2.589 -1.2501 -1.8380  0.2443
 1734TIP3    H2 5167   2.569   4.203   2.550 -1.6615  2.6517  0.0142
 1735TIP3   OH2 5168   4.822   5.744   4.860 -0.2096  0.1284 -0.6823
 1735TIP3    H1 5169   4.764   5.808   4.901 -1.7882 -1.1268 -0.8585
 1735TIP3    H2 5170   4.827   5.772   4.769  1.2285  1.4457 -0.2451
 1736TIP3   OH2 5171   5.164   5.251   1.482 -0.0769 -0.4259  0.0177
 1736TIP3    H1 5172   5.173   5.250   1.387 -1.1273  2.4962 -0.2088
 1736TIP3    H2 5173   5.073   5.226   1.498  0.8995 -4.3511  0.6263
 1737TIP3   OH2 5174   6.404   0.592   4.226  0.0315  0.1707  0.0208
 1737TIP3    H1 5175   6.391   0.604   4.132 -0.3207  0.3571  0.0922
 1737TIP3    H2 5176   6.334   0.534   4.253  0.0370  0.2453  0.1968
 1738TIP3   OH2 5177   5.193   1.711   0.294  0.3087 -0.6541 -0.1365
 1738TIP3    H1 5178   5.139   1.634   0.275 -1.9400  0.6787  0.4874
 1738TIP3    H2 5179   5.251   1.683   0.365  0.2605 -2.0427 -0.6138
 1739TIP3   OH2 5180   4.529   4.157   5.690  0.2091 -0.2103 -0.0690
 1739TIP3    H1 5181   4.476   4.091   5.736 -0.2738 -0.8433 -1.4594
 1739TIP3    H2 5182   4.495   4.241   5.721  0.1818 -0.6119  1.0156
 1740TIP3   OH2 5183   4.160   2.013   2.745  0.8061 -0.0408 -0.8341
 1740TIP3    H1 5184   4.076   1.983   2.780  1.7238 -0.5996  1.0026
 1740TIP3    H2 5185   4.137   2.084   2.685 -0.9286  0.3936  0.2666
 1741TIP3   OH2 5186   3.113   3.466   0.381  0.7382 -0.1119 -0.0261
 1741TIP3    H1 5187   3.161   3.449   0.462  1.9921 -0.4849 -0.8106
 1741TIP3    H2 5188   3.060   3.388   0.368 -1.5036  1.0124  1.7557
 1742TIP3   OH2 5189   1.956   5.602   0.939 -0.2937 -0.0124  0.5886
 1742TIP3    H1 5190   1.999   5.676   0.982  1.3373 -0.0007 -0.9385
 1742TIP3    H2 5191   1.895   5.643   0.878  1.0952  0.1615 -0.7484
 1743TIP3   OH2 5192   3.104   2.583   3.426  0.5254 -0.0084  0.2842
 1743TIP3    H1 5193   3.081   2.517   3.360  0.6766 -0.6768  0.8813
 1743TIP3    H2 5194   3.021   2.620   3.454  0.2556 -1.3461  1.3499
 1744TIP3   OH2 5195   0.528   0.185   1.989  0.6041 -0.1846 -0.1117
 1744TIP3    H1 5196   0.606   0.157   2.037  1.4546  0.5529 -1.0025
 1744TIP3    H2 5197   0.549   0.164   1.897 -0.2271  0.0769 -0.3659
 1745TIP3   OH2 5198   2.102   1.934   1.740  0.1881  0.5618  0.2319
 1745TIP3    H1 5199   2.182   1.979   1.714  1.0639 -0.9499  0.2284
 1745TIP3    H2 5200   2.056   1.918   1.658 -0.7849  2.5659  0.3336
 1746TIP3   OH2 5201   1.624   1.121   2.557  0.3597  0.0411  0.6243
 1746TIP3    H1 5202   1.578   1.205   2.561  1.2705  0.5286  1.3580
 1746TIP3    H2 5203   1.565   1.064   2.508 -0.0975  1.2310 -0.2810
 1747TIP3   OH2 5204   6.467   1.828   5.255  0.4117  0.5441  0.5216
 1747TIP3    H1 5205   6.527   1.761   5.287 -1.4476 -0.0833  3.0728
 1747TIP3    H2 5206   6.414   1.784   5.188 -0.2937 -0.3825  1.6471
 1748TIP3   OH2 5207   5.951   1.377   0.272 -0.5117 -0.1082  0.2291
 1748TIP3    H1 5208   5.887   1.312   0.301  0.5025 -0.3504  2.0730
 1748TIP3    H2 5209   5.901   1.459   0.268 -1.3323 -0.6109 -0.1266
 1749TIP3   OH2 5210   0.544   0.795   3.524 -0.0770  0.3484  0.6837
 1749TIP3    H1 5211   0.450   0.792   3.509  0.0788  1.7351 -0.7923
 1749TIP3    H2 5212   0.581   0.825   3.441  1.6098  0.4697  1.4360
 1750TIP3   OH2 5213   0.346   5.022   3.280 -0.2641 -0.2214 -0.4457
 1750TIP3    H1 5214   0.430   4.989   3.248  0.4068  1.4349 -0.4602
 1750TIP3    H2 5215   0.357   5.027   3.375 -0.5620 -0.5415 -0.3907
 1751TIP3   OH2 5216   0.343   5.239   5.385  0.3810 -0.0197  0.1530
 1751TIP3    H1 5217   0.399   5.311   5.417  1.9762 -0.3989 -1.5809
 1751TIP3    H2 5218   0.264   5.283   5.355  1.3179  1.0646 -0.8614
 1752TIP3   OH2 5219   2.183   6.139   0.123 -0.3756  0.0111  0.4793
 1752TIP3    H1 5220   2.241   6.212   0.102  0.8143 -1.0308  0.0049
 1752TIP3    H2 5221   2.241   6.074   0.164 -1.1596 -1.1509 -0.2062
 1753TIP3   OH2 5222   4.661   3.544   0.091  0.8437 -0.1477 -0.1542
 1753TIP3    H1 5223   4.660   3.637   0.114  1.1668 -0.4330  1.0943
 1753TIP3    H2 5224   4.670   3.499   0.175  0.7816 -1.3068 -0.7531
 1754TIP3   OH2 5225   6.074   4.202   5.204  0.6724 -0.2397 -0.0095
 1754TIP3    H1 5226   6.153   4.152   5.183  0.5234 -1.1889  1.5262
 1754TIP3    H2 5227   6.056   4.252   5.125  2.0739 -0.9805 -0.8465
 1755TIP3   OH2 5228   2.707   0.756   3.344  0.0287 -0.2069  0.0616
 1755TIP3    H1 5229   2.800   0.757   3.367  0.0569 -2.5057  0.2139
 1755TIP3    H2 5230   2.666   0.812   3.410  1.0453 -0.9373  1.3717
 1756TIP3   OH2 5231   6.179   3.451   3.267  0.2013  0.7088 -0.0476
 1756TIP3    H1 5232   6.132   3.432   3.186 -0.6884  0.6882  0.4697
 1756TIP3    H2 5233   6.161   3.376   3.323  1.9011  0.0646 -0.2778
 1757TIP3   OH2 5234   4.120   0.901   1.085  0.4210 -0.0636 -0.2027
 1757TIP3    H1 5235   4.191   0.857   1.037  0.7197 -1.1433  1.1577
 1757TIP3    H2 5236   4.072   0.829   1.127 -1.2000  0.6871 -0.6756
 1758TIP3   OH2 5237   0.107   5.277   5.209  0.6745 -0.0989 -0.1499
 1758TIP3    H1 5238   0.101   5.259   5.115  0.9829 -0.9380 -0.0202
 1758TIP3    H2 5239   0.053   5.208   5.249  0.8901 -0.0018  0.3103
 1759TIP3   OH2 5240   0.259   5.359   1.902 -0.1532 -0.2556 -0.3937
 1759TIP3    H1 5241   0.332   5.328   1.848  0.5905 -1.5202  1.2429
 1759TIP3    H2 5242   0.277   5.452   1.917  0.5461 -0.3114 -0.8718
 1760TIP3   OH2 5243   2.778   4.555   4.878 -0.0248  0.0138 -0.0234
 1760TIP3    H1 5244   2.805   4.466   4.855 -2.0648 -0.5080 -0.6005
 1760TIP3    H2 5245   2.826   4.611   4.816  0.7936 -0.7079 -0.0723
 1761TIP3   OH2 5246   0.439   1.678   3.239  0.1487 -0.2833 -0.4243
 1761TIP3    H1 5247   0.379   1.700   3.310  1.0249  0.7485  0.0307
 1761TIP3    H2 5248   0.520   1.722   3.262  0.8254 -0.9518 -1.4562
 1762TIP3   OH2 5249   5.982   2.666   2.220  0.2443 -0.2860 -0.3363
 1762TIP3    H1 5250   5.947   2.711   2.143 -0.4528  2.4261  1.3934
 1762TIP3    H2 5251   5.905   2.631   2.265  0.6552 -1.9486 -0.8792
 1763TIP3   OH2 5252   0.460   3.253   1.800 -0.3771  0.2474  0.4167
 1763TIP3    H1 5253   0.478   3.160   1.812  2.1694  0.6622  0.5366
 1763TIP3    H2 5254   0.439   3.262   1.707  0.0492 -0.3631  0.2569
 1764TIP3   OH2 5255   2.599   6.373   3.337  0.5067  0.1936  0.5093
 1764TIP3    H1 5256   2.534   6.427   3.382 -0.1878 -0.3346  0.1555
 1764TIP3    H2 5257   2.645   6.327   3.407  0.1379  0.1687  0.7355
 1765TIP3   OH2 5258   4.586   3.382   3.507  0.1480 -0.3518  0.2512
 1765TIP3    H1 5259   4.647   3.309   3.501  0.1791 -0.3627  0.6784
 1765TIP3    H2 5260   4.500   3.344   3.490  0.1794 -0.4620  0.3417
 1766TIP3   OH2 5261   4.032   1.335   1.307  0.7204  0.2947 -0.1788
 1766TIP3    H1 5262   3.955   1.383   1.336  0.1979 -1.8935  2.4374
 1766TIP3    H2 5263   4.101   1.357   1.370  0.5733 -1.9095  0.8730
 1767TIP3   OH2 5264   6.901   6.749   2.233 -0.7309  0.1769  0.1931
 1767TIP3    H1 5265   6.852   6.668   2.240 -2.0901  1.0424  1.2305
 1767TIP3    H2 5266   6.967   6.743   2.303 -0.9596  0.0515  0.3976
 1768TIP3   OH2 5267   4.538   5.133   3.873  0.2892  0.3409  0.8222
 1768TIP3    H1 5268   4.571   5.122   3.784  0.5913  0.3374  0.9353
 1768TIP3    H2 5269   4.448   5.164   3.861  0.4710  0.7643  0.5184
 1769TIP3   OH2 5270   5.487   1.184   4.555  0.4911 -0.5536 -0.3766
 1769TIP3    H1 5271   5.457   1.113   4.612 -0.1390 -0.3059 -0.3985
 1769TIP3    H2 5272   5.454   1.264   4.597  2.4644 -0.1148  0.4963
 1770TIP3   OH2 5273   6.966   3.709   1.630 -0.0729 -0.3568 -0.1550
 1770TIP3    H1 5274   6.959   3.752   1.715  1.9225  1.0566 -0.6501
 1770TIP3    H2 5275   6.945   3.777   1.566  1.9274 -0.3930 -0.9059
 1771TIP3   OH2 5276   0.738   3.646   1.088  0.7910  0.5161  0.0248
 1771TIP3    H1 5277   0.773   3.590   1.019  1.0356 -2.0591  2.0726
 1771TIP3    H2 5278   0.804   3.714   1.099  1.0823  0.5853 -1.7481
 1772TIP3   OH2 5279   4.648   1.019   4.015 -0.0893  0.1087 -0.3775
 1772TIP3    H1 5280   4.685   1.016   3.926 -0.6054  1.6585 -0.6824
 1772TIP3    H2 5281   4.597   0.938   4.023  1.7025 -1.1042 -0.6715
 1773TIP3   OH2 5282   2.290   3.019   5.560 -0.1623 -0.1652 -0.5106
 1773TIP3    H1 5283   2.283   3.005   5.466 -2.2669 -2.7057 -0.0733
 1773TIP3    H2 5284   2.373   2.978   5.584 -0.3494 -0.8823 -1.0590
 1774TIP3   OH2 5285   5.844   5.305   3.357  0.0451 -0.0501 -0.2418
 1774TIP3    H1 5286   5.899   5.293   3.280  2.1014 -1.2305  1.3316
 1774TIP3    H2 5287   5.763   5.257   3.336 -0.4097  1.5190 -2.4869
 1775TIP3   OH2 5288   3.773   1.038   0.643  1.0971  0.2632  0.5850
 1775TIP3    H1 5289   3.779   1.131   0.622  0.0240  0.5703  1.5344
 1775TIP3    H2 5290   3.757   0.995   0.559  0.7388  1.0309  0.2557
 1776TIP3   OH2 5291   4.159   6.062   0.655 -0.0511 -0.6094  0.1813
 1776TIP3    H1 5292   4.158   6.100   0.743  2.3591 -1.9988  0.9085
 1776TIP3    H2 5293   4.223   5.991   0.661 -0.8555 -1.6341 -2.3624
 1777TIP3   OH2 5294   5.482   0.106   4.883 -0.1910  0.8515  0.8486
 1777TIP3    H1 5295   5.400   0.056   4.893  0.4224  0.0403  2.1329
 1777TIP3    H2 5296   5.551   0.043   4.906  1.0255  0.8166 -2.3364
 1778TIP3   OH2 5297   0.313   1.779   2.607 -0.3956  0.0420 -0.4395
 1778TIP3    H1 5298   0.400   1.817   2.617  0.1348  0.0198 -3.9791
 1778TIP3    H2 5299   0.327   1.696   2.561 -1.9158 -2.7854  3.5775
 1779TIP3   OH2 5300   0.315   5.666   0.120  0.6362  0.1180  0.1975
 1779TIP3    H1 5301   0.236   5.616   0.098  0.2360  0.8714 -0.1225
 1779TIP3    H2 5302   0.285   5.731   0.183  0.7933  1.0133 -0.6238
 1780TIP3   OH2 5303   1.297   2.093   2.398 -0.4546 -0.1964 -0.5623
 1780TIP3    H1 5304   1.289   2.143   2.318 -0.0901 -0.2239 -0.6164
 1780TIP3    H2 5305   1.301   2.002   2.369 -1.0919 -0.2636 -0.4661
 1781TIP3   OH2 5306   5.898   1.336   3.596  0.0197  0.0517 -0.8202
 1781TIP3    H1 5307   5.836   1.408   3.583  1.1278  1.4062  1.0536
 1781TIP3    H2 5308   5.928   1.314   3.507 -1.0418  1.2477 -1.5034
 1782TIP3   OH2 5309   6.374   1.063   4.856  0.0180 -0.2418 -0.2667
 1782TIP3    H1 5310   6.409   0.995   4.799 -1.8362 -1.5971  0.1229
 1782TIP3    H2 5311   6.404   1.145   4.816  1.8236 -1.2361 -1.0707
 1783TIP3   OH2 5312   3.427   3.657   0.470 -0.3301  0.3691 -0.1456
 1783TIP3    H1 5313   3.420   3.626   0.560  1.0281  0.3603 -0.0246
 1783TIP3    H2 5314   3.404   3.581   0.417  2.1996 -0.7211  0.1691
 1784TIP3   OH2 5315   2.240   4.277   2.323  0.6279  0.0388 -0.0279
 1784TIP3    H1 5316   2.328   4.252   2.349  0.6183  0.1733  0.1436
 1784TIP3    H2 5317   2.243   4.283   2.228  0.8210  0.1007 -0.0188
 1785TIP3   OH2 5318   0.711   3.263   5.195  0.6589  0.9332  0.0570
 1785TIP3    H1 5319   0.741   3.311   5.117  0.3660  0.1578 -0.5458
 1785TIP3    H2 5320   0.781   3.199   5.212 -0.2443 -0.3739 -0.9009
 1786TIP3   OH2 5321   0.212   6.257   1.877 -0.4125 -0.0309  0.3098
 1786TIP3    H1 5322   0.247   6.344   1.862 -0.5942 -0.1853 -1.1672
 1786TIP3    H2 5323   0.141   6.269   1.940 -1.5616  1.1671 -1.1422
 1787TIP3   OH2 5324   6.309   5.484   1.626  0.1648 -0.1258 -0.3124
 1787TIP3    H1 5325   6.262   5.514   1.703  0.5497  1.3579 -0.6161
 1787TIP3    H2 5326   6.243   5.446   1.569 -0.3690  0.1811  0.1007
 1788TIP3   OH2 5327   1.892   1.441   3.179  0.2938 -0.1145 -0.1018
 1788TIP3    H1 5328   1.945   1.499   3.233 -0.8834  0.4671  0.4426
 1788TIP3    H2 5329   1.856   1.497   3.110  0.2333 -0.4707 -0.3674
 1789TIP3   OH2 5330   7.015   1.585   5.394  0.1391  0.3450 -0.9137
 1789TIP3    H1 5331   6.996   1.497   5.426 -1.8574  1.0224 -0.0390
 1789TIP3    H2 5332   7.104   1.603   5.424  0.2078 -1.0069 -0.2393
 1790TIP3   OH2 5333   4.688   5.828   4.262  0.6786 -0.0455  0.1006
 1790TIP3    H1 5334   4.678   5.734   4.247  1.7561 -0.1894  0.1756
 1790TIP3    H2 5335   4.673   5.868   4.177 -0.1923 -0.2385  0.1522
 1791TIP3   OH2 5336   2.538   2.829   2.005  0.3782  0.0076 -0.3436
 1791TIP3    H1 5337   2.548   2.869   1.919  0.9154  1.2442  0.2844
 1791TIP3    H2 5338   2.507   2.740   1.985 -1.8558  0.9869 -1.7369
 1792TIP3   OH2 5339   2.627   6.185   2.400  0.0549  0.7112 -0.1174
 1792TIP3    H1 5340   2.680   6.238   2.459 -0.9153  1.1356  0.3866
 1792TIP3    H2 5341   2.594   6.247   2.335  0.9104  0.2904 -0.9841
 1793TIP3   OH2 5342   3.797   5.869   2.381  0.4629  0.7281  0.4590
 1793TIP3    H1 5343   3.813   5.775   2.372 -1.5528  0.3839 -0.0428
 1793TIP3    H2 5344   3.867   5.910   2.331  0.3670 -0.5787 -0.8120
 1794TIP3   OH2 5345   2.205   5.044   3.518  0.5038 -0.4687  0.5465
 1794TIP3    H1 5346   2.140   5.109   3.491  0.0932  0.5063  3.5181
 1794TIP3    H2 5347   2.174   4.962   3.480 -2.6902 -0.0992  2.0494
 1795TIP3   OH2 5348   6.783   6.520   2.759  0.4183 -0.0511  0.5290
 1795TIP3    H1 5349   6.860   6.572   2.782  0.2768 -0.0230  0.9412
 1795TIP3    H2 5350   6.813   6.429   2.765  0.6669 -0.0293 -0.1946
 1796TIP3   OH2 5351   2.354   3.177   3.707 -0.0519  0.2006 -0.3954
 1796TIP3    H1 5352   2.423   3.221   3.658  2.3594 -2.1537  0.6833
 1796TIP3    H2 5353   2.389   3.168   3.796 -2.5378  0.5440  0.7017
 1797TIP3   OH2 5354   4.529   4.984   0.285  0.2860  0.2931  0.6077
 1797TIP3    H1 5355   4.572   5.066   0.261 -0.5223  0.7990  0.8598
 1797TIP3    H2 5356   4.473   5.007   0.359 -0.2676 -0.3921  0.4109
 1798TIP3   OH2 5357   1.389   1.374   3.022  0.4811  0.0298  0.6556
 1798TIP3    H1 5358   1.418   1.448   3.075  0.1380  1.4888 -1.1120
 1798TIP3    H2 5359   1.463   1.354   2.965 -0.1370  0.4290 -0.3228
 1799TIP3   OH2 5360   1.657   1.300   3.257  0.4811  0.4097  0.4303
 1799TIP3    H1 5361   1.605   1.354   3.197  0.9960 -1.8204 -2.2206
 1799TIP3    H2 5362   1.746   1.335   3.250  0.7482 -0.4615 -1.0299
 1800TIP3   OH2 5363   6.247   0.637   0.552 -0.1625  0.2961  0.0668
 1800TIP3    H1 5364   6.232   0.558   0.604 -0.5602  0.9549  0.9829
 1800TIP3    H2 5365   6.304   0.609   0.481  2.3612 -0.1920  2.1370
 1801TIP3   OH2 5366   0.358   1.064   4.016  0.5322  0.3168  0.0370
 1801TIP3    H1 5367   0.307   0.984   4.008 -1.9753  1.7306  0.6984
 1801TIP3    H2 5368   0.445   1.035   4.043 -0.5338 -2.1254  1.1362
 1802TIP3   OH2 5369   6.832   2.190   1.093 -0.4317  0.1793  0.3295
 1802TIP3    H1 5370   6.859   2.123   1.156 -0.8522  0.0075  0.3274
 1802TIP3    H2 5371   6.778   2.250   1.143 -0.3168  0.3412  0.2577
 1803TIP3   OH2 5372   1.699   4.793   1.346 -0.1561  0.2693 -0.2584
 1803TIP3    H1 5373   1.737   4.859   1.288  0.7075 -0.7466 -0.9046
 1803TIP3    H2 5374   1.676   4.841   1.425 -0.3422  1.4930 -1.0274
 1804TIP3   OH2 5375   3.940   4.894   2.953  0.1331 -0.1428  0.5874
 1804TIP3    H1 5376   4.022   4.847   2.960 -0.4428 -1.2952 -0.0925
 1804TIP3    H2 5377   3.959   4.968   2.895  0.3961 -1.1095 -0.5830
 1805TIP3   OH2 5378   2.190   4.404   0.454 -0.0502 -0.1694 -0.2606
 1805TIP3    H1 5379   2.240   4.480   0.484 -0.4378  0.2509 -0.6470
 1805TIP3    H2 5380   2.188   4.345   0.529 -1.4234  1.0765  0.7631
 1806TIP3   OH2 5381   2.418   1.017   0.512  0.0749  0.0953  0.4032
 1806TIP3    H1 5382   2.492   1.039   0.568  0.6711  0.5688 -0.5344
 1806TIP3    H2 5383   2.442   0.934   0.471  0.2557  0.4237 -0.1684
 1807TIP3   OH2 5384   0.817   6.140   1.818  0.0010 -0.2477  0.0283
 1807TIP3    H1 5385   0.765   6.219   1.801  0.7934  0.3886  0.4758
 1807TIP3    H2 5386   0.787   6.110   1.904 -1.6454 -1.5493 -0.9566
 1808TIP3   OH2 5387   1.634   1.919   2.627  0.3429  0.2972  0.9643
 1808TIP3    H1 5388   1.637   1.998   2.680  1.3732  1.0485 -0.1509
 1808TIP3    H2 5389   1.625   1.848   2.691 -2.2932  1.3600  1.8999
 1809TIP3   OH2 5390   0.989   1.286   4.442 -0.4741  0.5033 -0.2670
 1809TIP3    H1 5391   1.033   1.281   4.357  0.0013  1.1201 -0.0653
 1809TIP3    H2 5392   1.012   1.372   4.477  0.5790 -0.3055  1.1574
 1810TIP3   OH2 5393   2.913   3.204   1.418  0.0580 -0.0086 -0.2812
 1810TIP3    H1 5394   2.824   3.231   1.441  0.4267  1.1921 -0.1607
 1810TIP3    H2 5395   2.943   3.272   1.357  0.4418 -1.0933 -1.3490
 1811TIP3   OH2 5396   5.807   3.681   1.443 -0.6094  0.6241 -0.0543
 1811TIP3    H1 5397   5.885   3.686   1.387 -0.7361  0.5219 -0.2440
 1811TIP3    H2 5398   5.830   3.618   1.511 -1.4466 -1.5222 -1.6331
 1812TIP3   OH2 5399   6.364   6.227   3.321  0.3380 -0.2893 -0.5869
 1812TIP3    H1 5400   6.306   6.152   3.336  0.6271 -0.4141 -0.0881
 1812TIP3    H2 5401   6.368   6.271   3.405 -0.4077  0.7065 -1.0552
 1813TIP3   OH2 5402   4.908   0.771   4.613  0.4798 -0.2094 -0.6184
 1813TIP3    H1 5403   5.003   0.764   4.608  0.3498 -3.8719 -1.1036
 1813TIP3    H2 5404   4.881   0.790   4.523  0.7124  0.1777 -0.6095
 1814TIP3   OH2 5405   2.066   4.820   3.467 -0.1023  0.3537 -0.1354
 1814TIP3    H1 5406   2.049   4.726   3.463  2.6438 -0.1605 -2.2188
 1814TIP3    H2 5407   1.979   4.859   3.480 -1.6322 -2.3504 -1.3656
 1815TIP3   OH2 5408   6.666   2.337   2.367  0.5594  0.3565 -0.2422
 1815TIP3    H1 5409   6.751   2.345   2.411  1.3514 -0.9732 -1.4334
 1815TIP3    H2 5410   6.687   2.339   2.274 -0.5157 -1.4514 -0.5824
 1816TIP3   OH2 5411   4.326   5.645   1.957 -0.4646  0.1773 -0.1742
 1816TIP3    H1 5412   4.341   5.573   1.896  1.6704  0.8931 -0.5917
 1816TIP3    H2 5413   4.307   5.721   1.902  1.5345  0.8413 -0.0275
 1817TIP3   OH2 5414   2.107   3.728   1.336  0.2073 -0.4521  0.3365
 1817TIP3    H1 5415   2.122   3.634   1.332  0.6622 -0.3662 -0.0135
 1817TIP3    H2 5416   2.018   3.737   1.372  0.2318 -1.0065  0.5358
 1818TIP3   OH2 5417   0.910   3.625   3.374 -0.0706  0.7380  0.1478
 1818TIP3    H1 5418   0.850   3.670   3.433 -0.0760  0.7681  0.1196
 1818TIP3    H2 5419   0.853   3.590   3.305  0.0187  1.3189 -0.2219
 1819TIP3   OH2 5420   6.944   5.925   2.245 -0.0509  0.5797 -0.2047
 1819TIP3    H1 5421   6.865   5.976   2.226 -0.0783  0.7420  0.3386
 1819TIP3    H2 5422   6.967   5.885   2.161 -0.4826  0.8501 -0.4569
 1820TIP3   OH2 5423   1.772   4.224   5.740  0.2332  0.1947  0.2733
 1820TIP3    H1 5424   1.686   4.202   5.778 -0.0482  0.5815 -0.1300
 1820TIP3    H2 5425   1.811   4.139   5.720 -0.8092  0.0308 -1.1842
 1821TIP3   OH2 5426   1.868   5.434   2.430 -0.2463 -1.0169  0.2844
 1821TIP3    H1 5427   1.928   5.387   2.372  1.6134 -0.6180  1.7522
 1821TIP3    H2 5428   1.804   5.474   2.372  1.1674 -1.1387 -1.4437
 1822TIP3   OH2 5429   4.006   3.450   3.093  0.2697 -0.0535  0.2084
 1822TIP3    H1 5430   3.931   3.507   3.111  0.8363  0.7101  0.1575
 1822TIP3    H2 5431   4.075   3.509   3.065  1.3450 -0.5887  1.6057
 1823TIP3   OH2 5432   7.129   2.485   2.156  0.2179 -0.1165 -0.0673
 1823TIP3    H1 5433   7.126   2.534   2.074  0.5987  1.6217  0.9031
 1823TIP3    H2 5434   7.176   2.542   2.217 -0.0052 -1.3700  1.3540
 1824TIP3   OH2 5435   1.913   6.004   1.617  0.3017  0.6173  0.4709
 1824TIP3    H1 5436   1.829   6.026   1.577  1.0870  1.6259 -0.6982
 1824TIP3    H2 5437   1.974   6.070   1.584  1.5483 -0.0499  1.3429
 1825TIP3   OH2 5438   0.574   0.047   4.339 -0.1030 -0.4442  0.8283
 1825TIP3    H1 5439   0.565  -0.048   4.343  0.4011 -0.6192 -1.1002
 1825TIP3    H2 5440   0.615   0.064   4.254 -1.1498  1.5600  0.6518
 1826TIP3   OH2 5441   4.416   4.704   4.143  0.3196  0.0802 -0.0609
 1826TIP3    H1 5442   4.487   4.755   4.180  1.0818 -0.0489 -1.2999
 1826TIP3    H2 5443   4.437   4.613   4.165  0.8635 -0.0133 -0.9026
 1827TIP3   OH2 5444   6.668   5.331   5.145 -0.4501 -0.1712  0.8223
 1827TIP3    H1 5445   6.607   5.278   5.095  0.8233 -0.5480 -0.3938
 1827TIP3    H2 5446   6.733   5.268   5.178  1.4541  0.6362 -1.1917
 1828TIP3   OH2 5447   4.308   0.704   5.493 -0.7186 -0.0726  0.5346
 1828TIP3    H1 5448   4.249   0.753   5.435 -3.3869 -3.7354 -0.2038
 1828TIP3    H2 5449   4.265   0.709   5.579  0.1226  0.5702  0.9262
 1829TIP3   OH2 5450   6.430   0.248   2.440  0.0697 -0.0399 -0.8484
 1829TIP3    H1 5451   6.443   0.165   2.485 -1.4454 -0.1500 -0.5692
 1829TIP3    H2 5452   6.395   0.223   2.354 -2.9622  0.3169  0.1723
 1830TIP3   OH2 5453   3.948   4.143   4.143  0.6528 -0.6153  0.1296
 1830TIP3    H1 5454   3.921   4.187   4.224  0.5741  1.6393 -1.0480
 1830TIP3    H2 5455   4.044   4.137   4.151  0.6643 -0.2529  0.3450
 1831TIP3   OH2 5456   6.558   5.726   0.868 -0.1421  0.0937 -0.4009
 1831TIP3    H1 5457   6.575   5.739   0.961 -0.7070  0.2942 -0.3224
 1831TIP3    H2 5458   6.611   5.649   0.844 -0.1499 -0.0801  0.1286
 1832TIP3   OH2 5459   3.396   0.206   4.137 -0.2445  0.3371 -0.0090
 1832TIP3    H1 5460   3.453   0.176   4.065 -0.0339 -1.0637  0.7055
 1832TIP3    H2 5461   3.307   0.201   4.100 -0.0460  0.8736 -0.5784
 1833TIP3   OH2 5462   4.674   4.451   1.856 -0.3539 -0.3981  0.1097
 1833TIP3    H1 5463   4.600   4.427   1.801 -1.2888  1.6070  0.4068
 1833TIP3    H2 5464   4.645   4.529   1.903  0.9475 -1.1528  2.3362
 1834TIP3   OH2 5465   5.959   0.967   3.340  0.3518  0.3345 -0.4679
 1834TIP3    H1 5466   5.916   0.895   3.387  1.7417 -0.1688  0.0941
 1834TIP3    H2 5467   5.911   1.046   3.368  0.0107 -0.1655  0.3978
 1835TIP3   OH2 5468   4.150   2.867   2.298  0.0701 -0.3541  0.3450
 1835TIP3    H1 5469   4.218   2.801   2.310 -1.3590 -1.8802  0.3025
 1835TIP3    H2 5470   4.141   2.875   2.204 -0.2521 -0.6122  0.3555
 1836TIP3   OH2 5471   5.479   0.689   3.801 -0.0859 -0.1206 -0.1768
 1836TIP3    H1 5472   5.415   0.756   3.822  0.8539  0.7894 -0.1255
 1836TIP3    H2 5473   5.441   0.640   3.728 -1.2213 -0.1768  0.4411
 1837TIP3   OH2 5474   1.125   4.102   2.130 -0.6852  0.0481  0.1157
 1837TIP3    H1 5475   1.115   4.198   2.131 -1.5040 -0.0300 -0.0336
 1837TIP3    H2 5476   1.037   4.069   2.142 -0.2015 -0.7032  1.7873
 1838TIP3   OH2 5477   0.167   0.537   3.802 -0.4820 -0.1277 -0.4178
 1838TIP3    H1 5478   0.156   0.620   3.755  3.3778  1.0394  0.3624
 1838TIP3    H2 5479   0.202   0.477   3.737 -1.9200 -0.7334 -0.6477
 1839TIP3   OH2 5480   1.336   3.143   0.255  0.1819 -0.2375  0.1434
 1839TIP3    H1 5481   1.400   3.210   0.231 -1.2091  1.8753  1.8850
 1839TIP3    H2 5482   1.337   3.143   0.351 -1.0141 -1.5987  0.1890
 1840TIP3   OH2 5483   5.078   5.538   1.285 -0.7471 -0.0913  0.7366
 1840TIP3    H1 5484   5.141   5.549   1.356  1.8381 -0.8115 -1.2969
 1840TIP3    H2 5485   5.040   5.625   1.274  0.6184  0.6172  1.3861
 1841TIP3   OH2 5486   3.879   3.854   0.548 -0.4588  0.2583 -0.2427
 1841TIP3    H1 5487   3.881   3.950   0.558 -0.4686  0.2414 -0.0770
 1841TIP3    H2 5488   3.794   3.837   0.506  0.0426  0.4194 -1.3585
 1842TIP3   OH2 5489   5.577   2.335   0.881 -0.2220 -0.4952  0.0228
 1842TIP3    H1 5490   5.508   2.270   0.889 -1.0587  0.4802  1.2197
 1842TIP3    H2 5491   5.555   2.385   0.802  0.0466 -1.2222 -0.5173
 1843TIP3   OH2 5492   6.382   1.477   2.537 -0.3764  0.0156 -0.1833
 1843TIP3    H1 5493   6.321   1.499   2.607 -0.3251 -0.0601 -0.1153
 1843TIP3    H2 5494   6.368   1.384   2.521  1.4511 -0.5994  1.5192
 1844TIP3   OH2 5495   4.287   3.200   5.061 -0.2005 -0.6638 -0.4354
 1844TIP3    H1 5496   4.241   3.273   5.103  1.1456 -0.0274  0.0014
 1844TIP3    H2 5497   4.234   3.123   5.084  0.0479 -0.2448  1.8423
 1845TIP3   OH2 5498   3.243   0.487   3.291  0.3469 -0.8535 -0.4133
 1845TIP3    H1 5499   3.221   0.541   3.214 -0.9859 -1.7936 -0.7222
 1845TIP3    H2 5500   3.158   0.459   3.325  0.8720  0.2074  1.9224
 1846TIP3   OH2 5501   3.314   5.488   2.507 -0.2214  0.1432 -0.0922
 1846TIP3    H1 5502   3.290   5.446   2.424  1.9749  0.7049 -1.0812
 1846TIP3    H2 5503   3.270   5.573   2.504  0.7142  0.6265 -1.2587
 1847TIP3   OH2 5504   6.501   2.808   0.755  0.3999  0.0307  0.8707
 1847TIP3    H1 5505   6.589   2.839   0.732  0.2333  0.0000  0.1652
 1847TIP3    H2 5506   6.484   2.846   0.841  0.6004  1.0904  0.4599
 1848TIP3   OH2 5507   0.663   3.756   5.285  0.3397  0.2473  0.1350
 1848TIP3    H1 5508   0.597   3.707   5.237  1.5700 -0.7302 -0.6144
 1848TIP3    H2 5509   0.701   3.693   5.346  0.5652  0.8054  0.5848
 1849TIP3   OH2 5510   4.839   1.185   5.325  0.0425 -0.1877 -0.1260
 1849TIP3    H1 5511   4.923   1.182   5.370 -0.6494  0.0547  1.2301
 1849TIP3    H2 5512   4.791   1.257   5.368 -1.1842 -0.8919 -0.2562
 1850TIP3   OH2 5513   6.733   3.873   5.543 -0.4723 -0.0404 -0.0914
 1850TIP3    H1 5514   6.782   3.794   5.564  0.5392  0.8652  1.1745
 1850TIP3    H2 5515   6.643   3.855   5.570 -0.5199 -1.1759 -0.9719
 1851TIP3   OH2 5516   4.078   1.040   3.224  0.0866 -0.6111  0.4572
 1851TIP3    H1 5517   4.085   1.127   3.263  0.3942 -0.7801  0.7907
 1851TIP3    H2 5518   4.136   1.043   3.148 -0.0162 -0.4788  0.3843
 1852TIP3   OH2 5519   6.633   1.008   1.693  0.3440  0.3017  0.0475
 1852TIP3    H1 5520   6.652   1.035   1.603  1.6256  0.2612  0.2905
 1852TIP3    H2 5521   6.547   0.967   1.688  0.3340  0.4343 -1.1307
 1853TIP3   OH2 5522   2.884   4.665   4.148 -0.4038  0.2741 -0.4575
 1853TIP3    H1 5523   2.848   4.606   4.082  0.0617  2.2572 -2.6611
 1853TIP3    H2 5524   2.808   4.697   4.196 -0.7660 -1.1528 -0.0508
 1854TIP3   OH2 5525   3.124   3.712   0.777  0.2979  0.3701 -0.3003
 1854TIP3    H1 5526   3.166   3.669   0.852  1.9829  1.0363 -0.8259
 1854TIP3    H2 5527   3.124   3.805   0.799 -0.1511  0.4655 -0.6872
 1855TIP3   OH2 5528   0.015   4.822   4.388 -0.1362 -0.0347  1.0910
 1855TIP3    H1 5529   0.041   4.906   4.426 -2.6175  1.0145  0.6900
 1855TIP3    H2 5530   0.048   4.824   4.298  1.0704 -0.1431  1.5268
 1856TIP3   OH2 5531   2.349   1.248   5.729  0.4208 -0.4642 -0.2977
 1856TIP3    H1 5532   2.352   1.160   5.691  2.2427 -0.6494  0.2137
 1856TIP3    H2 5533   2.304   1.301   5.662  0.8563 -1.4110 -1.3695
 1857TIP3   OH2 5534   0.459   3.878   1.622 -0.1196 -0.3596  0.3233
 1857TIP3    H1 5535   0.471   3.942   1.693  1.7909  2.3205 -2.1505
 1857TIP3    H2 5536   0.373   3.899   1.587  0.1157  0.2852  0.1055
 1858TIP3   OH2 5537   2.697   1.677   0.809  0.2820  0.2592 -0.1781
 1858TIP3    H1 5538   2.783   1.644   0.834  0.3268  0.7649  0.3684
 1858TIP3    H2 5539   2.713   1.722   0.726  0.3900 -0.3049 -0.4702
 1859TIP3   OH2 5540   3.559   3.139   3.620 -0.5531  0.2688  0.1454
 1859TIP3    H1 5541   3.624   3.073   3.642 -0.4063  0.8825  1.6168
 1859TIP3    H2 5542   3.485   3.120   3.677 -0.7575  0.9811  0.1260
 1860TIP3   OH2 5543   4.066   2.915   5.457  0.4945 -0.0561 -0.1952
 1860TIP3    H1 5544   4.075   2.831   5.411  0.9020 -1.1674  1.8051
 1860TIP3    H2 5545   4.058   2.891   5.549 -0.8498  2.0689  0.2949
 1861TIP3   OH2 5546   4.513   3.133   2.563 -0.2492  0.2496 -0.3073
 1861TIP3    H1 5547   4.559   3.203   2.515 -2.0653  0.5174 -1.7546
 1861TIP3    H2 5548   4.548   3.052   2.526  1.0813  0.3515  0.6248
 1862TIP3   OH2 5549   3.363   1.234   5.574  0.2761  0.2107  0.1979
 1862TIP3    H1 5550   3.399   1.155   5.613  1.1404 -0.1872 -1.3076
 1862TIP3    H2 5551   3.430   1.301   5.587 -0.4667  0.7351  1.4976
 1863TIP3   OH2 5552   5.796   5.138   5.462 -0.5255 -0.0001  0.1429
 1863TIP3    H1 5553   5.747   5.190   5.398  0.1024 -0.3539 -0.6531
 1863TIP3    H2 5554   5.760   5.163   5.547 -1.0360  0.8538 -0.3144
 1864TIP3   OH2 5555   6.016   6.515   2.820 -0.4522  0.1794 -0.5252
 1864TIP3    H1 5556   5.981   6.520   2.910 -0.3118 -2.1933 -0.2804
 1864TIP3    H2 5557   6.074   6.591   2.813 -1.6284  1.2827  0.8439
 1865TIP3   OH2 5558   2.564   5.816   4.675 -0.0394  0.2217  0.3393
 1865TIP3    H1 5559   2.555   5.903   4.638 -0.0364 -0.0585 -0.3438
 1865TIP3    H2 5560   2.503   5.762   4.624  1.1530 -0.4994 -0.3671
 1866TIP3   OH2 5561   3.420   6.324   0.394 -0.5607  0.4775  0.0826
 1866TIP3    H1 5562   3.341   6.366   0.427 -0.7327  0.4972 -0.3502
 1866TIP3    H2 5563   3.477   6.317   0.470 -0.6513  1.2176  0.2307
 1867TIP3   OH2 5564   4.292   3.803   0.811 -0.4106  0.6654 -0.3146
 1867TIP3    H1 5565   4.384   3.810   0.785 -0.3804  1.7102  0.0409
 1867TIP3    H2 5566   4.260   3.725   0.766 -0.2637  2.1472 -3.1446
 1868TIP3   OH2 5567   6.012   2.870   0.052 -0.1661 -0.0491  0.6551
 1868TIP3    H1 5568   5.987   2.800   0.113  1.2518 -0.5017  0.7585
 1868TIP3    H2 5569   6.062   2.932   0.106  1.1013 -0.4536 -0.0072
 1869TIP3   OH2 5570   2.365   0.685   3.762 -0.3366 -0.0100  0.0211
 1869TIP3    H1 5571   2.334   0.690   3.672 -0.4332 -0.3844  0.0287
 1869TIP3    H2 5572   2.460   0.696   3.756 -0.3284 -0.1658 -0.1408
 1870TIP3   OH2 5573   5.616   0.087   0.300  0.2840 -0.0365 -0.2132
 1870TIP3    H1 5574   5.671   0.134   0.239  1.1246  0.8210  1.1540
 1870TIP3    H2 5575   5.620  -0.005   0.271  0.5633  0.3575 -1.4697
 1871TIP3   OH2 5576   1.360   5.736   4.691  0.0463  0.3793  0.1673
 1871TIP3    H1 5577   1.443   5.717   4.733  0.5205  0.7025 -0.6090
 1871TIP3    H2 5578   1.366   5.696   4.605 -0.7151  0.1612  0.2054
 1872TIP3   OH2 5579   3.816   3.230   1.779  0.3795  0.0988 -0.7324
 1872TIP3    H1 5580   3.882   3.244   1.711  1.3191 -0.8261 -0.0351
 1872TIP3    H2 5581   3.866   3.203   1.856 -0.8603 -1.3562 -0.3977
 1873TIP3   OH2 5582   6.085   4.851   5.419 -0.1181  0.0735 -0.7056
 1873TIP3    H1 5583   6.174   4.822   5.438  0.0943  0.9163 -0.3651
 1873TIP3    H2 5584   6.083   4.943   5.447 -0.3410  0.8566 -3.1145
 1874TIP3   OH2 5585   2.186   0.545   2.983 -0.5850  0.1211  0.1030
 1874TIP3    H1 5586   2.123   0.616   2.980  1.2180  1.7763 -0.6473
 1874TIP3    H2 5587   2.165   0.490   2.908 -0.8898  0.8697 -0.3578
 1875TIP3   OH2 5588   5.169   6.679   4.063 -0.2801 -0.3440 -0.7178
 1875TIP3    H1 5589   5.135   6.764   4.037  2.0984  0.2026 -2.3607
 1875TIP3    H2 5590   5.136   6.619   3.996 -0.5370 -0.4051 -0.5390
 1876TIP3   OH2 5591   2.308   6.558   5.460 -0.1156 -0.0294 -0.0914
 1876TIP3    H1 5592   2.384   6.598   5.502  0.7805 -1.1142 -0.6415
 1876TIP3    H2 5593   2.319   6.577   5.367  1.3221 -2.9892 -0.6462
 1877TIP3   OH2 5594   5.391   0.365   5.835  0.6083  0.3497 -0.0963
 1877TIP3    H1 5595   5.336   0.294   5.802  1.2876  0.1197 -0.7725
 1877TIP3    H2 5596   5.420   0.411   5.756 -0.1737  1.6645  0.3495
 1878TIP3   OH2 5597   7.061   5.300   3.034 -0.1693 -0.1254  0.2404
 1878TIP3    H1 5598   7.099   5.301   2.946  0.9378  1.5843  0.6843
 1878TIP3    H2 5599   7.097   5.378   3.077 -0.3463 -1.1339  2.3640
 1879TIP3   OH2 5600   5.980   4.813   1.171  0.1380 -0.2272  0.1716
 1879TIP3    H1 5601   5.981   4.905   1.196  0.2019  0.1423 -1.1089
 1879TIP3    H2 5602   6.067   4.781   1.193  0.6733  0.4587 -0.8476
 1880TIP3   OH2 5603   5.881   2.532   2.936 -0.7000  0.0793  0.3309
 1880TIP3    H1 5604   5.931   2.479   2.875  0.1021  0.0609  0.9899
 1880TIP3    H2 5605   5.902   2.623   2.913 -0.3218  0.0711  0.6331
 1881TIP3   OH2 5606   1.939   4.762   3.708 -0.3672 -0.1621 -0.2491
 1881TIP3    H1 5607   1.963   4.698   3.640  0.2221  0.4547 -0.6404
 1881TIP3    H2 5608   2.009   4.828   3.704 -0.3175 -0.1166  0.9670
 1882TIP3   OH2 5609   0.203   4.832   3.128 -0.3957  0.4830  0.0918
 1882TIP3    H1 5610   0.204   4.836   3.032 -1.9610  0.3614  0.0442
 1882TIP3    H2 5611   0.274   4.891   3.155  0.8156 -0.3332 -1.1324
 1883TIP3   OH2 5612   2.375   1.023   5.548  0.0886  0.0566  0.3632
 1883TIP3    H1 5613   2.468   1.012   5.525 -0.4427 -0.5189 -1.7116
 1883TIP3    H2 5614   2.344   0.933   5.562 -0.4979  0.1147 -0.4976
 1884TIP3   OH2 5615   4.311   1.471   0.076  0.0218  0.3691  0.0514
 1884TIP3    H1 5616   4.304   1.388   0.028  1.0368  0.2050  0.1563
 1884TIP3    H2 5617   4.256   1.532   0.027 -1.9132 -0.7034  0.7881
 1885TIP3   OH2 5618   1.099   3.735   4.560 -0.6191  0.8858 -0.3865
 1885TIP3    H1 5619   1.165   3.770   4.619  1.3644 -0.6294 -1.5855
 1885TIP3    H2 5620   1.121   3.774   4.475 -1.0222  0.0709 -0.8761
 1886TIP3   OH2 5621   6.207   4.925   0.322 -0.0045  0.0611 -0.0371
 1886TIP3    H1 5622   6.117   4.955   0.316  0.1552  0.3829 -1.1310
 1886TIP3    H2 5623   6.216   4.861   0.251  0.2483 -1.0232  0.9447
 1887TIP3   OH2 5624   3.264   1.541   3.064 -0.2370 -0.2315 -0.3599
 1887TIP3    H1 5625   3.303   1.576   2.984 -0.0680  1.7276  0.5334
 1887TIP3    H2 5626   3.297   1.451   3.070 -0.1628 -0.3938 -2.3986
 1888TIP3   OH2 5627   5.280   1.213   2.359 -0.4648  0.1083 -0.3771
 1888TIP3    H1 5628   5.262   1.119   2.354 -0.7613  0.2081 -1.5403
 1888TIP3    H2 5629   5.349   1.221   2.424 -1.1908 -0.7989  0.5312
 1889TIP3   OH2 5630   1.457   2.119   4.832  0.0254  0.0019 -0.0773
 1889TIP3    H1 5631   1.469   2.174   4.910  0.7022 -0.6687  0.2960
 1889TIP3    H2 5632   1.448   2.030   4.866  0.0513 -0.2642 -0.7519
 1890TIP3   OH2 5633   1.641   5.717   5.429  0.8891 -0.0964 -0.5089
 1890TIP3    H1 5634   1.655   5.810   5.446 -0.4744 -0.1084  0.9118
 1890TIP3    H2 5635   1.552   5.700   5.461  1.1481 -1.9141 -0.6495
 1891TIP3   OH2 5636   0.917   5.545   0.460  0.3171  0.2773 -0.4041
 1891TIP3    H1 5637   0.998   5.524   0.506 -1.4178 -3.9914  1.1706
 1891TIP3    H2 5638   0.860   5.582   0.527 -1.0863 -2.8366  0.2744
 1892TIP3   OH2 5639   4.118   2.515   4.807 -0.5048  0.2908  0.4589
 1892TIP3    H1 5640   4.109   2.603   4.842 -0.2112  0.2564  0.6223
 1892TIP3    H2 5641   4.198   2.518   4.755  0.0830 -0.1642  1.3281
 1893TIP3   OH2 5642   5.721   4.683   1.488  0.0648  0.4245  0.0230
 1893TIP3    H1 5643   5.798   4.696   1.544  0.3340  0.5235 -0.3718
 1893TIP3    H2 5644   5.659   4.637   1.545 -0.6015  2.6141  1.1827
 1894TIP3   OH2 5645   6.764   2.509   4.807  0.0723 -0.2806 -0.2391
 1894TIP3    H1 5646   6.678   2.542   4.833  0.4370  2.0332 -1.6711
 1894TIP3    H2 5647   6.821   2.530   4.881 -0.0492  0.8618 -0.4487
 1895TIP3   OH2 5648   0.735   5.409   4.892 -0.5342 -0.3682  0.3465
 1895TIP3    H1 5649   0.776   5.482   4.939  0.0971 -0.2539 -0.3683
 1895TIP3    H2 5650   0.726   5.340   4.958  0.2672 -0.1817  0.6617
 1896TIP3   OH2 5651   2.457   4.278   5.217  0.1485  0.1986 -0.2831
 1896TIP3    H1 5652   2.362   4.281   5.210  0.1641  0.9066 -0.3230
 1896TIP3    H2 5653   2.485   4.215   5.152 -0.6668 -5.0968  3.7952
 1897TIP3   OH2 5654   0.176   1.900   5.491  0.1193 -0.2839 -0.0529
 1897TIP3    H1 5655   0.104   1.894   5.554 -1.6793 -0.5359 -2.0354
 1897TIP3    H2 5656   0.253   1.918   5.545 -1.7265  2.1461  1.9898
 1898TIP3   OH2 5657   4.462   1.458   3.874 -0.4251  0.1415  0.4201
 1898TIP3    H1 5658   4.459   1.550   3.900  2.4661  0.3159  0.3640
 1898TIP3    H2 5659   4.540   1.423   3.917 -0.4826 -1.8565 -0.9703
 1899TIP3   OH2 5660  -0.030   5.020   2.166  0.0984  0.0825  0.0980
 1899TIP3    H1 5661   0.057   4.985   2.188  0.3943  0.8077  0.0949
 1899TIP3    H2 5662  -0.013   5.108   2.134 -0.7472  0.6809  1.2283
 1900TIP3   OH2 5663   0.620   3.659   4.832 -0.1349 -0.3413  0.0908
 1900TIP3    H1 5664   0.593   3.638   4.922  1.1167 -0.1767  0.5285
 1900TIP3    H2 5665   0.622   3.754   4.829  2.1515 -0.3173  0.6682
 1901TIP3   OH2 5666   0.843   5.845   4.754 -0.2559 -0.1113 -0.1194
 1901TIP3    H1 5667   0.877   5.784   4.818  1.5109 -0.9376 -1.7579
 1901TIP3    H2 5668   0.788   5.792   4.696  1.5699 -0.3061 -1.7607
 1902TIP3   OH2 5669   1.109   3.122   0.701  0.1765  0.2110 -0.6928
 1902TIP3    H1 5670   1.099   3.028   0.685  1.8140  0.2620 -2.2628
 1902TIP3    H2 5671   1.151   3.156   0.623 -1.5925  2.5373 -0.7601
 1903TIP3   OH2 5672   0.121   3.967   5.365 -0.2331  0.3257  0.1031
 1903TIP3    H1 5673   0.028   3.971   5.342  0.0389  0.8549 -0.9554
 1903TIP3    H2 5674   0.140   3.874   5.374  0.0366 -0.1162 -3.6502
 1904TIP3   OH2 5675   5.586   0.353   4.945 -0.3533 -0.0244  0.4937
 1904TIP3    H1 5676   5.677   0.330   4.961 -0.3548  0.7614  1.8033
 1904TIP3    H2 5677   5.544   0.271   4.919  0.4405 -0.6842  1.2459
 1905TIP3   OH2 5678   3.064   4.231   1.534 -0.5404  0.1424 -0.0690
 1905TIP3    H1 5679   3.137   4.209   1.593  0.2501  2.2463 -0.1810
 1905TIP3    H2 5680   3.022   4.147   1.517  1.0282 -0.9580  1.0981
 1906TIP3   OH2 5681   5.949   6.121   5.101  0.1657  0.0556  0.8683
 1906TIP3    H1 5682   5.942   6.204   5.054  0.2574  0.2262  1.1478
 1906TIP3    H2 5683   5.861   6.105   5.136 -0.2514 -0.7739 -0.5108
 1907TIP3   OH2 5684   1.068   5.102   1.514 -0.4185  0.2361  0.6953
 1907TIP3    H1 5685   1.109   5.131   1.433 -2.3556 -1.2466 -0.9193
 1907TIP3    H2 5686   1.013   5.175   1.541 -0.5838  0.3433  0.0773
 1908TIP3   OH2 5687   7.032   4.248   2.186  0.0133 -0.4688 -0.0829
 1908TIP3    H1 5688   6.987   4.263   2.269 -0.6832  2.4977 -0.8671
 1908TIP3    H2 5689   7.108   4.305   2.189 -0.1754 -0.0896 -1.5604
 1909TIP3   OH2 5690   1.395   4.849   0.377 -0.0247  0.0760  0.2838
 1909TIP3    H1 5691   1.434   4.915   0.433 -0.4246 -0.8951  1.7785
 1909TIP3    H2 5692   1.307   4.835   0.414 -0.4741 -0.2604 -0.8763
 1910TIP3   OH2 5693   3.809   3.744   4.974 -0.2532  0.1141 -0.3748
 1910TIP3    H1 5694   3.723   3.731   4.936 -0.8133  1.7029  0.2645
 1910TIP3    H2 5695   3.855   3.800   4.911 -0.6097  1.3834  0.4578
 1911TIP3   OH2 5696   7.176   5.662   3.413 -0.5682 -0.4078 -0.4620
 1911TIP3    H1 5697   7.114   5.703   3.353  0.4319 -2.2766 -2.8990
 1911TIP3    H2 5698   7.258   5.709   3.399 -0.3277 -0.8573 -0.5773
 1912TIP3   OH2 5699   0.130   2.228   2.960  0.3420  0.3899 -0.5539
 1912TIP3    H1 5700   0.101   2.157   2.903  0.9711  0.7445 -1.3395
 1912TIP3    H2 5701   0.053   2.284   2.970  0.3503  0.5791 -1.4629
 1913TIP3   OH2 5702   1.134   1.210   0.252  0.1271 -0.6955  0.3775
 1913TIP3    H1 5703   1.044   1.205   0.285 -0.3301 -1.1553 -0.8681
 1913TIP3    H2 5704   1.128   1.266   0.175  1.0106 -0.2999  0.5874
 1914TIP3   OH2 5705   5.557   4.758   1.916  0.3695  0.2205 -0.1720
 1914TIP3    H1 5706   5.480   4.812   1.934  0.4986  0.2755  0.2246
 1914TIP3    H2 5707   5.544   4.726   1.827 -0.0082  0.4046 -0.1829
 1915TIP3   OH2 5708   2.836   3.849   1.647 -0.4152 -0.1000 -0.2500
 1915TIP3    H1 5709   2.748   3.856   1.684 -0.9349 -0.0132 -1.4358
 1915TIP3    H2 5710   2.892   3.895   1.709 -0.9126 -1.6205  1.3932
 1916TIP3   OH2 5711   5.909   3.955   4.118  0.0119 -0.0348  0.1550
 1916TIP3    H1 5712   5.973   3.886   4.133  0.4336  0.3378  0.0795
 1916TIP3    H2 5713   5.824   3.913   4.133  0.2789 -0.4927  0.3938
 1917TIP3   OH2 5714   1.833   2.613   4.937  0.0634  0.4840 -0.5201
 1917TIP3    H1 5715   1.838   2.550   4.865  0.2002 -0.8595  0.6144
 1917TIP3    H2 5716   1.910   2.595   4.990 -0.0024  1.4868 -0.0547
 1918TIP3   OH2 5717   1.519   0.111   4.919 -0.0582  0.3217 -0.3108
 1918TIP3    H1 5718   1.614   0.116   4.916 -0.0838  0.8072 -0.4651
 1918TIP3    H2 5719   1.493   0.184   4.976 -0.3192 -0.0031 -0.0129
 1919TIP3   OH2 5720   7.197   3.903   0.680 -0.3037 -0.2895 -0.2260
 1919TIP3    H1 5721   7.186   3.983   0.629  2.0619 -0.4311 -1.0941
 1919TIP3    H2 5722   7.159   3.834   0.626  0.5250 -0.1682 -0.9990
 1920TIP3   OH2 5723   4.477   4.301   0.368 -0.1270 -0.0504 -0.5231
 1920TIP3    H1 5724   4.523   4.266   0.444 -0.3208  1.6841  0.4431
 1920TIP3    H2 5725   4.384   4.285   0.386 -0.1666  0.2695 -0.4336
 1921TIP3   OH2 5726   6.085   2.698   1.592 -0.1968  0.2055  0.1761
 1921TIP3    H1 5727   6.087   2.605   1.613  1.4789  0.4497  1.2592
 1921TIP3    H2 5728   6.175   2.719   1.565 -0.6121  1.4552 -0.3318
 1922TIP3   OH2 5729   2.265   4.111   0.643 -0.1704 -0.0802  0.3389
 1922TIP3    H1 5730   2.179   4.151   0.653 -0.3568 -0.5128  0.4734
 1922TIP3    H2 5731   2.248   4.026   0.603 -0.0078 -1.0171  2.1710
 1923TIP3   OH2 5732   3.178   1.839   3.152 -0.6642  0.5313  0.5862
 1923TIP3    H1 5733   3.186   1.763   3.095  0.2749 -0.6191  2.1828
 1923TIP3    H2 5734   3.089   1.832   3.188  0.2446 -1.3394  2.6970
 1924TIP3   OH2 5735   0.535   6.127   2.693 -0.2851 -0.5956 -0.7407
 1924TIP3    H1 5736   0.524   6.080   2.611 -0.8275 -1.3896 -0.2279
 1924TIP3    H2 5737   0.558   6.059   2.757 -1.0220 -0.1740 -0.0011
 1925TIP3   OH2 5738   1.476   4.393   1.553 -0.1310  0.1113 -0.4273
 1925TIP3    H1 5739   1.518   4.434   1.629  0.2197  0.2956 -0.7147
 1925TIP3    H2 5740   1.421   4.463   1.516 -0.6161 -0.0997 -0.1106
 1926TIP3   OH2 5741   4.444   3.489   2.426  0.3383  0.0978 -0.2797
 1926TIP3    H1 5742   4.397   3.413   2.393  0.4061  0.1295 -0.4501
 1926TIP3    H2 5743   4.514   3.453   2.480  0.5945  0.0291 -0.6574
 1927TIP3   OH2 5744   2.223   2.271   5.059  0.1536 -0.2579  0.0851
 1927TIP3    H1 5745   2.166   2.251   4.985  0.5842  2.2039 -1.0278
 1927TIP3    H2 5746   2.310   2.242   5.032 -0.0637 -1.4350  0.6065
 1928TIP3   OH2 5747   2.703   4.308   2.610  0.3401 -0.5452  0.2400
 1928TIP3    H1 5748   2.660   4.393   2.623  1.9788  0.3451  0.0558
 1928TIP3    H2 5749   2.724   4.278   2.698  1.5560  0.2232  0.2317
 1929TIP3   OH2 5750   0.990   6.396   1.050  0.7104 -0.2140 -0.1675
 1929TIP3    H1 5751   1.004   6.302   1.037  0.7109 -0.5376  1.8464
 1929TIP3    H2 5752   0.900   6.403   1.081  0.5872  0.5059 -0.6685
 1930TIP3   OH2 5753   5.112   5.757   5.847  0.5617 -0.4233 -0.8016
 1930TIP3    H1 5754   5.144   5.847   5.838  2.5185 -0.9134  0.5282
 1930TIP3    H2 5755   5.138   5.715   5.765  1.4111 -0.2585 -0.6252
 1931TIP3   OH2 5756   3.365   1.176   2.408  0.7036  0.1083  0.6186
 1931TIP3    H1 5757   3.362   1.136   2.495  2.0134  0.0314  0.6550
 1931TIP3    H2 5758   3.427   1.249   2.417 -1.9966  2.6071  0.7044
 1932TIP3   OH2 5759   2.269   5.015   5.452 -0.7004 -0.2521  0.6004
 1932TIP3    H1 5760   2.327   4.983   5.383  0.3189 -0.1499  1.3916
 1932TIP3    H2 5761   2.325   5.027   5.528 -1.2190  2.3369  0.6798
 1933TIP3   OH2 5762   2.922   3.675   1.883  0.8007 -0.1429 -0.6179
 1933TIP3    H1 5763   2.840   3.680   1.932  0.6396 -1.1695 -0.7776
 1933TIP3    H2 5764   2.923   3.756   1.831 -0.0578 -0.0666 -0.5341
 1934TIP3   OH2 5765   4.587   2.437   5.695 -0.7061 -0.6432 -0.4100
 1934TIP3    H1 5766   4.526   2.481   5.754 -0.5339 -0.0671 -0.6562
 1934TIP3    H2 5767   4.536   2.368   5.654 -0.1212 -3.0731  2.6317
 1935TIP3   OH2 5768   6.642   4.820   3.408 -0.2254 -0.0515 -0.0042
 1935TIP3    H1 5769   6.650   4.853   3.498 -0.9295 -1.5239  0.6321
 1935TIP3    H2 5770   6.730   4.789   3.386 -0.6481 -2.4444  1.3429
 1936TIP3   OH2 5771   0.886   4.009   4.992 -0.7981  0.2691  0.2083
 1936TIP3    H1 5772   0.894   3.977   5.082  0.1198  1.7579  0.7054
 1936TIP3    H2 5773   0.949   3.957   4.942  2.1787  2.4468  1.3807
 1937TIP3   OH2 5774   5.647   5.119   3.286  0.4924  0.5138  0.3110
 1937TIP3    H1 5775   5.561   5.127   3.244 -0.4226 -0.9578  1.7614
 1937TIP3    H2 5776   5.691   5.050   3.236  1.4412  2.2252 -1.3110
 1938TIP3   OH2 5777   2.842   6.761   4.864 -0.3956 -0.1740  0.2243
 1938TIP3    H1 5778   2.817   6.679   4.821  0.0954 -1.0194  1.4814
 1938TIP3    H2 5779   2.777   6.772   4.933  0.5230 -0.4473  1.1627
 1939TIP3   OH2 5780   5.330   0.460   4.985 -0.4075  0.0333  0.2329
 1939TIP3    H1 5781   5.289   0.375   4.998  1.2385 -0.7537  0.5376
 1939TIP3    H2 5782   5.419   0.449   5.017  0.1305  1.6008 -0.5948
 1940TIP3   OH2 5783   3.026   3.426   1.322  0.0356  0.6348  0.9696
 1940TIP3    H1 5784   3.066   3.478   1.391 -1.0914  0.2142  1.9741
 1940TIP3    H2 5785   2.972   3.488   1.273  1.1196  1.0093  0.1913
 1941TIP3   OH2 5786   4.202   5.374   5.209  0.1212 -0.6404  0.8557
 1941TIP3    H1 5787   4.129   5.381   5.148  0.6480 -1.5199  0.1049
 1941TIP3    H2 5788   4.208   5.280   5.228 -0.1396 -0.3794  2.4080
 1942TIP3   OH2 5789   3.849   5.320   3.057  0.5689  0.3381 -0.1988
 1942TIP3    H1 5790   3.791   5.374   3.111  0.3084  0.4890 -0.6173
 1942TIP3    H2 5791   3.907   5.277   3.119 -0.8540 -0.8792  0.3568
 1943TIP3   OH2 5792   6.490   2.170   3.769 -0.0652  0.3694  0.1988
 1943TIP3    H1 5793   6.497   2.210   3.855  1.7201  0.4047  0.0699
 1943TIP3    H2 5794   6.488   2.243   3.708 -1.3583  0.3454  0.1913
 1944TIP3   OH2 5795   1.742   0.489   5.767  0.3072  0.0829  0.5012
 1944TIP3    H1 5796   1.814   0.519   5.823  0.9231  0.1664 -0.3205
 1944TIP3    H2 5797   1.687   0.436   5.825  1.0051  0.0545  1.1516
 1945TIP3   OH2 5798   2.070   0.390   1.266  0.4362  0.0959 -0.0678
 1945TIP3    H1 5799   2.152   0.437   1.282  0.6321 -0.7028  1.4109
 1945TIP3    H2 5800   2.059   0.333   1.342 -2.8539  2.0644  1.1414
 1946TIP3   OH2 5801   3.088   6.083   1.880  0.3940 -0.1013  0.4688
 1946TIP3    H1 5802   3.014   6.088   1.940 -0.4312 -1.3642 -0.3865
 1946TIP3    H2 5803   3.092   6.169   1.839 -0.2906  0.1325  0.8885
 1947TIP3   OH2 5804   1.756   1.494   1.994  0.1075  0.3661 -0.1009
 1947TIP3    H1 5805   1.802   1.561   1.944  2.2523 -0.5085  0.5442
 1947TIP3    H2 5806   1.805   1.488   2.076 -2.1630  0.4479  1.3567
 1948TIP3   OH2 5807   4.423   0.701   3.381  0.7376 -0.2057 -0.3737
 1948TIP3    H1 5808   4.414   0.608   3.402  1.5045 -0.2517 -0.2224
 1948TIP3    H2 5809   4.434   0.704   3.286  0.9764 -0.2934 -0.3500
 1949TIP3   OH2 5810   1.373   6.409   0.072  0.1848 -0.7301  0.2339
 1949TIP3    H1 5811   1.351   6.320   0.047 -0.6398 -0.2583 -0.7941
 1949TIP3    H2 5812   1.449   6.431   0.017  1.8306 -1.5188  2.0543
 1950TIP3   OH2 5813   0.101   2.236   5.543 -0.1950  0.5064 -0.5254
 1950TIP3    H1 5814   0.128   2.175   5.611 -0.1910  0.7769 -0.2857
 1950TIP3    H2 5815   0.007   2.248   5.557 -0.0739  1.0602 -0.1686
 1951TIP3   OH2 5816   2.480   3.559   5.876  0.4363  0.1493  0.3937
 1951TIP3    H1 5817   2.390   3.569   5.906  0.4625 -0.8183  0.8465
 1951TIP3    H2 5818   2.472   3.522   5.788  0.3834  1.4893 -0.1856
 1952TIP3   OH2 5819   2.448   5.859   2.286  0.6890 -0.6875  0.3040
 1952TIP3    H1 5820   2.499   5.788   2.327 -0.1181 -1.7789 -0.5192
 1952TIP3    H2 5821   2.357   5.830   2.293  0.3477  0.2410 -0.1259
 1953TIP3   OH2 5822   0.740   1.191   4.181  0.2226  0.5019 -0.3264
 1953TIP3    H1 5823   0.821   1.154   4.216  0.9157  0.7877 -1.5776
 1953TIP3    H2 5824   0.692   1.116   4.147 -0.2651  0.2745  0.8272
 1954TIP3   OH2 5825   7.183   4.563   5.432 -0.5075 -0.4213 -0.1940
 1954TIP3    H1 5826   7.269   4.523   5.418  0.4031  1.3668 -0.0852
 1954TIP3    H2 5827   7.164   4.549   5.524  0.7204  0.9916  0.3259
 1955TIP3   OH2 5828   0.723   4.520   4.664 -0.4538  0.4083  0.1527
 1955TIP3    H1 5829   0.634   4.489   4.676 -0.6602  0.7156 -0.5598
 1955TIP3    H2 5830   0.714   4.611   4.636  0.0056 -0.0509 -1.5940
 1956TIP3   OH2 5831   6.814   2.020   2.050  0.1026  0.1127  0.1646
 1956TIP3    H1 5832   6.905   2.025   2.079  0.1657  1.0910 -0.1590
 1956TIP3    H2 5833   6.774   1.953   2.106  0.5660  0.9442  1.5355
 1957TIP3   OH2 5834   6.248   1.983   3.385 -0.0970  0.1687  0.5094
 1957TIP3    H1 5835   6.261   1.897   3.346 -1.3334 -1.3219  3.1157
 1957TIP3    H2 5836   6.287   2.044   3.322  0.0886 -2.1767 -1.8357
 1958TIP3   OH2 5837   4.039   4.476   1.137  0.3925 -0.1792  0.0605
 1958TIP3    H1 5838   4.013   4.540   1.071  2.1333 -0.7133 -1.2001
 1958TIP3    H2 5839   4.114   4.431   1.099  0.4414 -1.6235  1.7463
 1959TIP3   OH2 5840   6.737   4.617   4.126  0.5299 -0.1158 -0.4036
 1959TIP3    H1 5841   6.718   4.637   4.218 -0.9819  3.1488 -1.2647
 1959TIP3    H2 5842   6.695   4.689   4.077  0.4868 -2.1948 -3.7206
 1960TIP3   OH2 5843   6.439   4.302   1.655 -0.5083 -0.1840 -0.2004
 1960TIP3    H1 5844   6.481   4.230   1.608  0.4101  1.3686 -1.8706
 1960TIP3    H2 5845   6.349   4.272   1.669  0.4679 -2.6981  1.5465
 1961TIP3   OH2 5846   3.762   0.536   0.104  0.5429 -0.5202  0.2229
 1961TIP3    H1 5847   3.803   0.452   0.083  1.1399 -0.8128  2.3362
 1961TIP3    H2 5848   3.702   0.516   0.176 -1.2502  0.4410 -0.9200
 1962TIP3   OH2 5849   5.788   1.453   2.186  0.3413  0.2034 -0.3535
 1962TIP3    H1 5850   5.705   1.405   2.184  1.5442 -2.0365 -0.7472
 1962TIP3    H2 5851   5.772   1.528   2.242 -1.8646 -0.3277 -0.1989
 1963TIP3   OH2 5852   2.609   4.170   4.370  0.3681  0.5784  0.1595
 1963TIP3    H1 5853   2.595   4.076   4.355  0.2458  0.2450  2.0539
 1963TIP3    H2 5854   2.703   4.182   4.359  0.2688  0.4270 -0.9652
 1964TIP3   OH2 5855   6.484   6.421   0.946 -0.8620 -0.9786  0.0377
 1964TIP3    H1 5856   6.415   6.391   1.006  0.1005  1.2516  2.4982
 1964TIP3    H2 5857   6.458   6.510   0.922  0.8434 -0.2679  0.6346
 1965TIP3   OH2 5858   6.346   0.823   5.527 -0.3490  0.3960  0.2710
 1965TIP3    H1 5859   6.253   0.802   5.534 -0.2465  0.3813  1.9339
 1965TIP3    H2 5860   6.352   0.916   5.546  0.0197  0.3195  0.5464
 1966TIP3   OH2 5861   2.628   5.524   0.900  0.3257  0.1417  0.3196
 1966TIP3    H1 5862   2.565   5.529   0.828 -0.5397 -1.1959  0.9481
 1966TIP3    H2 5863   2.693   5.592   0.880 -0.7776  0.8949 -0.8576
 1967TIP3   OH2 5864   2.379   1.412   2.844  0.1121 -0.4009  0.4936
 1967TIP3    H1 5865   2.409   1.379   2.760  1.6300 -1.0237  1.2441
 1967TIP3    H2 5866   2.456   1.456   2.882 -1.2515  2.2437  0.4383
 1968TIP3   OH2 5867   2.848   3.196   5.175 -0.1816  0.4119 -0.0272
 1968TIP3    H1 5868   2.805   3.257   5.115 -0.5550 -1.2862 -1.5796
 1968TIP3    H2 5869   2.776   3.156   5.224 -0.2881 -1.1177 -1.3507
 1969TIP3   OH2 5870   0.614   5.025   5.427  0.6650  0.3139 -0.0966
 1969TIP3    H1 5871   0.569   4.958   5.377 -0.9816  2.7576 -2.1711
 1969TIP3    H2 5872   0.551   5.052   5.495  1.4606 -0.4500  0.9742
 1970TIP3   OH2 5873   0.830   2.702   4.538  0.3696  0.0106 -0.0112
 1970TIP3    H1 5874   0.879   2.630   4.579 -0.4490  0.5068  1.9932
 1970TIP3    H2 5875   0.775   2.736   4.609  0.0895  2.0472 -1.1337
 1971TIP3   OH2 5876   6.771   1.713   2.937 -0.0073 -0.5103  0.0970
 1971TIP3    H1 5877   6.700   1.659   2.900  0.5252 -1.9788  1.1193
 1971TIP3    H2 5878   6.750   1.802   2.910 -2.0728 -0.9488  0.0699
 1972TIP3   OH2 5879   5.579   5.289   2.115  0.6030 -0.0589 -0.0752
 1972TIP3    H1 5880   5.637   5.241   2.056 -1.5609 -0.8163 -1.6809
 1972TIP3    H2 5881   5.517   5.333   2.058  0.1994  1.6067  1.5465
 1973TIP3   OH2 5882   2.146   4.908   2.364  0.3126 -0.7315  0.6024
 1973TIP3    H1 5883   2.093   4.951   2.296  0.7288 -1.6370 -0.3104
 1973TIP3    H2 5884   2.093   4.833   2.391  0.2219 -0.4665  1.1747
 1974TIP3   OH2 5885   1.963   6.772   5.454 -0.4410  0.7471  1.0682
 1974TIP3    H1 5886   2.037   6.819   5.493  0.8128 -0.1484 -0.1490
 1974TIP3    H2 5887   1.977   6.779   5.360 -2.5171  1.4522  0.7618
 1975TIP3   OH2 5888   1.083   2.074   1.996  0.0482  0.0228  0.2199
 1975TIP3    H1 5889   0.995   2.038   2.011 -1.1969  2.7486  0.0730
 1975TIP3    H2 5890   1.101   2.125   2.075  1.3455 -0.1523  0.0578
 1976TIP3   OH2 5891   3.800   0.537   4.162  0.3390 -0.1458  0.3341
 1976TIP3    H1 5892   3.715   0.580   4.170 -0.1818 -1.4120  2.8870
 1976TIP3    H2 5893   3.846   0.586   4.094 -0.8932  3.1683  1.6845
 1977TIP3   OH2 5894   5.170   5.360   5.334  0.0540 -0.2429  0.3141
 1977TIP3    H1 5895   5.192   5.396   5.420  0.0981  1.9293 -0.5343
 1977TIP3    H2 5896   5.254   5.332   5.297  0.2063  0.0108  0.4671
 1978TIP3   OH2 5897   0.766   1.452   1.248  0.5216  0.4811  0.1714
 1978TIP3    H1 5898   0.831   1.521   1.233  0.5280  0.2659 -0.8513
 1978TIP3    H2 5899   0.817   1.376   1.274  0.7532  0.1679 -1.1163
 1979TIP3   OH2 5900   6.056   2.618   3.769  0.5797  0.0451  0.0130
 1979TIP3    H1 5901   5.996   2.568   3.714  1.5522 -0.9858 -0.1490
 1979TIP3    H2 5902   6.000   2.680   3.815 -0.3011  0.6905 -1.8474
 1980TIP3   OH2 5903   5.653   1.851   3.590  0.2415  0.3819  0.1056
 1980TIP3    H1 5904   5.731   1.796   3.587 -0.7487 -1.0455 -1.0720
 1980TIP3    H2 5905   5.625   1.857   3.499 -1.3975  0.2817  0.5708
 1981TIP3   OH2 5906   5.080   3.885   4.001  0.1267  0.5873  0.1253
 1981TIP3    H1 5907   5.098   3.924   4.087  1.4287  0.9521 -0.2735
 1981TIP3    H2 5908   4.986   3.873   3.999  0.0389  0.8483  1.4908
 1982TIP3   OH2 5909   1.685   3.879   1.306 -0.1148  0.1687  0.8527
 1982TIP3    H1 5910   1.590   3.889   1.292 -0.2283  1.1366  2.0622
 1982TIP3    H2 5911   1.725   3.916   1.228 -0.7146 -2.3140 -0.7337
 1983TIP3   OH2 5912   0.555   2.003   4.215 -0.9636  0.0957  0.1729
 1983TIP3    H1 5913   0.611   2.064   4.263  1.0010 -0.1852 -1.5937
 1983TIP3    H2 5914   0.527   1.939   4.280 -1.6167  1.8324  1.7008
 1984TIP3   OH2 5915   2.944   6.202   5.380 -0.0135  0.2142 -0.1316
 1984TIP3    H1 5916   2.970   6.289   5.410 -1.0359  0.4555  0.0913
 1984TIP3    H2 5917   2.851   6.211   5.356 -0.4338 -1.0658  0.9171
 1985TIP3   OH2 5918   2.364   6.414   1.968  0.2393 -0.0210  0.0511
 1985TIP3    H1 5919   2.274   6.383   1.954  0.5220 -0.6991 -0.3385
 1985TIP3    H2 5920   2.398   6.429   1.879  0.0730  1.5577  0.2356
 1986TIP3   OH2 5921   4.384   1.174   0.630  0.6626  0.2954 -0.5304
 1986TIP3    H1 5922   4.420   1.119   0.560 -0.4625  0.2661 -1.1021
 1986TIP3    H2 5923   4.392   1.263   0.596  0.3202  0.2987 -0.6028
 1987TIP3   OH2 5924   5.186   3.299   0.821 -0.4055  0.2526 -0.4706
 1987TIP3    H1 5925   5.105   3.347   0.805 -0.7689  0.5138  1.8389
 1987TIP3    H2 5926   5.164   3.208   0.802 -1.6961  0.1136  1.4484
 1988TIP3   OH2 5927   3.252   3.182   2.672 -0.5358 -0.2668 -0.0481
 1988TIP3    H1 5928   3.312   3.127   2.724 -0.3859  1.1330  1.3672
 1988TIP3    H2 5929   3.281   3.171   2.582  0.8376 -0.8778  0.4364
 1989TIP3   OH2 5930   0.668   1.892   4.886  0.1655  0.0446 -0.5694
 1989TIP3    H1 5931   0.632   1.868   4.801 -0.6147 -0.8300 -0.0096
 1989TIP3    H2 5932   0.710   1.813   4.919 -0.2692  0.1256  0.2167
 1990TIP3   OH2 5933   1.491   6.036   5.073  0.2164 -0.2742 -0.5538
 1990TIP3    H1 5934   1.520   5.950   5.103  1.5783  0.1407 -0.6167
 1990TIP3    H2 5935   1.470   6.023   4.981 -1.1801 -0.8905 -0.1800
 1991TIP3   OH2 5936   4.375   5.218   2.512  0.4021 -1.0447 -0.4255
 1991TIP3    H1 5937   4.425   5.184   2.438  3.4800 -0.0020  1.0279
 1991TIP3    H2 5938   4.422   5.188   2.590 -0.7291  0.7332  1.0518
 1992TIP3   OH2 5939   1.067   6.529   0.436 -0.0967  0.4133 -0.5927
 1992TIP3    H1 5940   0.979   6.559   0.457 -0.0451  0.0768  0.1289
 1992TIP3    H2 5941   1.065   6.514   0.341 -0.9331  0.0287 -0.5231
 1993TIP3   OH2 5942   3.367   1.136   0.671  0.4486 -0.2222  0.9250
 1993TIP3    H1 5943   3.280   1.140   0.633  2.0662 -1.5616 -3.5339
 1993TIP3    H2 5944   3.389   1.227   0.691 -0.5175  0.7602 -1.9501
 1994TIP3   OH2 5945   3.406   2.569   3.072 -0.5365  0.4501 -0.0054
 1994TIP3    H1 5946   3.501   2.573   3.070 -0.5778  2.9998 -0.1820
 1994TIP3    H2 5947   3.383   2.583   3.164 -0.7769 -1.5675  0.2945
 1995TIP3   OH2 5948   5.295   0.482   2.625  0.4324  0.7694 -0.6547
 1995TIP3    H1 5949   5.389   0.464   2.622  0.1815 -0.9697  0.4057
 1995TIP3    H2 5950   5.284   0.548   2.694  0.6898 -0.7616  0.9133
 1996TIP3   OH2 5951   0.349   4.538   1.457 -0.5486  0.5896 -0.6095
 1996TIP3    H1 5952   0.423   4.504   1.406 -0.8614 -0.2372 -0.5356
 1996TIP3    H2 5953   0.318   4.463   1.507 -2.2033  0.5855 -1.5595
 1997TIP3   OH2 5954   3.565   2.151   5.156  0.3420 -0.3219 -0.5488
 1997TIP3    H1 5955   3.486   2.206   5.150 -1.0733 -2.4185 -2.7797
 1997TIP3    H2 5956   3.622   2.183   5.086  1.5761  1.1512  1.0233
 1998TIP3   OH2 5957   6.400   6.728   3.500 -0.1158 -0.5610  0.6634
 1998TIP3    H1 5958   6.467   6.789   3.471  0.2498 -1.4911 -0.5086
 1998TIP3    H2 5959   6.322   6.749   3.448 -0.7179  0.4035  1.8985
 1999TIP3   OH2 5960   3.233   0.392   5.722  0.0155 -0.0394 -0.2032
 1999TIP3    H1 5961   3.307   0.449   5.738 -0.0604  0.0346 -0.1123
 1999TIP3    H2 5962   3.157   0.442   5.752  0.1124 -0.8504  1.5218
 2000TIP3   OH2 5963   0.491   1.200   0.404  0.2528  0.0504 -0.0381
 2000TIP3    H1 5964   0.536   1.171   0.484 -0.1678 -1.4877 -0.3165
 2000TIP3    H2 5965   0.404   1.161   0.410  0.7986 -1.6694 -2.0704
 2001TIP3   OH2 5966   0.955   5.465   4.134 -0.0666  0.1696 -0.3418
 2001TIP3    H1 5967   1.016   5.405   4.091  1.1651  0.8618  0.3645
 2001TIP3    H2 5968   0.915   5.413   4.204 -0.1633 -0.2445 -0.7018
 2002TIP3   OH2 5969   7.123   0.239   0.423 -0.1568 -0.6958 -0.2665
 2002TIP3    H1 5970   7.174   0.312   0.459  0.3628 -0.8310 -0.7168
 2002TIP3    H2 5971   7.128   0.250   0.328 -0.1238 -1.2751 -0.3397
 2003TIP3   OH2 5972   2.719   6.132   0.963 -0.1327  0.3795  0.2015
 2003TIP3    H1 5973   2.720   6.218   0.921 -1.9207 -0.2161 -1.1726
 2003TIP3    H2 5974   2.630   6.101   0.952  0.9138 -2.4775 -1.0816
 2004TIP3   OH2 5975   3.687   6.001   2.747  0.2685 -0.0697 -0.3273
 2004TIP3    H1 5976   3.675   5.999   2.652  1.5333  1.7696 -0.5742
 2004TIP3    H2 5977   3.692   6.094   2.769  2.4543 -0.4724  1.2023
 2005TIP3   OH2 5978   6.842   4.446   2.931 -0.2599  0.1224 -0.4383
 2005TIP3    H1 5979   6.841   4.352   2.915  0.6632  0.5114 -3.4516
 2005TIP3    H2 5980   6.777   4.482   2.871 -0.3829  1.4607  0.4465
 2006TIP3   OH2 5981   3.920   1.412   1.007  0.1028 -0.2250  0.1254
 2006TIP3    H1 5982   3.849   1.402   0.943 -2.2895 -0.3546  2.6172
 2006TIP3    H2 5983   3.963   1.327   1.008 -0.4247 -0.5166 -0.6142
 2007TIP3   OH2 5984   5.842   4.663   3.940  0.8428  0.1810  0.2453
 2007TIP3    H1 5985   5.790   4.586   3.918  2.2633 -0.6096 -0.4973
 2007TIP3    H2 5986   5.932   4.638   3.918  1.3655  1.9679  0.2204
 2008TIP3   OH2 5987   5.511   2.202   4.789  0.0228 -0.1070 -0.7095
 2008TIP3    H1 5988   5.596   2.160   4.772 -0.4156 -0.4867 -2.1377
 2008TIP3    H2 5989   5.455   2.131   4.821  0.7485  0.5414  2.2919
 2009TIP3   OH2 5990   5.020   4.552   3.496  0.4189 -0.2383  0.1692
 2009TIP3    H1 5991   5.071   4.473   3.478  0.6895 -0.1974  0.7321
 2009TIP3    H2 5992   5.036   4.570   3.589  1.8499  1.5603 -0.3879
 2010TIP3   OH2 5993   2.673   2.273   3.390 -0.9084 -0.0999  0.0149
 2010TIP3    H1 5994   2.655   2.197   3.446  3.6920 -1.8528 -0.3962
 2010TIP3    H2 5995   2.734   2.326   3.440 -1.1712  1.3645 -1.1465
 2011TIP3   OH2 5996   2.936   0.115   5.435  0.3384 -0.2095 -0.2302
 2011TIP3    H1 5997   2.991   0.190   5.459 -0.4133  0.2067  0.2124
 2011TIP3    H2 5998   2.876   0.149   5.368  1.2578 -0.9205 -1.4704
 2012TIP3   OH2 5999   2.719   1.187   3.876 -0.3930 -0.1212  0.1770
 2012TIP3    H1 6000   2.672   1.140   3.944 -1.4984  1.1818  0.3723
 2012TIP3    H2 6001   2.721   1.278   3.907 -0.0196  0.3124 -1.0514
 2013TIP3   OH2 6002   6.530   4.423   0.690  0.4821  0.1605  0.5100
 2013TIP3    H1 6003   6.504   4.377   0.610 -2.0952  0.5581  1.0360
 2013TIP3    H2 6004   6.586   4.360   0.736  1.7909 -0.1815 -1.4175
 2014TIP3   OH2 6005   5.530   2.296   2.557  0.1220 -0.2095 -0.3263
 2014TIP3    H1 6006   5.484   2.381   2.557  0.5379  0.0192  0.3461
 2014TIP3    H2 6007   5.481   2.243   2.620  1.6747  0.5461  1.6032
 2015TIP3   OH2 6008   5.912   5.995   3.208 -0.0743  0.2775  0.4286
 2015TIP3    H1 6009   5.819   6.016   3.214 -0.0922  0.5528 -0.6227
 2015TIP3    H2 6010   5.915   5.908   3.168  0.1305  0.5448 -0.1473
 2016TIP3   OH2 6011   0.906   0.115   5.000  0.1289  0.2844  0.7286
 2016TIP3    H1 6012   0.845   0.119   5.074 -0.4651  0.2749  0.2507
 2016TIP3    H2 6013   0.932   0.024   4.995  0.9437  0.4625  1.5337
 2017TIP3   OH2 6014   0.407   2.970   5.484  0.0711 -0.1171 -0.6303
 2017TIP3    H1 6015   0.497   2.987   5.454 -0.0115 -0.3557 -1.0243
 2017TIP3    H2 6016   0.360   3.051   5.466  1.0592  1.5421  3.1571
 2018TIP3   OH2 6017   5.669   6.629   2.443 -0.0802 -0.0989 -0.4849
 2018TIP3    H1 6018   5.687   6.720   2.466 -1.9379 -0.0217  0.9784
 2018TIP3    H2 6019   5.692   6.579   2.522 -1.7220 -0.5111 -0.2314
 2019TIP3   OH2 6020   5.745   0.820   3.798 -0.2306 -0.1528 -0.7820
 2019TIP3    H1 6021   5.665   0.769   3.812  0.0553 -0.6204 -0.8263
 2019TIP3    H2 6022   5.715   0.910   3.792 -0.6164 -0.1872  0.4725
 2020TIP3   OH2 6023   6.808   2.802   2.100 -0.4309 -0.1786  0.4520
 2020TIP3    H1 6024   6.748   2.734   2.069 -0.2829 -0.7688  1.4033
 2020TIP3    H2 6025   6.756   2.882   2.102 -1.4210 -0.8293  1.9861
 2021TIP3   OH2 6026   1.914   3.298   5.452 -0.1761  0.8494  0.3197
 2021TIP3    H1 6027   1.967   3.378   5.450  0.1333  0.6626  0.7137
 2021TIP3    H2 6028   1.824   3.329   5.455 -0.1506  1.1652 -1.2985
 2022TIP3   OH2 6029   7.215   1.067   1.409 -0.0606 -0.2202 -0.2475
 2022TIP3    H1 6030   7.158   1.136   1.442 -0.3382 -0.4259 -0.2981
 2022TIP3    H2 6031   7.168   1.029   1.335 -0.3663 -1.1129  0.3800
 2023TIP3   OH2 6032   4.304   5.529   5.510 -0.1883 -0.2824  0.0067
 2023TIP3    H1 6033   4.387   5.494   5.478 -0.1281 -0.1340  0.0010
 2023TIP3    H2 6034   4.326   5.614   5.548 -0.4828  0.1817 -0.8425
 2024TIP3   OH2 6035   5.158   3.000   2.559 -0.1081  0.1083 -0.0375
 2024TIP3    H1 6036   5.090   2.954   2.510 -1.5429  1.3283  0.7158
 2024TIP3    H2 6037   5.148   2.967   2.649 -0.5926  1.2099  0.3348
 2025TIP3   OH2 6038   5.116   0.407   1.152  0.1947  0.1840 -0.1626
 2025TIP3    H1 6039   5.154   0.374   1.233  3.3025  0.0253 -1.5406
 2025TIP3    H2 6040   5.058   0.336   1.122 -1.0984  0.2976  1.8787
 2026TIP3   OH2 6041   6.244   1.979   5.545 -0.0561 -0.6588  0.1005
 2026TIP3    H1 6042   6.202   1.932   5.473 -0.0958 -2.2788  1.1192
 2026TIP3    H2 6043   6.317   1.923   5.570  0.7026  0.4858  0.5368
 2027TIP3   OH2 6044   6.830   1.791   3.261  0.2786  0.0452 -0.0697
 2027TIP3    H1 6045   6.750   1.803   3.311  0.5782 -2.1641  1.0638
 2027TIP3    H2 6046   6.807   1.816   3.172 -1.1245  1.1845  0.5837
 2028TIP3   OH2 6047   2.141   5.118   4.207 -0.2096 -0.0805  0.2197
 2028TIP3    H1 6048   2.226   5.140   4.168  2.1945  0.1242  4.9576
 2028TIP3    H2 6049   2.095   5.070   4.138  3.3562  0.4781 -2.8651
 2029TIP3   OH2 6050   3.202   3.257   4.927 -0.4593  0.4754  0.0327
 2029TIP3    H1 6051   3.221   3.339   4.881 -0.2057  1.0809  1.1739
 2029TIP3    H2 6052   3.152   3.284   5.003  0.1790 -0.3595  0.7626
 2030TIP3   OH2 6053   6.809   2.211   2.710 -0.0459 -0.2011 -0.1575
 2030TIP3    H1 6054   6.816   2.189   2.617  0.5462  1.2249 -0.4793
 2030TIP3    H2 6055   6.881   2.272   2.725 -1.1566  0.9228  0.8293
 2031TIP3   OH2 6056   5.566   6.714   0.215  0.3254  0.8152 -0.6553
 2031TIP3    H1 6057   5.658   6.690   0.220  0.8559  2.5713 -1.3615
 2031TIP3    H2 6058   5.565   6.809   0.224 -0.9954  1.3471 -4.4171
 2032TIP3   OH2 6059   4.903   6.699   2.692 -0.0313  0.7372  0.4761
 2032TIP3    H1 6060   4.987   6.722   2.732 -0.6903  2.0729  1.1982
 2032TIP3    H2 6061   4.847   6.677   2.766 -0.5494  0.6763  0.0707
 2033TIP3   OH2 6062   2.019   1.942   4.165 -0.8688 -1.0215 -0.0634
 2033TIP3    H1 6063   1.937   1.976   4.129 -0.5773  0.6721  0.7644
 2033TIP3    H2 6064   2.087   1.994   4.123 -0.3736 -0.7750  1.0094
 2034TIP3   OH2 6065   5.229   5.287   0.127  0.3437 -0.3346 -0.0726
 2034TIP3    H1 6066   5.306   5.301   0.183 -0.7801 -0.7167  1.6231
 2034TIP3    H2 6067   5.199   5.199   0.148 -0.6563 -0.1335 -0.5942
 2035TIP3   OH2 6068   5.430   1.068   3.574  0.2609  0.1012  0.3827
 2035TIP3    H1 6069   5.351   1.098   3.619  0.7255 -1.9741  2.8706
 2035TIP3    H2 6070   5.502   1.100   3.629  0.9941 -0.3187 -0.3129
 2036TIP3   OH2 6071   5.862   6.384   5.194 -0.4414 -0.7979  0.0246
 2036TIP3    H1 6072   5.871   6.452   5.128  0.0569 -2.0981 -1.3065
 2036TIP3    H2 6073   5.768   6.370   5.201 -0.6579  1.0659  1.4660
 2037TIP3   OH2 6074   6.332   5.859   4.980  0.3045 -0.9383  0.0796
 2037TIP3    H1 6075   6.291   5.911   4.911  1.7846 -0.3591 -0.3973
 2037TIP3    H2 6076   6.416   5.832   4.943  1.0172 -0.8233  1.5567
 2038TIP3   OH2 6077   0.250   3.148   1.131  0.6747 -0.2992 -0.1613
 2038TIP3    H1 6078   0.330   3.186   1.168  1.1474  1.0499 -2.4144
 2038TIP3    H2 6079   0.217   3.214   1.071 -1.7820 -1.1352  0.1530
 2039TIP3   OH2 6080   3.839   2.147   1.070  0.3867  0.2333 -0.1360
 2039TIP3    H1 6081   3.906   2.078   1.069  1.5543  1.2663  1.5777
 2039TIP3    H2 6082   3.860   2.201   0.994 -0.0469 -0.8109 -1.0294
 2040TIP3   OH2 6083   2.017   0.552   0.005 -0.3433  0.4433 -0.2893
 2040TIP3    H1 6084   2.080   0.574   0.073 -1.4526 -0.8057  1.2007
 2040TIP3    H2 6085   1.936   0.595   0.032 -1.0120 -0.7393 -0.3554
 2041TIP3   OH2 6086   4.470   0.899   4.847 -0.0766  0.7480 -0.6395
 2041TIP3    H1 6087   4.437   0.812   4.827  2.5859 -0.3432 -0.6675
 2041TIP3    H2 6088   4.420   0.927   4.924  1.0052 -2.1203  1.2538
 2042TIP3   OH2 6089   3.250   6.412   5.074  0.9632 -0.0300  0.8768
 2042TIP3    H1 6090   3.283   6.406   4.984 -2.1410  1.8985 -0.5467
 2042TIP3    H2 6091   3.231   6.322   5.098  0.1669 -0.4613 -1.1378
 2043TIP3   OH2 6092   5.455   1.595   3.972 -0.0894  0.5353 -0.0826
 2043TIP3    H1 6093   5.456   1.569   4.064  0.0973 -0.2852 -0.3110
 2043TIP3    H2 6094   5.462   1.691   3.974  0.1258  0.5068  0.7476
 2044TIP3   OH2 6095   6.977   1.043   5.003 -0.0057 -0.3218  0.3618
 2044TIP3    H1 6096   6.914   0.976   4.977 -1.3776  0.5555  1.2695
 2044TIP3    H2 6097   6.923   1.113   5.040  1.4645  0.8039  0.4618
 2045TIP3   OH2 6098   3.793   2.671   4.127  0.1348  0.5439 -0.3297
 2045TIP3    H1 6099   3.851   2.602   4.095  1.7130  2.7744 -2.5930
 2045TIP3    H2 6100   3.722   2.623   4.170  1.8990 -2.4133 -0.4135
 2046TIP3   OH2 6101   3.148   6.729   3.058  0.0404 -0.3563 -0.5577
 2046TIP3    H1 6102   3.188   6.757   2.976 -0.4494 -0.9560 -0.9987
 2046TIP3    H2 6103   3.158   6.805   3.116  3.4821 -1.0422 -0.0306
 2047TIP3   OH2 6104   0.875   6.357   5.427  0.3462 -0.7700 -0.5189
 2047TIP3    H1 6105   0.929   6.437   5.432  2.2939 -2.0069 -0.7979
 2047TIP3    H2 6106   0.803   6.374   5.488  2.1840  0.1600  1.5473
 2048TIP3   OH2 6107   6.532   4.715   0.285 -0.1578 -0.4810  0.2483
 2048TIP3    H1 6108   6.520   4.804   0.252 -0.3528 -0.3949  0.5455
 2048TIP3    H2 6109   6.623   4.693   0.263 -0.3306 -0.4909 -0.4836
 2049TIP3   OH2 6110   3.314   1.550   2.192 -0.2115  0.5914  0.3058
 2049TIP3    H1 6111   3.268   1.468   2.211  0.0300  0.3717 -0.0365
 2049TIP3    H2 6112   3.305   1.602   2.272  0.6103 -0.2218  0.9432
 2050TIP3   OH2 6113   0.658   2.564   5.322 -0.3811  0.0061 -0.0318
 2050TIP3    H1 6114   0.704   2.648   5.328 -2.5361  1.2196  0.5416
 2050TIP3    H2 6115   0.715   2.510   5.268  1.7835  1.3225  0.7798
 2051TIP3   OH2 6116   5.999   0.282   1.889 -0.2086 -0.2870  0.1130
 2051TIP3    H1 6117   6.082   0.319   1.858 -0.4671  0.8744  0.7346
 2051TIP3    H2 6118   6.018   0.253   1.979 -0.1737 -1.1181 -0.1562
 2052TIP3   OH2 6119   2.850   1.047   3.667 -0.0828 -0.1036  0.0710
 2052TIP3    H1 6120   2.803   1.100   3.730 -3.1153 -0.3833 -1.7625
 2052TIP3    H2 6121   2.819   0.958   3.682  2.9748 -1.1008  1.3814
 2053TIP3   OH2 6122   1.858   1.710   2.930  0.0201 -0.0192 -0.0476
 2053TIP3    H1 6123   1.887   1.667   2.849  0.2842  0.5937 -0.2873
 2053TIP3    H2 6124   1.896   1.798   2.925  0.9337 -0.3044  1.2406
 2054TIP3   OH2 6125   1.908   2.332   1.951  0.2556 -0.0140 -0.1418
 2054TIP3    H1 6126   1.961   2.258   1.923 -1.4476 -0.6232 -2.0103
 2054TIP3    H2 6127   1.819   2.310   1.923 -0.2544  2.9046 -1.1890
 2055TIP3   OH2 6128   3.515   6.790   2.517 -0.3230  0.2410  0.4808
 2055TIP3    H1 6129   3.512   6.698   2.490  0.6256  0.7286 -1.3923
 2055TIP3    H2 6130   3.582   6.792   2.586 -0.1443 -0.4243  0.3307
 2056TIP3   OH2 6131   0.391   5.453   2.465  0.0681 -0.0356  0.2769
 2056TIP3    H1 6132   0.454   5.385   2.488  1.2897  0.5980 -1.0190
 2056TIP3    H2 6133   0.445   5.527   2.438 -1.2292  0.3925 -1.2849
 2057TIP3   OH2 6134   1.724   4.775   2.046  0.2872 -0.3779 -0.3523
 2057TIP3    H1 6135   1.786   4.819   1.989  0.0367  3.3638  1.9152
 2057TIP3    H2 6136   1.752   4.800   2.135 -2.4556 -1.3821  0.8963
 2058TIP3   OH2 6137   3.925   4.238   3.159  0.5331 -0.1172  0.3831
 2058TIP3    H1 6138   3.837   4.275   3.153  1.2205  1.7669  1.1733
 2058TIP3    H2 6139   3.967   4.261   3.076  1.0518  1.2363  0.9838
 2059TIP3   OH2 6140   4.374   0.579   0.614  0.1128 -0.2889 -0.5857
 2059TIP3    H1 6141   4.278   0.585   0.614 -0.0391 -1.7428  1.3271
 2059TIP3    H2 6142   4.395   0.536   0.696  2.4215 -0.2743 -1.1068
 2060TIP3   OH2 6143   3.583   4.900   1.920 -0.2331  0.3259  0.1291
 2060TIP3    H1 6144   3.617   4.858   1.999 -1.1482 -2.7303 -0.9784
 2060TIP3    H2 6145   3.653   4.890   1.855 -1.3902 -1.9461 -0.8694
 2061TIP3   OH2 6146   6.100   2.053   2.018 -0.0005 -0.6263 -0.2090
 2061TIP3    H1 6147   6.005   2.060   2.009  0.0214 -1.1649 -0.9298
 2061TIP3    H2 6148   6.116   1.959   2.026  0.4213 -0.4990  0.6317
 2062TIP3   OH2 6149   5.170   2.623   1.294  0.1711 -0.3027  0.2962
 2062TIP3    H1 6150   5.118   2.551   1.259 -0.2816  0.2743 -0.2353
 2062TIP3    H2 6151   5.222   2.654   1.220  0.4455 -0.1513  0.5492
 2063TIP3   OH2 6152   4.692   5.780   2.187  0.0054 -0.4644  0.1539
 2063TIP3    H1 6153   4.679   5.765   2.093 -0.7232  1.1474 -0.0375
 2063TIP3    H2 6154   4.621   5.732   2.229 -1.1958  0.8446 -0.3109
 2064TIP3   OH2 6155   1.123   1.041   2.537 -0.5083 -0.5172 -0.2821
 2064TIP3    H1 6156   1.131   1.104   2.465 -0.8710  0.7631  0.7720
 2064TIP3    H2 6157   1.029   1.026   2.544 -0.4678 -0.6898 -0.1144
 2065TIP3   OH2 6158   1.174   4.107   1.836 -0.1475 -0.0146 -0.0149
 2065TIP3    H1 6159   1.183   4.076   1.926  0.3213  1.6720  0.5649
 2065TIP3    H2 6160   1.094   4.160   1.837  0.2673  0.6266 -0.3966
 2066TIP3   OH2 6161   5.427   0.374   0.555  0.0706  0.2578 -0.5588
 2066TIP3    H1 6162   5.509   0.417   0.531  0.1411 -0.7105 -2.2653
 2066TIP3    H2 6163   5.454   0.289   0.589 -0.0857  1.3086  2.4329
 2067TIP3   OH2 6164   1.483   5.101   2.718  0.2751 -0.6168 -0.0676
 2067TIP3    H1 6165   1.435   5.147   2.787  1.5819  0.8197 -0.0792
 2067TIP3    H2 6166   1.464   5.008   2.733  1.5811 -0.4726  3.0551
 2068TIP3   OH2 6167   0.340   2.718   2.429  0.3298 -0.1536 -0.4826
 2068TIP3    H1 6168   0.351   2.782   2.359 -1.5748 -0.9518 -1.5907
 2068TIP3    H2 6169   0.304   2.768   2.502 -0.0427  0.2388 -0.9336
 2069TIP3   OH2 6170   0.612   2.410   2.853 -0.6569 -0.5624  0.1772
 2069TIP3    H1 6171   0.643   2.419   2.763 -0.1769  1.8547  0.5156
 2069TIP3    H2 6172   0.517   2.422   2.848 -0.5620  0.1553  0.0515
 2070TIP3   OH2 6173   1.832   6.394   3.565 -0.1608  0.5023 -0.1295
 2070TIP3    H1 6174   1.815   6.452   3.639  0.4195  2.5103 -1.5056
 2070TIP3    H2 6175   1.920   6.360   3.581  0.0679  1.1315 -0.0159
 2071TIP3   OH2 6176   1.103   4.203   4.680 -0.3788 -0.4685 -0.0108
 2071TIP3    H1 6177   1.147   4.125   4.711 -0.9286 -0.6395  0.3629
 2071TIP3    H2 6178   1.173   4.266   4.663 -0.0898  0.2319  3.1742
 2072TIP3   OH2 6179   6.259   0.158   0.975  0.5126  0.0137 -0.2048
 2072TIP3    H1 6180   6.286   0.226   1.036 -0.3783  1.0002 -0.8874
 2072TIP3    H2 6181   6.290   0.188   0.890 -0.3264 -0.1711 -0.5885
 2073TIP3   OH2 6182   6.075   0.668   2.254  0.1685  0.3448 -0.0746
 2073TIP3    H1 6183   6.096   0.756   2.224 -0.6899  0.2743 -0.9042
 2073TIP3    H2 6184   6.103   0.610   2.183  1.5146 -0.1441  0.8128
 2074TIP3   OH2 6185   1.013   0.962   5.715 -0.7734  0.1890 -0.7402
 2074TIP3    H1 6186   1.017   0.871   5.746 -1.6165  0.7045  1.0516
 2074TIP3    H2 6187   0.943   0.962   5.649 -0.3309 -0.5752 -1.2226
 2075TIP3   OH2 6188   0.502   0.142   3.037 -0.1212 -0.2780  0.2047
 2075TIP3    H1 6189   0.570   0.095   3.086 -0.4528 -0.3832  0.5672
 2075TIP3    H2 6190   0.521   0.234   3.054  1.5939 -0.1614 -1.9085
 2076TIP3   OH2 6191   0.826   1.117   3.367 -0.0571  0.1714 -0.6303
 2076TIP3    H1 6192   0.827   1.200   3.319 -0.1551  0.4814 -0.1049
 2076TIP3    H2 6193   0.841   1.142   3.458 -0.6184 -0.3358 -0.3932
 2077TIP3   OH2 6194   4.030   3.878   4.796 -0.5551 -0.1309  0.2546
 2077TIP3    H1 6195   4.081   3.935   4.739 -0.0763  0.0074  0.8182
 2077TIP3    H2 6196   4.041   3.790   4.758  0.5845 -0.1968  0.6948
 2078TIP3   OH2 6197   5.856   0.376   0.845 -0.0530 -0.1883  0.1663
 2078TIP3    H1 6198   5.796   0.310   0.811 -2.6285  1.4577  1.2430
 2078TIP3    H2 6199   5.938   0.360   0.799 -1.0948 -2.9467 -0.9342
 2079TIP3   OH2 6200   1.161   4.912   1.711  0.0027 -0.3158  0.0675
 2079TIP3    H1 6201   1.229   4.914   1.644  0.0009  0.7255  0.0862
 2079TIP3    H2 6202   1.097   4.977   1.683 -0.7360 -0.9057  0.3272
 2080TIP3   OH2 6203   1.567   3.357   4.528  0.5742  0.3462  0.4746
 2080TIP3    H1 6204   1.611   3.292   4.473  1.4386  0.5005  0.9695
 2080TIP3    H2 6205   1.479   3.322   4.540  1.1520 -0.9606  1.0967
 2081TIP3   OH2 6206   0.764   3.869   0.488  0.0863  0.7724 -0.1102
 2081TIP3    H1 6207   0.848   3.876   0.533 -0.0734  1.1451  0.1398
 2081TIP3    H2 6208   0.713   3.943   0.521 -0.3185  0.5859 -0.3058
 2082TIP3   OH2 6209   0.978   1.375   5.232 -0.6191  0.7349  0.2058
 2082TIP3    H1 6210   1.009   1.321   5.158 -0.8528  1.9355 -0.8001
 2082TIP3    H2 6211   1.034   1.349   5.305  0.3974  0.3261 -0.6804
 2083TIP3   OH2 6212   0.244   2.556   0.489 -0.0178 -0.5829 -0.4413
 2083TIP3    H1 6213   0.327   2.526   0.527  0.0396  0.4742  0.2957
 2083TIP3    H2 6214   0.269   2.606   0.412  0.0051 -0.6000 -0.4450
 2084TIP3   OH2 6215   5.357   5.024   3.606 -0.6275 -0.4400 -0.6061
 2084TIP3    H1 6216   5.350   4.969   3.528  0.5872 -0.7643 -0.5199
 2084TIP3    H2 6217   5.351   4.963   3.679  1.7827 -0.6892 -0.5186
 2085TIP3   OH2 6218   3.842   2.778   5.023  0.0410  0.1354 -0.0338
 2085TIP3    H1 6219   3.830   2.854   5.080 -0.3628 -0.9106  1.3312
 2085TIP3    H2 6220   3.924   2.795   4.977  0.2397  1.1383  0.6552
 2086TIP3   OH2 6221   2.674   1.400   1.824  0.5707 -0.0397  0.2076
 2086TIP3    H1 6222   2.666   1.331   1.758 -2.4140  0.4564 -0.0883
 2086TIP3    H2 6223   2.634   1.362   1.903  0.1186  0.8730  0.4275
 2087TIP3   OH2 6224   3.956   6.741   1.104 -0.4245 -0.2134 -0.0179
 2087TIP3    H1 6225   3.887   6.689   1.145 -1.4410  1.1800  0.1244
 2087TIP3    H2 6226   3.910   6.816   1.066  0.8697  0.0946 -1.0671
 2088TIP3   OH2 6227   0.205   0.216   2.953  0.0639  0.3592  0.2871
 2088TIP3    H1 6228   0.250   0.299   2.938  1.9493 -0.3826  1.4832
 2088TIP3    H2 6229   0.120   0.242   2.989 -0.5353  1.7921 -1.9372
 2089TIP3   OH2 6230   5.152   1.674   0.745 -0.4178  0.5786  0.4064
 2089TIP3    H1 6231   5.242   1.646   0.730 -0.5510 -0.4077  1.3136
 2089TIP3    H2 6232   5.157   1.730   0.823 -0.7689 -0.7478  1.4241
 2090TIP3   OH2 6233   3.383   6.537   4.088 -0.0668 -1.4155 -0.3384
 2090TIP3    H1 6234   3.442   6.512   4.160  0.6309 -0.8591 -0.7038
 2090TIP3    H2 6235   3.396   6.469   4.022  0.9760 -0.7293 -0.8588
 2091TIP3   OH2 6236   1.940   3.830   2.770  0.3735  0.2502 -0.1866
 2091TIP3    H1 6237   1.965   3.872   2.688  0.8406  0.2189 -0.0633
 2091TIP3    H2 6238   1.989   3.748   2.771  1.4359  0.8531  0.7287
 2092TIP3   OH2 6239   6.508   2.270   1.007  0.2402  0.1311  0.4328
 2092TIP3    H1 6240   6.495   2.241   0.916 -0.6304 -0.1750  0.6460
 2092TIP3    H2 6241   6.437   2.228   1.056  0.2752  0.8662  1.1310
 2093TIP3   OH2 6242   1.264   3.620   0.694 -0.0812 -0.1386 -0.4796
 2093TIP3    H1 6243   1.244   3.687   0.759 -0.2580  0.8356 -1.5032
 2093TIP3    H2 6244   1.266   3.538   0.743  0.7083  0.6776  0.8937
 2094TIP3   OH2 6245   1.544   4.678   0.611  0.6754 -0.1004  0.2151
 2094TIP3    H1 6246   1.526   4.623   0.534  0.7304 -1.3367  1.0504
 2094TIP3    H2 6247   1.459   4.716   0.633  0.9096  1.3870 -1.2478
 2095TIP3   OH2 6248   5.245   1.785   0.985 -0.0076  0.2093  0.3196
 2095TIP3    H1 6249   5.327   1.804   1.029 -0.5691  0.7390  1.1736
 2095TIP3    H2 6250   5.180   1.839   1.031 -0.6275  0.7630 -1.1216
 2096TIP3   OH2 6251   1.072   6.774   2.439 -0.9537  0.1116  0.2340
 2096TIP3    H1 6252   1.027   6.702   2.483 -0.2477 -0.2628  0.3598
 2096TIP3    H2 6253   1.138   6.803   2.503 -1.5968  1.2395  0.4031
 2097TIP3   OH2 6254   5.643   4.280   1.692  0.1667  0.6766  0.3821
 2097TIP3    H1 6255   5.677   4.306   1.606  1.5466 -0.4438  0.5475
 2097TIP3    H2 6256   5.620   4.188   1.681  0.3642  0.5268  1.2174
 2098TIP3   OH2 6257   0.614   5.221   1.138 -0.5169  0.5066  0.5254
 2098TIP3    H1 6258   0.609   5.184   1.050 -0.4406 -0.0126  0.7337
 2098TIP3    H2 6259   0.698   5.188   1.173 -1.1538 -0.3934  1.2696
 2099TIP3   OH2 6260   4.241   5.107   2.238  0.2654  0.2910  0.1533
 2099TIP3    H1 6261   4.257   5.023   2.281 -0.6237 -0.1303 -0.2855
 2099TIP3    H2 6262   4.156   5.095   2.195  1.4896  0.3464 -2.4845
 2100TIP3   OH2 6263   6.477   4.994   5.896 -0.1737 -0.2048 -0.2054
 2100TIP3    H1 6264   6.444   4.918   5.944  2.0903 -0.5745  0.9099
 2100TIP3    H2 6265   6.440   4.985   5.808 -0.9297 -1.9083  0.2448
 2101TIP3   OH2 6266   4.463   4.142   0.664 -0.3591  0.1978  0.3042
 2101TIP3    H1 6267   4.529   4.074   0.675 -0.5598 -0.0084  0.2487
 2101TIP3    H2 6268   4.404   4.106   0.597 -0.5889  0.3307  0.4382
 2102TIP3   OH2 6269   4.343   2.632   5.811 -0.2151  0.1260 -0.5767
 2102TIP3    H1 6270   4.397   2.705   5.840 -1.9606  1.1944  0.1181
 2102TIP3    H2 6271   4.321   2.652   5.721 -0.3279  0.2217 -0.5273
 2103TIP3   OH2 6272   4.053  -0.026   2.048 -0.2119 -0.4881 -0.4413
 2103TIP3    H1 6273   4.029   0.050   2.101  0.3084  0.1903 -1.1550
 2103TIP3    H2 6274   4.140  -0.005   2.013 -0.7024 -0.7127 -1.9007
 2104TIP3   OH2 6275   1.157   4.889   5.732 -0.1705 -0.1810  0.0586
 2104TIP3    H1 6276   1.070   4.923   5.709  0.1055 -1.2274 -3.0475
 2104TIP3    H2 6277   1.209   4.967   5.750 -0.7509  0.8398 -2.2602
 2105TIP3   OH2 6278   5.372   5.084   0.560 -0.2792 -0.3761 -0.1524
 2105TIP3    H1 6279   5.374   5.014   0.626 -0.6744 -0.6829 -0.4562
 2105TIP3    H2 6280   5.337   5.041   0.481  1.3085 -0.3321 -0.9371
 2106TIP3   OH2 6281   2.235   5.166   4.712  0.2497 -0.3783  0.9669
 2106TIP3    H1 6282   2.211   5.142   4.623  1.2264 -1.4107  0.9574
 2106TIP3    H2 6283   2.311   5.224   4.702 -0.4995  0.6757  1.1009
 2107TIP3   OH2 6284   5.494   1.344   5.872  0.5583 -0.0806 -0.2494
 2107TIP3    H1 6285   5.453   1.423   5.907 -0.4533 -0.4876 -0.5020
 2107TIP3    H2 6286   5.460   1.336   5.784 -1.6171 -2.3362  0.6799
 2108TIP3   OH2 6287   5.054   3.036   0.712  0.1849  0.2582 -0.0709
 2108TIP3    H1 6288   5.055   3.049   0.618  0.8395 -1.1455 -0.2882
 2108TIP3    H2 6289   4.965   3.061   0.739  0.2600  1.5159 -0.9037
 2109TIP3   OH2 6290   6.707   5.707   4.591 -0.1682 -0.6220  0.7227
 2109TIP3    H1 6291   6.727   5.700   4.497 -3.0618  0.8469 -0.1106
 2109TIP3    H2 6292   6.786   5.745   4.629  1.2454 -1.6411 -1.0041
 2110TIP3   OH2 6293   4.508   0.366   4.305 -0.0434  0.6572  0.5384
 2110TIP3    H1 6294   4.550   0.341   4.223 -1.8541  0.3013 -0.3241
 2110TIP3    H2 6295   4.477   0.455   4.290  0.6093  1.0231  1.2700
 2111TIP3   OH2 6296   1.461   2.346   0.807 -0.4517 -0.2841 -0.2042
 2111TIP3    H1 6297   1.474   2.351   0.902 -0.9340 -0.4646 -0.1247
 2111TIP3    H2 6298   1.379   2.298   0.797 -1.6130  1.6467 -0.6224
 2112TIP3   OH2 6299   3.615   5.712   1.412  0.1228  0.0186 -0.2581
 2112TIP3    H1 6300   3.650   5.715   1.501 -1.5182  1.5414  0.3799
 2112TIP3    H2 6301   3.530   5.669   1.421 -0.7465  1.5478 -0.8065
 2113TIP3   OH2 6302   7.052   4.641   5.746  0.1638  0.5325 -0.1829
 2113TIP3    H1 6303   7.146   4.627   5.733  0.0431 -0.0105 -0.5264
 2113TIP3    H2 6304   7.020   4.556   5.776 -0.1649  0.8089  0.2520
 2114TIP3   OH2 6305   6.287   3.188   5.643  0.2739 -0.5077  0.2072
 2114TIP3    H1 6306   6.316   3.110   5.689 -0.3439 -0.7004  0.2730
 2114TIP3    H2 6307   6.358   3.207   5.582  1.0489 -0.3109  1.1469
 2115TIP3   OH2 6308   2.352   2.332   2.935 -0.3797  0.3765  0.4608
 2115TIP3    H1 6309   2.309   2.333   3.021  0.1589  0.8554  0.7313
 2115TIP3    H2 6310   2.411   2.407   2.937  0.2525 -0.0980 -0.0236
 2116TIP3   OH2 6311   3.536   2.790   3.568 -0.1506 -0.0503  0.3078
 2116TIP3    H1 6312   3.600   2.805   3.638  0.8506 -2.0219 -0.1028
 2116TIP3    H2 6313   3.543   2.868   3.513  0.5868  0.5750  1.2340
 2117TIP3   OH2 6314   3.766   3.004   5.181  0.1785 -0.0890 -0.6693
 2117TIP3    H1 6315   3.798   3.069   5.243  0.2756 -0.9464  0.2045
 2117TIP3    H2 6316   3.755   3.052   5.099  1.2108  0.7956 -0.3087
 2118TIP3   OH2 6317   2.695   1.689   0.437  0.1058 -0.6102 -0.0781
 2118TIP3    H1 6318   2.766   1.721   0.492  0.6030 -1.1021 -0.4281
 2118TIP3    H2 6319   2.621   1.745   0.460  0.5893 -0.1161  0.3171
 2119TIP3   OH2 6320   0.833   6.469   0.700 -0.1453 -0.2243  0.1428
 2119TIP3    H1 6321   0.744   6.505   0.705 -0.2841 -0.4579 -0.6189
 2119TIP3    H2 6322   0.888   6.546   0.686 -0.0959  0.0544  1.6851
 2120TIP3   OH2 6323   0.762   5.776   0.365 -0.2250  0.1793 -0.2595
 2120TIP3    H1 6324   0.857   5.773   0.377 -0.2540 -2.6828  0.0245
 2120TIP3    H2 6325   0.727   5.731   0.442 -1.8409  1.1815 -0.3700
 2121TIP3   OH2 6326   6.376   4.500   3.802  0.0032 -0.0445  0.4534
 2121TIP3    H1 6327   6.452   4.556   3.787  0.3199 -0.1490  1.5942
 2121TIP3    H2 6328   6.303   4.547   3.762 -0.0870  2.1196  2.9209
 2122TIP3   OH2 6329   1.205   4.887   0.598  0.1910 -0.3699 -0.5016
 2122TIP3    H1 6330   1.247   4.896   0.683 -0.6087 -0.7108 -0.0534
 2122TIP3    H2 6331   1.138   4.820   0.612  0.2334 -0.6244 -1.4721
 2123TIP3   OH2 6332   7.136   5.759   1.594  0.5356 -0.4692  0.0660
 2123TIP3    H1 6333   7.050   5.791   1.619  1.6392  1.7023  1.3685
 2123TIP3    H2 6334   7.132   5.665   1.611 -1.6465 -0.4724 -0.2340
 2124TIP3   OH2 6335   2.045   0.123   5.804 -0.1811 -0.3779  0.4109
 2124TIP3    H1 6336   2.041   0.035   5.766  0.0846  0.2249 -1.0750
 2124TIP3    H2 6337   2.122   0.120   5.861 -0.5997 -1.3135  0.9623
 2125TIP3   OH2 6338   4.815   5.288   5.361 -0.4671 -0.1349  1.0045
 2125TIP3    H1 6339   4.802   5.351   5.432  0.9222 -0.5399  1.6419
 2125TIP3    H2 6340   4.764   5.211   5.388 -0.9881  0.1767  0.9242
 2126TIP3   OH2 6341   1.691   2.195   1.335 -0.0820  0.1305 -0.4778
 2126TIP3    H1 6342   1.729   2.158   1.415 -1.7047 -1.5213 -0.3961
 2126TIP3    H2 6343   1.708   2.289   1.342 -0.2991  0.0634  1.9315
 2127TIP3   OH2 6344   1.432   2.284   3.096 -0.0810 -0.0057 -0.4333
 2127TIP3    H1 6345   1.467   2.195   3.095  1.4007  0.5100  0.9496
 2127TIP3    H2 6346   1.467   2.324   3.016  1.8558  0.2226  0.4671
 2128TIP3   OH2 6347   2.131   4.443   5.314 -0.0894 -0.4587  0.7217
 2128TIP3    H1 6348   2.151   4.361   5.269  0.3806  1.0161 -1.9193
 2128TIP3    H2 6349   2.036   4.453   5.305  0.2160  0.8784 -2.0890
 2129TIP3   OH2 6350   2.328   3.963   2.797 -0.1519  0.0696 -0.5212
 2129TIP3    H1 6351   2.381   3.891   2.762 -0.7818 -0.1313 -1.0982
 2129TIP3    H2 6352   2.275   3.991   2.722  0.1778  1.2278 -0.3283
 2130TIP3   OH2 6353   2.947   6.132   0.351 -0.6901  0.0489  0.0660
 2130TIP3    H1 6354   2.923   6.057   0.404 -0.7642  0.1424  0.1644
 2130TIP3    H2 6355   2.895   6.122   0.271 -0.1778 -0.3804 -0.2201
 2131TIP3   OH2 6356   2.692   1.332   2.524  0.5288 -0.0341  0.5686
 2131TIP3    H1 6357   2.691   1.384   2.444  0.0988 -0.0629  0.5480
 2131TIP3    H2 6358   2.780   1.343   2.560  0.5612  0.3937  0.3640
 2132TIP3   OH2 6359   4.638   2.695   2.836  0.0324 -0.0396  0.1015
 2132TIP3    H1 6360   4.702   2.640   2.882  0.5834 -0.0803 -0.7033
 2132TIP3    H2 6361   4.676   2.783   2.837 -0.9374  0.4054  1.5616
 2133TIP3   OH2 6362   3.168   2.100   2.711  0.2346  0.3389  0.4836
 2133TIP3    H1 6363   3.221   2.179   2.717  0.5843  0.0948  0.6709
 2133TIP3    H2 6364   3.113   2.101   2.788 -0.9963  1.2683 -0.3696
 2134TIP3   OH2 6365   3.298   1.409   1.927  0.3694 -0.2169 -0.5865
 2134TIP3    H1 6366   3.219   1.356   1.938  0.1326  0.2487  0.0012
 2134TIP3    H2 6367   3.293   1.475   1.997  0.1597  1.2059 -1.9039
 2135TIP3   OH2 6368   3.341   5.443   1.729  0.0234  0.6180 -0.0102
 2135TIP3    H1 6369   3.417   5.397   1.766 -1.1857 -1.1299  0.3993
 2135TIP3    H2 6370   3.339   5.526   1.775  0.4086 -0.2253  1.6040
 2136TIP3   OH2 6371   3.377   1.509   1.197 -0.6612 -0.6203  0.5773
 2136TIP3    H1 6372   3.462   1.477   1.165  0.1954 -0.8170  2.8518
 2136TIP3    H2 6373   3.390   1.603   1.209 -1.6776 -0.1505 -1.6326
 2137TIP3   OH2 6374   5.884   4.040   5.362  0.4939  0.6939 -0.1844
 2137TIP3    H1 6375   5.854   4.106   5.425  0.8636  1.1301 -0.4595
 2137TIP3    H2 6376   5.952   4.084   5.311 -0.4566  0.6500 -1.5238
 2138TIP3   OH2 6377   5.253   6.304   2.502  0.4309  0.2245 -0.1753
 2138TIP3    H1 6378   5.343   6.336   2.498 -0.2502  2.1605 -1.1772
 2138TIP3    H2 6379   5.260   6.217   2.541  2.6798  0.5027  0.1511
 2139TIP3   OH2 6380   4.579   2.858   5.737  0.2782  0.4793 -0.3904
 2139TIP3    H1 6381   4.576   2.907   5.819 -0.9056 -0.9900  0.4886
 2139TIP3    H2 6382   4.552   2.922   5.670  1.2920  1.7010  0.3308
 2140TIP3   OH2 6383   2.410   4.247   3.986 -0.1433 -0.1070  0.1699
 2140TIP3    H1 6384   2.357   4.278   3.913 -1.0095 -2.3894 -0.2469
 2140TIP3    H2 6385   2.488   4.211   3.945 -0.5625 -1.2544  0.3546
 2141TIP3   OH2 6386   1.730   5.089   2.295 -0.4187 -0.2062 -0.3225
 2141TIP3    H1 6387   1.657   5.085   2.233 -2.3078 -0.6766  1.8078
 2141TIP3    H2 6388   1.721   5.175   2.336  1.3994  0.4971 -1.3260
 2142TIP3   OH2 6389   5.365   2.483   3.209  0.1085  0.5385 -0.6928
 2142TIP3    H1 6390   5.377   2.547   3.138  0.0114 -0.1259 -1.3190
 2142TIP3    H2 6391   5.426   2.512   3.277  1.0955  0.5027 -1.5378
 2143TIP3   OH2 6392   1.062   0.304   0.127 -0.7940 -0.3719 -0.8344
 2143TIP3    H1 6393   1.127   0.251   0.080 -1.4531 -2.0484  0.0485
 2143TIP3    H2 6394   1.110   0.342   0.200 -0.3970 -0.0606 -1.2520
 2144TIP3   OH2 6395   4.623   5.907   1.629 -0.6712 -0.0838  0.3658
 2144TIP3    H1 6396   4.711   5.918   1.593 -1.2017  0.3086 -0.8697
 2144TIP3    H2 6397   4.588   5.829   1.586 -0.1651 -1.5563  2.4869
 2145TIP3   OH2 6398   1.932   5.271   5.047  0.3155  0.1746  0.1832
 2145TIP3    H1 6399   1.996   5.313   5.105 -0.0498  1.4436 -0.2998
 2145TIP3    H2 6400   1.922   5.183   5.082  1.7588  0.1981  0.7174
 2146TIP3   OH2 6401   5.005   4.646   2.330 -0.3918  0.6216  0.2232
 2146TIP3    H1 6402   5.081   4.700   2.308 -0.2361  0.5283  0.5307
 2146TIP3    H2 6403   4.994   4.589   2.254  0.6703 -0.2968  0.7250
 2147TIP3   OH2 6404   0.264   4.918   2.250 -0.0497 -0.1848 -0.1263
 2147TIP3    H1 6405   0.309   4.963   2.178 -0.8178  1.6998  0.5156
 2147TIP3    H2 6406   0.329   4.912   2.320  0.4457 -1.2887 -0.6472
 2148TIP3   OH2 6407   0.062   3.211   5.597  0.2707 -0.6090  0.1615
 2148TIP3    H1 6408  -0.016   3.234   5.547 -2.0141 -0.4132  3.4796
 2148TIP3    H2 6409   0.105   3.295   5.614  1.0948 -0.6833 -1.3936
 2149TIP3   OH2 6410   0.750   2.756   3.562  0.5822  0.1976 -0.5775
 2149TIP3    H1 6411   0.711   2.799   3.486 -0.4383  1.0565  0.3948
 2149TIP3    H2 6412   0.840   2.789   3.564 -0.1113  2.2110  0.0215
 2150TIP3   OH2 6413   5.515   5.949   2.990  0.0332 -0.0280 -0.3086
 2150TIP3    H1 6414   5.529   5.899   2.909 -0.8435 -0.1648 -0.3821
 2150TIP3    H2 6415   5.489   5.883   3.054 -1.1986  0.3303 -0.4239
 2151TIP3   OH2 6416   1.271   6.351   0.835  0.1479  0.0521 -0.6912
 2151TIP3    H1 6417   1.243   6.437   0.864 -1.0548 -0.4544 -0.2866
 2151TIP3    H2 6418   1.273   6.298   0.914 -0.5826 -0.6657 -1.1406
 2152TIP3   OH2 6419   5.755   2.065   4.709 -0.4773  0.4730  0.6367
 2152TIP3    H1 6420   5.837   2.028   4.740 -1.8097 -0.2520  3.6532
 2152TIP3    H2 6421   5.729   2.008   4.636 -0.4517 -2.1134  2.5092
 2153TIP3   OH2 6422   2.808   4.210   2.835 -0.2181 -0.2094  0.5690
 2153TIP3    H1 6423   2.787   4.120   2.810 -1.6246 -0.6944  3.1437
 2153TIP3    H2 6424   2.879   4.201   2.899  1.5679  0.7765 -1.1925
 2154TIP3   OH2 6425   7.094   0.963   4.580  0.3280 -0.2100  0.0540
 2154TIP3    H1 6426   7.188   0.952   4.597  0.6535  1.8300 -0.1867
 2154TIP3    H2 6427   7.051   0.926   4.657  1.3117 -1.2704  0.1142
 2155TIP3   OH2 6428   6.077   5.994   0.999  0.6164 -0.5194  0.0422
 2155TIP3    H1 6429   6.101   5.944   1.078  2.0790 -2.5656 -1.5909
 2155TIP3    H2 6430   6.159   6.031   0.969  0.0533  0.3075 -0.4941
 2156TIP3   OH2 6431   6.198   1.597   3.925  0.1247 -0.7859  0.2391
 2156TIP3    H1 6432   6.123   1.541   3.907 -1.7836  1.1242  1.7201
 2156TIP3    H2 6433   6.194   1.612   4.020  1.6831  0.3064  0.1701
 2157TIP3   OH2 6434   0.468   1.507   1.837  0.2301 -0.2070  0.2196
 2157TIP3    H1 6435   0.563   1.495   1.839  0.0851 -1.5720  0.1348
 2157TIP3    H2 6436   0.434   1.421   1.810 -0.9769  0.5318 -0.7104
 2158TIP3   OH2 6437   6.066   3.913   1.087 -0.1386 -0.8850 -0.3038
 2158TIP3    H1 6438   6.040   3.839   1.140  1.9054 -0.2396  1.7378
 2158TIP3    H2 6439   5.983   3.949   1.054 -1.2857 -2.7938  0.3396
 2159TIP3   OH2 6440   0.281   0.766   3.394 -0.0610  0.4373 -0.7512
 2159TIP3    H1 6441   0.216   0.769   3.323  0.0944 -2.0820 -1.0972
 2159TIP3    H2 6442   0.233   0.734   3.470  0.1374  1.5184 -0.1576
 2160TIP3   OH2 6443   1.412   1.276   1.664 -0.6216  0.6029 -0.1469
 2160TIP3    H1 6444   1.479   1.312   1.722 -0.6247  0.5934 -0.1374
 2160TIP3    H2 6445   1.461   1.227   1.598 -0.6103  0.7315 -0.2341
 2161TIP3   OH2 6446   4.332   4.583   5.730 -0.5085  0.2151  0.3309
 2161TIP3    H1 6447   4.237   4.587   5.720 -0.5117  0.4040  0.4449
 2161TIP3    H2 6448   4.348   4.500   5.775 -0.7739  1.1227  2.1879
 2162TIP3   OH2 6449   2.150   4.252   5.099 -0.1116  0.1320 -1.0848
 2162TIP3    H1 6450   2.173   4.205   5.018 -0.0588 -0.9780 -0.4504
 2162TIP3    H2 6451   2.058   4.277   5.087  0.0141  0.3494 -1.6531
 2163TIP3   OH2 6452   5.866   1.407   1.240  0.5196  0.5226 -0.3408
 2163TIP3    H1 6453   5.845   1.338   1.177 -0.1823 -0.6278  1.0787
 2163TIP3    H2 6454   5.947   1.446   1.208  1.7435 -1.9507 -0.4533
 2164TIP3   OH2 6455   4.666   3.301   4.823 -0.7074 -0.9170 -0.6644
 2164TIP3    H1 6456   4.756   3.324   4.847 -1.4626  0.8514  0.7841
 2164TIP3    H2 6457   4.647   3.223   4.875 -0.4964 -0.3543  0.2905
 2165TIP3   OH2 6458   5.680   2.330   1.784 -0.4219  0.2957  0.3806
 2165TIP3    H1 6459   5.659   2.238   1.767  0.1902 -0.2305  2.2282
 2165TIP3    H2 6460   5.655   2.344   1.875 -1.4374  2.2765 -0.1339
 2166TIP3   OH2 6461   5.220   0.211   5.035  0.2465  0.1045 -0.1764
 2166TIP3    H1 6462   5.243   0.136   5.090 -0.1255  0.2949  0.2489
 2166TIP3    H2 6463   5.162   0.175   4.968 -0.5488  0.1399  0.4807
 2167TIP3   OH2 6464   4.297   1.019   5.804 -0.3503  0.3795 -0.1335
 2167TIP3    H1 6465   4.263   1.107   5.820 -0.8566 -0.1072  1.7372
 2167TIP3    H2 6466   4.388   1.033   5.778  0.0672  1.4260  1.6946
 2168TIP3   OH2 6467   5.702   4.439   5.078  0.5418  0.4540 -0.3804
 2168TIP3    H1 6468   5.695   4.530   5.048  0.4585 -0.1088 -2.1880
 2168TIP3    H2 6469   5.770   4.441   5.144 -0.0782  1.9779  0.2613
 2169TIP3   OH2 6470   4.045   6.424   2.403  0.2203  0.3078 -0.3288
 2169TIP3    H1 6471   4.107   6.352   2.412  0.3709  0.4893  0.1040
 2169TIP3    H2 6472   4.084   6.481   2.337  1.8840  1.8042  1.8084
 2170TIP3   OH2 6473   2.402   4.953   3.170 -0.3062 -0.1081  0.2448
 2170TIP3    H1 6474   2.479   4.973   3.223 -0.3617  0.6241  0.0611
 2170TIP3    H2 6475   2.335   5.013   3.202 -0.3626  0.2911 -0.6038
 2171TIP3   OH2 6476   5.085   2.278   3.687 -0.0006  0.4333 -0.3091
 2171TIP3    H1 6477   5.063   2.282   3.780 -0.6389  0.3178 -0.4515
 2171TIP3    H2 6478   5.135   2.358   3.671 -1.0158  1.1200 -0.1439
 2172TIP3   OH2 6479   4.354   4.542   0.553 -0.2344 -0.5707  0.2476
 2172TIP3    H1 6480   4.422   4.526   0.488 -1.2034 -0.3126 -0.8749
 2172TIP3    H2 6481   4.301   4.462   0.553 -0.6052 -0.3288  0.2502
 2173TIP3   OH2 6482   0.964   6.176   0.018  0.7263 -0.0144 -0.1143
 2173TIP3    H1 6483   0.988   6.138  -0.066 -1.8632 -2.7809  0.2184
 2173TIP3    H2 6484   1.021   6.133   0.081  0.1436 -0.8058 -0.1102
 2174TIP3   OH2 6485   0.451   4.153   3.250  0.1601 -0.0654 -0.7452
 2174TIP3    H1 6486   0.545   4.136   3.256  0.0328 -0.4962  0.2040
 2174TIP3    H2 6487   0.414   4.107   3.325 -0.9061 -0.5392 -1.5380
 2175TIP3   OH2 6488   2.778   2.576   2.605  0.3570  0.4784 -0.4094
 2175TIP3    H1 6489   2.782   2.609   2.695 -1.4159  0.0083 -0.1179
 2175TIP3    H2 6490   2.687   2.591   2.578  0.5223 -0.5822 -1.6500
 2176TIP3   OH2 6491   3.636   6.610   1.662  0.5580 -0.1735 -0.0333
 2176TIP3    H1 6492   3.645   6.579   1.752  1.1589 -0.6920 -0.2723
 2176TIP3    H2 6493   3.659   6.535   1.608 -0.9343 -0.2240 -0.6404
 2177TIP3   OH2 6494   2.331   0.940   1.993 -0.6599 -0.3540  0.1822
 2177TIP3    H1 6495   2.423   0.917   2.001 -0.9712 -1.8822 -0.3168
 2177TIP3    H2 6496   2.327   1.002   1.920 -0.0087 -0.0608  0.3909
 2178TIP3   OH2 6497   5.500   0.824   0.449  0.8849 -0.3855 -0.6080
 2178TIP3    H1 6498   5.432   0.882   0.483  0.4943 -0.4008 -1.3575
 2178TIP3    H2 6499   5.455   0.768   0.386  1.3908 -1.0760 -0.3719
 2179TIP3   OH2 6500   1.721   1.964   0.845 -0.0165 -0.2807 -0.2632
 2179TIP3    H1 6501   1.710   1.885   0.898 -0.1232 -1.1774 -1.5662
 2179TIP3    H2 6502   1.662   1.950   0.771 -0.8341  1.5238  0.0045
 2180TIP3   OH2 6503   2.211   0.749   0.774 -0.0696 -0.0898  0.0806
 2180TIP3    H1 6504   2.274   0.719   0.709 -0.0353 -0.3311  0.2209
 2180TIP3    H2 6505   2.226   0.691   0.849 -0.1577  0.1368  0.2740
 2181TIP3   OH2 6506   0.727   4.389   1.739  0.5462 -0.0163 -0.2103
 2181TIP3    H1 6507   0.776   4.455   1.691  3.2540  1.2727  3.8367
 2181TIP3    H2 6508   0.636   4.420   1.737  0.7488  0.6870 -2.9906
 2182TIP3   OH2 6509   1.653   5.472   1.526 -0.4235  0.0303 -0.2788
 2182TIP3    H1 6510   1.648   5.423   1.608  2.1128  0.4603  0.2304
 2182TIP3    H2 6511   1.697   5.554   1.550  0.0280  0.3374 -1.9946
 2183TIP3   OH2 6512   5.895   1.960   2.681 -0.1368  0.2864  0.5826
 2183TIP3    H1 6513   5.973   1.903   2.685  1.0877  1.7353 -0.8912
 2183TIP3    H2 6514   5.931   2.047   2.662 -2.1792  0.8593 -0.8969
 2184TIP3   OH2 6515   5.999   2.997   4.423  0.1143  0.2999 -0.1905
 2184TIP3    H1 6516   5.928   3.006   4.359 -0.0190  1.0567  0.0594
 2184TIP3    H2 6517   6.078   3.020   4.375 -0.1397  2.2992  0.2543
 2185TIP3   OH2 6518   2.719   4.434   2.964  0.4395 -0.3927 -0.0391
 2185TIP3    H1 6519   2.726   4.352   2.915  1.2992 -0.6304  0.4521
 2185TIP3    H2 6520   2.680   4.410   3.048  0.9834 -0.3684  0.2308
 2186TIP3   OH2 6521   3.061   2.135   0.475 -0.5161 -0.3954  0.2608
 2186TIP3    H1 6522   3.153   2.128   0.450 -0.8907 -0.5201 -1.1992
 2186TIP3    H2 6523   3.015   2.081   0.410 -1.7712  1.0442 -0.0957
 2187TIP3   OH2 6524   3.702   4.650   3.869  0.2885  0.2688  0.1330
 2187TIP3    H1 6525   3.726   4.565   3.834  2.3651 -0.2963  2.6122
 2187TIP3    H2 6526   3.756   4.713   3.821  0.8618 -0.1399  0.2382
 2188TIP3   OH2 6527   2.497   2.244   2.545 -0.9269  0.4651  0.3051
 2188TIP3    H1 6528   2.530   2.219   2.458 -2.6625 -1.6947  0.1964
 2188TIP3    H2 6529   2.575   2.248   2.600  0.0850  0.8659 -1.0923
 2189TIP3   OH2 6530   4.806   4.157   5.521 -0.4471  0.3608  0.0125
 2189TIP3    H1 6531   4.759   4.239   5.533  0.2461  1.0791 -1.7867
 2189TIP3    H2 6532   4.769   4.098   5.587 -1.8607  1.7123  0.4934
 2190TIP3   OH2 6533   4.112   0.841   4.545  0.2952 -0.4942 -0.0976
 2190TIP3    H1 6534   4.090   0.785   4.619 -0.2268  0.3179  0.3788
 2190TIP3    H2 6535   4.133   0.925   4.585 -1.7143  0.4795 -0.9598
 2191TIP3   OH2 6536   0.123   0.628   2.903 -0.8793 -0.4803 -0.4794
 2191TIP3    H1 6537   0.078   0.696   2.953 -0.3643 -0.4769 -0.0209
 2191TIP3    H2 6538   0.179   0.584   2.966  2.2658  1.5774 -1.5847
 2192TIP3   OH2 6539   6.221   4.977   2.834  0.0983 -0.8974  0.1934
 2192TIP3    H1 6540   6.273   4.922   2.893 -0.1571 -1.9262 -0.5033
 2192TIP3    H2 6541   6.284   5.005   2.767  0.7549  1.5418  1.7209
 2193TIP3   OH2 6542   7.013   4.768   3.718 -0.4785 -0.4236 -0.5334
 2193TIP3    H1 6543   6.976   4.718   3.645 -1.9695 -1.3353  0.7897
 2193TIP3    H2 6544   6.983   4.722   3.797 -0.2278  1.4271  0.7035
 2194TIP3   OH2 6545   0.655   5.024   2.021  0.2356  0.2119 -0.3056
 2194TIP3    H1 6546   0.702   4.980   1.950 -2.2602 -1.5953 -0.9416
 2194TIP3    H2 6547   0.637   5.112   1.987  3.1631  1.0858  0.0566
 2195TIP3   OH2 6548   0.249   5.420   0.701  0.0453  0.3424 -0.0524
 2195TIP3    H1 6549   0.173   5.364   0.688  1.6305 -1.6267 -1.3673
 2195TIP3    H2 6550   0.292   5.386   0.780  0.5960  0.1894 -0.4123
 2196TIP3   OH2 6551   4.176   0.069   0.470 -0.3136 -0.1897 -0.4040
 2196TIP3    H1 6552   4.127   0.144   0.438 -0.3617  0.9974  2.2292
 2196TIP3    H2 6553   4.244   0.106   0.526 -0.8648 -2.0749  1.6739
 2197TIP3   OH2 6554   4.336   2.133   3.995 -0.1925 -0.6193  0.1053
 2197TIP3    H1 6555   4.319   2.161   4.086  1.9237 -0.3404  0.4598
 2197TIP3    H2 6556   4.380   2.208   3.956 -1.6924 -0.4770 -1.4030
 2198TIP3   OH2 6557   2.337   5.033   1.145 -0.2357 -0.2766  0.0185
 2198TIP3    H1 6558   2.314   5.106   1.089 -2.5997  1.0666  2.4842
 2198TIP3    H2 6559   2.341   5.071   1.233  1.7624 -2.5237  1.0199
 2199TIP3   OH2 6560   2.369   2.677   3.042  0.0238 -0.2776  0.0153
 2199TIP3    H1 6561   2.353   2.618   3.116 -0.1932  0.2347  0.3884
 2199TIP3    H2 6562   2.288   2.725   3.032  0.0934 -0.2694 -0.4935
 2200TIP3   OH2 6563   0.658   0.525   4.109 -0.2732  0.0093 -0.3788
 2200TIP3    H1 6564   0.740   0.475   4.119 -0.0407 -0.0569 -2.2286
 2200TIP3    H2 6565   0.600   0.466   4.060 -0.6078  0.8783 -1.0655
 2201TIP3   OH2 6566   2.146   3.500   4.308 -0.1755 -0.3068  0.4090
 2201TIP3    H1 6567   2.184   3.413   4.316 -0.2774 -0.2904  1.1415
 2201TIP3    H2 6568   2.115   3.505   4.217 -0.1870 -1.0308  0.3706
 2202TIP3   OH2 6569   2.823   1.271   5.180 -0.2037 -0.4493 -0.5381
 2202TIP3    H1 6570   2.879   1.316   5.117  0.2344 -1.1764 -0.6879
 2202TIP3    H2 6571   2.734   1.293   5.154 -0.0056  1.9756  0.6302
 2203TIP3   OH2 6572   5.069   5.110   2.022  0.0098  0.1606 -0.2377
 2203TIP3    H1 6573   5.092   5.124   2.113  0.1401  0.0186 -0.2476
 2203TIP3    H2 6574   5.027   5.023   2.020  1.5488 -0.6038 -0.5721
 2204TIP3   OH2 6575   4.935   1.003   4.787  0.1218  0.3531 -0.5576
 2204TIP3    H1 6576   4.946   0.945   4.862 -1.6252  1.0785  0.3251
 2204TIP3    H2 6577   4.876   0.956   4.729 -2.1352  1.5514  0.6297
 2205TIP3   OH2 6578   2.155   5.474   4.715  0.1411  0.7023 -0.4453
 2205TIP3    H1 6579   2.079   5.501   4.663 -0.7777  0.3735  0.6674
 2205TIP3    H2 6580   2.154   5.535   4.790  0.6923  0.3939 -0.1858
 2206TIP3   OH2 6581   4.642   4.763   1.751 -0.3072 -0.2314  0.4715
 2206TIP3    H1 6582   4.592   4.722   1.821  0.2838 -0.2270  0.9017
 2206TIP3    H2 6583   4.722   4.711   1.744  0.3072  0.6350  0.8023
 2207TIP3   OH2 6584   5.502   0.794   4.646  0.5337  0.6325 -0.0105
 2207TIP3    H1 6585   5.474   0.710   4.681  0.8450 -0.2919 -1.8586
 2207TIP3    H2 6586   5.596   0.784   4.630  0.8594  1.8146  0.9765
 2208TIP3   OH2 6587   3.570   0.095   3.948  0.2428  0.1468  0.2109
 2208TIP3    H1 6588   3.577   0.065   3.858  1.8274 -0.3973  0.4874
 2208TIP3    H2 6589   3.598   0.020   4.001  2.7905  1.5360  0.9817
 2209TIP3   OH2 6590   1.540   6.522   0.260 -0.6351  0.2072  0.5290
 2209TIP3    H1 6591   1.482   6.511   0.185 -3.2102  2.0189  2.0875
 2209TIP3    H2 6592   1.577   6.610   0.249  1.6236 -0.7781 -0.2357
 2210TIP3   OH2 6593   1.937   1.398   4.930 -0.4252 -0.0573  0.2509
 2210TIP3    H1 6594   1.896   1.462   4.989 -0.0963  0.1663  0.2423
 2210TIP3    H2 6595   1.909   1.426   4.843 -0.8887 -0.3715  0.2979
 2211TIP3   OH2 6596   3.668   5.302   4.816  0.7535 -0.9687 -0.4152
 2211TIP3    H1 6597   3.618   5.352   4.752  0.0080 -0.5400  0.4699
 2211TIP3    H2 6598   3.618   5.221   4.829  1.6609 -1.7274 -1.4223
 2212TIP3   OH2 6599   4.982   3.504   2.656  0.4613 -0.2926  0.4440
 2212TIP3    H1 6600   4.939   3.422   2.633 -0.8488  0.8890 -1.6551
 2212TIP3    H2 6601   4.930   3.539   2.728 -1.9608  0.8243 -1.6653
 2213TIP3   OH2 6602   2.556   0.508   3.567  0.5799 -0.3180  0.3340
 2213TIP3    H1 6603   2.481   0.540   3.517 -0.1992 -1.5144  0.6749
 2213TIP3    H2 6604   2.612   0.466   3.501 -0.9773 -2.8830  0.4860
 2214TIP3   OH2 6605   7.030   6.426   3.762  0.1008 -0.1796  0.4126
 2214TIP3    H1 6606   7.008   6.504   3.712 -2.0348 -1.6063 -1.0197
 2214TIP3    H2 6607   7.103   6.453   3.818  0.1683  2.4886 -0.8370
 2215TIP3   OH2 6608   1.778   6.075   4.705 -0.0968 -0.2639 -0.6901
 2215TIP3    H1 6609   1.868   6.094   4.733  0.2829  0.4766 -2.2970
 2215TIP3    H2 6610   1.728   6.152   4.731 -0.4436 -0.9126  0.7260
 2216TIP3   OH2 6611   3.954   0.456   3.548  0.4971  0.1787 -0.6114
 2216TIP3    H1 6612   3.988   0.542   3.573  0.0632  0.7533 -1.8846
 2216TIP3    H2 6613   3.874   0.475   3.499  0.0774 -0.9862 -0.4177
 2217TIP3   OH2 6614   1.778   5.251   5.634 -0.1079 -0.0967 -0.3300
 2217TIP3    H1 6615   1.715   5.322   5.643  0.5890  0.6856 -1.4312
 2217TIP3    H2 6616   1.863   5.294   5.631  0.4166 -1.0701  0.1473
 2218TIP3   OH2 6617   6.489   4.167   4.394 -0.4401 -0.1606  0.5039
 2218TIP3    H1 6618   6.509   4.173   4.487  2.1718 -2.3275  0.2227
 2218TIP3    H2 6619   6.529   4.245   4.355 -0.9785  0.4210  1.1005
 2219TIP3   OH2 6620   6.101   2.198   2.999 -0.2577  0.6015  0.5733
 2219TIP3    H1 6621   6.140   2.215   2.914  0.2106 -0.1159  0.6360
 2219TIP3    H2 6622   6.088   2.103   3.001 -0.4255  0.6326  1.2320
 2220TIP3   OH2 6623   7.052   6.063   2.736 -0.1115 -0.2651  0.4001
 2220TIP3    H1 6624   7.130   6.081   2.789  0.6182 -1.2387 -0.2988
 2220TIP3    H2 6625   7.067   5.975   2.701 -1.3451 -0.3012 -0.0762
 2221TIP3   OH2 6626   2.223   0.371   2.308  0.0010 -0.0409 -0.3940
 2221TIP3    H1 6627   2.292   0.314   2.341  0.1639  0.5847  0.3722
 2221TIP3    H2 6628   2.230   0.451   2.361 -0.2864  0.6596 -1.3722
 2222TIP3   OH2 6629   4.267   4.790   0.512  0.4111  0.0724  0.5891
 2222TIP3    H1 6630   4.347   4.842   0.521  0.2034  0.7806 -1.2867
 2222TIP3    H2 6631   4.293   4.702   0.540  1.7225  0.3918  0.4637
 2223TIP3   OH2 6632   1.137   2.642   4.316 -0.0800 -0.3520  0.6741
 2223TIP3    H1 6633   1.208   2.578   4.307 -1.0883 -1.2310 -1.7838
 2223TIP3    H2 6634   1.060   2.599   4.280 -0.8673  2.0852 -0.8615
 2224TIP3   OH2 6635   2.910   1.201   1.747 -0.0068 -0.6810  0.1512
 2224TIP3    H1 6636   2.815   1.194   1.737 -0.0713  0.7864 -0.3969
 2224TIP3    H2 6637   2.940   1.245   1.668  1.2728 -1.9562 -0.1241
 2225TIP3   OH2 6638   4.139   0.343   4.609 -0.2748 -0.0499 -0.0021
 2225TIP3    H1 6639   4.091   0.396   4.545  1.2210  0.5261 -0.6792
 2225TIP3    H2 6640   4.086   0.350   4.689 -0.0475  2.7013  0.0116
 2226TIP3   OH2 6641   0.875   4.132   1.423 -0.1624  0.2169 -0.4033
 2226TIP3    H1 6642   0.846   4.064   1.362 -3.2860  1.0637 -0.0603
 2226TIP3    H2 6643   0.879   4.212   1.369 -1.6153  0.7053  0.1673
 2227TIP3   OH2 6644   0.644   1.275   2.048  0.3075 -0.3617  0.0542
 2227TIP3    H1 6645   0.723   1.269   2.102  0.6157  0.2062 -0.3220
 2227TIP3    H2 6646   0.670   1.327   1.972 -0.4259 -0.1845 -0.0879
 2228TIP3   OH2 6647   2.334   0.638   1.166 -0.2481  0.2826  0.1679
 2228TIP3    H1 6648   2.302   0.579   1.233 -4.1063 -0.7954 -2.2890
 2228TIP3    H2 6649   2.306   0.725   1.195 -0.0754  0.0926  0.9064
 2229TIP3   OH2 6650   3.329   0.707   0.664 -0.3582  0.1183 -0.1170
 2229TIP3    H1 6651   3.323   0.790   0.616 -1.2097 -0.6412 -1.3891
 2229TIP3    H2 6652   3.328   0.640   0.596 -0.4592 -0.9703  0.9276
 2230TIP3   OH2 6653   4.984   1.946   0.868 -0.1674 -0.1626 -0.5396
 2230TIP3    H1 6654   4.892   1.949   0.894 -0.9301 -3.2354 -2.4239
 2230TIP3    H2 6655   5.009   2.038   0.859 -2.1754  0.8723  2.6062
 2231TIP3   OH2 6656   2.822   5.769   3.403  0.0080  0.0208  0.1344
 2231TIP3    H1 6657   2.858   5.853   3.375  1.6691 -0.5695  0.3948
 2231TIP3    H2 6658   2.898   5.717   3.429 -0.9277 -1.7499 -0.4834
 2232TIP3   OH2 6659   0.910   3.041   4.682  0.7942 -0.3678 -0.1783
 2232TIP3    H1 6660   0.908   3.073   4.591  2.2128  0.7920  0.1655
 2232TIP3    H2 6661   1.001   3.017   4.696  0.2436 -2.2932  0.3953
 2233TIP3   OH2 6662   3.381   3.364   2.289  0.1495  0.1150 -0.1922
 2233TIP3    H1 6663   3.337   3.294   2.337 -1.6820  2.5842  2.0030
 2233TIP3    H2 6664   3.312   3.405   2.237  1.4505 -0.4265 -2.4499
 2234TIP3   OH2 6665   6.402   3.481   0.107  0.2834 -1.0528 -0.1353
 2234TIP3    H1 6666   6.349   3.560   0.098 -0.0891 -1.0637  1.6711
 2234TIP3    H2 6667   6.343   3.410   0.080 -0.0307 -0.9034  0.1603
 2235TIP3   OH2 6668   2.516   4.288   0.641 -0.4363 -0.6678  0.0153
 2235TIP3    H1 6669   2.456   4.214   0.650  0.5617 -1.5475 -0.3750
 2235TIP3    H2 6670   2.577   4.262   0.571  1.8611 -0.8517  1.9556
 2236TIP3   OH2 6671   1.351   2.128   0.959 -0.5303 -0.5208  0.2856
 2236TIP3    H1 6672   1.419   2.098   1.020  1.3863  0.5116 -1.2046
 2236TIP3    H2 6673   1.305   2.048   0.933  1.6174 -1.6277 -0.3565
 2237TIP3   OH2 6674   1.399   6.089   5.838  0.6038  0.0399  0.2247
 2237TIP3    H1 6675   1.426   6.125   5.923 -0.2431 -0.0830  0.5562
 2237TIP3    H2 6676   1.304   6.096   5.839  0.6284  0.8169 -1.0701
 2238TIP3   OH2 6677   6.240   5.918   2.419  0.4564 -0.2719 -0.2426
 2238TIP3    H1 6678   6.253   5.933   2.513  1.7424 -3.1010  0.1362
 2238TIP3    H2 6679   6.270   5.999   2.378  2.3219  0.1067  1.6925
 2239TIP3   OH2 6680   1.761   1.126   0.474 -0.3329  0.3287  0.1668
 2239TIP3    H1 6681   1.835   1.096   0.420 -0.2298  0.4688  0.2286
 2239TIP3    H2 6682   1.725   1.046   0.512 -0.9591  0.1284 -0.8050
 2240TIP3   OH2 6683   5.351   6.597   2.600  0.0329  0.1722  0.1012
 2240TIP3    H1 6684   5.398   6.639   2.528  0.0983 -1.9363 -1.1642
 2240TIP3    H2 6685   5.399   6.516   2.616 -2.3502 -1.4151 -0.3251
 2241TIP3   OH2 6686   6.651   0.784   1.041  0.1929 -0.1817  0.1727
 2241TIP3    H1 6687   6.574   0.775   0.984  0.8273  0.4301 -0.8165
 2241TIP3    H2 6688   6.649   0.706   1.096 -0.1725 -1.0591 -1.0436
 2242TIP3   OH2 6689   4.215   3.835   3.904  0.6385 -0.3882  0.0625
 2242TIP3    H1 6690   4.247   3.911   3.855  1.2058 -0.6332  0.0410
 2242TIP3    H2 6691   4.148   3.871   3.963  0.9040  0.1305  0.0579
 2243TIP3   OH2 6692   5.304   6.475   1.973 -0.6673 -0.0281 -0.7207
 2243TIP3    H1 6693   5.212   6.496   1.953 -1.1179 -2.8428 -2.1292
 2243TIP3    H2 6694   5.342   6.453   1.888  0.9378 -0.2964  0.0406
 2244TIP3   OH2 6695   0.072   4.898   0.969 -0.6194  0.4445  0.3712
 2244TIP3    H1 6696   0.144   4.921   0.909 -1.4044  2.0932 -0.0001
 2244TIP3    H2 6697   0.090   4.948   1.048 -0.5015 -0.4130  0.8998
 2245TIP3   OH2 6698   0.450   0.530   4.682 -0.7246  0.4798  0.0741
 2245TIP3    H1 6699   0.429   0.597   4.747  1.1166  0.9824  0.2106
 2245TIP3    H2 6700   0.367   0.485   4.666 -1.4820  1.1547  1.8405
 2246TIP3   OH2 6701   3.905   5.572   2.348  0.3116 -0.4213 -0.4704
 2246TIP3    H1 6702   3.922   5.580   2.442 -1.1676 -1.0773 -0.1289
 2246TIP3    H2 6703   3.973   5.512   2.317  1.8648  1.0961 -0.1790
 2247TIP3   OH2 6704   3.853   4.807   1.838  0.4742 -0.6415 -0.5136
 2247TIP3    H1 6705   3.845   4.780   1.747  1.5510  0.3927 -0.9391
 2247TIP3    H2 6706   3.938   4.853   1.842 -0.5721  1.3457  0.4694
 2248TIP3   OH2 6707   3.825   1.670   5.637 -0.4026 -0.1543 -0.0034
 2248TIP3    H1 6708   3.831   1.590   5.585  0.2382 -0.5031  0.5969
 2248TIP3    H2 6709   3.746   1.658   5.690 -1.8695  0.8067 -1.8606
 2249TIP3   OH2 6710   4.969   1.319   0.400 -0.4520  0.2808  0.3542
 2249TIP3    H1 6711   4.970   1.268   0.481 -1.5964  0.2144  0.3337
 2249TIP3    H2 6712   4.932   1.260   0.334  0.4599  0.3369 -0.2264
 2250TIP3   OH2 6713   5.458   4.846   3.818  0.0425 -0.0219 -0.1458
 2250TIP3    H1 6714   5.518   4.771   3.822 -0.5945 -0.5211  0.2061
 2250TIP3    H2 6715   5.464   4.885   3.905  1.5541  1.2937 -0.7902
 2251TIP3   OH2 6716   0.465   3.604   2.139 -0.4044  0.3600 -0.2860
 2251TIP3    H1 6717   0.423   3.594   2.224 -0.5837 -0.7572 -0.4893
 2251TIP3    H2 6718   0.424   3.537   2.084  1.3064 -0.4600 -0.6200
 2252TIP3   OH2 6719   7.078   6.747   3.412  0.2928 -0.0674 -0.0696
 2252TIP3    H1 6720   7.037   6.669   3.448  1.1141 -0.2487  0.5164
 2252TIP3    H2 6721   7.009   6.791   3.363 -0.0427 -1.4345 -0.8693
 2253TIP3   OH2 6722   3.388   3.482   1.434 -0.9671  0.0627  0.6899
 2253TIP3    H1 6723   3.380   3.419   1.362 -0.7316  0.8576 -0.0502
 2253TIP3    H2 6724   3.301   3.484   1.474 -0.9863 -0.6951  0.6928
 2254TIP3   OH2 6725   5.657   2.814   0.427  0.4687 -0.1906 -0.2141
 2254TIP3    H1 6726   5.564   2.793   0.434  0.6393 -0.6415  0.9962
 2254TIP3    H2 6727   5.661   2.887   0.365 -0.6794 -0.2290 -0.3486
 2255TIP3   OH2 6728   6.331   0.360   2.991 -0.0820  0.4054 -0.1328
 2255TIP3    H1 6729   6.331   0.445   2.947 -2.6710  0.4814 -0.1770
 2255TIP3    H2 6730   6.294   0.379   3.078 -3.3252 -0.9450 -1.0658
 2256TIP3   OH2 6731   4.263   5.989   0.120  0.4526 -0.3624  0.3920
 2256TIP3    H1 6732   4.345   5.997   0.073  0.9453 -0.5504  1.1996
 2256TIP3    H2 6733   4.256   5.895   0.141 -1.6326 -1.0161 -2.5793
 2257TIP3   OH2 6734   6.551   5.492   1.345 -0.7966  0.2321 -0.0097
 2257TIP3    H1 6735   6.588   5.494   1.257 -0.0662 -1.8941  0.1950
 2257TIP3    H2 6736   6.466   5.534   1.336 -0.2786  1.0521 -1.4739
 2258TIP3   OH2 6737   2.946   6.078   2.396  0.3858  0.3579 -0.6614
 2258TIP3    H1 6738   2.944   6.173   2.412  0.6312  0.2167  0.2801
 2258TIP3    H2 6739   2.856   6.055   2.374  0.4253  0.8916 -1.4076
 2259TIP3   OH2 6740   6.846   5.659   4.354  0.2564  0.4472  0.5423
 2259TIP3    H1 6741   6.856   5.567   4.329 -0.3305  0.4825  0.1565
 2259TIP3    H2 6742   6.936   5.692   4.359  0.5078 -0.3188  1.3702
 2260TIP3   OH2 6743   0.078   4.626   3.213 -0.4536  0.4081  0.5729
 2260TIP3    H1 6744   0.117   4.704   3.174  1.6405 -0.6312  0.4653
 2260TIP3    H2 6745   0.066   4.649   3.305  1.9607  0.2576  0.9757
 2261TIP3   OH2 6746   4.581   0.008   0.727  0.0961 -0.0561  0.3913
 2261TIP3    H1 6747   4.582   0.076   0.660  0.6157 -1.1046 -0.6894
 2261TIP3    H2 6748   4.667  -0.035   0.720  0.3902  0.1545  2.1007
 2262TIP3   OH2 6749   6.849   1.551   0.739 -0.0975 -0.4763  0.1960
 2262TIP3    H1 6750   6.886   1.503   0.812  1.9428 -0.2804 -0.6424
 2262TIP3    H2 6751   6.837   1.640   0.772 -2.4164 -1.0981  1.2648
 2263TIP3   OH2 6752   3.217   2.295   1.318 -0.3934  0.3519  0.2011
 2263TIP3    H1 6753   3.255   2.269   1.234  0.8499 -1.1003  1.1465
 2263TIP3    H2 6754   3.123   2.287   1.305 -0.3080  1.3506 -1.3962
 2264TIP3   OH2 6755   1.208   2.375   5.588  0.0521  0.2422  0.0689
 2264TIP3    H1 6756   1.236   2.438   5.522  1.5432 -0.7776 -0.3446
 2264TIP3    H2 6757   1.115   2.363   5.572  0.5733 -0.9095 -2.7600
 2265TIP3   OH2 6758   1.127   4.502   0.564 -0.5947  0.2660 -0.1202
 2265TIP3    H1 6759   1.202   4.481   0.619  1.5991  3.9735 -1.3794
 2265TIP3    H2 6760   1.074   4.562   0.616 -0.5939  0.7096 -0.6191
 2266TIP3   OH2 6761   2.284   6.036   5.794 -0.0883 -0.4429 -0.7288
 2266TIP3    H1 6762   2.204   6.078   5.764  0.1224 -1.1141 -2.3279
 2266TIP3    H2 6763   2.287   5.952   5.748  2.3382  0.2552 -2.0375
 2267TIP3   OH2 6764   2.634   0.967   5.520 -0.5162  0.1630 -0.2067
 2267TIP3    H1 6765   2.679   0.887   5.545  0.5443  0.7568 -0.1517
 2267TIP3    H2 6766   2.607   1.007   5.603 -0.4661  0.1900 -0.2033
 2268TIP3   OH2 6767   7.060   0.131   0.653  0.8111  0.3480 -0.5614
 2268TIP3    H1 6768   7.014   0.048   0.643  1.9725 -0.2703 -0.9020
 2268TIP3    H2 6769   7.060   0.170   0.566  0.5791  0.5342 -0.4779
 2269TIP3   OH2 6770   0.854   5.535   4.641 -0.6076 -0.1223  0.6252
 2269TIP3    H1 6771   0.926   5.577   4.594  0.6169 -0.2248  2.3229
 2269TIP3    H2 6772   0.856   5.444   4.611 -0.3838 -0.0027  0.2672
 2270TIP3   OH2 6773   0.932   4.940   3.963  0.2958  0.1234 -0.5989
 2270TIP3    H1 6774   0.945   4.880   3.889  0.0400 -1.8351  0.8580
 2270TIP3    H2 6775   1.021   4.966   3.988  0.3613  1.2737 -1.9109
 2271TIP3   OH2 6776   6.716   2.433   0.794 -0.2294  0.4562  0.4516
 2271TIP3    H1 6777   6.679   2.504   0.741  1.1274 -0.2055 -1.5089
 2271TIP3    H2 6778   6.640   2.384   0.824 -1.0928  0.5192 -1.4408
 2272TIP3   OH2 6779   3.815   2.530   5.787 -0.0023  0.6312 -0.4109
 2272TIP3    H1 6780   3.905   2.500   5.771 -0.4304 -0.3322 -1.0960
 2272TIP3    H2 6781   3.787   2.482   5.865 -0.3206  0.0360 -0.8851
 2273TIP3   OH2 6782   0.132   6.570   4.810 -0.8481  0.0316 -0.0940
 2273TIP3    H1 6783   0.150   6.537   4.898 -0.2099 -0.7015 -0.4892
 2273TIP3    H2 6784   0.037   6.584   4.809 -0.9448 -0.5131  0.5226
 2274TIP3   OH2 6785   6.067   5.785   2.682 -0.8393  1.0649 -0.2892
 2274TIP3    H1 6786   6.009   5.795   2.757 -1.5333  1.6808 -0.8925
 2274TIP3    H2 6787   6.022   5.724   2.624  0.2604 -0.3851  0.3203
 2275TIP3   OH2 6788   2.978   3.993   4.853  0.4076 -0.0124 -0.2863
 2275TIP3    H1 6789   3.006   3.906   4.881  2.5675  1.1149  1.3979
 2275TIP3    H2 6790   3.046   4.022   4.792  0.7411  1.1877  0.6189
 2276TIP3   OH2 6791   3.720   0.587   1.436  0.6842  0.2445 -0.0729
 2276TIP3    H1 6792   3.771   0.580   1.355 -1.1308 -0.4590 -1.2053
 2276TIP3    H2 6793   3.639   0.540   1.417  0.8314 -1.3180  2.7110
 2277TIP3   OH2 6794   0.350   1.523   2.084  0.2040  0.0049  0.0175
 2277TIP3    H1 6795   0.256   1.535   2.071  0.5097  2.1516 -0.5699
 2277TIP3    H2 6796   0.387   1.528   1.996  0.9616  0.2715  0.3421
 2278TIP3   OH2 6797   2.670   2.015   3.523 -0.3481 -0.1226  0.3390
 2278TIP3    H1 6798   2.715   2.033   3.606 -0.3351 -0.7872  0.4895
 2278TIP3    H2 6799   2.610   1.943   3.544 -0.7451  0.0756 -0.1024
 2279TIP3   OH2 6800   6.211   0.999   3.160  0.5994 -0.4514  0.3079
 2279TIP3    H1 6801   6.251   0.962   3.081 -0.2154  1.9233 -1.3018
 2279TIP3    H2 6802   6.140   0.937   3.182  2.2836 -2.3708  0.6468
 2280TIP3   OH2 6803   6.653   1.904   1.085  0.2252 -0.1625  0.3105
 2280TIP3    H1 6804   6.641   1.996   1.061  1.6910 -0.0865 -0.2866
 2280TIP3    H2 6805   6.710   1.907   1.162  0.5447 -0.5544  0.0956
 2281TIP3   OH2 6806   0.667   6.703   4.826  0.3125 -0.6457  0.0138
 2281TIP3    H1 6807   0.657   6.639   4.755 -2.1483 -0.0142 -0.3025
 2281TIP3    H2 6808   0.610   6.775   4.800 -0.3848 -0.2445  2.4992
 2282TIP3   OH2 6809   6.356   4.911   4.504 -0.3245  0.3657  0.5878
 2282TIP3    H1 6810   6.440   4.879   4.536 -0.8875 -0.2668  1.4459
 2282TIP3    H2 6811   6.330   4.848   4.437  0.2879  1.0506 -0.3338
 2283TIP3   OH2 6812   6.205   0.265   5.247 -0.2121  0.2398 -0.2444
 2283TIP3    H1 6813   6.180   0.213   5.171  0.5488  1.3069 -1.2770
 2283TIP3    H2 6814   6.139   0.334   5.252 -0.3503  0.0781  0.1566
 2284TIP3   OH2 6815   1.385   6.143   3.019  0.4249  0.3532 -0.2992
 2284TIP3    H1 6816   1.474   6.143   3.056  0.1187 -0.0347  0.4589
 2284TIP3    H2 6817   1.399   6.158   2.925  1.1837  1.9716  0.0282
 2285TIP3   OH2 6818   3.163   2.570   5.641 -0.2427 -0.0378 -0.2029
 2285TIP3    H1 6819   3.117   2.642   5.598  1.9134  2.6582  1.6162
 2285TIP3    H2 6820   3.201   2.610   5.720  2.9933 -2.5957 -0.2606
 2286TIP3   OH2 6821   7.098   4.105   5.606 -0.5876  0.3021  0.1758
 2286TIP3    H1 6822   7.081   4.097   5.700  0.6879  0.0114  0.3934
 2286TIP3    H2 6823   7.090   4.016   5.573 -3.3389  0.6781 -0.4504
 2287TIP3   OH2 6824   4.600   5.882   3.415  0.2862  0.6000  0.1733
 2287TIP3    H1 6825   4.603   5.791   3.387  0.2996 -0.1020  2.2737
 2287TIP3    H2 6826   4.665   5.888   3.486 -1.6333  1.5105  1.9770
 2288TIP3   OH2 6827   1.695   0.421   4.483  0.1652 -0.0380  0.4267
 2288TIP3    H1 6828   1.758   0.351   4.500 -0.6883 -0.7317  0.7979
 2288TIP3    H2 6829   1.618   0.376   4.448 -0.8005  0.5751  1.6843
 2289TIP3   OH2 6830   3.381   1.848   4.734 -0.3261  0.5570 -0.0922
 2289TIP3    H1 6831   3.430   1.774   4.700  0.6639  0.0504  2.2387
 2289TIP3    H2 6832   3.296   1.811   4.760 -1.3017  1.0516 -2.3277
 2290TIP3   OH2 6833   2.444   3.317   5.676 -0.4770 -0.4011 -0.2864
 2290TIP3    H1 6834   2.423   3.381   5.608  0.2615 -0.0756 -0.2273
 2290TIP3    H2 6835   2.368   3.260   5.681 -0.6304 -0.2877 -1.2300
 2291TIP3   OH2 6836   6.369   4.518   0.376 -0.2030 -0.5168  0.7584
 2291TIP3    H1 6837   6.442   4.457   0.375  0.0889 -0.2483 -2.1732
 2291TIP3    H2 6838   6.408   4.603   0.354 -1.0252  0.1900  1.9127
 2292TIP3   OH2 6839   4.607   6.128   5.085  0.1644  0.2316  0.9388
 2292TIP3    H1 6840   4.553   6.206   5.101  0.7615  1.3310 -1.7982
 2292TIP3    H2 6841   4.694   6.152   5.116 -0.1578 -0.3310  2.3663
 2293TIP3   OH2 6842   3.503   4.714   5.888 -0.2887  0.0281 -0.1541
 2293TIP3    H1 6843   3.552   4.750   5.814 -0.3824  0.8096  0.1533
 2293TIP3    H2 6844   3.414   4.744   5.875 -0.2617  0.3580  0.3897
 2294TIP3   OH2 6845   6.298   4.205   4.200 -0.8005 -0.2153  0.0264
 2294TIP3    H1 6846   6.249   4.281   4.231 -0.3342 -0.0700  0.4254
 2294TIP3    H2 6847   6.372   4.198   4.260  1.1368  1.1219 -2.0791
 2295TIP3   OH2 6848   1.710   4.577   4.071 -0.3130  0.1648 -0.3802
 2295TIP3    H1 6849   1.775   4.526   4.022 -0.3820 -1.0582  0.7378
 2295TIP3    H2 6850   1.658   4.620   4.004 -0.0320 -0.9911 -1.3834
 2296TIP3   OH2 6851   0.430   5.173   5.149 -0.3438  0.4096  0.1226
 2296TIP3    H1 6852   0.372   5.102   5.122  0.3493 -0.4394  0.8220
 2296TIP3    H2 6853   0.407   5.189   5.240  0.3425  0.2419  0.3292
 2297TIP3   OH2 6854   3.192   2.855   4.391  0.5264  0.6073  0.7594
 2297TIP3    H1 6855   3.152   2.920   4.333 -0.4657 -0.2740  0.4299
 2297TIP3    H2 6856   3.173   2.887   4.480 -0.4239  0.4902  0.6008
 2298TIP3   OH2 6857   5.638   4.089   5.184 -0.2527 -0.3885  0.2247
 2298TIP3    H1 6858   5.667   4.079   5.093  0.9335  1.8698  0.2932
 2298TIP3    H2 6859   5.717   4.079   5.236 -0.7332 -0.5686  0.9371
 2299TIP3   OH2 6860   5.537   6.441   0.488  0.2013 -0.2388 -0.1694
 2299TIP3    H1 6861   5.521   6.438   0.582 -0.2672  1.6434 -0.1426
 2299TIP3    H2 6862   5.604   6.374   0.473  0.7082 -0.1864  1.5924
 2300TIP3   OH2 6863   6.444   1.912   1.763  0.4136 -0.3916  0.4882
 2300TIP3    H1 6864   6.403   1.983   1.812  1.2110 -0.8307  1.8565
 2300TIP3    H2 6865   6.375   1.880   1.705 -0.8656 -0.3733  1.9212
 2301TIP3   OH2 6866   5.694   6.730   5.643 -0.0711 -0.5796 -0.4745
 2301TIP3    H1 6867   5.756   6.691   5.581 -0.4564 -1.3597 -0.3818
 2301TIP3    H2 6868   5.735   6.716   5.729 -0.4485 -1.2625 -0.3973
 2302TIP3   OH2 6869   3.304   0.008   5.006 -0.3926  0.4076  0.0854
 2302TIP3    H1 6870   3.380   0.037   5.055  0.1702 -1.3724  0.3312
 2302TIP3    H2 6871   3.231   0.059   5.042  0.4680  1.2302  0.7129
 2303TIP3   OH2 6872   6.016   0.580   2.695  0.1591  0.1169  0.0321
 2303TIP3    H1 6873   6.054   0.607   2.611 -0.1297 -0.2674 -0.2247
 2303TIP3    H2 6874   5.927   0.615   2.692  0.3027  0.5184  0.3866
 2304TIP3   OH2 6875   6.955   2.459   3.830  0.1043 -0.3667 -0.3950
 2304TIP3    H1 6876   6.987   2.373   3.803  0.3177 -0.4836  0.2080
 2304TIP3    H2 6877   6.968   2.461   3.925  0.6290  0.5569 -0.4770
 2305TIP3   OH2 6878   5.784   4.584   0.039  0.1085 -0.1622  0.0899
 2305TIP3    H1 6879   5.865   4.631   0.058 -0.0479  0.6365 -1.1364
 2305TIP3    H2 6880   5.725   4.608   0.110 -0.4668  2.7246 -1.2251
 2306TIP3   OH2 6881   5.784   1.801   2.105  0.3598  0.4168 -0.3000
 2306TIP3    H1 6882   5.728   1.732   2.140  1.3111  0.4808  1.4522
 2306TIP3    H2 6883   5.723   1.865   2.069 -0.5716 -0.8690 -1.1219
 2307TIP3   OH2 6884   0.156   1.267   0.419 -0.1916 -0.4360  0.0784
 2307TIP3    H1 6885   0.150   1.234   0.330  1.7376 -1.1184  0.1428
 2307TIP3    H2 6886   0.187   1.193   0.470  0.4718  0.4238  0.9737
 2308TIP3   OH2 6887   4.300   2.852   1.799 -0.0791  0.6497  0.3659
 2308TIP3    H1 6888   4.233   2.891   1.743 -2.4854  0.9637  3.2015
 2308TIP3    H2 6889   4.379   2.851   1.745 -2.3322  0.1134 -3.2625
 2309TIP3   OH2 6890   2.567   2.198   4.572  0.1114  0.0499 -0.3378
 2309TIP3    H1 6891   2.509   2.137   4.618 -1.9718  0.4982 -2.2072
 2309TIP3    H2 6892   2.581   2.158   4.486 -2.2693  2.5389 -2.0839
 2310TIP3   OH2 6893   4.527   4.683   5.576 -0.7299  0.3755  0.4206
 2310TIP3    H1 6894   4.467   4.628   5.626 -0.0517  0.8078  1.7599
 2310TIP3    H2 6895   4.599   4.703   5.637  0.7134 -0.0050 -1.0767
 2311TIP3   OH2 6896   5.697   1.122   3.465  0.0940  0.2463 -0.1647
 2311TIP3    H1 6897   5.687   1.035   3.427 -2.7694 -1.1308  3.1741
 2311TIP3    H2 6898   5.612   1.164   3.452  1.0333  2.1264 -0.6153
 2312TIP3   OH2 6899   5.169   6.152   0.961 -0.2441 -0.6171  0.3169
 2312TIP3    H1 6900   5.088   6.110   0.933 -0.3465 -0.6714  0.6950
 2312TIP3    H2 6901   5.184   6.120   1.050 -0.2787  0.0677  0.5807
 2313TIP3   OH2 6902   3.650   2.860   0.426  0.0470  0.0032  0.4561
 2313TIP3    H1 6903   3.626   2.951   0.406 -0.0818 -0.2185 -0.4350
 2313TIP3    H2 6904   3.657   2.858   0.522  1.6008  1.3409  0.4283
 2314TIP3   OH2 6905   2.552   1.444   0.775  0.1400  0.1560  0.2876
 2314TIP3    H1 6906   2.498   1.463   0.698  0.5967 -0.8320 -0.2965
 2314TIP3    H2 6907   2.600   1.525   0.791 -0.5500  0.6283  0.0168
 2315TIP3   OH2 6908   5.010   6.449   0.371 -0.1437 -0.4431 -0.5446
 2315TIP3    H1 6909   4.996   6.513   0.301 -0.4286 -2.0045 -1.9803
 2315TIP3    H2 6910   5.101   6.463   0.398 -0.2891  0.7451 -0.5863
 2316TIP3   OH2 6911   5.745   3.546   1.153 -0.0086 -0.2067 -0.2430
 2316TIP3    H1 6912   5.768   3.575   1.241 -0.2540 -1.4053  0.2395
 2316TIP3    H2 6913   5.656   3.511   1.161  0.8597 -2.6154 -0.3763
 2317TIP3   OH2 6914   3.753   2.523   2.438 -0.1953 -0.4685 -0.2176
 2317TIP3    H1 6915   3.827   2.515   2.497 -1.9549 -0.4963  2.1304
 2317TIP3    H2 6916   3.705   2.440   2.447 -1.4551  0.2213 -0.2978
 2318TIP3   OH2 6917   7.130   0.786   3.797 -0.5865 -0.3013  0.1652
 2318TIP3    H1 6918   7.099   0.753   3.881 -1.7505 -1.5155 -0.6974
 2318TIP3    H2 6919   7.059   0.841   3.765  0.6348  1.7870  0.7923
 2319TIP3   OH2 6920   5.871   4.948   3.325  0.0459 -0.4042 -0.6749
 2319TIP3    H1 6921   5.837   4.887   3.391  1.6019 -1.2131 -0.5674
 2319TIP3    H2 6922   5.862   5.034   3.365 -0.0658 -0.7878  0.1519
 2320TIP3   OH2 6923   1.726   0.951   1.176  0.7954 -0.5019 -0.3691
 2320TIP3    H1 6924   1.802   0.929   1.122  0.9772 -0.3725 -0.1687
 2320TIP3    H2 6925   1.720   0.879   1.239  0.3494 -0.8501 -0.8047
 2321TIP3   OH2 6926   3.030   3.962   1.448 -0.3253 -0.1128  0.7751
 2321TIP3    H1 6927   2.997   3.933   1.363  1.3964  0.4254 -0.1449
 2321TIP3    H2 6928   2.963   3.936   1.511 -2.1562  0.4234 -0.8697
 2322TIP3   OH2 6929   0.705   5.418   0.933 -0.6719 -0.1103 -0.0290
 2322TIP3    H1 6930   0.692   5.372   1.016 -2.0419  0.4078  0.0786
 2322TIP3    H2 6931   0.778   5.478   0.949 -0.0409 -0.9627  0.3658
 2323TIP3   OH2 6932   1.727   1.051   1.719 -0.0777  0.3180  0.0143
 2323TIP3    H1 6933   1.816   1.082   1.709  0.8431 -2.3365 -1.0742
 2323TIP3    H2 6934   1.681   1.083   1.642  0.1701  0.9372  0.1199
 2324TIP3   OH2 6935   1.261   6.622   5.615  0.0612  0.3765  0.0183
 2324TIP3    H1 6936   1.286   6.633   5.523 -3.0656 -0.0657 -1.0062
 2324TIP3    H2 6937   1.317   6.551   5.647  0.8359  0.1665 -1.7040
 2325TIP3   OH2 6938   1.220   1.837   1.975  0.0791  0.1802 -0.2326
 2325TIP3    H1 6939   1.189   1.927   1.962  0.8178 -0.0685 -6.1973
 2325TIP3    H2 6940   1.146   1.782   1.950  0.8905 -0.7663 -0.6097
 2326TIP3   OH2 6941   7.036   4.095   3.872  0.0807 -0.3608 -0.4989
 2326TIP3    H1 6942   7.125   4.083   3.905 -0.6426 -0.8416  1.3655
 2326TIP3    H2 6943   7.048   4.120   3.780  2.1506  0.2436 -0.1065
 2327TIP3   OH2 6944   0.681   5.277   5.498  0.0676  0.4735  0.4026
 2327TIP3    H1 6945   0.668   5.183   5.482 -1.7409  0.5955  0.9903
 2327TIP3    H2 6946   0.774   5.284   5.518 -0.0762 -1.4930  2.1609
 2328TIP3   OH2 6947   3.841   1.847   4.068  0.1184  0.0842 -0.3575
 2328TIP3    H1 6948   3.933   1.823   4.060  0.3365  0.4224  0.9417
 2328TIP3    H2 6949   3.807   1.842   3.979  1.6418  0.9585 -1.0234
 2329TIP3   OH2 6950   0.955   1.601   4.468  0.0863 -0.7652 -0.0379
 2329TIP3    H1 6951   0.932   1.603   4.375  0.1027 -1.6791 -0.0730
 2329TIP3    H2 6952   1.036   1.550   4.472 -0.5500 -1.7573  0.5903
 2330TIP3   OH2 6953   2.756   1.105   4.245  0.9135 -0.1941 -0.3141
 2330TIP3    H1 6954   2.665   1.117   4.217  0.6414 -1.0304  0.2003
 2330TIP3    H2 6955   2.780   1.019   4.212  2.0972  0.6968 -1.9304
 2331TIP3   OH2 6956   4.266   4.768   1.816 -0.0300 -0.0734 -0.3433
 2331TIP3    H1 6957   4.240   4.706   1.884  0.3572 -0.6665 -0.7270
 2331TIP3    H2 6958   4.241   4.725   1.734  3.3380 -1.3822 -0.8628
 2332TIP3   OH2 6959   1.696   4.521   4.363  0.1798 -0.4287  0.4779
 2332TIP3    H1 6960   1.704   4.526   4.268  0.7413 -0.7472  0.5027
 2332TIP3    H2 6961   1.781   4.552   4.396 -1.0026  2.6727  0.9847
 2333TIP3   OH2 6962   4.646   4.941   4.549  0.4643  0.6119 -0.1636
 2333TIP3    H1 6963   4.722   4.917   4.497  1.1819  1.7139  0.3532
 2333TIP3    H2 6964   4.678   4.948   4.638 -0.8171 -1.5428  0.5389
 2334TIP3   OH2 6965   0.066   3.099   3.062  0.3489  0.9010 -0.2796
 2334TIP3    H1 6966  -0.025   3.117   3.036  0.1774 -0.9400 -1.1399
 2334TIP3    H2 6967   0.115   3.175   3.032 -0.6702  1.2050 -1.2508
 2335TIP3   OH2 6968   5.681   5.249   2.929  1.2218 -0.3881  0.4557
 2335TIP3    H1 6969   5.673   5.326   2.984 -0.0058 -0.9929  1.1840
 2335TIP3    H2 6970   5.680   5.175   2.990  0.8094 -1.0336 -0.2988
 2336TIP3   OH2 6971   4.169   0.372   2.866 -1.0316 -0.0731  0.1790
 2336TIP3    H1 6972   4.124   0.290   2.846  3.5119 -2.6265 -0.7587
 2336TIP3    H2 6973   4.208   0.399   2.783  0.3484  1.1406  1.1794
 2337TIP3   OH2 6974   1.710   3.301   1.545 -0.2985 -0.2018  0.2837
 2337TIP3    H1 6975   1.697   3.351   1.464 -0.6150 -2.9947 -1.5183
 2337TIP3    H2 6976   1.780   3.239   1.524 -0.8198 -1.4257  1.9292
 2338TIP3   OH2 6977   3.724   4.944   3.568 -0.6319  0.3883 -0.3985
 2338TIP3    H1 6978   3.667   4.943   3.492 -0.0954  0.0818 -0.8009
 2338TIP3    H2 6979   3.782   5.019   3.555 -1.2154  0.9607  0.2216
 2339TIP3   OH2 6980   3.692   6.491   2.704 -0.5949 -0.0957 -0.9100
 2339TIP3    H1 6981   3.689   6.578   2.742 -2.4894 -0.2279 -0.6516
 2339TIP3    H2 6982   3.713   6.505   2.611  0.3503  0.5010 -0.6216
 2340TIP3   OH2 6983   3.723   4.362   0.823 -0.5268 -0.3489 -0.0434
 2340TIP3    H1 6984   3.755   4.274   0.802 -1.5246 -0.1487 -2.8003
 2340TIP3    H2 6985   3.774   4.420   0.768 -0.6616  0.7199  0.9199
 2341TIP3   OH2 6986   1.788   0.413   0.587  0.0973 -0.3149 -0.0544
 2341TIP3    H1 6987   1.727   0.354   0.542 -1.0856  0.1743  0.8596
 2341TIP3    H2 6988   1.732   0.475   0.633  1.2943  0.2115  0.7450
 2342TIP3   OH2 6989   0.155   1.875   1.915 -0.3826 -0.2646  0.0860
 2342TIP3    H1 6990   0.195   1.862   1.829  0.6651 -0.9813  0.6487
 2342TIP3    H2 6991   0.088   1.941   1.901 -0.7912 -0.9624 -1.4445
 2343TIP3   OH2 6992   1.925   0.740   0.822  0.0442  0.5549 -0.2703
 2343TIP3    H1 6993   2.007   0.788   0.809  1.1405 -0.9389  0.7938
 2343TIP3    H2 6994   1.917   0.685   0.745 -0.3750  1.2534 -0.7347
 2344TIP3   OH2 6995   0.907   2.043   4.917 -0.1517  0.4024 -0.6158
 2344TIP3    H1 6996   0.822   2.003   4.900 -0.4791  0.8071  0.0582
 2344TIP3    H2 6997   0.944   2.058   4.830  0.1935 -1.7946 -0.9061
 2345TIP3   OH2 6998   0.443   4.352   1.017 -0.4471 -0.2643  0.0874
 2345TIP3    H1 6999   0.478   4.265   1.002 -1.2876 -0.5335 -0.3879
 2345TIP3    H2 7000   0.380   4.341   1.088 -0.9782 -0.1653 -0.3583
 2346TIP3   OH2 7001   5.882   1.740   3.350 -0.0651 -0.1665 -0.0680
 2346TIP3    H1 7002   5.791   1.736   3.322 -0.3972 -0.0883  0.9437
 2346TIP3    H2 7003   5.923   1.662   3.312 -0.1919  0.5159 -1.6895
 2347TIP3   OH2 7004   0.984   4.425   2.049  0.1496  0.0682  0.1009
 2347TIP3    H1 7005   1.078   4.425   2.030  0.2949 -1.5106  0.6215
 2347TIP3    H2 7006   0.947   4.364   1.985 -0.3122 -0.3606  0.7674
 2348TIP3   OH2 7007   4.112   6.646   5.602  0.0888 -0.0822  0.1471
 2348TIP3    H1 7008   4.049   6.641   5.530  1.5696 -1.7468 -1.1314
 2348TIP3    H2 7009   4.070   6.599   5.674 -1.1311  1.0163  0.1950
 2349TIP3   OH2 7010   2.852   0.470   1.145 -0.0324  0.8099  0.1598
 2349TIP3    H1 7011   2.870   0.459   1.052 -0.5683 -0.4642  0.1841
 2349TIP3    H2 7012   2.757   0.482   1.149 -0.2647 -0.9421  0.6575
 2350TIP3   OH2 7013   1.331   2.801   2.518  0.3635  0.1223 -0.1744
 2350TIP3    H1 7014   1.269   2.737   2.552 -1.4294  1.0405 -1.5724
 2350TIP3    H2 7015   1.357   2.766   2.432 -0.0554  0.8993 -0.6229
 2351TIP3   OH2 7016   5.078   1.277   5.774  0.1775  0.0902 -0.2737
 2351TIP3    H1 7017   5.052   1.201   5.826  0.2193 -0.7094 -1.4039
 2351TIP3    H2 7018   5.134   1.328   5.833  1.3033 -1.4742  0.0519
 2352TIP3   OH2 7019   0.109   1.464   1.411 -0.0236 -0.0228  0.2942
 2352TIP3    H1 7020   0.060   1.492   1.488  0.4428  0.5645  0.3858
 2352TIP3    H2 7021   0.201   1.474   1.436  0.1483 -0.7087 -0.0210
 2353TIP3   OH2 7022   2.962   2.773   2.534  0.0122  0.4851 -0.6727
 2353TIP3    H1 7023   2.954   2.867   2.548 -0.9851  0.2944  0.2658
 2353TIP3    H2 7024   2.903   2.734   2.599  1.4201 -0.8426 -0.1128
 2354TIP3   OH2 7025   1.115   1.175   0.818  0.1681  0.5455  0.3381
 2354TIP3    H1 7026   1.091   1.175   0.726 -0.7087 -0.8635  0.5378
 2354TIP3    H2 7027   1.210   1.162   0.818  0.0064 -0.8322 -0.3671
 2355TIP3   OH2 7028   2.643   5.953   4.894 -0.2988  0.0641 -0.4545
 2355TIP3    H1 7029   2.549   5.951   4.909 -0.1473 -1.0111  0.4621
 2355TIP3    H2 7030   2.656   5.898   4.816 -0.2461 -1.6039  0.6804
 2356TIP3   OH2 7031   5.630   6.576   3.154  0.4125 -0.5022  0.3291
 2356TIP3    H1 7032   5.699   6.643   3.156  0.3565 -0.4623  1.0669
 2356TIP3    H2 7033   5.675   6.494   3.174  0.4535 -0.6722 -0.4179
 2357TIP3   OH2 7034   1.642   4.521   0.348  0.0022 -0.3463 -0.0614
 2357TIP3    H1 7035   1.569   4.469   0.314 -0.9311  0.9607 -0.1516
 2357TIP3    H2 7036   1.700   4.458   0.389 -1.3207 -1.3994  0.2512
 2358TIP3   OH2 7037   6.606   5.088   4.349  0.0787 -0.4740  0.1069
 2358TIP3    H1 7038   6.620   5.169   4.301  0.9227 -0.8330 -0.2851
 2358TIP3    H2 7039   6.528   5.104   4.402  0.4755  0.7255  0.3552
 2359TIP3   OH2 7040   3.821   0.406   1.062 -0.5673  0.0679  0.3946
 2359TIP3    H1 7041   3.774   0.488   1.049  0.4456  0.8083  1.2167
 2359TIP3    H2 7042   3.908   0.432   1.091  0.0913 -1.2802 -0.2327
 2360TIP3   OH2 7043   5.970   0.501   5.830  0.0097 -0.4763  0.2895
 2360TIP3    H1 7044   6.000   0.516   5.919 -0.7413  0.0484  0.4712
 2360TIP3    H2 7045   5.893   0.557   5.821 -0.0152 -0.6320 -0.6401
 2361TIP3   OH2 7046   3.678   2.474   1.889 -0.2777 -0.8633 -0.0856
 2361TIP3    H1 7047   3.672   2.417   1.965  0.1151  0.0001  0.6142
 2361TIP3    H2 7048   3.688   2.415   1.815 -0.4697 -1.7099  0.5529
 2362TIP3   OH2 7049   1.888   1.155   3.127 -0.2184 -0.1266  0.0274
 2362TIP3    H1 7050   1.895   1.250   3.137 -0.3210 -0.1956  0.8264
 2362TIP3    H2 7051   1.867   1.142   3.035 -3.3972  0.8120  0.4821
 2363TIP3   OH2 7052   6.907   5.623   5.650  0.3906 -0.0381 -0.5268
 2363TIP3    H1 7053   6.869   5.705   5.620  0.4027 -0.7888 -2.8119
 2363TIP3    H2 7054   6.980   5.649   5.706 -0.0499  1.4896 -0.6267
 2364TIP3   OH2 7055   1.597   2.511   2.009 -0.0327  0.7436 -0.3850
 2364TIP3    H1 7056   1.521   2.459   1.981 -0.5088  1.2622 -0.0854
 2364TIP3    H2 7057   1.645   2.453   2.067  1.6575 -0.8226 -3.1381
 2365TIP3   OH2 7058   6.436   0.716   4.678  0.2927 -0.4297  0.0039
 2365TIP3    H1 7059   6.439   0.798   4.629  0.3723 -1.1460 -1.2263
 2365TIP3    H2 7060   6.347   0.684   4.666  0.4097 -0.7739  0.0501
 2366TIP3   OH2 7061   1.884   6.131   3.731 -0.2509  0.2091 -0.2833
 2366TIP3    H1 7062   1.965   6.142   3.681 -0.2694 -0.7538 -0.5387
 2366TIP3    H2 7063   1.901   6.055   3.787 -0.3364  1.0839  0.9719
 2367TIP3   OH2 7064   1.898   4.166   3.152 -0.6058 -0.7767 -0.7373
 2367TIP3    H1 7065   1.944   4.220   3.088  1.5552 -0.8572  0.6289
 2367TIP3    H2 7066   1.913   4.076   3.123  0.5235 -0.8209 -0.0756
 2368TIP3   OH2 7067   2.212   1.078   2.177  0.9855 -0.2570 -0.4461
 2368TIP3    H1 7068   2.144   1.120   2.125  1.1157 -0.7075 -0.9796
 2368TIP3    H2 7069   2.262   1.025   2.115  1.3239 -0.5721  0.0808
 2369TIP3   OH2 7070   0.457   1.067   2.745  0.4620  0.0279 -0.3980
 2369TIP3    H1 7071   0.376   1.086   2.791  1.0058  0.2969  0.4718
 2369TIP3    H2 7072   0.438   1.087   2.653 -0.6413 -0.5412 -0.3152
 2370TIP3   OH2 7073   5.841   4.419   2.845  0.6746  0.1822 -0.0349
 2370TIP3    H1 7074   5.775   4.374   2.899  0.0205 -0.8821 -1.6328
 2370TIP3    H2 7075   5.810   4.510   2.840 -0.8612 -0.3572 -0.9722
 2371TIP3   OH2 7076   2.459   5.312   5.828  0.4136 -0.4094  0.0511
 2371TIP3    H1 7077   2.536   5.268   5.792  0.3568 -0.9689  0.6016
 2371TIP3    H2 7078   2.495   5.387   5.876  0.4597  0.7195 -1.6216
 2372TIP3   OH2 7079   1.160   4.130   5.024  0.2457 -0.6592  0.1255
 2372TIP3    H1 7080   1.130   4.150   5.113  0.6552 -0.7953  0.2951
 2372TIP3    H2 7081   1.133   4.040   5.009  0.7109 -0.8349  0.3386
 2373TIP3   OH2 7082   5.959   1.196   5.540 -0.0824 -0.1136 -0.6049
 2373TIP3    H1 7083   6.004   1.152   5.612 -0.3783  0.5792  0.0163
 2373TIP3    H2 7084   6.029   1.234   5.488  0.3118 -2.5991 -2.0732
 2374TIP3   OH2 7085   5.435   4.596   3.526 -0.0025 -0.5006  0.5667
 2374TIP3    H1 7086   5.489   4.643   3.463  0.3531  0.6796  1.7161
 2374TIP3    H2 7087   5.404   4.519   3.478 -0.0814  0.5597 -1.1564
 2375TIP3   OH2 7088   5.171   5.182   2.352  0.0662  0.1532 -0.3188
 2375TIP3    H1 7089   5.237   5.146   2.411 -0.5268  0.1806  0.3740
 2375TIP3    H2 7090   5.196   5.274   2.341 -1.1743  0.8126  1.8763
 2376TIP3   OH2 7091   4.960   0.230   0.455 -0.1496 -0.2827 -0.0643
 2376TIP3    H1 7092   4.948   0.320   0.427 -1.6081 -0.6265 -0.5925
 2376TIP3    H2 7093   5.036   0.199   0.405 -1.2042 -0.1267 -1.8440
 2377TIP3   OH2 7094   2.312   5.027   0.004  0.4618 -0.4595  0.2554
 2377TIP3    H1 7095   2.224   5.062  -0.008  0.5844 -0.7504 -1.9287
 2377TIP3    H2 7096   2.301   4.954   0.065 -0.5271  0.4136  1.1665
 2378TIP3   OH2 7097   0.471   5.849   3.209 -0.0420 -0.4002 -0.1033
 2378TIP3    H1 7098   0.504   5.895   3.286  0.0143 -0.6121  0.0019
 2378TIP3    H2 7099   0.440   5.765   3.244 -1.6885  0.1916 -0.0078
 2379TIP3   OH2 7100   2.862   6.045   5.002  0.0417  0.4958  0.3798
 2379TIP3    H1 7101   2.793   6.006   4.948  0.9518  1.0116 -1.2004
 2379TIP3    H2 7102   2.926   5.974   5.013  0.6165  0.8523 -0.5868
 2380TIP3   OH2 7103   0.595   1.417   2.687  0.1003 -0.1319 -0.0762
 2380TIP3    H1 7104   0.502   1.435   2.674  0.1371 -0.0556 -0.2407
 2380TIP3    H2 7105   0.626   1.391   2.600  0.0998 -0.7573  0.1057
 2381TIP3   OH2 7106   6.731   6.460   1.040  0.1644  0.1067  0.6453
 2381TIP3    H1 7107   6.649   6.422   1.007  1.1216 -0.6591 -0.9741
 2381TIP3    H2 7108   6.767   6.507   0.965  1.6748 -0.3818  1.0328
 2382TIP3   OH2 7109   6.520   5.074   2.892 -0.1996 -0.1423  0.0310
 2382TIP3    H1 7110   6.610   5.102   2.912  0.0047 -0.2456 -0.6901
 2382TIP3    H2 7111   6.532   5.000   2.832 -0.7711  0.5680 -0.9981
 2383TIP3   OH2 7112   1.533   2.570   2.517  0.2219  0.0242 -0.1164
 2383TIP3    H1 7113   1.497   2.526   2.440  0.4331 -0.8558  0.2718
 2383TIP3    H2 7114   1.577   2.500   2.566  2.6144  1.0911 -0.6369
 2384TIP3   OH2 7115   3.284   1.011   0.139  0.4157 -0.3204 -0.1710
 2384TIP3    H1 7116   3.297   1.103   0.117  2.4611 -1.1447 -3.0044
 2384TIP3    H2 7117   3.245   0.973   0.060  2.5385 -2.4451 -0.3053
 2385TIP3   OH2 7118   4.692   4.830   1.136  0.1944 -0.7847 -0.4521
 2385TIP3    H1 7119   4.602   4.847   1.161  0.2762 -1.1771  0.1435
 2385TIP3    H2 7120   4.704   4.736   1.152  1.0134 -0.5395  0.5069
 2386TIP3   OH2 7121   3.288   0.777   2.829  0.2251 -0.0117 -0.1480
 2386TIP3    H1 7122   3.219   0.830   2.788  1.3665 -0.7409 -3.3126
 2386TIP3    H2 7123   3.348   0.841   2.868 -0.7113  0.7679  0.0512
 2387TIP3   OH2 7124   2.940   5.209   4.806  0.1967  0.1894 -0.3122
 2387TIP3    H1 7125   3.033   5.194   4.787  0.0330 -0.4476 -0.6502
 2387TIP3    H2 7126   2.894   5.180   4.727 -0.2617  0.9962 -0.3562
 2388TIP3   OH2 7127   0.627   4.561   1.107 -0.2832  0.4320  0.1633
 2388TIP3    H1 7128   0.565   4.498   1.072  0.9569  0.3107 -1.9898
 2388TIP3    H2 7129   0.680   4.511   1.169  0.0100 -0.3964 -0.7397
 2389TIP3   OH2 7130   5.922   6.225   4.826 -0.1236  0.4984  0.5302
 2389TIP3    H1 7131   5.835   6.185   4.827 -0.9260  2.1512  1.5780
 2389TIP3    H2 7132   5.905   6.319   4.814  1.7545  0.5244 -3.6764
 2390TIP3   OH2 7133   4.037   1.874   1.409 -0.0132  0.2575 -0.1523
 2390TIP3    H1 7134   3.982   1.944   1.444 -0.9460 -0.5749  0.0975
 2390TIP3    H2 7135   3.975   1.808   1.376  0.7641 -1.3191  1.3384
 2391TIP3   OH2 7136   7.041   0.475   5.784  0.1064  0.4514 -0.1961
 2391TIP3    H1 7137   7.064   0.449   5.695 -0.2210  0.2356 -0.2219
 2391TIP3    H2 7138   6.972   0.413   5.809 -0.1793  0.8500  0.0085
 2392TIP3   OH2 7139   7.067   6.067   5.608 -0.1687  0.5718  0.3294
 2392TIP3    H1 7140   7.077   6.022   5.524 -0.1052 -1.0208  1.1433
 2392TIP3    H2 7141   7.035   6.154   5.586 -3.6732 -0.9135 -1.1983
 2393TIP3   OH2 7142   5.642   2.056   1.760  0.1861 -0.1678 -0.5259
 2393TIP3    H1 7143   5.673   1.966   1.752 -0.0098 -0.2354 -0.5491
 2393TIP3    H2 7144   5.551   2.047   1.788  1.2151  0.0596  3.4341
 2394TIP3   OH2 7145   3.240   0.971   1.831 -0.2977  0.5059 -0.5481
 2394TIP3    H1 7146   3.323   0.991   1.874 -0.1640  0.0297 -0.5757
 2394TIP3    H2 7147   3.235   1.033   1.758 -0.8556  1.7883  0.5397
 2395TIP3   OH2 7148   4.085   1.556   0.334 -0.1800 -0.1317  0.2067
 2395TIP3    H1 7149   4.144   1.611   0.386  0.3338 -0.7688  0.3111
 2395TIP3    H2 7150   4.131   1.472   0.325 -0.5747 -0.2739 -0.6641
 2396TIP3   OH2 7151   3.586   1.618   5.162  0.5196  0.4470 -0.7750
 2396TIP3    H1 7152   3.602   1.565   5.241  1.8409 -0.9301 -1.9048
 2396TIP3    H2 7153   3.622   1.704   5.184  1.6699 -0.1613 -0.1576
 2397TIP3   OH2 7154   5.631   5.855   4.706  0.6347  0.0569  0.8864
 2397TIP3    H1 7155   5.549   5.868   4.754  0.0746  0.9594 -0.2484
 2397TIP3    H2 7156   5.612   5.889   4.619  2.0652 -0.2234  0.4529
 2398TIP3   OH2 7157   0.651   0.648   2.847 -0.2839 -0.0414  0.2524
 2398TIP3    H1 7158   0.682   0.660   2.936  1.0238 -0.3214 -0.1402
 2398TIP3    H2 7159   0.729   0.622   2.797 -1.5431 -3.1832 -0.3421
 2399TIP3   OH2 7160   5.245   4.007   4.513 -0.0060  0.0894 -0.3885
 2399TIP3    H1 7161   5.215   3.934   4.568 -1.0946  0.5749 -0.3272
 2399TIP3    H2 7162   5.327   4.035   4.554 -0.2158 -0.2899  0.3159
 2400TIP3   OH2 7163   6.426   4.565   4.771  0.2082  0.3513  1.1411
 2400TIP3    H1 7164   6.388   4.643   4.731  0.7848  0.1518  0.1981
 2400TIP3    H2 7165   6.352   4.522   4.814 -0.4693  0.4155  0.0507
 2401TIP3   OH2 7166   0.123   0.956   4.760 -0.3897 -0.1564 -0.6101
 2401TIP3    H1 7167   0.105   0.867   4.790 -0.0772 -0.8895 -2.4227
 2401TIP3    H2 7168   0.211   0.951   4.722  0.4769  1.4438  1.0116
 2402TIP3   OH2 7169   0.640   0.055   4.062  0.4144  0.2424 -0.4324
 2402TIP3    H1 7170   0.578   0.068   3.990  0.4951 -0.6908 -0.6826
 2402TIP3    H2 7171   0.687  -0.025   4.039 -0.8541 -1.1572  1.5572
 2403TIP3   OH2 7172   4.067   4.907   3.690 -0.2898 -0.2326 -0.4458
 2403TIP3    H1 7173   4.041   4.999   3.683  0.4774  0.0441  0.2398
 2403TIP3    H2 7174   4.158   4.905   3.662 -0.4991 -0.9053 -1.1119
 2404TIP3   OH2 7175   4.995   3.543   1.119 -0.2277  0.0145  0.0544
 2404TIP3    H1 7176   5.077   3.535   1.167 -0.0344 -1.3285 -0.4534
 2404TIP3    H2 7177   5.022   3.555   1.028 -0.5948  0.7451  0.0397
 2405TIP3   OH2 7178   6.250   4.583   1.162  0.2438  0.4580 -0.2605
 2405TIP3    H1 7179   6.199   4.524   1.218 -0.6836 -0.5359 -2.0623
 2405TIP3    H2 7180   6.337   4.544   1.158 -0.5277 -1.2264 -1.9370
 2406TIP3   OH2 7181   4.646   2.188   4.361  0.1257  0.1402 -0.0641
 2406TIP3    H1 7182   4.568   2.240   4.379 -0.2186  0.6209 -2.5722
 2406TIP3    H2 7183   4.642   2.116   4.424 -2.8956 -0.3960 -0.7078
 2407TIP3   OH2 7184   1.112   2.336   1.375  0.8297 -0.1832 -0.1507
 2407TIP3    H1 7185   1.197   2.364   1.341  1.6293 -0.1700  1.7044
 2407TIP3    H2 7186   1.083   2.266   1.316  2.5126 -0.7357 -0.3563
 2408TIP3   OH2 7187   1.116   6.326   1.451  0.0809 -0.2682 -0.4791
 2408TIP3    H1 7188   1.027   6.319   1.418  0.5228 -0.5767 -1.6556
 2408TIP3    H2 7189   1.122   6.258   1.518 -0.3202 -0.7912 -0.9708
 2409TIP3   OH2 7190   3.968   3.314   2.140  0.3079 -0.3326 -0.6482
 2409TIP3    H1 7191   4.005   3.248   2.081  1.5672 -0.7088  0.5005
 2409TIP3    H2 7192   3.994   3.398   2.101  2.4417 -0.5806  0.0692
 2410TIP3   OH2 7193   5.662   4.246   0.677  0.2921 -0.2535  0.0987
 2410TIP3    H1 7194   5.726   4.316   0.692 -0.3398  0.2043  0.7204
 2410TIP3    H2 7195   5.715   4.171   0.649  1.1013  0.1139  0.5928
 2411TIP3   OH2 7196   2.393   6.535   3.512 -0.2550  0.0546 -0.1945
 2411TIP3    H1 7197   2.430   6.569   3.593  0.6526 -1.1519 -0.0740
 2411TIP3    H2 7198   2.359   6.612   3.467  1.6885  1.1394  0.0667
 2412TIP3   OH2 7199   0.073   6.277   5.319 -0.5284 -0.1184  0.1898
 2412TIP3    H1 7200  -0.016   6.306   5.336 -0.0018  1.2894  0.6586
 2412TIP3    H2 7201   0.073   6.184   5.344 -1.6030  0.1148  1.1249
 2413TIP3   OH2 7202   2.347   2.582   1.526 -0.1459  0.4458  0.4114
 2413TIP3    H1 7203   2.357   2.491   1.498 -0.1849  0.0751  1.5748
 2413TIP3    H2 7204   2.253   2.593   1.540 -0.1430  0.6777  0.2628
 2414TIP3   OH2 7205   3.124   2.622   4.284  0.2480  0.0902 -0.2770
 2414TIP3    H1 7206   3.059   2.675   4.238 -0.8350 -0.2008  0.8721
 2414TIP3    H2 7207   3.143   2.672   4.364 -0.3777 -0.9710  0.5590
 2415TIP3   OH2 7208   4.041   1.287   2.511 -0.0317  0.2192  0.2798
 2415TIP3    H1 7209   4.112   1.322   2.458  1.6679 -1.1577  1.5267
 2415TIP3    H2 7210   3.991   1.232   2.451  1.1975 -0.4496 -0.1613
 2416TIP3   OH2 7211   6.615   3.828   4.648  0.6797  0.5813 -0.4819
 2416TIP3    H1 7212   6.582   3.780   4.724 -2.8681  0.0129 -2.1912
 2416TIP3    H2 7213   6.642   3.760   4.586 -1.7312  0.6882 -1.8016
 2417TIP3   OH2 7214   0.078   0.979   1.892  0.0018  0.5769  0.6371
 2417TIP3    H1 7215   0.086   0.943   1.804 -0.0535  1.4675  0.2576
 2417TIP3    H2 7216  -0.012   0.958   1.918 -0.5656  1.8259 -0.2232
 2418TIP3   OH2 7217   6.305   6.472   4.307  0.4665 -0.3656  0.3746
 2418TIP3    H1 7218   6.267   6.498   4.390  3.2473  3.4304  0.7571
 2418TIP3    H2 7219   6.249   6.513   4.241  0.3130 -0.2206  0.5939
 2419TIP3   OH2 7220   1.167   4.659   2.844 -0.1924 -0.0700 -0.2088
 2419TIP3    H1 7221   1.183   4.687   2.754 -1.1955 -1.1281 -0.7523
 2419TIP3    H2 7222   1.248   4.617   2.871  0.5783  1.4298 -0.1255
 2420TIP3   OH2 7223   2.964   2.240   0.934 -0.1515 -0.2820 -0.0074
 2420TIP3    H1 7224   2.933   2.154   0.962  0.2711 -0.0344  1.2633
 2420TIP3    H2 7225   3.053   2.223   0.901  0.1066 -0.2719  0.6680
 2421TIP3   OH2 7226   5.775   5.398   0.050 -0.0715 -0.0314  0.6971
 2421TIP3    H1 7227   5.700   5.457   0.044  0.0046  0.0992  1.0164
 2421TIP3    H2 7228   5.836   5.430  -0.017 -0.5040 -0.4383  0.0987
 2422TIP3   OH2 7229   0.248   1.840   4.114 -0.8065 -0.4113 -0.3363
 2422TIP3    H1 7230   0.251   1.745   4.120  3.2835 -0.5118 -1.1187
 2422TIP3    H2 7231   0.273   1.870   4.201 -1.4757 -0.0177 -0.2682
 2423TIP3   OH2 7232   5.724   2.962   1.673  0.2356 -0.4314 -0.3720
 2423TIP3    H1 7233   5.710   2.868   1.659  1.2062 -0.8178  1.0594
 2423TIP3    H2 7234   5.759   2.968   1.761 -1.9250  1.4961  0.4518
 2424TIP3   OH2 7235   0.973   2.075   4.662 -0.2775 -0.2372  0.5266
 2424TIP3    H1 7236   1.036   2.034   4.603 -0.8251  1.8786 -1.7039
 2424TIP3    H2 7237   0.888   2.040   4.634 -0.4807  0.2395  0.5486
 2425TIP3   OH2 7238   5.136   2.998   5.266  0.5965  0.1496  0.0667
 2425TIP3    H1 7239   5.203   2.938   5.299  1.2440 -0.1686 -1.6906
 2425TIP3    H2 7240   5.167   3.023   5.179 -1.2007  0.5775 -0.5104
 2426TIP3   OH2 7241   4.095   5.248   3.697  0.0607 -0.1396 -0.6645
 2426TIP3    H1 7242   4.094   5.344   3.704  0.2138 -0.1379 -0.6587
 2426TIP3    H2 7243   4.188   5.225   3.699  0.0349 -0.2663 -0.9871
 2427TIP3   OH2 7244   0.524   0.122   3.801 -0.3720  0.3932 -0.2185
 2427TIP3    H1 7245   0.457   0.109   3.735 -0.1148 -0.5750 -0.2997
 2427TIP3    H2 7246   0.607   0.109   3.754 -0.1461  0.9559  0.0169
 2428TIP3   OH2 7247   0.709   4.777   1.405  0.3274  0.2628  0.2565
 2428TIP3    H1 7248   0.619   4.803   1.423 -0.9901 -2.9047 -0.9425
 2428TIP3    H2 7249   0.714   4.771   1.310  0.7355 -2.4414  0.3517
 2429TIP3   OH2 7250   1.690   6.120   1.503 -0.1805  0.2459  0.2183
 2429TIP3    H1 7251   1.638   6.046   1.536 -1.1037  0.7136 -0.1309
 2429TIP3    H2 7252   1.676   6.189   1.569  0.3334  0.2507  0.3261
 2430TIP3   OH2 7253   2.686   5.170   0.072  0.2423 -0.2799  0.6621
 2430TIP3    H1 7254   2.591   5.185   0.070  0.2710 -0.1871 -0.3751
 2430TIP3    H2 7255   2.697   5.085   0.029  0.7165  0.1805 -0.1357
 2431TIP3   OH2 7256   0.736   6.666   3.379 -0.1222  0.0278 -0.0265
 2431TIP3    H1 7257   0.697   6.691   3.295  1.8897  0.3422 -0.9244
 2431TIP3    H2 7258   0.663   6.672   3.442 -1.6476 -0.0846 -1.6893
 2432TIP3   OH2 7259   5.403   3.646   2.551 -0.1252  0.7369 -0.5205
 2432TIP3    H1 7260   5.385   3.626   2.459 -0.9012 -0.2721 -0.1730
 2432TIP3    H2 7261   5.451   3.570   2.583 -1.0345  0.4477  0.2328
 2433TIP3   OH2 7262   0.208   2.622   1.834  0.8609 -0.2477  0.2970
 2433TIP3    H1 7263   0.243   2.611   1.922  2.3214  1.3887 -0.0229
 2433TIP3    H2 7264   0.255   2.697   1.798 -0.5643 -0.1013 -1.4516
 2434TIP3   OH2 7265   2.186   3.238   4.234  0.0150 -0.1781 -0.0600
 2434TIP3    H1 7266   2.183   3.231   4.139  0.6613 -0.2684 -0.0788
 2434TIP3    H2 7267   2.198   3.148   4.264 -2.2110 -0.4332  0.2172
 2435TIP3   OH2 7268   3.472   2.657   0.322  0.1144  0.2056  0.4751
 2435TIP3    H1 7269   3.535   2.590   0.346  1.0398  0.1012 -1.9664
 2435TIP3    H2 7270   3.518   2.740   0.339  0.2153  0.1674  0.3869
 2436TIP3   OH2 7271   6.642   1.730   2.631 -0.1570  0.0609 -0.1654
 2436TIP3    H1 7272   6.618   1.729   2.538  0.1087 -0.1799 -0.2320
 2436TIP3    H2 7273   6.668   1.640   2.649 -0.4897  0.0417  0.2166
 2437TIP3   OH2 7274   0.462   1.127   5.686 -0.4433 -0.4504 -0.0406
 2437TIP3    H1 7275   0.462   1.104   5.593 -1.6737 -0.2064 -0.1107
 2437TIP3    H2 7276   0.519   1.062   5.727 -0.8491 -1.2885 -0.7820
 2438TIP3   OH2 7277   3.673   2.170   2.961  0.0570  0.4168 -0.5213
 2438TIP3    H1 7278   3.658   2.252   2.913  0.2752  1.3882  1.0043
 2438TIP3    H2 7279   3.601   2.167   3.024  1.2217  0.5147  0.8316
 2439TIP3   OH2 7280   6.499   5.404   3.980  0.2203 -0.2274  0.3943
 2439TIP3    H1 7281   6.564   5.433   3.917 -0.0591 -0.4728 -0.0148
 2439TIP3    H2 7282   6.420   5.389   3.927 -0.1962  0.1635  0.8964
 2440TIP3   OH2 7283   6.385   4.086   0.260 -0.3329 -0.0157 -0.7007
 2440TIP3    H1 7284   6.441   4.010   0.247  0.3717  0.6950 -2.1279
 2440TIP3    H2 7285   6.302   4.051   0.292  0.4547 -1.2215  0.0793
 2441TIP3   OH2 7286   4.023   1.778   0.824 -0.3567  0.7351 -0.4079
 2441TIP3    H1 7287   4.118   1.791   0.828 -0.2338 -0.1783 -0.0913
 2441TIP3    H2 7288   4.013   1.689   0.791 -1.0637  0.2150  1.1113
 2442TIP3   OH2 7289   5.357   0.121   3.323 -0.3023 -0.0165 -0.7092
 2442TIP3    H1 7290   5.446   0.099   3.351 -0.7388  0.8966  1.6114
 2442TIP3    H2 7291   5.308   0.040   3.336  0.0840 -0.4274 -1.6806
 2443TIP3   OH2 7292   5.805   3.007   5.562  0.0828 -0.2811 -0.5859
 2443TIP3    H1 7293   5.877   2.947   5.579 -0.0040 -0.3127 -0.3095
 2443TIP3    H2 7294   5.775   2.986   5.474 -0.6415 -1.3777 -0.1041
 2444TIP3   OH2 7295   4.143   6.222   4.257  0.1705 -0.4607 -0.2162
 2444TIP3    H1 7296   4.198   6.164   4.310  1.3834 -1.3150 -2.2518
 2444TIP3    H2 7297   4.201   6.294   4.233 -0.4858  0.1396 -0.0192
 2445TIP3   OH2 7298   0.927   4.952   0.873  0.4768  0.1852  0.5935
 2445TIP3    H1 7299   0.951   4.925   0.962 -1.4210 -0.8784  0.8290
 2445TIP3    H2 7300   0.839   4.988   0.881  0.6471  0.9599 -0.7208
 2446TIP3   OH2 7301   1.828   0.411   2.633  0.1584 -0.1988  0.3677
 2446TIP3    H1 7302   1.837   0.506   2.623  2.1926 -0.5442 -3.0523
 2446TIP3    H2 7303   1.784   0.383   2.553 -0.7187 -2.1352  1.4662
 2447TIP3   OH2 7304   2.239   0.495   5.572  0.0346 -0.7786  0.1267
 2447TIP3    H1 7305   2.169   0.494   5.637  0.2397 -2.1435  0.3455
 2447TIP3    H2 7306   2.297   0.424   5.597  1.0880 -0.1798 -0.5197
 2448TIP3   OH2 7307   4.486   3.822   2.079  0.5635  0.4603 -0.0837
 2448TIP3    H1 7308   4.465   3.769   2.002  1.5066  0.3891 -0.3077
 2448TIP3    H2 7309   4.572   3.859   2.060  1.0102  0.1032  1.1044
 2449TIP3   OH2 7310   4.559   2.299   1.867 -0.0975 -0.3722  0.0294
 2449TIP3    H1 7311   4.628   2.354   1.830 -0.9171  1.6666  1.4038
 2449TIP3    H2 7312   4.569   2.308   1.961 -3.5374  1.8475  0.3516
 2450TIP3   OH2 7313   4.497   1.346   2.199 -0.1371  0.2114 -0.3349
 2450TIP3    H1 7314   4.592   1.352   2.211  0.1089 -1.5224 -1.1264
 2450TIP3    H2 7315   4.484   1.352   2.104 -0.4212 -2.9870 -0.6190
 2451TIP3   OH2 7316   6.776   4.548   1.031 -0.7403  0.7403  0.1149
 2451TIP3    H1 7317   6.824   4.628   1.011  1.6894 -0.5690  0.4064
 2451TIP3    H2 7318   6.802   4.487   0.963  0.9993 -1.1381  2.3245
 2452TIP3   OH2 7319   1.967   1.097   0.716 -0.1761  0.2051  0.0541
 2452TIP3    H1 7320   2.036   1.078   0.652 -1.8411  1.5882 -2.3229
 2452TIP3    H2 7321   1.890   1.116   0.663 -1.7244  1.2760  2.5129
 2453TIP3   OH2 7322   1.698   6.707   5.514 -0.2634 -0.2394 -0.0239
 2453TIP3    H1 7323   1.673   6.781   5.569  2.6417  0.0082  1.1233
 2453TIP3    H2 7324   1.791   6.719   5.497  0.3012 -3.4645  0.0249
 2454TIP3   OH2 7325   2.492   4.447   4.545 -0.6477  0.5538 -0.6363
 2454TIP3    H1 7326   2.482   4.497   4.464 -1.5079 -0.1653 -0.9863
 2454TIP3    H2 7327   2.544   4.504   4.602 -0.1193  1.1144 -1.6479
 2455TIP3   OH2 7328   5.445   3.691   4.867  0.4449 -0.1167 -0.8230
 2455TIP3    H1 7329   5.517   3.748   4.841 -1.0802  0.7065 -3.7667
 2455TIP3    H2 7330   5.371   3.751   4.882 -0.2603 -1.0891 -0.2551
 2456TIP3   OH2 7331   4.177   4.102   2.542  0.1363 -0.4777  0.0411
 2456TIP3    H1 7332   4.183   4.195   2.562  0.1086 -0.5409  0.3462
 2456TIP3    H2 7333   4.090   4.076   2.572 -0.0675 -0.4825 -0.5435
 2457TIP3   OH2 7334   2.068   4.254   1.537  0.6156  0.2109 -0.4211
 2457TIP3    H1 7335   2.144   4.247   1.478  0.6131  1.4618 -0.6198
 2457TIP3    H2 7336   1.999   4.205   1.493  1.1076 -0.3465 -0.5892
 2458TIP3   OH2 7337   1.245   4.773   3.317 -0.5247  0.4907  0.3271
 2458TIP3    H1 7338   1.174   4.759   3.379 -1.7431 -1.4022 -1.3680
 2458TIP3    H2 7339   1.303   4.699   3.330  1.7731  2.4543  2.3018
 2459TIP3   OH2 7340   1.476   3.248   1.169 -0.1504  0.1079 -0.3719
 2459TIP3    H1 7341   1.462   3.343   1.160  2.2295  0.4662 -0.8945
 2459TIP3    H2 7342   1.555   3.231   1.118  0.1098 -1.9841  0.6561
 2460TIP3   OH2 7343   3.431   4.357   0.313 -0.5942 -0.3453 -0.2013
 2460TIP3    H1 7344   3.412   4.448   0.336  1.1290 -0.1578  0.6411
 2460TIP3    H2 7345   3.487   4.326   0.384  1.2400 -1.1435 -1.9271
 2461TIP3   OH2 7346   1.879   4.431   1.916  0.1931 -0.4509  0.2346
 2461TIP3    H1 7347   1.895   4.348   1.872 -0.2797 -1.1282  1.3009
 2461TIP3    H2 7348   1.945   4.490   1.881  2.5475 -2.0841  1.6263
 2462TIP3   OH2 7349   6.820   5.891   3.748 -0.3343 -0.0516 -0.2408
 2462TIP3    H1 7350   6.725   5.895   3.736 -0.3377  1.8784  0.1805
 2462TIP3    H2 7351   6.832   5.843   3.830 -0.8627 -1.4206 -0.9301
 2463TIP3   OH2 7352   0.209   2.283   0.101  0.0535  0.5051 -0.7181
 2463TIP3    H1 7353   0.271   2.241   0.160  0.9513  1.0403 -1.2483
 2463TIP3    H2 7354   0.158   2.341   0.157 -0.6322 -0.6625 -0.1233
 2464TIP3   OH2 7355   3.111   0.546   4.064 -0.2207 -0.0333  0.3145
 2464TIP3    H1 7356   3.181   0.526   4.001 -0.5326 -1.6726  0.4400
 2464TIP3    H2 7357   3.041   0.485   4.042 -0.2613 -0.8140  2.3690
 2465TIP3   OH2 7358   0.051   4.082   1.684 -0.1135  0.0257  0.0254
 2465TIP3    H1 7359   0.069   4.064   1.777  0.1067  1.6654  0.3321
 2465TIP3    H2 7360  -0.037   4.045   1.670 -0.5693  0.6215  1.1616
 2466TIP3   OH2 7361   3.529   5.316   5.835  0.0034 -0.0892 -0.0076
 2466TIP3    H1 7362   3.548   5.229   5.801 -0.3296  0.0777 -0.6299
 2466TIP3    H2 7363   3.529   5.305   5.930 -0.3531 -0.8342 -0.0905
 2467TIP3   OH2 7364   0.377   5.097   0.346 -0.1808  0.0769 -0.2377
 2467TIP3    H1 7365   0.283   5.115   0.338 -0.3838 -1.3181 -1.6103
 2467TIP3    H2 7366   0.417   5.182   0.361 -1.3852  1.2050 -2.7692
 2468TIP3   OH2 7367   1.458   4.200   2.687  0.0325  0.0668 -0.2694
 2468TIP3    H1 7368   1.420   4.270   2.635 -2.1800 -1.4331 -0.7976
 2468TIP3    H2 7369   1.548   4.191   2.653 -0.6473  0.5931 -2.3359
 2469TIP3   OH2 7370   6.837   4.767   5.126 -0.0129 -0.4451 -0.1792
 2469TIP3    H1 7371   6.868   4.739   5.213 -1.0567  1.2554  0.7927
 2469TIP3    H2 7372   6.819   4.685   5.080  1.7164 -1.4100  0.7580
 2470TIP3   OH2 7373   5.440   5.278   5.330 -0.0032 -0.1933 -0.1483
 2470TIP3    H1 7374   5.481   5.359   5.300  0.5274 -0.4590 -0.1495
 2470TIP3    H2 7375   5.476   5.210   5.273  1.5927 -0.8197  1.5311
 2471TIP3   OH2 7376   3.519   6.018   3.523  0.0707 -0.5225  0.2617
 2471TIP3    H1 7377   3.563   5.933   3.534 -0.9069 -1.2341 -1.1047
 2471TIP3    H2 7378   3.588   6.082   3.540  0.9396 -1.5812  0.9146
 2472TIP3   OH2 7379   7.168   1.152   4.856  0.1638 -0.5878 -0.0889
 2472TIP3    H1 7380   7.096   1.108   4.900 -0.5605  1.1594  0.5731
 2472TIP3    H2 7381   7.224   1.081   4.824 -0.1664 -1.9563  2.1702
 2473TIP3   OH2 7382   0.411   0.775   3.083 -0.1461 -0.1784 -0.2142
 2473TIP3    H1 7383   0.370   0.857   3.109 -1.7453 -0.5857 -1.2694
 2473TIP3    H2 7384   0.504   0.793   3.085 -0.4455  1.4953  0.1096
 2474TIP3   OH2 7385   0.600   0.385   3.087  0.3077 -0.5520 -0.2105
 2474TIP3    H1 7386   0.677   0.355   3.039  0.8156  1.3829 -0.6798
 2474TIP3    H2 7387   0.630   0.462   3.136 -1.2666  0.1626 -0.2961
 2475TIP3   OH2 7388   4.071   0.690   3.632  0.6443  0.5040 -0.1526
 2475TIP3    H1 7389   4.107   0.730   3.553 -0.3673  1.3300 -0.2096
 2475TIP3    H2 7390   4.146   0.680   3.690  1.3760  0.0381 -1.1401
 2476TIP3   OH2 7391   2.272   5.538   0.247 -0.3874  0.2464  0.3491
 2476TIP3    H1 7392   2.302   5.522   0.157  1.0275 -0.7079  0.9555
 2476TIP3    H2 7393   2.177   5.525   0.243 -0.3873  0.4846 -1.0504
 2477TIP3   OH2 7394   2.503   0.059   4.089  0.5993  0.2028 -0.2012
 2477TIP3    H1 7395   2.553   0.018   4.159  0.1589 -1.9579 -1.0864
 2477TIP3    H2 7396   2.569   0.081   4.023  0.7143  0.0299 -0.1433
 2478TIP3   OH2 7397   6.677   2.014   2.862  0.1956  0.3718  0.2783
 2478TIP3    H1 7398   6.735   2.027   2.937  1.9513 -2.5683 -0.4046
 2478TIP3    H2 7399   6.714   2.068   2.793  2.4363 -1.5898 -0.2027
 2479TIP3   OH2 7400   3.013   0.798   0.657  0.1653 -0.3033  0.0753
 2479TIP3    H1 7401   2.979   0.732   0.598  1.9648 -0.5776 -0.7340
 2479TIP3    H2 7402   3.016   0.755   0.743 -0.8722 -0.4674  0.0346
 2480TIP3   OH2 7403   2.827   3.481   5.057 -0.3125 -0.5962 -0.7969
 2480TIP3    H1 7404   2.889   3.500   5.127 -0.7124 -1.0523 -0.3139
 2480TIP3    H2 7405   2.879   3.491   4.976  0.1854 -0.2158 -0.4362
 2481TIP3   OH2 7406   2.107   3.419   3.312  0.2475  0.6539 -0.1301
 2481TIP3    H1 7407   2.053   3.357   3.262  1.4296 -0.4740 -0.0718
 2481TIP3    H2 7408   2.076   3.410   3.402  0.4730  0.0484 -0.1041
 2482TIP3   OH2 7409   1.362   3.276   3.320  0.2758  0.2178  0.7483
 2482TIP3    H1 7410   1.294   3.274   3.253  0.8239  0.2898  0.1806
 2482TIP3    H2 7411   1.315   3.257   3.401 -0.0855 -2.0483  0.0983
 2483TIP3   OH2 7412   4.555   2.405   3.234  0.2374  0.5867 -0.3746
 2483TIP3    H1 7413   4.593   2.427   3.319  1.2740  1.8470 -1.1283
 2483TIP3    H2 7414   4.467   2.373   3.254  0.6353  0.4235  1.1932
 2484TIP3   OH2 7415   1.064   5.968   4.898 -0.3548  0.2046  0.4697
 2484TIP3    H1 7416   1.047   6.061   4.914 -0.8393  0.7386 -2.5002
 2484TIP3    H2 7417   1.011   5.947   4.821  2.1254 -1.6852 -0.8670
 2485TIP3   OH2 7418   2.476   3.304   3.386  0.2098 -0.1269  0.2867
 2485TIP3    H1 7419   2.416   3.359   3.335  0.8483 -0.4594 -0.8557
 2485TIP3    H2 7420   2.508   3.239   3.324  2.3880  0.5183  0.6399
 2486TIP3   OH2 7421   2.199   6.145   5.336  0.5671  0.8364  0.1322
 2486TIP3    H1 7422   2.131   6.212   5.338  0.3986  0.7097 -0.9334
 2486TIP3    H2 7423   2.240   6.154   5.250  0.2429 -0.7065 -0.2087
 2487TIP3   OH2 7424   3.460   1.873   4.401 -0.1215 -0.0007 -0.2193
 2487TIP3    H1 7425   3.510   1.857   4.321  1.1615  1.1283  0.3138
 2487TIP3    H2 7426   3.404   1.948   4.379 -2.2406 -1.7235 -1.0563
 2488TIP3   OH2 7427   6.318   5.017   1.493 -0.3611 -0.3977  0.0633
 2488TIP3    H1 7428   6.366   5.099   1.493 -0.8429 -0.0808  1.6489
 2488TIP3    H2 7429   6.381   4.951   1.521 -0.9678  0.1711  3.1319
 2489TIP3   OH2 7430   2.767   2.984   4.878  0.1009 -0.2106 -0.2960
 2489TIP3    H1 7431   2.704   2.928   4.925 -0.7316  0.2601 -0.8134
 2489TIP3    H2 7432   2.719   3.065   4.861  0.1823 -0.5229 -2.3351
 2490TIP3   OH2 7433   6.273   3.708   5.357 -0.7737  0.4112  0.0183
 2490TIP3    H1 7434   6.211   3.738   5.423  0.6825  1.0817  1.1402
 2490TIP3    H2 7435   6.342   3.664   5.407  0.0522  0.3765 -1.1090
 2491TIP3   OH2 7436   5.256   6.272   5.772 -0.2688 -0.7994  0.3115
 2491TIP3    H1 7437   5.167   6.245   5.751 -0.0923 -0.2228 -1.2859
 2491TIP3    H2 7438   5.245   6.327   5.850 -1.3637 -0.4351 -0.0687
 2492TIP3   OH2 7439   1.349   3.942   1.670 -0.2211 -0.2204  0.1117
 2492TIP3    H1 7440   1.423   3.993   1.637  0.1571 -1.1339 -0.5171
 2492TIP3    H2 7441   1.300   4.003   1.724  0.5003  0.6566 -0.1888
 2493TIP3   OH2 7442   6.210   0.188   0.107 -0.0611 -0.4946 -0.0327
 2493TIP3    H1 7443   6.152   0.164   0.180 -0.6842 -1.0045 -0.6770
 2493TIP3    H2 7444   6.159   0.168   0.029  0.1843  1.0305 -0.6241
 2494TIP3   OH2 7445   6.228   0.932   2.444  0.4707 -0.1953  0.1761
 2494TIP3    H1 7446   6.232   0.889   2.358 -1.5957 -0.1302 -0.0037
 2494TIP3    H2 7447   6.185   1.016   2.426 -1.6250 -0.9227  1.4928
 2495TIP3   OH2 7448   4.555   4.136   3.501  0.3848 -0.3223  0.6328
 2495TIP3    H1 7449   4.478   4.083   3.481  0.8343 -0.8129  0.1828
 2495TIP3    H2 7450   4.629   4.076   3.493  1.1526  0.8498 -2.2037
 2496TIP3   OH2 7451   2.782   2.728   3.226 -0.0701 -0.0106 -0.6273
 2496TIP3    H1 7452   2.817   2.744   3.313 -1.5209  2.4333 -0.4274
 2496TIP3    H2 7453   2.854   2.685   3.179  1.0309 -0.5912  1.4698
 2497TIP3   OH2 7454   5.556   4.324   0.423  0.1824 -0.5511  0.5084
 2497TIP3    H1 7455   5.577   4.263   0.494  2.4670 -0.7839 -0.2800
 2497TIP3    H2 7456   5.578   4.277   0.343 -0.7418  0.3077 -0.2746
 2498TIP3   OH2 7457   1.558   1.409   1.854 -0.0684  0.8548  0.2660
 2498TIP3    H1 7458   1.518   1.489   1.818  0.9464  0.5755 -1.5905
 2498TIP3    H2 7459   1.627   1.441   1.912 -1.6738  1.3095  2.0574
 2499TIP3   OH2 7460   3.558   0.463   3.978 -0.4914 -0.1752  0.1044
 2499TIP3    H1 7461   3.591   0.478   3.889 -0.7714 -0.9713 -0.1419
 2499TIP3    H2 7462   3.627   0.415   4.022  0.0087  0.9580  0.6013
 2500TIP3   OH2 7463   5.740   4.937   3.042  0.0326  0.3573  0.4844
 2500TIP3    H1 7464   5.800   4.965   2.972 -0.1624 -1.2470 -0.3643
 2500TIP3    H2 7465   5.797   4.910   3.113  0.2630  0.6738  0.4249
 2501TIP3   OH2 7466   0.254   3.871   2.815 -0.2183 -0.3501  0.2943
 2501TIP3    H1 7467   0.222   3.937   2.754  0.5182  1.0244  1.3524
 2501TIP3    H2 7468   0.258   3.915   2.899  0.5034 -1.6804  0.9943
 2502TIP3   OH2 7469   4.057   6.518   2.787  0.5532  0.3222  0.2856
 2502TIP3    H1 7470   3.979   6.535   2.840  0.7257 -0.2988  0.7493
 2502TIP3    H2 7471   4.095   6.605   2.771  0.1769  0.5605  0.6796
 2503TIP3   OH2 7472   4.105   1.750   2.918 -0.1082 -0.2922  0.1680
 2503TIP3    H1 7473   4.034   1.777   2.859 -0.0461  1.2718  0.7668
 2503TIP3    H2 7474   4.184   1.783   2.876 -0.1308  1.5528  1.4652
 2504TIP3   OH2 7475   5.748   4.994   4.861  0.1715  0.0841 -0.0346
 2504TIP3    H1 7476   5.670   4.968   4.812 -0.0092  0.0964  0.2451
 2504TIP3    H2 7477   5.820   4.975   4.802  0.1022 -1.6240  0.3638
 2505TIP3   OH2 7478   1.026   4.364   2.670  0.1822 -0.3442 -0.3913
 2505TIP3    H1 7479   0.955   4.317   2.627 -0.5743 -1.0985  1.5266
 2505TIP3    H2 7480   0.991   4.453   2.683  1.0207  0.3765 -2.6333
 2506TIP3   OH2 7481   5.807   0.609   4.418  0.6881 -0.1250  0.4998
 2506TIP3    H1 7482   5.803   0.586   4.325  0.1434 -0.1631  0.5257
 2506TIP3    H2 7483   5.725   0.574   4.454  0.1628  1.2265  0.6872
 2507TIP3   OH2 7484   1.525   5.935   0.830  0.0328 -0.0756  0.2759
 2507TIP3    H1 7485   1.619   5.935   0.816  0.3099 -3.1855  1.3485
 2507TIP3    H2 7486   1.511   5.998   0.900  1.7486 -1.4423  1.9540
 2508TIP3   OH2 7487   4.321   4.281   1.446  0.1264 -0.6408 -0.3856
 2508TIP3    H1 7488   4.399   4.297   1.395  0.7480  0.1253  0.7705
 2508TIP3    H2 7489   4.342   4.203   1.498 -0.7950 -1.9056 -1.8276
 2509TIP3   OH2 7490   2.927   5.735   3.080  0.7268 -0.2893  0.4160
 2509TIP3    H1 7491   2.963   5.669   3.140 -1.1815 -0.6252  1.2708
 2509TIP3    H2 7492   2.993   5.744   3.012  1.2993 -2.6890  0.5638
 2510TIP3   OH2 7493   6.667   2.437   1.915 -0.2925  0.6397  0.7678
 2510TIP3    H1 7494   6.648   2.357   1.866  1.1272  1.2359 -0.8831
 2510TIP3    H2 7495   6.698   2.407   2.000  1.6706 -0.6836 -0.3356
 2511TIP3   OH2 7496   3.622   4.471   2.522 -0.0584  0.3349  0.1226
 2511TIP3    H1 7497   3.706   4.472   2.569 -0.5027  1.9464  0.9741
 2511TIP3    H2 7498   3.645   4.497   2.433  0.1644  2.9783  0.8543
 2512TIP3   OH2 7499   1.288   3.615   0.405  0.4161 -0.0981 -0.4082
 2512TIP3    H1 7500   1.212   3.594   0.351 -0.1412  1.2504 -0.1847
 2512TIP3    H2 7501   1.253   3.617   0.494  0.7429  0.3395 -0.2863
 2513TIP3   OH2 7502   6.038   1.106   2.790 -0.7426 -0.0273  0.0235
 2513TIP3    H1 7503   5.949   1.087   2.760 -0.4438 -1.2030 -0.1736
 2513TIP3    H2 7504   6.057   1.035   2.852  0.0404  0.2413  0.0888
 2514TIP3   OH2 7505   5.244   0.821   3.856  0.2272  0.3611 -0.1474
 2514TIP3    H1 7506   5.219   0.823   3.764 -0.9697  1.0604  0.1818
 2514TIP3    H2 7507   5.170   0.780   3.901  1.0035 -0.4335  0.4633
 2515TIP3   OH2 7508   5.871   4.307   4.717 -0.5173  0.2386 -0.0115
 2515TIP3    H1 7509   5.845   4.367   4.647 -0.1599  0.2138 -0.1659
 2515TIP3    H2 7510   5.918   4.362   4.779  1.0851 -0.1383 -0.8528
 2516TIP3   OH2 7511   3.788   0.225   2.933  1.1053  0.2695  0.2743
 2516TIP3    H1 7512   3.767   0.267   3.017  0.4516 -0.1442  0.3226
 2516TIP3    H2 7513   3.703   0.198   2.899  1.4153  0.0531 -0.3229
 2517TIP3   OH2 7514   2.448   4.903   0.609 -0.3226 -0.0109 -0.2721
 2517TIP3    H1 7515   2.511   4.833   0.592 -0.5728 -0.1773 -0.5418
 2517TIP3    H2 7516   2.432   4.899   0.703  0.8503  0.7221 -0.0306
 2518TIP3   OH2 7517   0.391   2.531   1.576 -0.1997 -0.1276 -0.0683
 2518TIP3    H1 7518   0.304   2.517   1.613  0.2830  0.3330  1.2610
 2518TIP3    H2 7519   0.451   2.523   1.650  0.7712  0.9854 -0.6949
 2519TIP3   OH2 7520   3.920   5.321   4.447  0.3817  0.0459 -0.1116
 2519TIP3    H1 7521   3.916   5.341   4.541  1.6599  1.2041 -0.2701
 2519TIP3    H2 7522   3.830   5.298   4.424 -0.7735  3.2228  0.7091
 2520TIP3   OH2 7523   3.368   3.322   5.234  0.2166 -0.0603  0.2063
 2520TIP3    H1 7524   3.385   3.232   5.262 -0.1643  0.3995  2.0016
 2520TIP3    H2 7525   3.283   3.317   5.190 -1.1323 -0.1758  2.6777
 2521TIP3   OH2 7526   5.585   5.138   1.405 -0.1193  0.1248 -0.5071
 2521TIP3    H1 7527   5.548   5.170   1.323 -2.7977 -2.7611 -0.6165
 2521TIP3    H2 7528   5.610   5.047   1.386  0.7483 -0.0928  1.4403
 2522TIP3   OH2 7529   1.623   2.225   2.156  0.6500 -0.2791  0.3061
 2522TIP3    H1 7530   1.680   2.152   2.129 -1.4662 -1.6894 -0.6064
 2522TIP3    H2 7531   1.585   2.195   2.239  1.3845  0.7564  1.0353
 2523TIP3   OH2 7532   0.103   1.223   3.127  0.1634  0.1251  0.0800
 2523TIP3    H1 7533   0.013   1.238   3.156 -0.2317 -1.2593 -0.3627
 2523TIP3    H2 7534   0.140   1.311   3.116 -1.0052  0.7022  0.6473
 2524TIP3   OH2 7535   2.982   1.218   0.851 -0.6681  0.3128  0.1655
 2524TIP3    H1 7536   2.967   1.142   0.794  1.6598  0.2199 -0.4263
 2524TIP3    H2 7537   3.035   1.184   0.922 -0.4913  1.1758  0.4562
 2525TIP3   OH2 7538   0.891   3.759   2.816  0.0716 -0.5977  0.3650
 2525TIP3    H1 7539   0.940   3.679   2.836 -1.1977 -1.6105 -0.4510
 2525TIP3    H2 7540   0.830   3.734   2.747  0.2021  1.2845 -0.5189
 2526TIP3   OH2 7541   4.587   0.966   0.509 -0.7042  0.5111  0.2271
 2526TIP3    H1 7542   4.587   0.914   0.589  1.5178  2.1374  1.3975
 2526TIP3    H2 7543   4.652   0.924   0.453 -1.4319  0.0423 -0.2829
 2527TIP3   OH2 7544   6.618   3.175   3.518 -0.0480 -0.3642  0.1078
 2527TIP3    H1 7545   6.694   3.117   3.515  0.7118  0.6309  0.0045
 2527TIP3    H2 7546   6.649   3.258   3.481 -1.2015  0.0312 -0.0057
 2528TIP3   OH2 7547   2.304   2.487   4.724 -0.0964  0.3861 -0.4488
 2528TIP3    H1 7548   2.319   2.475   4.630  1.7819  2.6492 -0.5510
 2528TIP3    H2 7549   2.258   2.408   4.752 -0.9957 -0.2167 -3.3128
 2529TIP3   OH2 7550   0.183   2.247   3.238 -0.3169 -0.0220  0.2216
 2529TIP3    H1 7551   0.256   2.219   3.293 -0.6534 -0.4820  0.4392
 2529TIP3    H2 7552   0.220   2.255   3.151  0.0826  0.1297  0.4021
 2530TIP3   OH2 7553   2.134   3.235   4.600  0.4457 -0.5597 -0.2364
 2530TIP3    H1 7554   2.201   3.204   4.539  0.0151  0.5619 -1.3057
 2530TIP3    H2 7555   2.183   3.273   4.673  1.0750  2.0556 -1.9044
 2531TIP3   OH2 7556   3.241   4.278   3.669 -0.4716  0.1274 -0.3405
 2531TIP3    H1 7557   3.205   4.318   3.748  0.7405  1.5677 -0.4663
 2531TIP3    H2 7558   3.199   4.327   3.597  0.4919  0.7310 -0.5104
 2532TIP3   OH2 7559   5.127   6.757   0.631  0.4556  0.0200  0.3414
 2532TIP3    H1 7560   5.089   6.676   0.597  0.3902  0.5977 -1.0425
 2532TIP3    H2 7561   5.052   6.818   0.635  0.9745  0.8354 -1.3503
 2533TIP3   OH2 7562   7.136   0.680   1.495 -0.7036  0.0579 -0.0122
 2533TIP3    H1 7563   7.092   0.747   1.443  0.7274  0.4396 -0.7624
 2533TIP3    H2 7564   7.090   0.682   1.579 -0.3341  2.4175  0.2086
 2534TIP3   OH2 7565   3.904   5.820   5.859 -0.2250  0.0602  0.2015
 2534TIP3    H1 7566   3.886   5.770   5.780  0.4084  0.4897 -0.2202
 2534TIP3    H2 7567   3.985   5.783   5.894  0.8632  1.4755 -0.7157
 2535TIP3   OH2 7568   3.320   1.507   5.795  0.4563  0.1844  0.1551
 2535TIP3    H1 7569   3.295   1.453   5.720  2.6739 -0.4362 -0.2189
 2535TIP3    H2 7570   3.283   1.462   5.871  2.0128 -1.8220 -0.1781
 2536TIP3   OH2 7571   3.540   0.314   2.049  0.5017  0.7400 -0.1830
 2536TIP3    H1 7572   3.620   0.360   2.028  0.9660  0.7993  1.5599
 2536TIP3    H2 7573   3.569   0.228   2.081 -0.1695  0.4565 -0.3158
 2537TIP3   OH2 7574   4.517   1.792   4.680 -0.0901 -0.0634 -0.3080
 2537TIP3    H1 7575   4.528   1.798   4.775 -0.5653  0.4234 -0.2747
 2537TIP3    H2 7576   4.504   1.699   4.662  1.9518 -0.4192 -0.1254
 2538TIP3   OH2 7577   2.561   3.266   1.812  0.3846 -0.3965  0.1171
 2538TIP3    H1 7578   2.570   3.171   1.823  1.0673 -0.1687  1.9157
 2538TIP3    H2 7579   2.475   3.278   1.773 -0.7724 -1.6634  2.1002
 2539TIP3   OH2 7580   2.665   2.153   1.296 -0.0383  0.2016  0.2301
 2539TIP3    H1 7581   2.644   2.140   1.388 -0.4606  0.1768  0.1358
 2539TIP3    H2 7582   2.661   2.065   1.258 -1.4599  0.3851 -0.1220
 2540TIP3   OH2 7583   0.890   1.971   5.202 -0.7978  0.0174  0.0682
 2540TIP3    H1 7584   0.898   2.002   5.112 -0.7024 -1.4967 -0.4627
 2540TIP3    H2 7585   0.954   2.024   5.251  0.1270 -0.0787 -0.9918
 2541TIP3   OH2 7586   3.820   1.087   2.692  0.4301  0.0893 -0.4315
 2541TIP3    H1 7587   3.791   0.997   2.696  1.1876 -0.1701 -0.5265
 2541TIP3    H2 7588   3.889   1.087   2.625  0.1232  0.8276 -0.7619
 2542TIP3   OH2 7589   2.260   3.507   0.401 -0.1868 -0.3924 -0.4094
 2542TIP3    H1 7590   2.192   3.441   0.415  0.5828 -1.0640  0.2306
 2542TIP3    H2 7591   2.212   3.587   0.383 -1.1913 -0.5380  1.3796
 2543TIP3   OH2 7592   4.281   4.409   4.403  0.4100  0.5943 -0.1850
 2543TIP3    H1 7593   4.373   4.432   4.391  1.1563 -1.2630  1.5493
 2543TIP3    H2 7594   4.269   4.402   4.497 -1.5091  0.6606 -0.3742
 2544TIP3   OH2 7595   1.192   2.565   2.467  0.6992  0.0275 -0.5826
 2544TIP3    H1 7596   1.112   2.529   2.504 -0.1393  1.2508 -1.1384
 2544TIP3    H2 7597   1.255   2.493   2.472 -0.0504 -0.5564  1.0193
 2545TIP3   OH2 7598   5.484   0.887   1.539 -0.1901  0.0160  0.0045
 2545TIP3    H1 7599   5.464   0.981   1.543  0.0602  0.1901 -1.8500
 2545TIP3    H2 7600   5.479   0.866   1.446 -1.3574 -2.0818  0.4838
 2546TIP3   OH2 7601   1.308   5.278   2.108  0.1921  0.4291  0.7428
 2546TIP3    H1 7602   1.401   5.255   2.106  0.2540  0.7274  0.1152
 2546TIP3    H2 7603   1.303   5.364   2.067 -0.4260  0.2013  0.3285
 2547TIP3   OH2 7604   4.950   3.037   3.239 -0.1340  0.2371  0.6696
 2547TIP3    H1 7605   4.864   3.073   3.258 -0.9613 -1.3205  0.0315
 2547TIP3    H2 7606   4.933   2.957   3.189  1.6794 -0.0975  0.5013
 2548TIP3   OH2 7607   3.640   5.361   4.349  0.1477 -0.2346 -0.0207
 2548TIP3    H1 7608   3.608   5.297   4.287 -1.3745  1.1114 -0.7027
 2548TIP3    H2 7609   3.699   5.417   4.298  0.0779 -0.0223  0.1295
 2549TIP3   OH2 7610   0.961   1.656   2.246  0.2496 -0.4427 -0.2288
 2549TIP3    H1 7611   0.877   1.674   2.287 -0.4415 -1.2083 -1.2676
 2549TIP3    H2 7612   1.023   1.651   2.319 -0.9935 -2.0982  0.7878
 2550TIP3   OH2 7613   0.705   6.675   1.171 -0.4284 -0.4521 -0.2044
 2550TIP3    H1 7614   0.716   6.715   1.085  1.0623 -0.5370 -0.0830
 2550TIP3    H2 7615   0.716   6.581   1.156 -0.5078 -0.5003  0.0240
 2551TIP3   OH2 7616   0.153   2.025   5.742 -0.4599  0.5385 -0.1988
 2551TIP3    H1 7617   0.088   2.035   5.812  0.3665  0.3389  0.6289
 2551TIP3    H2 7618   0.237   2.033   5.787  0.1132 -0.8507 -0.9652
 2552TIP3   OH2 7619   3.856   1.187   5.470 -0.7463  0.0978  0.9464
 2552TIP3    H1 7620   3.818   1.106   5.434  2.3388 -0.8499 -0.5131
 2552TIP3    H2 7621   3.894   1.161   5.553  0.5272 -0.0643  0.3274
 2553TIP3   OH2 7622   5.120   3.507   1.647 -0.6453  0.7272 -0.2204
 2553TIP3    H1 7623   5.128   3.432   1.588 -1.7875 -0.8811  1.5779
 2553TIP3    H2 7624   5.077   3.574   1.593 -0.4458 -0.2062 -1.6043
 2554TIP3   OH2 7625   0.505   3.489   0.715  0.0552  0.1110  0.2828
 2554TIP3    H1 7626   0.415   3.455   0.711 -0.0932  0.4267  0.9051
 2554TIP3    H2 7627   0.502   3.572   0.668 -0.1878  0.5592  1.0703
 2555TIP3   OH2 7628   3.425   6.340   1.802  1.1640 -0.3002  0.5178
 2555TIP3    H1 7629   3.402   6.359   1.893 -0.8316  1.3140 -0.2568
 2555TIP3    H2 7630   3.407   6.246   1.792 -1.5938  0.0803  1.0508
 2556TIP3   OH2 7631   4.537   1.711   3.766  0.4789 -0.0125 -0.0332
 2556TIP3    H1 7632   4.499   1.796   3.792 -0.6421 -0.3375 -0.5522
 2556TIP3    H2 7633   4.499   1.693   3.681  0.3510 -1.2633  0.2703
 2557TIP3   OH2 7634   3.405   1.409   0.694  0.4433 -0.0564  0.0745
 2557TIP3    H1 7635   3.358   1.436   0.614 -1.3815  0.1039  1.1430
 2557TIP3    H2 7636   3.356   1.450   0.765  1.2912 -1.2033  1.3623
 2558TIP3   OH2 7637   4.488   6.593   5.064 -0.2372  0.0937 -0.3351
 2558TIP3    H1 7638   4.496   6.621   5.156  1.1680 -0.0113 -0.3980
 2558TIP3    H2 7639   4.410   6.639   5.032 -1.4787 -0.8253  1.2355
 2559TIP3   OH2 7640   5.662   1.745   4.670  0.2789 -0.4315  0.1693
 2559TIP3    H1 7641   5.630   1.677   4.730 -0.9072 -2.1774 -2.2690
 2559TIP3    H2 7642   5.594   1.811   4.671  0.8897  0.2366  1.6697
 2560TIP3   OH2 7643   0.822   1.397   3.318  0.1644  0.2056 -0.2964
 2560TIP3    H1 7644   0.760   1.454   3.363  0.8080 -0.0009  0.8722
 2560TIP3    H2 7645   0.884   1.457   3.276 -0.4090  0.3984 -0.8774
 2561TIP3   OH2 7646   4.074   0.937   2.685 -0.6751 -0.3055  0.0883
 2561TIP3    H1 7647   4.113   0.882   2.617  1.0566  0.5594  0.3324
 2561TIP3    H2 7648   4.033   0.875   2.745 -0.5610 -1.1936 -0.7251
 2562TIP3   OH2 7649   2.746   5.919   1.364 -0.0485 -0.0909 -0.2286
 2562TIP3    H1 7650   2.792   5.980   1.306  1.5301 -0.2207  0.8289
 2562TIP3    H2 7651   2.657   5.954   1.369  0.9861  2.6316  0.9820
 2563TIP3   OH2 7652   6.989   4.976   5.043  0.4037  0.2565 -0.3816
 2563TIP3    H1 7653   6.944   4.895   5.066  0.9342  0.4237  1.3348
 2563TIP3    H2 7654   6.980   4.982   4.948 -1.4957 -0.7084 -0.3096
 2564TIP3   OH2 7655   3.495   5.265   2.559  0.3253 -0.2480 -0.8048
 2564TIP3    H1 7656   3.473   5.196   2.621  0.4590  0.7238  0.3614
 2564TIP3    H2 7657   3.422   5.327   2.565  1.1218  0.6689 -0.3810
 2565TIP3   OH2 7658   1.381   6.230   0.612 -1.1902  0.4543 -0.5725
 2565TIP3    H1 7659   1.374   6.293   0.540 -1.8775 -0.7246 -1.5803
 2565TIP3    H2 7660   1.350   6.278   0.689 -1.5486  1.4030 -1.2852
 2566TIP3   OH2 7661   2.002   5.607   2.734 -0.4652  0.6659  0.4130
 2566TIP3    H1 7662   2.084   5.583   2.692 -0.6040  0.2248  0.3923
 2566TIP3    H2 7663   1.971   5.527   2.775 -1.6204  0.4343 -0.8148
 2567TIP3   OH2 7664   3.304   1.740   2.414  0.0917  0.0376 -0.2308
 2567TIP3    H1 7665   3.320   1.802   2.485 -0.1385 -0.2857  0.1171
 2567TIP3    H2 7666   3.209   1.725   2.418  0.0641  0.1025 -0.6817
 2568TIP3   OH2 7667   0.309   0.534   5.253  0.1628  0.5559 -0.1368
 2568TIP3    H1 7668   0.315   0.439   5.266 -0.3722  0.1039 -2.6968
 2568TIP3    H2 7669   0.369   0.552   5.180 -1.7419  1.7142 -1.5229
 2569TIP3   OH2 7670   6.003   0.863   1.740 -0.6871  0.0675 -0.6971
 2569TIP3    H1 7671   5.910   0.873   1.718 -0.9695  0.5329  0.6073
 2569TIP3    H2 7672   6.016   0.769   1.750 -0.7117 -0.0992 -2.0997
 2570TIP3   OH2 7673   3.920   4.083   0.117 -1.1634  0.3031 -0.1825
 2570TIP3    H1 7674   3.830   4.113   0.130 -1.4733  0.2678 -1.9202
 2570TIP3    H2 7675   3.913   3.988   0.109 -1.2549  0.4150 -1.9363
 2571TIP3   OH2 7676   3.726   0.935   5.825 -0.8973 -0.0265 -0.0856
 2571TIP3    H1 7677   3.677   0.940   5.743 -2.4866  0.2356  0.8344
 2571TIP3    H2 7678   3.781   1.013   5.825 -0.4215 -0.3325 -1.1477
 2572TIP3   OH2 7679   1.786   2.061   3.709  0.0434  0.4544  0.3244
 2572TIP3    H1 7680   1.725   2.049   3.782 -0.8715  2.6600 -0.0039
 2572TIP3    H2 7681   1.756   2.000   3.642  0.5458 -1.1860  1.5115
 2573TIP3   OH2 7682   2.273   4.679   0.247  0.2276 -0.0166  0.4764
 2573TIP3    H1 7683   2.362   4.667   0.280  1.5682  1.1616 -2.3648
 2573TIP3    H2 7684   2.263   4.774   0.240 -0.3713 -0.1778 -1.3210
 2574TIP3   OH2 7685   6.505   1.078   0.347  0.1225 -0.5684 -0.0337
 2574TIP3    H1 7686   6.565   1.140   0.387 -0.0803 -0.4560  0.0923
 2574TIP3    H2 7687   6.426   1.128   0.329  0.3231 -0.5322 -0.8696
 2575TIP3   OH2 7688   5.664   6.242   2.611 -0.3038  0.2186  0.1233
 2575TIP3    H1 7689   5.698   6.325   2.577 -1.5123 -0.0253 -1.8052
 2575TIP3    H2 7690   5.664   6.254   2.706  2.7508  1.1218  0.1283
 2576TIP3   OH2 7691   0.681   0.222   2.513 -0.9752 -0.2553  0.7758
 2576TIP3    H1 7692   0.655   0.186   2.598 -2.8814 -2.1692 -0.4900
 2576TIP3    H2 7693   0.599   0.255   2.475 -0.2387  0.2001 -0.4751
 2577TIP3   OH2 7694   2.758   0.593   4.491 -0.3700  0.2519 -0.2588
 2577TIP3    H1 7695   2.828   0.539   4.528  1.6632  1.7895 -1.6495
 2577TIP3    H2 7696   2.740   0.555   4.406  1.4892  1.9237 -1.5075
 2578TIP3   OH2 7697   3.763   3.508   1.786 -0.7590  0.2937  0.1589
 2578TIP3    H1 7698   3.669   3.523   1.794 -0.6378  0.8178  0.6536
 2578TIP3    H2 7699   3.770   3.431   1.729 -1.5228 -0.4620  1.0498
 2579TIP3   OH2 7700   3.458   2.585   1.756 -0.2214 -0.4021  0.2689
 2579TIP3    H1 7701   3.448   2.654   1.822 -1.5499  0.8434 -1.1410
 2579TIP3    H2 7702   3.489   2.509   1.805  1.4860  1.2181  1.8651
 2580TIP3   OH2 7703   4.612   5.845   1.903 -0.4251 -0.7650 -0.0496
 2580TIP3    H1 7704   4.546   5.849   1.833 -0.5014  0.7744  0.0675
 2580TIP3    H2 7705   4.592   5.921   1.958  2.6296  1.0172 -1.1219
 2581TIP3   OH2 7706   4.505   0.189   4.792  0.0252 -0.1081 -0.1032
 2581TIP3    H1 7707   4.505   0.099   4.824 -0.0361 -0.2346 -0.4496
 2581TIP3    H2 7708   4.594   0.203   4.760  0.1647  0.1114  0.3787
 2582TIP3   OH2 7709   1.979   5.938   0.188  0.3454  0.1652 -0.4539
 2582TIP3    H1 7710   1.981   6.015   0.132 -1.3095  1.2560  0.9074
 2582TIP3    H2 7711   1.900   5.890   0.162 -1.0323  1.2120  1.4996
 2583TIP3   OH2 7712   6.572   4.413   3.570 -0.7049 -0.1447  0.3533
 2583TIP3    H1 7713   6.511   4.476   3.533 -0.1221 -0.1498 -0.6619
 2583TIP3    H2 7714   6.652   4.463   3.585  0.2017 -0.8672 -1.7007
 2584TIP3   OH2 7715   2.807   6.271   4.197  0.1728  0.8018 -0.0741
 2584TIP3    H1 7716   2.896   6.305   4.191 -0.4702  2.7991  0.8232
 2584TIP3    H2 7717   2.763   6.304   4.119  0.1748 -0.1631 -0.5055
 2585TIP3   OH2 7718   1.227   5.118   4.449  0.4113  0.8849  0.0710
 2585TIP3    H1 7719   1.284   5.043   4.431  1.7270  1.6221  1.0344
 2585TIP3    H2 7720   1.179   5.094   4.528 -0.9605  0.1053 -0.9514
 2586TIP3   OH2 7721   2.187   4.816   1.234  0.1440 -0.0516  0.7642
 2586TIP3    H1 7722   2.215   4.784   1.148 -0.9799  0.6426  0.1115
 2586TIP3    H2 7723   2.230   4.901   1.242 -2.1064  1.3282 -0.5340
 2587TIP3   OH2 7724   2.379   2.858   0.102  0.2724 -0.3934 -0.2088
 2587TIP3    H1 7725   2.318   2.785   0.111  0.3811 -0.2844  1.8335
 2587TIP3    H2 7726   2.340   2.929   0.152  2.4215 -0.6148  1.9815
 2588TIP3   OH2 7727   2.077   6.591   1.960  0.2936 -0.5115  0.1125
 2588TIP3    H1 7728   2.079   6.603   1.865  0.8022 -0.0230  0.1747
 2588TIP3    H2 7729   2.078   6.496   1.972 -2.3822 -0.6720 -0.3869
 2589TIP3   OH2 7730   6.017   5.533   2.336  0.5109  0.4537  0.0477
 2589TIP3    H1 7731   6.053   5.516   2.423 -0.0134  1.0043  0.3753
 2589TIP3    H2 7732   5.932   5.490   2.336  0.4152  0.6406 -0.1228
 2590TIP3   OH2 7733   2.655  -0.019   3.268  0.2941  0.5100  0.3099
 2590TIP3    H1 7734   2.567  -0.031   3.230  0.5178  1.6164 -0.6319
 2590TIP3    H2 7735   2.655   0.071   3.300  1.3890  0.8650 -0.6097
 2591TIP3   OH2 7736   4.213   0.109   2.425  0.6228 -0.1559 -0.3190
 2591TIP3    H1 7737   4.139   0.051   2.407  0.7352 -0.4219  0.0681
 2591TIP3    H2 7738   4.265   0.109   2.345  0.7415 -0.7637 -0.2433
 2592TIP3   OH2 7739   0.113   0.536   1.320  0.6080  0.5652  0.1618
 2592TIP3    H1 7740   0.059   0.582   1.384  0.2064  0.7835 -0.3299
 2592TIP3    H2 7741   0.196   0.583   1.319 -0.1274  1.9069 -1.0456
 2593TIP3   OH2 7742   6.399   6.410   4.930  0.0257 -0.0554 -0.7002
 2593TIP3    H1 7743   6.312   6.413   4.971  1.2584  3.0525  2.1521
 2593TIP3    H2 7744   6.392   6.472   4.857 -0.5549 -1.1660 -1.6300
 2594TIP3   OH2 7745   7.092   2.031   5.889 -0.2264  0.0578  0.8598
 2594TIP3    H1 7746   7.043   1.950   5.903  0.7965 -0.4630  1.5550
 2594TIP3    H2 7747   7.054   2.069   5.810 -2.5904  0.3119  2.0336
 2595TIP3   OH2 7748   4.901   6.768   1.143  0.7018  0.1506  0.2025
 2595TIP3    H1 7749   4.916   6.831   1.072 -0.9277 -1.4979 -1.7011
 2595TIP3    H2 7750   4.816   6.730   1.125  1.9402 -3.2598  0.7523
 2596TIP3   OH2 7751   6.997   4.552   1.441  0.0265  0.2010 -0.1915
 2596TIP3    H1 7752   7.059   4.621   1.417  0.2683  0.3117  0.7257
 2596TIP3    H2 7753   6.993   4.555   1.536 -0.0149 -1.0167 -0.1437
 2597TIP3   OH2 7754   6.470   0.965   5.115  0.0776 -0.5885  0.3662
 2597TIP3    H1 7755   6.404   0.897   5.106 -0.1937 -0.3144  0.2380
 2597TIP3    H2 7756   6.451   1.027   5.045  0.0725 -0.1811  0.7183
 2598TIP3   OH2 7757   0.691   0.718   3.917  0.0684  0.2285 -0.7375
 2598TIP3    H1 7758   0.692   0.671   4.001 -0.6741 -0.8463 -1.3069
 2598TIP3    H2 7759   0.742   0.663   3.858  1.3867  1.4518 -0.7779
 2599TIP3   OH2 7760   4.431   0.997   0.849  0.2329 -0.2803  0.6338
 2599TIP3    H1 7761   4.518   0.994   0.887 -0.7712 -0.3298  3.0850
 2599TIP3    H2 7762   4.438   1.062   0.779  2.3242 -0.6793  0.3993
 2600TIP3   OH2 7763   0.498   0.547   5.057  0.6609 -0.9450  0.1308
 2600TIP3    H1 7764   0.583   0.587   5.076  1.0797 -2.2595  1.2159
 2600TIP3    H2 7765   0.506   0.516   4.967  0.5504  0.7986 -0.5066
 2601TIP3   OH2 7766   5.955   5.649   3.154  0.1011 -0.4072 -0.1915
 2601TIP3    H1 7767   6.050   5.636   3.157 -0.0425 -1.4125  0.8068
 2601TIP3    H2 7768   5.923   5.575   3.103 -0.2439 -0.6884  0.4358
 2602TIP3   OH2 7769   3.399   4.468   5.144 -0.3631 -0.4342  0.4157
 2602TIP3    H1 7770   3.450   4.391   5.118  0.6954  0.8058 -1.4222
 2602TIP3    H2 7771   3.311   4.450   5.112 -0.0720 -0.7814 -0.2105
 2603TIP3   OH2 7772   3.855   1.625   1.149 -0.5607  0.3334 -0.3970
 2603TIP3    H1 7773   3.875   1.534   1.126  0.7797  0.5921 -0.3231
 2603TIP3    H2 7774   3.782   1.618   1.212 -1.0233 -0.6324 -1.0155
 2604TIP3   OH2 7775   2.523   6.134   1.844  0.1838  0.3749  0.4933
 2604TIP3    H1 7776   2.560   6.065   1.790 -0.5968 -1.1938  1.8881
 2604TIP3    H2 7777   2.488   6.089   1.921 -0.7740  2.2664  1.2363
 2605TIP3   OH2 7778   0.788   6.516   2.370  0.5930 -0.0573  0.3334
 2605TIP3    H1 7779   0.748   6.433   2.398 -0.5092  0.3059 -0.1285
 2605TIP3    H2 7780   0.882   6.500   2.377  0.3906 -1.1696  0.7681
 2606TIP3   OH2 7781   3.059   6.116   1.436  1.0613 -0.8996  0.2665
 2606TIP3    H1 7782   3.150   6.145   1.428  0.5256  1.1335  0.8384
 2606TIP3    H2 7783   3.026   6.117   1.347  0.8207  1.2974  0.3241
 2607TIP3   OH2 7784   5.764   0.887   0.492 -0.4687  0.1790 -0.3357
 2607TIP3    H1 7785   5.826   0.819   0.518 -0.7029  0.6105  1.4744
 2607TIP3    H2 7786   5.689   0.839   0.458 -0.0552 -0.4142 -0.4349
 2608TIP3   OH2 7787   3.757   3.745   2.583  0.2410  0.1773  0.6004
 2608TIP3    H1 7788   3.669   3.772   2.610 -0.5260 -2.6150  1.2383
 2608TIP3    H2 7789   3.753   3.743   2.487 -1.2830 -2.1596  0.6046
 2609TIP3   OH2 7790   4.658   0.652   4.361  0.0635  0.6164 -0.0801
 2609TIP3    H1 7791   4.625   0.717   4.423 -1.1273 -0.3820  0.3666
 2609TIP3    H2 7792   4.588   0.641   4.297  0.0555 -0.5637  0.1126
 2610TIP3   OH2 7793   3.809   1.905   0.698 -0.3983 -0.2364  0.0728
 2610TIP3    H1 7794   3.754   1.827   0.708 -1.2155  0.3618  0.4366
 2610TIP3    H2 7795   3.896   1.877   0.725 -0.6300 -1.0847 -0.0348
 2611TIP3   OH2 7796   0.972   1.039   2.019 -0.8456 -0.0065 -0.1913
 2611TIP3    H1 7797   0.945   0.986   1.944 -0.3341  1.5696 -1.5587
 2611TIP3    H2 7798   1.012   0.977   2.080 -0.1701 -1.1781 -1.7726
 2612TIP3   OH2 7799   5.134   3.858   2.032 -0.5831  0.1133  0.0256
 2612TIP3    H1 7800   5.106   3.770   2.007 -0.1293  0.4124 -1.6848
 2612TIP3    H2 7801   5.115   3.911   1.955 -1.1987  1.6165  1.1600
 2613TIP3   OH2 7802   0.293   5.128   2.850  0.3861  0.3533 -0.1109
 2613TIP3    H1 7803   0.222   5.073   2.881  0.4983 -0.2714 -0.9302
 2613TIP3    H2 7804   0.351   5.137   2.926 -0.1011  0.1247  0.2961
 2614TIP3   OH2 7805   3.862   4.708   3.623  0.1433  0.0222 -0.0570
 2614TIP3    H1 7806   3.792   4.772   3.624  0.4253  0.5138 -2.9642
 2614TIP3    H2 7807   3.938   4.754   3.658 -0.5130  0.0348  1.4166
 2615TIP3   OH2 7808   1.919   3.645   3.095 -0.7748  0.1085 -0.3037
 2615TIP3    H1 7809   1.940   3.729   3.054 -1.2288 -0.3012 -1.3846
 2615TIP3    H2 7810   1.978   3.583   3.053 -2.1773 -0.5547 -1.3404
 2616TIP3   OH2 7811   0.862   5.641   0.910  0.1817 -0.6676 -0.2028
 2616TIP3    H1 7812   0.914   5.640   0.990 -0.2640  1.1221  0.1534
 2616TIP3    H2 7813   0.788   5.699   0.930  0.3843  0.3179 -2.0714
 2617TIP3   OH2 7814   3.006   2.182   2.920 -0.0348  0.2551  0.0246
 2617TIP3    H1 7815   2.981   2.274   2.923 -1.3305 -0.1038  1.4771
 2617TIP3    H2 7816   2.937   2.136   2.968  0.6690 -1.4601 -0.5048
 2618TIP3   OH2 7817   1.067   2.676   1.049  0.1278 -0.1661  0.4308
 2618TIP3    H1 7818   1.008   2.719   0.987 -0.4857  1.5573  2.1073
 2618TIP3    H2 7819   1.011   2.617   1.099  0.2779 -0.1877  0.5723
 2619TIP3   OH2 7820   3.295   4.966   3.412  0.0270  0.1947  0.4583
 2619TIP3    H1 7821   3.252   5.017   3.343 -0.3594  0.9756  1.2496
 2619TIP3    H2 7822   3.324   5.032   3.476  1.4693 -0.4165  0.4597
 2620TIP3   OH2 7823   2.377   3.931   0.268  0.0599 -0.4022  0.3449
 2620TIP3    H1 7824   2.417   3.919   0.354  0.1662 -1.5093  0.1662
 2620TIP3    H2 7825   2.437   3.885   0.208 -0.5008 -0.4579 -0.1821
 2621TIP3   OH2 7826   4.114   4.802   4.509  0.3450  1.1441  0.2826
 2621TIP3    H1 7827   4.209   4.807   4.516  0.2215  3.5501  1.0732
 2621TIP3    H2 7828   4.098   4.756   4.427  2.0914 -3.0951  2.0142
 2622TIP3   OH2 7829   5.595   4.693   4.611 -0.1774 -0.0632 -0.2782
 2622TIP3    H1 7830   5.575   4.757   4.542 -1.8618  0.7492  0.8896
 2622TIP3    H2 7831   5.569   4.736   4.692 -0.6508 -1.9480  0.6254
 2623TIP3   OH2 7832   1.340   4.003   2.921 -0.8258  0.3356  0.1463
 2623TIP3    H1 7833   1.371   4.077   2.868  1.4503 -1.2237 -0.8796
 2623TIP3    H2 7834   1.406   3.993   2.989 -0.6307 -1.2206 -0.2267
 2624TIP3   OH2 7835   5.464   4.111   4.604 -0.5346  0.4085 -0.1740
 2624TIP3    H1 7836   5.478   4.205   4.615  0.1426  0.2192  0.6422
 2624TIP3    H2 7837   5.529   4.070   4.660 -1.4116 -0.5518  0.1765
 2625TIP3   OH2 7838   1.883   2.625   5.711  0.4023  0.2155  0.4531
 2625TIP3    H1 7839   1.976   2.604   5.719  0.1381 -0.6125  1.5535
 2625TIP3    H2 7840   1.882   2.712   5.671  1.6327  0.0449  0.0102
 2626TIP3   OH2 7841   7.163   5.305   5.856  0.3877  0.0355  0.0248
 2626TIP3    H1 7842   7.185   5.357   5.779  0.5823  0.3055  0.2582
 2626TIP3    H2 7843   7.232   5.239   5.861 -0.0109 -0.4223 -0.4285
 2627TIP3   OH2 7844   3.775   5.550   4.190 -0.3744  0.2056 -0.4545
 2627TIP3    H1 7845   3.771   5.642   4.163  0.8905  0.3128 -0.3197
 2627TIP3    H2 7846   3.868   5.531   4.198 -0.6217 -0.4082  1.8455
 2628TIP3   OH2 7847   2.083   2.131   1.928 -0.0456 -0.0582 -0.2584
 2628TIP3    H1 7848   2.060   2.059   1.869 -0.8569  0.1908 -0.2586
 2628TIP3    H2 7849   2.145   2.093   1.990  1.0889 -0.2478 -1.4637
 2629TIP3   OH2 7850   2.713   3.668   2.071 -0.2558 -0.1812 -0.3662
 2629TIP3    H1 7851   2.732   3.710   2.155 -1.2002 -1.1875  0.3742
 2629TIP3    H2 7852   2.732   3.575   2.085  1.4045 -0.1292 -1.8510
 2630TIP3   OH2 7853   6.151   5.838   0.146 -0.2159  0.7438  0.4702
 2630TIP3    H1 7854   6.105   5.823   0.228  0.3939  2.1091  1.1039
 2630TIP3    H2 7855   6.178   5.751   0.117 -2.3129  0.0079  0.5625
 2631TIP3   OH2 7856   0.644   0.934   3.300  0.3980 -0.2696 -0.1499
 2631TIP3    H1 7857   0.704   1.002   3.331 -3.4058  2.6334  1.6759
 2631TIP3    H2 7858   0.673   0.915   3.211  3.8383  0.9930  0.5667
 2632TIP3   OH2 7859   2.516   6.353   1.289 -0.5153  0.3309  0.0745
 2632TIP3    H1 7860   2.555   6.299   1.221 -0.6265  1.1950 -0.6940
 2632TIP3    H2 7861   2.423   6.327   1.290 -0.4267  0.0170  0.1959
 2633TIP3   OH2 7862   5.343   3.144   2.440  0.9446 -0.1448 -0.3663
 2633TIP3    H1 7863   5.282   3.081   2.478  1.4165  0.4116  1.4102
 2633TIP3    H2 7864   5.292   3.224   2.429  0.7638 -0.3539 -1.1053
 2634TIP3   OH2 7865   0.927   0.845   5.302 -0.0198  0.2624  0.0415
 2634TIP3    H1 7866   0.992   0.894   5.353  0.9924 -1.9693  1.0361
 2634TIP3    H2 7867   0.845   0.859   5.348  0.4689  0.1337  0.9800
 2635TIP3   OH2 7868   2.406   5.157   4.161 -1.0343 -0.1534  0.2030
 2635TIP3    H1 7869   2.461   5.186   4.089  1.7952 -0.8425  1.9333
 2635TIP3    H2 7870   2.410   5.061   4.157  0.8586 -0.2356  2.3658
 2636TIP3   OH2 7871   7.051   5.515   1.803 -0.6468  0.0030 -0.8394
 2636TIP3    H1 7872   7.000   5.595   1.813  0.3718  0.5894 -0.0699
 2636TIP3    H2 7873   6.994   5.446   1.836 -1.5912  0.3742 -1.6327
 2637TIP3   OH2 7874   7.180   5.831   2.362  0.2691  0.1047  0.0379
 2637TIP3    H1 7875   7.112   5.896   2.346  0.9730  1.0224  0.6123
 2637TIP3    H2 7876   7.256   5.863   2.313  0.1211 -1.2621 -1.1598
 2638TIP3   OH2 7877   4.016   1.750   2.530  0.3737 -0.0874  0.0608
 2638TIP3    H1 7878   3.986   1.725   2.443 -0.2695  1.0112 -0.0561
 2638TIP3    H2 7879   3.936   1.779   2.575  1.0718  2.0482  0.0553
 2639TIP3   OH2 7880   7.115   4.476   2.849 -0.2055 -0.0400 -0.2362
 2639TIP3    H1 7881   7.142   4.434   2.930 -2.5985 -2.0246 -0.3705
 2639TIP3    H2 7882   7.030   4.437   2.828 -0.2807  1.3597 -3.0164
 2640TIP3   OH2 7883   5.473   1.635   4.872 -0.0072  0.1849 -0.2751
 2640TIP3    H1 7884   5.438   1.722   4.853  3.1856  1.9094  1.0188
 2640TIP3    H2 7885   5.416   1.601   4.941 -1.1676  1.3218 -0.6288
 2641TIP3   OH2 7886   2.061   5.943   4.216  0.1987 -0.2581  0.4244
 2641TIP3    H1 7887   1.967   5.934   4.229  0.4102 -2.0174  0.9176
 2641TIP3    H2 7888   2.070   5.975   4.126 -0.8708  0.4654  0.5667
 2642TIP3   OH2 7889   2.157   4.342   1.076  0.9138 -0.4028  0.1144
 2642TIP3    H1 7890   2.198   4.352   0.990 -0.6152  0.3546 -0.5809
 2642TIP3    H2 7891   2.118   4.428   1.093  0.3465 -0.8442  1.1041
 2643TIP3   OH2 7892   1.535   1.101   4.767  0.5788  0.5771  0.0317
 2643TIP3    H1 7893   1.498   1.034   4.710 -1.7850 -0.4871  2.5910
 2643TIP3    H2 7894   1.465   1.165   4.777  1.1232  1.0008  1.3115
 2644TIP3   OH2 7895   3.800   4.222   5.379  0.1142 -0.1114 -0.5452
 2644TIP3    H1 7896   3.734   4.271   5.427 -0.3931 -1.4159  0.1461
 2644TIP3    H2 7897   3.760   4.206   5.293 -0.1054 -0.1344 -0.4384
 2645TIP3   OH2 7898   4.576   2.546   0.124 -0.4107 -0.0321  0.4573
 2645TIP3    H1 7899   4.528   2.587   0.052  0.7245 -1.9144 -1.5069
 2645TIP3    H2 7900   4.616   2.619   0.171  2.5213  1.3304 -3.5444
 2646TIP3   OH2 7901   5.740   0.613   3.587 -0.1740 -0.5920  0.0945
 2646TIP3    H1 7902   5.808   0.627   3.521 -0.8418 -0.5022 -0.5912
 2646TIP3    H2 7903   5.746   0.689   3.644 -0.9607  0.4295 -1.1087
 2647TIP3   OH2 7904   3.597   6.079   2.483 -0.3663  0.2791 -0.6879
 2647TIP3    H1 7905   3.547   6.140   2.428 -0.5532 -0.2280 -1.0913
 2647TIP3    H2 7906   3.678   6.065   2.435 -0.5798 -0.2582 -0.8983
 2648TIP3   OH2 7907   4.960   2.655   4.442 -0.4233  0.0770 -0.0744
 2648TIP3    H1 7908   5.027   2.711   4.480 -0.7687 -1.1486  2.5348
 2648TIP3    H2 7909   4.882   2.710   4.437  0.0303  0.6971 -0.5141
 2649TIP3   OH2 7910   4.121   1.290   5.439  0.6280  0.0493  0.1523
 2649TIP3    H1 7911   4.207   1.288   5.481  0.3687 -2.7849  0.7458
 2649TIP3    H2 7912   4.059   1.273   5.510 -0.0152 -2.3568 -0.9148
 2650TIP3   OH2 7913   1.285   3.123   5.633 -0.5120  0.2518 -0.5473
 2650TIP3    H1 7914   1.272   3.104   5.540 -0.7634  0.5457 -0.5745
 2650TIP3    H2 7915   1.325   3.044   5.668  0.5977  0.5306 -1.1307
 2651TIP3   OH2 7916   0.970   0.685   4.763 -0.2916 -0.4983 -0.3263
 2651TIP3    H1 7917   0.879   0.678   4.791  0.0907  2.4497  2.1852
 2651TIP3    H2 7918   1.015   0.617   4.812 -0.7182  0.0803  0.9148
 2652TIP3   OH2 7919   5.471   2.019   3.995 -0.0396 -0.6780  0.2502
 2652TIP3    H1 7920   5.390   2.070   3.996  2.3192  3.6980 -2.2159
 2652TIP3    H2 7921   5.511   2.033   4.081 -0.2887  0.1230  0.2371
 2653TIP3   OH2 7922   2.555   2.033   4.327 -0.5654 -0.5280  0.1403
 2653TIP3    H1 7923   2.557   2.080   4.243  1.2230 -1.1508 -0.2219
 2653TIP3    H2 7924   2.518   1.948   4.306 -0.4557 -0.5547  0.0544
 2654TIP3   OH2 7925   1.658   0.608   3.976 -0.1500  0.4119 -0.2312
 2654TIP3    H1 7926   1.690   0.522   4.003 -0.8561  0.3841  0.5729
 2654TIP3    H2 7927   1.630   0.596   3.885 -2.4514 -0.8869  0.5338
 2655TIP3   OH2 7928   5.026   0.543   3.794  0.8336 -0.5957  0.0024
 2655TIP3    H1 7929   5.043   0.521   3.703  0.0971  0.0492 -0.3124
 2655TIP3    H2 7930   5.112   0.548   3.835  1.2340  0.0293 -0.8870
 2656TIP3   OH2 7931   7.221   2.715   4.360 -0.0050  0.1733  0.1158
 2656TIP3    H1 7932   7.146   2.753   4.406 -1.3152 -0.9164 -1.0156
 2656TIP3    H2 7933   7.237   2.775   4.288  0.1710  0.3703  0.3173
 2657TIP3   OH2 7934   1.145   5.307   1.801  0.2054 -0.3069 -0.3863
 2657TIP3    H1 7935   1.072   5.294   1.860  0.2480  0.4006 -0.1663
 2657TIP3    H2 7936   1.105   5.313   1.714 -0.2358  2.0122 -0.0819
 2658TIP3   OH2 7937   1.685   0.096   3.861  0.4316  0.2687 -0.7951
 2658TIP3    H1 7938   1.748   0.055   3.801 -0.5513 -1.0020 -1.0007
 2658TIP3    H2 7939   1.727   0.088   3.947  1.6970  1.8033 -1.2196
 2659TIP3   OH2 7940   6.869   3.462   5.388 -0.5030  0.1880  0.0255
 2659TIP3    H1 7941   6.910   3.537   5.343  0.3910 -0.2735  0.0431
 2659TIP3    H2 7942   6.933   3.392   5.379 -0.9582 -0.3255  0.7638
 2660TIP3   OH2 7943   1.036   2.446   2.646  0.3096  0.1311  0.1451
 2660TIP3    H1 7944   1.101   2.384   2.679 -1.1058 -1.9288 -0.6929
 2660TIP3    H2 7945   0.961   2.435   2.705  0.7982  2.7906  1.3801
 2661TIP3   OH2 7946   4.667   1.726   1.916 -0.8193 -0.0543 -0.1417
 2661TIP3    H1 7947   4.674   1.821   1.917 -3.7270  0.2572 -0.6268
 2661TIP3    H2 7948   4.676   1.700   2.007 -0.0503  0.6730  0.0014
 2662TIP3   OH2 7949   3.895   2.255   2.751 -0.2635 -0.0341  0.7039
 2662TIP3    H1 7950   3.967   2.269   2.689 -1.5006  2.8869 -0.2597
 2662TIP3    H2 7951   3.829   2.208   2.700 -0.0979 -0.3480  0.7739
 2663TIP3   OH2 7952   1.253   3.128   2.146 -0.0063  0.3400  0.5180
 2663TIP3    H1 7953   1.197   3.121   2.069 -0.1719  0.1372  0.6555
 2663TIP3    H2 7954   1.248   3.220   2.172  0.2603  0.4675  0.1308
 2664TIP3   OH2 7955   4.652   6.532   0.365 -0.0985 -0.1226  0.0402
 2664TIP3    H1 7956   4.603   6.614   0.368  1.2513  0.7103  0.5455
 2664TIP3    H2 7957   4.701   6.530   0.447 -2.8989 -3.3182  1.8826
 2665TIP3   OH2 7958   2.176   4.660   4.220  0.0955 -0.0465 -0.5709
 2665TIP3    H1 7959   2.125   4.696   4.292 -1.1641 -1.0424 -0.9181
 2665TIP3    H2 7960   2.112   4.645   4.150  1.1160 -0.0230 -1.5437
 2666TIP3   OH2 7961   6.263   2.773   0.231 -0.0243 -0.0291 -0.3012
 2666TIP3    H1 7962   6.334   2.823   0.271  0.7001  0.0710 -1.6563
 2666TIP3    H2 7963   6.183   2.811   0.267  0.5742  0.7035  0.2768
 2667TIP3   OH2 7964   1.578   2.429   2.869  0.3442 -0.2448 -0.0362
 2667TIP3    H1 7965   1.511   2.498   2.862  0.1269 -0.5700 -1.5708
 2667TIP3    H2 7966   1.650   2.461   2.816  1.0819 -0.3023  0.9037
 2668TIP3   OH2 7967   5.791   5.381   4.480  0.2293  0.2568  0.1356
 2668TIP3    H1 7968   5.826   5.371   4.392 -0.8152 -0.3956 -0.2202
 2668TIP3    H2 7969   5.864   5.416   4.531  0.8181  0.7397 -1.0018
 2669TIP3   OH2 7970   2.072   0.205   0.555  0.1144  0.0641 -0.2899
 2669TIP3    H1 7971   1.988   0.223   0.513  0.8637  1.0021 -1.4645
 2669TIP3    H2 7972   2.102   0.291   0.586  0.7911 -0.1993 -0.1916
 2670TIP3   OH2 7973   0.665   0.037   3.229 -0.0236  0.1535  0.2539
 2670TIP3    H1 7974   0.715   0.101   3.279  0.3051 -0.1449  0.3097
 2670TIP3    H2 7975   0.594   0.010   3.287  0.0162  0.2423  0.3420
 2671TIP3   OH2 7976   5.674   6.293   1.975  0.4906 -0.5471 -0.5027
 2671TIP3    H1 7977   5.766   6.273   1.960  1.0059  1.5243 -0.4400
 2671TIP3    H2 7978   5.656   6.367   1.917 -0.5087  0.4955  1.0689
 2672TIP3   OH2 7979   2.178   6.303   0.470 -0.2917 -0.0813 -0.2858
 2672TIP3    H1 7980   2.200   6.369   0.536 -0.8554 -0.1796  0.0015
 2672TIP3    H2 7981   2.083   6.296   0.474 -0.3080 -0.2888 -0.9186
 2673TIP3   OH2 7982   2.760   4.501   3.346  0.5068  0.5127  0.5736
 2673TIP3    H1 7983   2.679   4.511   3.296  1.3149  0.7916 -0.7422
 2673TIP3    H2 7984   2.753   4.415   3.388 -1.0262  1.1022  1.5700
 2674TIP3   OH2 7985   6.884   2.677   2.967 -0.3713  0.1336  0.2083
 2674TIP3    H1 7986   6.809   2.627   3.001  0.6708 -2.5092 -1.1150
 2674TIP3    H2 7987   6.954   2.659   3.030  0.2268 -0.8027 -0.6963
 2675TIP3   OH2 7988   4.683   0.898   1.452  0.2985 -0.0671 -0.4814
 2675TIP3    H1 7989   4.755   0.885   1.515  0.4520  0.6479 -0.5016
 2675TIP3    H2 7990   4.687   0.822   1.395  1.2186  0.0910 -0.6449
 2676TIP3   OH2 7991   5.551   3.563   4.060 -0.5291 -0.6657  0.1514
 2676TIP3    H1 7992   5.571   3.545   3.968 -0.9901  0.3172 -0.1591
 2676TIP3    H2 7993   5.519   3.653   4.060 -2.1207 -1.1910  1.0419
 2677TIP3   OH2 7994   4.446   2.246   5.545 -0.2270  0.5461 -0.0458
 2677TIP3    H1 7995   4.372   2.289   5.503 -0.5332  1.5658  1.4323
 2677TIP3    H2 7996   4.411   2.162   5.576 -1.0051  1.3115  1.2498
 2678TIP3   OH2 7997   2.006   2.732   2.511  0.1506 -0.4622  0.0668
 2678TIP3    H1 7998   1.915   2.718   2.486  0.3438 -1.0348 -0.3273
 2678TIP3    H2 7999   2.002   2.803   2.575 -0.4558  0.3783 -0.8576
 2679TIP3   OH2 8000   0.769   6.034   4.500 -0.1877  0.5900  0.0504
 2679TIP3    H1 8001   0.865   6.027   4.493 -0.4356 -2.8529 -1.8096
 2679TIP3    H2 8002   0.746   5.974   4.570 -1.0627 -0.1582 -0.8441
 2680TIP3   OH2 8003   1.561   4.849   1.813  0.1738  0.6692 -0.1883
 2680TIP3    H1 8004   1.499   4.894   1.870 -1.2486 -0.5258 -0.7376
 2680TIP3    H2 8005   1.610   4.791   1.872 -1.4962 -0.7922 -0.1530
 2681TIP3   OH2 8006   3.907   0.089   3.993 -0.1675 -0.6484 -0.2336
 2681TIP3    H1 8007   3.884   0.127   3.908  1.0945 -0.1644 -0.3765
 2681TIP3    H2 8008   3.864   0.147   4.057 -1.8378 -1.5071 -0.5284
 2682TIP3   OH2 8009   3.919   1.276   1.677 -0.2157  0.4403 -0.6416
 2682TIP3    H1 8010   3.967   1.355   1.701 -1.4584  0.6152  1.5022
 2682TIP3    H2 8011   3.837   1.309   1.639 -0.6461  0.2170  0.0668
 2683TIP3   OH2 8012   4.016   5.962   5.228  0.4664  0.0167 -0.3577
 2683TIP3    H1 8013   4.063   5.880   5.246  2.4558  1.0416 -0.5860
 2683TIP3    H2 8014   4.075   6.011   5.170 -1.0106  1.3000 -0.8300
 2684TIP3   OH2 8015   6.936   4.794   4.756  0.6264  0.3983  0.3104
 2684TIP3    H1 8016   6.866   4.731   4.740  0.0592  0.7700  1.2113
 2684TIP3    H2 8017   7.010   4.742   4.785  0.8501 -0.0345 -0.9828
 2685TIP3   OH2 8018   2.252   0.790   5.598 -0.3895  0.5409 -0.3383
 2685TIP3    H1 8019   2.173   0.842   5.581 -0.8301 -0.4119 -1.3481
 2685TIP3    H2 8020   2.220   0.704   5.625  0.3318  0.8518  1.7113
 2686TIP3   OH2 8021   1.917   0.257   2.291 -0.0528  0.2580  0.1204
 2686TIP3    H1 8022   1.831   0.283   2.323  0.2627  1.8144 -0.2162
 2686TIP3    H2 8023   1.937   0.177   2.339 -2.0514 -0.6526 -0.4396
 2687TIP3   OH2 8024   2.490   1.474   5.444  0.2814  0.8064 -0.0892
 2687TIP3    H1 8025   2.547   1.465   5.520 -0.5124 -1.1163  0.3155
 2687TIP3    H2 8026   2.407   1.506   5.480  0.1292  0.5934 -0.2531
 2688TIP3   OH2 8027   2.632   2.191   1.865 -0.8098  0.2835  0.4804
 2688TIP3    H1 8028   2.681   2.113   1.889 -1.2112 -0.2312 -0.3106
 2688TIP3    H2 8029   2.699   2.258   1.850 -0.1527 -0.8174 -2.1077
 2689TIP3   OH2 8030   5.243   3.923   4.906  0.4983  0.7040  0.1064
 2689TIP3    H1 8031   5.274   4.014   4.907 -0.7286  1.1403  0.5940
 2689TIP3    H2 8032   5.218   3.908   4.815 -1.1865  1.5602  0.3874
 2690TIP3   OH2 8033   2.734   1.703   5.028  0.2033  0.3479 -0.1665
 2690TIP3    H1 8034   2.694   1.664   5.106  0.5266 -0.0149 -0.1777
 2690TIP3    H2 8035   2.665   1.701   4.962  0.3409 -0.6075 -0.2935
 2691TIP3   OH2 8036   3.018   2.630   3.150  0.2219  0.2573  0.1612
 2691TIP3    H1 8037   3.062   2.651   3.068 -1.0404 -1.1289 -0.9260
 2691TIP3    H2 8038   3.028   2.536   3.159 -3.0493 -0.2892 -0.5493
 2692TIP3   OH2 8039   2.142   1.024   0.537  0.1416  0.2324  0.5779
 2692TIP3    H1 8040   2.103   0.971   0.468 -0.6957  1.2532  0.2272
 2692TIP3    H2 8041   2.236   1.008   0.531 -0.0481 -0.7431  0.1062
 2693TIP3   OH2 8042   1.700   5.745   2.669  0.2387 -0.7010  0.3995
 2693TIP3    H1 8043   1.715   5.742   2.764  1.2163 -0.7662  0.2518
 2693TIP3    H2 8044   1.774   5.697   2.632 -0.6670 -1.5586 -0.3532
 2694TIP3   OH2 8045   1.761   6.188   2.264 -0.5052 -0.0255  0.0924
 2694TIP3    H1 8046   1.677   6.230   2.284 -1.4375 -1.0690 -1.3335
 2694TIP3    H2 8047   1.767   6.115   2.326 -0.1074  0.7087  0.9218
 2695TIP3   OH2 8048   4.287   1.322   1.933  0.8462  0.1123  0.8075
 2695TIP3    H1 8049   4.259   1.259   1.999 -0.2338 -0.1528  0.1201
 2695TIP3    H2 8050   4.379   1.303   1.919  0.5388 -1.3250  0.6158
 2696TIP3   OH2 8051   2.654   3.551   2.441  0.0045 -0.0396  0.5049
 2696TIP3    H1 8052   2.712   3.627   2.435  1.0382 -0.7466  1.1006
 2696TIP3    H2 8053   2.683   3.494   2.370 -0.4488 -0.0872  0.3578
 2697TIP3   OH2 8054   3.381   6.729   1.891  0.3622  0.6293 -0.1435
 2697TIP3    H1 8055   3.454   6.668   1.888 -0.9394 -0.9902 -2.1366
 2697TIP3    H2 8056   3.402   6.796   1.826 -0.6296 -0.8492 -2.1105
 2698TIP3   OH2 8057   6.157   4.381   4.360  0.4676  0.5526  0.5619
 2698TIP3    H1 8058   6.112   4.438   4.298 -1.9830 -0.2887  1.4308
 2698TIP3    H2 8059   6.166   4.434   4.439 -1.2915  0.0047  1.1803
 2699TIP3   OH2 8060   3.264   4.551   0.921 -0.4624 -0.0276 -0.0931
 2699TIP3    H1 8061   3.345   4.538   0.871  0.0521 -1.0430  0.9535
 2699TIP3    H2 8062   3.269   4.642   0.952  0.1260  0.0172 -0.3077
 2700TIP3   OH2 8063   4.532   0.857   4.562 -0.3546 -0.3207  0.4917
 2700TIP3    H1 8064   4.440   0.848   4.586  0.1120 -1.7435  1.9852
 2700TIP3    H2 8065   4.566   0.924   4.621 -0.2851 -0.2740  0.4000
 2701TIP3   OH2 8066   3.458   6.489   2.858  0.6030 -0.4404 -0.2100
 2701TIP3    H1 8067   3.519   6.518   2.791 -1.0366 -0.3491 -1.7371
 2701TIP3    H2 8068   3.398   6.430   2.812 -1.2055  0.4374  0.9174
 2702TIP3   OH2 8069   0.701   2.817   2.790  0.9247  0.9397  0.2842
 2702TIP3    H1 8070   0.630   2.754   2.777  0.7791  1.2625 -0.5602
 2702TIP3    H2 8071   0.774   2.782   2.739  0.3696  2.1947 -1.4786
 2703TIP3   OH2 8072   0.444   6.369   2.171 -0.2321 -0.5227 -0.1086
 2703TIP3    H1 8073   0.403   6.385   2.256 -0.0449  1.3847 -0.3363
 2703TIP3    H2 8074   0.513   6.305   2.190 -1.0027 -1.1047  0.9070
 2704TIP3   OH2 8075   2.336   0.546   0.918 -0.1842 -0.2605  1.1565
 2704TIP3    H1 8076   2.373   0.574   1.002  0.9347 -0.7944  0.8493
 2704TIP3    H2 8077   2.274   0.476   0.942  1.4097 -1.6314  1.4130
 2705TIP3   OH2 8078   1.783   4.744   3.021  0.2416  0.1202  0.6764
 2705TIP3    H1 8079   1.764   4.829   3.061 -1.4002 -0.2511  0.7531
 2705TIP3    H2 8080   1.752   4.680   3.085  0.9806 -0.5385  0.3911
 2706TIP3   OH2 8081   5.994   3.032   2.918 -0.3461  0.2866  0.3975
 2706TIP3    H1 8082   5.901   3.012   2.920  0.0846 -1.9490  0.6887
 2706TIP3    H2 8083   6.031   2.970   2.856  0.7129  2.5648 -1.4238
 2707TIP3   OH2 8084   4.849   6.161   0.333 -0.0498 -0.1646  0.3491
 2707TIP3    H1 8085   4.885   6.244   0.364 -3.0997  1.0174  1.0549
 2707TIP3    H2 8086   4.855   6.165   0.238  1.0188  0.2413  0.4232
 2708TIP3   OH2 8087   2.485   0.240   3.318  0.2465  0.4566  0.1417
 2708TIP3    H1 8088   2.449   0.191   3.243 -0.2407 -0.0274  0.6827
 2708TIP3    H2 8089   2.471   0.332   3.294  0.6967  0.3293 -0.6548
 2709TIP3   OH2 8090   6.524   5.516   0.655  0.1777  0.5372  0.0834
 2709TIP3    H1 8091   6.508   5.465   0.575 -1.2206 -0.7706  1.1280
 2709TIP3    H2 8092   6.436   5.542   0.684  0.4656 -0.6559  2.1897
 2710TIP3   OH2 8093   0.256   2.256   0.633 -0.1812  0.3726 -0.6500
 2710TIP3    H1 8094   0.231   2.349   0.629 -2.0867 -0.1094 -0.9502
 2710TIP3    H2 8095   0.213   2.224   0.712  1.0275 -0.1191 -0.1821
 2711TIP3   OH2 8096   2.422   1.308   2.588 -0.5917 -0.6180 -0.4019
 2711TIP3    H1 8097   2.514   1.333   2.581 -1.1176  1.8991  0.5484
 2711TIP3    H2 8098   2.407   1.249   2.514  1.6977 -0.8781 -0.7126
 2712TIP3   OH2 8099   2.587   3.762   1.035  0.4346  0.1339  0.0636
 2712TIP3    H1 8100   2.557   3.848   1.066 -0.1941  0.1557 -0.5784
 2712TIP3    H2 8101   2.666   3.781   0.984  1.5013  0.0937  1.6378
 2713TIP3   OH2 8102   2.835   2.983   0.143  0.0926  0.1776  0.6223
 2713TIP3    H1 8103   2.835   2.893   0.178  1.1026  0.7399  2.1694
 2713TIP3    H2 8104   2.855   3.038   0.219  0.5803  1.6213 -0.5156
 2714TIP3   OH2 8105   0.030   2.465   4.777  0.2245  0.6940  0.6540
 2714TIP3    H1 8106   0.052   2.488   4.868  1.0513  1.0725  0.3742
 2714TIP3    H2 8107   0.085   2.523   4.724 -0.8036  0.9982 -0.0990
 2715TIP3   OH2 8108   6.209   2.432   1.547 -0.0523 -0.2554  0.0892
 2715TIP3    H1 8109   6.180   2.348   1.512 -1.8465  0.3010  0.1104
 2715TIP3    H2 8110   6.235   2.412   1.637 -0.1559 -0.8428 -0.0056
 2716TIP3   OH2 8111   0.043   3.875   3.375  0.0664 -0.0048  0.1506
 2716TIP3    H1 8112   0.004   3.957   3.405 -1.9524 -1.1967  0.9451
 2716TIP3    H2 8113   0.088   3.840   3.453 -0.2428 -0.3074  0.1951
 2717TIP3   OH2 8114   3.895   1.624   2.327 -0.3156  0.0030  0.1011
 2717TIP3    H1 8115   3.914   1.533   2.303 -1.0083 -0.0720 -0.1764
 2717TIP3    H2 8116   3.840   1.657   2.256 -2.0464 -0.0924  1.3509
 2718TIP3   OH2 8117   4.603   0.413   1.172  0.0365 -0.0520  0.1504
 2718TIP3    H1 8118   4.651   0.356   1.232  0.5597 -0.7920 -0.9388
 2718TIP3    H2 8119   4.617   0.374   1.086 -0.2169  1.3079 -0.5306
 2719TIP3   OH2 8120   6.686   5.473   5.740  0.0914  0.3777  0.1011
 2719TIP3    H1 8121   6.762   5.525   5.713  0.8287 -0.8539 -0.2640
 2719TIP3    H2 8122   6.635   5.463   5.660  2.0856 -2.9507 -0.9435
 2720TIP3   OH2 8123   5.423   6.749   2.317  0.1475  0.3094  0.4674
 2720TIP3    H1 8124   5.368   6.780   2.389 -2.5501 -0.3079 -1.1879
 2720TIP3    H2 8125   5.503   6.802   2.324 -0.1823  0.6001  3.5503
 2721TIP3   OH2 8126   0.308   6.084   4.181 -0.0911  0.5154  0.2323
 2721TIP3    H1 8127   0.386   6.065   4.234  0.0043  0.9828  0.2596
 2721TIP3    H2 8128   0.257   6.144   4.234 -0.3856  0.3530  0.1334
 2722TIP3   OH2 8129   7.062   4.789   2.851  0.0977  1.0082  0.3076
 2722TIP3    H1 8130   7.046   4.881   2.873 -3.0760  0.9980 -1.3464
 2722TIP3    H2 8131   7.011   4.739   2.915  2.4296  0.2842  1.6888
 2723TIP3   OH2 8132   5.091   0.576   2.192  0.3844  0.8732  0.3594
 2723TIP3    H1 8133   5.103   0.641   2.122  0.0207  1.1629  0.5594
 2723TIP3    H2 8134   5.131   0.496   2.158 -0.6383  0.7376 -0.5928
 2724TIP3   OH2 8135   5.437   1.455   3.617  0.0800 -0.6784  0.1093
 2724TIP3    H1 8136   5.420   1.549   3.624 -1.9523 -0.7565 -2.1810
 2724TIP3    H2 8137   5.366   1.414   3.666 -1.6043 -0.9434 -2.3295
 2725TIP3   OH2 8138   2.205   6.428   5.025 -0.1766  0.4180  0.3469
 2725TIP3    H1 8139   2.200   6.337   5.054 -0.1454  0.1082 -0.5874
 2725TIP3    H2 8140   2.190   6.480   5.105 -0.2199 -0.3991  0.8795
 2726TIP3   OH2 8141   0.514   4.058   0.867 -0.2536 -0.0889 -0.3941
 2726TIP3    H1 8142   0.546   4.099   0.948  0.6070  0.5709 -1.0374
 2726TIP3    H2 8143   0.563   3.976   0.861  0.2010  0.1940 -0.5962
 2727TIP3   OH2 8144   4.837   5.740   1.795  0.6353 -0.3473 -0.2946
 2727TIP3    H1 8145   4.765   5.790   1.834  1.0962  0.5891 -0.6080
 2727TIP3    H2 8146   4.850   5.666   1.855 -1.5076 -1.3427 -0.9743
 2728TIP3   OH2 8147   5.991   5.990   4.501 -0.2529 -0.4084  0.6677
 2728TIP3    H1 8148   5.979   6.016   4.409  1.0692 -0.8158  0.3614
 2728TIP3    H2 8149   6.011   6.072   4.546  0.0468 -0.3379  0.4129
 2729TIP3   OH2 8150   2.383   5.555   1.554  0.3755 -0.0667 -0.0628
 2729TIP3    H1 8151   2.295   5.561   1.515 -0.5983  0.4008  2.0590
 2729TIP3    H2 8152   2.432   5.626   1.513 -1.1326  1.5164  0.7202
 2730TIP3   OH2 8153   3.440   6.448   3.807 -0.2367 -0.1759 -0.2423
 2730TIP3    H1 8154   3.529   6.426   3.781  0.1705 -0.1978  1.1021
 2730TIP3    H2 8155   3.411   6.373   3.860 -0.2099  0.7900  1.2066
 2731TIP3   OH2 8156   6.501   0.481   4.980 -0.0238  0.1563  0.5353
 2731TIP3    H1 8157   6.536   0.432   4.906 -0.4841 -0.0064  0.4221
 2731TIP3    H2 8158   6.420   0.519   4.948 -0.7426 -0.7179  1.2306
 2732TIP3   OH2 8159   2.404   5.696   3.608  0.0848  0.2594  0.2863
 2732TIP3    H1 8160   2.477   5.756   3.622  1.7410 -1.2865 -1.1969
 2732TIP3    H2 8161   2.362   5.726   3.528  0.7609 -0.3474 -0.3174
 2733TIP3   OH2 8162   1.652   2.549   0.449 -0.4705  0.5333 -0.4471
 2733TIP3    H1 8163   1.587   2.527   0.382 -0.4576  1.1929 -0.6865
 2733TIP3    H2 8164   1.602   2.558   0.530 -0.5341  0.0788 -0.4309
 2734TIP3   OH2 8165   3.194   1.960   1.189 -0.5161 -0.1863  0.1541
 2734TIP3    H1 8166   3.209   2.054   1.184  3.1016 -0.6370 -0.3679
 2734TIP3    H2 8167   3.163   1.936   1.102 -1.5300  0.5013  0.3128
 2735TIP3   OH2 8168   0.462   3.687   2.840  0.0693  0.6014 -0.6309
 2735TIP3    H1 8169   0.396   3.756   2.843  1.3036  1.7651  1.4654
 2735TIP3    H2 8170   0.531   3.722   2.784 -0.2809  0.1096 -1.3882
 2736TIP3   OH2 8171   0.795   3.547   3.732  0.0724 -0.0090 -0.1284
 2736TIP3    H1 8172   0.858   3.491   3.687 -0.0897  1.2536 -2.0530
 2736TIP3    H2 8173   0.731   3.569   3.664 -1.4940  0.1219  1.3486
 2737TIP3   OH2 8174   4.879   5.493   5.673  0.2808  0.2517  0.5509
 2737TIP3    H1 8175   4.951   5.509   5.612 -0.1333  1.0500  0.2528
 2737TIP3    H2 8176   4.827   5.574   5.671 -0.1369  0.0218  1.4215
 2738TIP3   OH2 8177   4.673   6.154   1.433 -0.2130  0.0888 -0.5489
 2738TIP3    H1 8178   4.711   6.133   1.518  1.7816  0.7614 -1.2109
 2738TIP3    H2 8179   4.668   6.250   1.432 -0.8360  0.0599 -0.9464
 2739TIP3   OH2 8180   5.670   1.098   5.531  0.1898  0.3504 -0.3509
 2739TIP3    H1 8181   5.762   1.118   5.543 -0.1326  1.1768  0.9660
 2739TIP3    H2 8182   5.666   1.049   5.449  1.5964  1.6811 -1.2585
 2740TIP3   OH2 8183   3.691   1.946   4.618  0.3427  0.2540 -0.2921
 2740TIP3    H1 8184   3.609   1.900   4.600 -0.1307 -0.0615  2.3100
 2740TIP3    H2 8185   3.693   2.018   4.555 -1.9791  0.2965 -0.3984
 2741TIP3   OH2 8186   4.281   0.821   1.911  0.1554  0.2280  0.6829
 2741TIP3    H1 8187   4.243   0.839   1.997  0.9923  0.8822  0.9389
 2741TIP3    H2 8188   4.323   0.903   1.886  0.1346 -0.0337 -0.2424
 2742TIP3   OH2 8189   2.448   5.276   2.564  0.3969 -0.3031 -0.4995
 2742TIP3    H1 8190   2.443   5.192   2.519  0.5539 -1.5073  1.5937
 2742TIP3    H2 8191   2.415   5.258   2.652 -1.1487  2.2260 -0.4490
 2743TIP3   OH2 8192   4.620   4.406   3.710 -0.3109 -0.0623 -0.1425
 2743TIP3    H1 8193   4.682   4.464   3.666 -2.8543  1.9825 -1.2706
 2743TIP3    H2 8194   4.601   4.338   3.646 -0.7415  0.4657 -0.5859
 2744TIP3   OH2 8195   3.924   1.223   3.999 -0.6322  0.1298  0.0882
 2744TIP3    H1 8196   3.958   1.285   4.063 -1.4364 -0.0882  0.7437
 2744TIP3    H2 8197   3.947   1.261   3.914  0.1213  0.6049  0.4976
 2745TIP3   OH2 8198   4.507   5.411   1.009 -0.0223 -0.1216 -0.0196
 2745TIP3    H1 8199   4.577   5.409   1.073  1.5324  3.0190 -1.3656
 2745TIP3    H2 8200   4.549   5.387   0.926 -1.3157 -1.2733 -0.3858
 2746TIP3   OH2 8201   0.567   1.809   2.140  0.4244  0.0943 -0.2490
 2746TIP3    H1 8202   0.554   1.733   2.197 -0.7260 -1.5996 -2.5886
 2746TIP3    H2 8203   0.518   1.788   2.060  2.6228  1.9428 -2.2374
 2747TIP3   OH2 8204   0.953   1.069   4.839  0.3013 -0.0317  0.4027
 2747TIP3    H1 8205   0.878   1.062   4.781  0.5837  1.2582 -0.1437
 2747TIP3    H2 8206   0.917   1.096   4.923  0.0848 -0.1081  0.3332
 2748TIP3   OH2 8207   4.763   5.974   3.144  0.0780 -0.0181  0.0929
 2748TIP3    H1 8208   4.683   5.942   3.186  1.0851 -3.7499 -0.4860
 2748TIP3    H2 8209   4.734   6.007   3.059 -0.9649 -0.2404  0.3465
 2749TIP3   OH2 8210   3.723   5.759   0.459 -0.4015  0.2727 -0.4094
 2749TIP3    H1 8211   3.794   5.810   0.498  0.9710 -1.3717 -0.6753
 2749TIP3    H2 8212   3.687   5.707   0.531 -0.7964  0.4757 -0.4531
 2750TIP3   OH2 8213   4.646   5.278   5.709 -0.5668  0.6189 -0.3514
 2750TIP3    H1 8214   4.728   5.327   5.710 -0.1745  0.0268 -1.5093
 2750TIP3    H2 8215   4.625   5.268   5.616 -0.6918 -1.2843 -0.1715
 2751TIP3   OH2 8216   7.009   1.736   1.442  0.2958  0.0807  0.0181
 2751TIP3    H1 8217   6.998   1.657   1.389  0.5990 -0.1774  0.3352
 2751TIP3    H2 8218   7.100   1.762   1.427  0.6185 -0.4311  1.0047
 2752TIP3   OH2 8219   3.888   3.671   0.780  0.4728  0.4030  0.4082
 2752TIP3    H1 8220   3.876   3.736   0.712 -0.7250  0.0060  0.2247
 2752TIP3    H2 8221   3.946   3.714   0.843  0.4829  1.2834 -0.1768
 2753TIP3   OH2 8222   2.984   4.497   3.000  0.1439  0.4376 -0.5676
 2753TIP3    H1 8223   2.892   4.472   3.006  0.3848 -0.1215  1.5324
 2753TIP3    H2 8224   2.983   4.593   3.011 -0.1770  0.4009 -0.2461
 2754TIP3   OH2 8225   4.768   2.268   2.376 -0.5980  0.3885  0.1756
 2754TIP3    H1 8226   4.723   2.254   2.460 -1.1959 -1.3158 -0.3961
 2754TIP3    H2 8227   4.819   2.348   2.390  1.0751 -0.9705  2.9265
 2755TIP3   OH2 8228   4.132   1.726   1.118  0.2209  0.6494 -0.7005
 2755TIP3    H1 8229   4.039   1.713   1.096  0.3060 -0.6478 -0.3763
 2755TIP3    H2 8230   4.179   1.665   1.061  0.7170 -0.0227  0.3847
 2756TIP3   OH2 8231   1.707   6.265   0.619 -0.4329  0.7182  0.1468
 2756TIP3    H1 8232   1.633   6.211   0.646 -0.2902  1.9851  3.6369
 2756TIP3    H2 8233   1.670   6.351   0.602 -0.1022  0.6538 -0.9628
 2757TIP3   OH2 8234   0.198   2.087   4.529  0.1367  0.6173  0.7053
 2757TIP3    H1 8235   0.175   1.994   4.527  0.1470  0.6174  0.5236
 2757TIP3    H2 8236   0.229   2.105   4.440 -1.9482  1.3229  0.0542
 2758TIP3   OH2 8237   6.668   3.740   1.572  0.7239  0.4715  0.0889
 2758TIP3    H1 8238   6.595   3.766   1.629  0.8257 -1.2049  1.0391
 2758TIP3    H2 8239   6.732   3.702   1.632  1.1299 -0.7322 -1.0722
 2759TIP3   OH2 8240   4.724   1.605   0.598 -0.3633  0.5333  0.7369
 2759TIP3    H1 8241   4.818   1.598   0.583 -0.2696  0.6190  1.2575
 2759TIP3    H2 8242   4.684   1.576   0.516  0.0955 -0.8741  0.9848
 2760TIP3   OH2 8243   1.948   1.437   5.340  0.4572  0.3258  0.2156
 2760TIP3    H1 8244   1.892   1.430   5.417 -0.1076 -0.1452 -0.2336
 2760TIP3    H2 8245   1.888   1.453   5.267  0.9472  0.3368 -0.1914
 2761TIP3   OH2 8246   5.426   2.716   1.183 -0.0427  0.2989 -0.1241
 2761TIP3    H1 8247   5.416   2.759   1.268  0.3346 -0.9329  0.5596
 2761TIP3    H2 8248   5.484   2.774   1.134 -0.1870  0.9726  0.4822
 2762TIP3   OH2 8249   4.736   3.663   5.343 -0.1816 -0.0857  0.5529
 2762TIP3    H1 8250   4.729   3.757   5.359  0.7329 -0.1742  1.6216
 2762TIP3    H2 8251   4.723   3.623   5.429 -1.6704 -1.0273 -0.0666
 2763TIP3   OH2 8252   3.319   0.526   3.885 -0.0620  0.2561 -0.5863
 2763TIP3    H1 8253   3.404   0.495   3.917 -0.7041 -0.4772  0.4653
 2763TIP3    H2 8254   3.298   0.467   3.813 -1.2092 -1.7967  1.3151
 2764TIP3   OH2 8255   5.862   1.635   0.134 -0.0716  0.2888 -0.0297
 2764TIP3    H1 8256   5.942   1.685   0.120 -0.6623  1.5491  0.9991
 2764TIP3    H2 8257   5.838   1.603   0.046  2.0622 -0.9744 -0.2268
 2765TIP3   OH2 8258   6.649   5.756   1.930 -0.8032  1.0472 -0.2301
 2765TIP3    H1 8259   6.659   5.664   1.905 -1.0440  0.7098  0.8804
 2765TIP3    H2 8260   6.588   5.754   2.003 -0.2935  2.0334  0.2285
 2766TIP3   OH2 8261   0.513   0.872   1.642 -0.2052  0.3813  0.5621
 2766TIP3    H1 8262   0.599   0.867   1.600  0.3043  1.5322  1.4264
 2766TIP3    H2 8263   0.507   0.961   1.675 -1.5364  0.1720  0.9511
 2767TIP3   OH2 8264   6.019   2.506   4.639 -0.2477  0.0926  0.5658
 2767TIP3    H1 8265   5.980   2.434   4.589 -0.5255 -0.0537  0.9896
 2767TIP3    H2 8266   5.972   2.584   4.609  1.0716  0.3194 -0.9868
 2768TIP3   OH2 8267   0.365   6.116   0.984 -0.0215 -0.5498 -0.1303
 2768TIP3    H1 8268   0.432   6.180   1.009  0.4404 -1.1613  0.2360
 2768TIP3    H2 8269   0.297   6.127   1.050  0.3541 -0.8811  0.3176
 2769TIP3   OH2 8270   1.646   5.421   4.174 -0.1629  0.4133 -0.1774
 2769TIP3    H1 8271   1.615   5.371   4.099  1.1033 -0.5300 -0.0997
 2769TIP3    H2 8272   1.722   5.372   4.207 -0.9184  0.5807  1.9717
 2770TIP3   OH2 8273   2.183   5.619   2.285  0.1198  0.0327 -0.2746
 2770TIP3    H1 8274   2.255   5.617   2.222  1.8359 -0.0203  1.5626
 2770TIP3    H2 8275   2.153   5.528   2.290  1.1699 -0.2948  0.2615
 2771TIP3   OH2 8276   3.705   0.359   3.138  0.8369 -0.2429  0.3725
 2771TIP3    H1 8277   3.616   0.370   3.172  1.1310 -0.2160  1.1323
 2771TIP3    H2 8278   3.757   0.333   3.213  0.9228 -3.1502 -0.5641
 2772TIP3   OH2 8279   1.982   4.949   0.198 -0.4306  0.0671 -0.0508
 2772TIP3    H1 8280   1.925   4.878   0.228 -0.6583  0.2642 -0.0177
 2772TIP3    H2 8281   1.925   5.007   0.148 -0.0503 -0.2767 -0.9097
 2773TIP3   OH2 8282   6.839   0.714   0.778 -0.3226  0.1993 -0.3461
 2773TIP3    H1 8283   6.842   0.794   0.725 -0.6563  0.7274  0.4156
 2773TIP3    H2 8284   6.746   0.690   0.779 -0.6725  1.4079  1.7358
 2774TIP3   OH2 8285   4.765   3.980   4.229 -0.2076  0.1103 -0.4106
 2774TIP3    H1 8286   4.768   4.048   4.161  0.4498 -0.5468 -1.0701
 2774TIP3    H2 8287   4.672   3.969   4.248 -0.4711 -0.1879 -1.7422
 2775TIP3   OH2 8288   3.384   6.067   1.772  0.2048  0.1475  0.2727
 2775TIP3    H1 8289   3.428   5.986   1.746 -0.1790  0.2731 -0.8139
 2775TIP3    H2 8290   3.292   6.043   1.779 -0.4334  1.0882 -3.0747
 2776TIP3   OH2 8291   2.998   1.523   0.085 -0.4036 -0.0421 -0.5050
 2776TIP3    H1 8292   3.021   1.612   0.114  0.5753 -0.3040 -0.4268
 2776TIP3    H2 8293   2.931   1.537   0.018 -0.4555  0.7458 -0.3021
 2777TIP3   OH2 8294   5.640   4.220   2.994 -0.1053  0.1772 -0.6470
 2777TIP3    H1 8295   5.696   4.152   3.030  1.6788  1.7881 -0.2233
 2777TIP3    H2 8296   5.578   4.240   3.064 -1.9427 -2.2558 -1.4419
 2778TIP3   OH2 8297   2.232   6.241   0.816 -0.2464  0.2031 -0.1575
 2778TIP3    H1 8298   2.224   6.332   0.787  0.0123  0.6402  1.0826
 2778TIP3    H2 8299   2.149   6.200   0.789 -0.0375  0.5793 -1.4321
 2779TIP3   OH2 8300   6.049   2.565   5.399  0.1401  0.6924  0.1025
 2779TIP3    H1 8301   5.954   2.564   5.412  0.0155  4.6978  0.6840
 2779TIP3    H2 8302   6.085   2.573   5.487  0.8112  1.8381 -0.2551
 2780TIP3   OH2 8303   2.254   4.885   2.682  0.1729 -0.2105 -0.1268
 2780TIP3    H1 8304   2.262   4.794   2.653 -1.4264 -0.6472  0.6770
 2780TIP3    H2 8305   2.316   4.892   2.755 -0.8329 -1.1510  0.8592
 2781TIP3   OH2 8306   5.654   0.157   5.346 -0.7563  0.0288 -0.7229
 2781TIP3    H1 8307   5.587   0.091   5.360 -1.6777  1.0104 -0.3496
 2781TIP3    H2 8308   5.620   0.235   5.389  0.7063  0.5132 -0.3822
 2782TIP3   OH2 8309   1.386   5.662   3.862 -0.3320 -0.1174  0.0344
 2782TIP3    H1 8310   1.435   5.713   3.927 -1.5293 -1.1595  1.8800
 2782TIP3    H2 8311   1.297   5.660   3.897 -0.8613 -1.3069 -1.3037
 2783TIP3   OH2 8312   0.777   1.565   4.836 -0.2382  0.3688 -0.6971
 2783TIP3    H1 8313   0.758   1.484   4.789  0.6267 -0.0291 -0.3784
 2783TIP3    H2 8314   0.705   1.575   4.898 -0.0539 -0.4589 -0.3449
 2784TIP3   OH2 8315   1.161   3.682   3.224 -0.0295  0.1915 -0.1059
 2784TIP3    H1 8316   1.233   3.742   3.241 -1.9316  3.0137 -1.1971
 2784TIP3    H2 8317   1.094   3.708   3.288 -0.7958 -1.0290 -0.3942
 2785TIP3   OH2 8318   3.900   4.083   0.908  0.1647  0.2322  0.1272
 2785TIP3    H1 8319   3.930   3.994   0.927  1.5682  0.5251 -0.6333
 2785TIP3    H2 8320   3.905   4.129   0.992  1.0990  0.0547  0.1714
 2786TIP3   OH2 8321   3.679   3.599   5.868 -0.5138 -0.5553  0.0397
 2786TIP3    H1 8322   3.658   3.584   5.776 -0.7904  2.5323 -0.5025
 2786TIP3    H2 8323   3.755   3.657   5.866 -1.2788  0.5698  1.6838
 2787TIP3   OH2 8324   4.006   4.507   2.812  0.3904 -0.1955 -0.4547
 2787TIP3    H1 8325   3.972   4.566   2.878  0.7517  1.9758 -2.1058
 2787TIP3    H2 8326   4.093   4.540   2.791  0.9854 -1.8653 -0.8058
 2788TIP3   OH2 8327   6.691   3.204   1.945  0.4403  0.3335  0.1328
 2788TIP3    H1 8328   6.742   3.182   1.867 -0.5517 -0.1279 -0.4233
 2788TIP3    H2 8329   6.697   3.126   2.000  1.4956  0.8211  0.7358
 2789TIP3   OH2 8330   0.828   5.148   2.271 -0.2016 -0.5561 -0.4509
 2789TIP3    H1 8331   0.775   5.158   2.191  0.5905 -0.4961 -0.9756
 2789TIP3    H2 8332   0.917   5.137   2.240  0.3857  1.1584  0.4507
 2790TIP3   OH2 8333   1.183   0.349   0.711 -0.1715 -0.5245  0.0481
 2790TIP3    H1 8334   1.142   0.434   0.695  1.3374  0.6491  1.9409
 2790TIP3    H2 8335   1.193   0.310   0.625 -0.3941  1.4694 -0.9375
 2791TIP3   OH2 8336   0.135   0.201   5.793  0.5698  0.7120  0.2666
 2791TIP3    H1 8337   0.186   0.181   5.715  0.8529  0.4930  0.5027
 2791TIP3    H2 8338   0.162   0.134   5.856 -1.8988 -1.0717 -0.4187
 2792TIP3   OH2 8339   5.798   6.773   3.227 -0.0649 -0.2001 -0.2344
 2792TIP3    H1 8340   5.809   6.728   3.310 -1.4218 -0.1156  0.0171
 2792TIP3    H2 8341   5.779   6.864   3.251 -0.6301 -0.2080 -0.6124
 2793TIP3   OH2 8342   7.034   1.252   2.505  0.1088 -0.0808 -0.4219
 2793TIP3    H1 8343   6.956   1.270   2.452 -0.2453 -0.2658  0.0293
 2793TIP3    H2 8344   7.003   1.254   2.595  0.6989  0.1775 -0.2212
 2794TIP3   OH2 8345   0.783   2.619   1.487 -0.1258  0.0040 -0.2163
 2794TIP3    H1 8346   0.854   2.654   1.434 -1.8811  2.5946 -1.0865
 2794TIP3    H2 8347   0.773   2.684   1.557 -1.5999 -0.3045 -0.1176
 2795TIP3   OH2 8348   5.922   4.449   5.230 -0.6716  0.3197  0.0515
 2795TIP3    H1 8349   5.993   4.505   5.261 -1.2590  0.8392  0.4675
 2795TIP3    H2 8350   5.957   4.360   5.238  0.6782  0.6361 -1.6203
 2796TIP3   OH2 8351   1.443   6.166   4.584 -0.1422 -0.0805 -0.6965
 2796TIP3    H1 8352   1.408   6.108   4.516  0.7318 -2.2787  0.6249
 2796TIP3    H2 8353   1.388   6.148   4.661 -0.1165  1.1905 -0.3705
 2797TIP3   OH2 8354   3.220   5.723   2.418  0.7975  0.3485  0.2122
 2797TIP3    H1 8355   3.206   5.791   2.484  0.7418  0.3922  0.1558
 2797TIP3    H2 8356   3.137   5.721   2.369  1.2264  1.0747 -0.5639
 2798TIP3   OH2 8357  -0.033   3.343   3.334 -0.0673 -0.0333 -0.7611
 2798TIP3    H1 8358  -0.004   3.424   3.377  2.0423 -2.3725  2.7329
 2798TIP3    H2 8359   0.040   3.318   3.277 -0.8676  0.6000 -2.1222
 2799TIP3   OH2 8360   2.681   2.901   2.366 -0.0403  0.4377 -0.1458
 2799TIP3    H1 8361   2.684   2.817   2.320 -2.9595  0.4933 -0.6562
 2799TIP3    H2 8362   2.707   2.880   2.456  1.3292 -0.5702 -0.7558
 2800TIP3   OH2 8363   1.585   5.308   2.183 -0.1358 -0.1725 -0.0401
 2800TIP3    H1 8364   1.595   5.402   2.199 -1.9115  0.4022 -1.8463
 2800TIP3    H2 8365   1.544   5.274   2.262 -0.4027  0.7828  0.2470
 2801TIP3   OH2 8366   0.754   3.273   5.735  0.3050  0.5591 -0.4437
 2801TIP3    H1 8367   0.756   3.184   5.769  2.3804 -0.1561 -2.1682
 2801TIP3    H2 8368   0.808   3.270   5.656 -1.6349  2.7821 -2.0332
 2802TIP3   OH2 8369   5.666   5.707   2.929  0.3555  0.4633  0.7466
 2802TIP3    H1 8370   5.577   5.679   2.908  0.6490  0.1220 -0.1048
 2802TIP3    H2 8371   5.705   5.631   2.972  1.1107 -0.4786 -1.4462
 2803TIP3   OH2 8372   6.287   5.602   0.400  0.0188  0.4822  1.0037
 2803TIP3    H1 8373   6.348   5.528   0.396 -0.1890  0.3402 -1.6152
 2803TIP3    H2 8374   6.205   5.564   0.432  0.5226  0.0738  1.8356
 2804TIP3   OH2 8375   4.648   3.388   1.377 -0.6041  0.0467  0.1275
 2804TIP3    H1 8376   4.653   3.296   1.404 -0.5165 -0.0706 -0.2858
 2804TIP3    H2 8377   4.687   3.390   1.290 -0.4933  0.4990  0.1843
 2805TIP3   OH2 8378   5.159   3.999   3.627  0.1474 -0.0038  0.5413
 2805TIP3    H1 8379   5.083   4.004   3.685 -0.0383 -0.9036  0.3905
 2805TIP3    H2 8380   5.122   3.972   3.543  0.4527  0.9783  0.0766
 2806TIP3   OH2 8381   0.407   1.223   4.763  0.8089 -0.5935  0.3687
 2806TIP3    H1 8382   0.355   1.206   4.841 -0.7404  0.7242 -0.3125
 2806TIP3    H2 8383   0.389   1.149   4.705 -0.2839 -0.2020  0.1843
 2807TIP3   OH2 8384   3.033   5.327   2.177  0.5643 -0.8444 -0.0815
 2807TIP3    H1 8385   3.004   5.352   2.265  2.0118  0.5276  0.0429
 2807TIP3    H2 8386   3.128   5.321   2.183  0.5375 -4.0793 -0.7594
 2808TIP3   OH2 8387   5.681   3.968   0.477 -0.0703 -0.1822 -0.8312
 2808TIP3    H1 8388   5.688   3.890   0.422  0.6633 -0.9292  0.2817
 2808TIP3    H2 8389   5.750   3.957   0.542 -0.8728  0.7151  0.2011
 2809TIP3   OH2 8390   4.711   1.612   2.792  0.6235  0.6326  0.6119
 2809TIP3    H1 8391   4.632   1.647   2.752  0.9953  0.1081 -0.6278
 2809TIP3    H2 8392   4.713   1.520   2.765  1.8462  0.7355  0.2814
 2810TIP3   OH2 8393   4.187   2.935   0.376  0.1584 -0.1512  0.4583
 2810TIP3    H1 8394   4.267   2.977   0.406 -0.2257 -1.6480  4.1054
 2810TIP3    H2 8395   4.213   2.845   0.355 -0.4496 -0.4872  1.1108
 2811TIP3   OH2 8396   2.043   3.489   2.493  0.1125  0.1531  0.0571
 2811TIP3    H1 8397   2.106   3.549   2.455  0.3572 -1.7267 -2.8390
 2811TIP3    H2 8398   2.069   3.403   2.460 -2.7436 -0.9674  0.3984
 2812TIP3   OH2 8399   1.698   6.332   4.760 -0.1406  0.2164  0.0677
 2812TIP3    H1 8400   1.697   6.402   4.694  1.5776 -0.0153 -0.2558
 2812TIP3    H2 8401   1.758   6.364   4.827 -0.1528 -0.4936  0.4240
 2813TIP3   OH2 8402   2.180   1.434   5.178 -0.5597  0.0679 -0.1587
 2813TIP3    H1 8403   2.199   1.341   5.179 -1.9923 -0.2460 -0.3302
 2813TIP3    H2 8404   2.097   1.442   5.226 -0.6841  1.1895 -0.5351
 2814TIP3   OH2 8405   3.532   5.417   4.605 -0.0036 -0.3963  0.3585
 2814TIP3    H1 8406   3.458   5.476   4.595  1.6238  2.0093  1.7030
 2814TIP3    H2 8407   3.560   5.399   4.515 -0.0824  1.5265 -0.0809
 2815TIP3   OH2 8408   1.837   5.732   1.636 -0.5175 -0.0421  0.6023
 2815TIP3    H1 8409   1.921   5.687   1.629 -0.5101  0.0016  0.4088
 2815TIP3    H2 8410   1.859   5.821   1.663 -0.5670 -0.3003  1.5338
 2816TIP3   OH2 8411   4.373   1.866   1.701  0.3210  0.0629  0.3406
 2816TIP3    H1 8412   4.439   1.836   1.638  0.8278  0.2993  0.7568
 2816TIP3    H2 8413   4.418   1.930   1.755 -0.2101  0.1194  0.7247
 2817TIP3   OH2 8414   4.481   4.335   0.086 -0.2723  0.0903  0.4524
 2817TIP3    H1 8415   4.480   4.303   0.176  0.0563  0.4955  0.6075
 2817TIP3    H2 8416   4.470   4.430   0.094 -2.0901 -0.0477 -0.0438
 2818TIP3   OH2 8417   0.149   4.267   3.799 -1.0807  0.1496 -0.3003
 2818TIP3    H1 8418   0.235   4.277   3.757 -0.2338 -0.9159  1.0711
 2818TIP3    H2 8419   0.118   4.181   3.770 -1.5102  0.3534 -0.4579
 2819TIP3   OH2 8420   1.429   0.975   4.121 -0.3106 -0.0075  0.0338
 2819TIP3    H1 8421   1.406   0.970   4.214 -0.2314  0.2294  0.0698
 2819TIP3    H2 8422   1.518   0.939   4.117 -0.6133 -0.7468 -0.0760
 2820TIP3   OH2 8423   2.989   5.419   2.429 -0.3333  0.4029 -0.2878
 2820TIP3    H1 8424   2.992   5.352   2.497  0.8232  0.2331 -0.4812
 2820TIP3    H2 8425   2.935   5.489   2.466 -1.2822 -0.4752  0.0467
 2821TIP3   OH2 8426   4.970   4.039   4.844  0.1365  0.1107  0.4865
 2821TIP3    H1 8427   4.966   3.944   4.834 -0.0420  0.1843 -0.1829
 2821TIP3    H2 8428   5.006   4.052   4.932 -1.0474 -0.5787  1.1066
 2822TIP3   OH2 8429   3.835   4.455   1.724 -0.5273  0.2292 -0.3128
 2822TIP3    H1 8430   3.844   4.416   1.637 -2.4691 -0.9852 -0.0247
 2822TIP3    H2 8431   3.772   4.526   1.712  0.8357  1.5069 -0.2650
 2823TIP3   OH2 8432   1.150   6.165   3.726  0.0475 -0.0851 -0.4790
 2823TIP3    H1 8433   1.127   6.219   3.651  0.4364  1.5345  0.5088
 2823TIP3    H2 8434   1.069   6.160   3.777  0.4374  1.1371  0.3236
 2824TIP3   OH2 8435   3.052   5.607   3.446  0.1195  0.3755  0.2307
 2824TIP3    H1 8436   3.091   5.576   3.528  0.2037  3.0570  1.2757
 2824TIP3    H2 8437   3.116   5.582   3.379  0.9522 -0.1975  1.1985
 2825TIP3   OH2 8438   6.260   2.060   0.316  0.1335  0.0204  0.3413
 2825TIP3    H1 8439   6.355   2.050   0.314  0.0967 -0.8121  1.6078
 2825TIP3    H2 8440   6.245   2.153   0.297  1.1655  0.0508 -0.3694
 2826TIP3   OH2 8441   4.803   5.231   4.911 -0.1264  0.5988 -0.0259
 2826TIP3    H1 8442   4.893   5.255   4.932  0.2248  0.6846 -1.5521
 2826TIP3    H2 8443   4.770   5.190   4.991  0.6439  2.2597  1.1981
 2827TIP3   OH2 8444   2.408   0.599   5.193 -0.1481  0.2997  0.0376
 2827TIP3    H1 8445   2.493   0.642   5.196  0.6303 -1.2535  1.9414
 2827TIP3    H2 8446   2.428   0.506   5.196 -1.9354 -0.0901  0.9235
 2828TIP3   OH2 8447   5.543   3.851   1.477  0.0399 -0.1052 -0.0432
 2828TIP3    H1 8448   5.619   3.803   1.445 -0.8701 -0.0551 -2.4938
 2828TIP3    H2 8449   5.476   3.783   1.489  0.3711 -0.1385  2.0253
 2829TIP3   OH2 8450   2.824   5.984   4.117 -0.0684 -0.6149 -0.2610
 2829TIP3    H1 8451   2.824   6.077   4.138 -0.7122 -0.0253 -2.5532
 2829TIP3    H2 8452   2.732   5.958   4.124  0.2102 -1.3180  1.1569
 2830TIP3   OH2 8453   6.251   3.718   3.832 -0.6156  0.0456 -0.4562
 2830TIP3    H1 8454   6.285   3.635   3.798  2.7058  0.6195  1.0077
 2830TIP3    H2 8455   6.226   3.768   3.754  0.0367 -1.2733 -1.5431
 2831TIP3   OH2 8456   6.210   1.748   3.248  0.1032 -0.6285 -0.2155
 2831TIP3    H1 8457   6.133   1.692   3.254 -0.9977  0.7971 -0.3660
 2831TIP3    H2 8458   6.220   1.765   3.154  0.5274 -0.7130 -0.1865
 2832TIP3   OH2 8459   3.314   6.367   3.131  0.6231  0.0595 -0.4276
 2832TIP3    H1 8460   3.371   6.408   3.196  1.1812  0.0238 -0.8821
 2832TIP3    H2 8461   3.266   6.439   3.091 -1.8001 -0.1185  1.8952
 2833TIP3   OH2 8462   4.278   0.524   5.099  0.3336 -0.0239 -0.5297
 2833TIP3    H1 8463   4.371   0.543   5.089  0.2626  0.6303 -0.0530
 2833TIP3    H2 8464   4.274   0.451   5.160  0.5673 -0.6748 -1.2860
 2834TIP3   OH2 8465   0.834   0.615   1.949  0.0702 -0.0395  0.1623
 2834TIP3    H1 8466   0.927   0.609   1.972  0.3138  1.8087 -0.1747
 2834TIP3    H2 8467   0.817   0.538   1.895  0.7101 -1.8454  2.3730
 2835TIP3   OH2 8468   2.412   0.485   2.823 -0.1047 -0.1620 -0.0637
 2835TIP3    H1 8469   2.345   0.548   2.850  2.0930  1.8771  1.0438
 2835TIP3    H2 8470   2.385   0.403   2.864 -1.3163  0.8818  1.3677
 2836TIP3   OH2 8471   1.379   3.829   3.216 -0.0632 -0.4800 -0.0689
 2836TIP3    H1 8472   1.400   3.913   3.258 -0.7823 -0.6778  0.7097
 2836TIP3    H2 8473   1.463   3.786   3.205  0.2177 -0.0847  0.4571
 2837TIP3   OH2 8474   4.917   6.067   3.347  0.4733  0.2802  0.1556
 2837TIP3    H1 8475   4.870   6.024   3.276 -0.6958  0.7952  0.5902
 2837TIP3    H2 8476   4.900   6.160   3.334  1.2323  0.4676  0.4368
 2838TIP3   OH2 8477   1.450   4.845   1.173  0.4455 -0.7855 -0.2950
 2838TIP3    H1 8478   1.419   4.762   1.137  1.4351 -1.7530  1.0040
 2838TIP3    H2 8479   1.427   4.841   1.266 -0.3113  0.8134 -0.3817
 2839TIP3   OH2 8480   1.225   1.467   1.594 -0.5122  0.0099  0.2308
 2839TIP3    H1 8481   1.276   1.390   1.621  0.1608 -0.2602 -1.6768
 2839TIP3    H2 8482   1.280   1.542   1.619 -0.1955 -0.2119  0.2079
 2840TIP3   OH2 8483   0.036   5.201   4.932  0.1682 -0.0015  0.1410
 2840TIP3    H1 8484  -0.057   5.221   4.935 -0.3051 -1.9619 -0.2143
 2840TIP3    H2 8485   0.061   5.214   4.841 -0.2475 -1.3674 -0.1896
 2841TIP3   OH2 8486   5.046   2.420   1.119 -0.3223  0.4660  1.0332
 2841TIP3    H1 8487   5.141   2.422   1.104 -0.2422  0.6656  1.5632
 2841TIP3    H2 8488   5.008   2.438   1.033  0.1186  0.3921  0.8182
 2842TIP3   OH2 8489   5.561   0.315   4.228 -0.5686 -0.1427 -0.1486
 2842TIP3    H1 8490   5.519   0.286   4.148  0.9738  0.2490 -1.1478
 2842TIP3    H2 8491   5.654   0.303   4.212 -0.1376  1.2621  1.0386
 2843TIP3   OH2 8492   1.492   5.050   1.003 -0.4729 -0.0863  0.8710
 2843TIP3    H1 8493   1.488   4.979   1.067 -1.3935 -0.1601  0.7462
 2843TIP3    H2 8494   1.404   5.055   0.966 -0.7343  1.7943  1.6110
 2844TIP3   OH2 8495   2.806   4.262   3.506  0.0619 -0.2946  0.3332
 2844TIP3    H1 8496   2.898   4.238   3.492 -0.5077 -2.2745 -0.4658
 2844TIP3    H2 8497   2.807   4.317   3.584  1.7275 -2.1433  1.7260
 2845TIP3   OH2 8498   4.309   1.027  -0.012 -0.3399  0.1884  0.5060
 2845TIP3    H1 8499   4.307   0.979   0.071 -1.2521 -0.2872  0.2196
 2845TIP3    H2 8500   4.400   1.054  -0.021 -0.1230 -0.1855  1.4158
 2846TIP3   OH2 8501   3.177   4.927   3.837  0.2625 -0.4814 -0.0380
 2846TIP3    H1 8502   3.241   4.884   3.779  0.4948 -0.0688 -0.0880
 2846TIP3    H2 8503   3.114   4.858   3.857  0.1032 -0.5941 -0.8891
 2847TIP3   OH2 8504   6.787   2.567   0.317 -0.0415 -0.1439  0.2922
 2847TIP3    H1 8505   6.717   2.564   0.252 -1.9457 -0.5586  2.2465
 2847TIP3    H2 8506   6.866   2.589   0.267 -1.2430 -1.2299 -2.2365
 2848TIP3   OH2 8507   0.351   3.167   1.531  0.5026 -0.2414 -0.3109
 2848TIP3    H1 8508   0.261   3.153   1.501  0.7139 -1.9565 -0.2063
 2848TIP3    H2 8509   0.377   3.249   1.488 -0.2463 -1.0371 -2.4199
 2849TIP3   OH2 8510   0.620   4.527   5.587 -0.2899 -0.1505 -1.1899
 2849TIP3    H1 8511   0.599   4.448   5.537 -0.2120 -0.1669 -1.1971
 2849TIP3    H2 8512   0.712   4.543   5.569 -0.2100 -0.2717 -0.8959
 2850TIP3   OH2 8513   0.914   3.460   2.611  0.3418  0.4494 -0.0220
 2850TIP3    H1 8514   0.879   3.371   2.610 -1.4901  1.1411 -0.9595
 2850TIP3    H2 8515   0.973   3.461   2.687 -1.6050 -0.8047  1.6045
 2851TIP3   OH2 8516   3.774   4.474   0.582 -0.1221  0.0358 -0.6190
 2851TIP3    H1 8517   3.864   4.469   0.549 -0.2466  1.3367 -1.2199
 2851TIP3    H2 8518   3.732   4.542   0.528 -1.1407  0.2302  0.3800
 2852TIP3   OH2 8519   0.014   0.410   4.265  0.6199 -0.3852 -0.7512
 2852TIP3    H1 8520   0.092   0.438   4.218  1.7239 -0.9658  0.6579
 2852TIP3    H2 8521  -0.043   0.487   4.266  1.1626  0.0473 -1.7791
 2853TIP3   OH2 8522   5.564   0.382   2.665  0.5457 -0.0886 -0.0869
 2853TIP3    H1 8523   5.650   0.396   2.627  1.0471 -1.9359  0.2287
 2853TIP3    H2 8524   5.575   0.403   2.758  0.8742 -1.0113  0.0932
 2854TIP3   OH2 8525   5.268   2.222   3.251 -0.7908 -0.0367 -0.2640
 2854TIP3    H1 8526   5.213   2.221   3.329 -0.3409  1.4545  0.1003
 2854TIP3    H2 8527   5.309   2.308   3.252  0.4384 -0.5875 -1.3067
 2855TIP3   OH2 8528   5.688   5.357   5.823 -0.0005  0.6791  0.0681
 2855TIP3    H1 8529   5.783   5.355   5.822  0.0397  1.6910  0.4231
 2855TIP3    H2 8530   5.663   5.285   5.882  0.6122  1.4758  1.3365
 2856TIP3   OH2 8531   3.985   5.297   5.031  0.2622  0.1980 -0.2770
 2856TIP3    H1 8532   3.943   5.263   5.111  3.2084 -1.2632  0.8076
 2856TIP3    H2 8533   4.003   5.219   4.979  0.4642  0.9227 -1.3227
 2857TIP3   OH2 8534   5.624   1.413   4.280  0.5152  0.5160  0.1184
 2857TIP3    H1 8535   5.626   1.509   4.276 -1.8081  0.6164  0.1857
 2857TIP3    H2 8536   5.550   1.393   4.338 -0.0381 -1.3063 -1.1450
 2858TIP3   OH2 8537   6.844   5.323   2.757 -0.1893  0.0998  0.0803
 2858TIP3    H1 8538   6.864   5.229   2.750 -0.6369 -0.0380  0.5441
 2858TIP3    H2 8539   6.863   5.359   2.671  0.5536 -0.3121  0.0656
 2859TIP3   OH2 8540   2.289   5.310   1.272  0.0105 -0.3768 -0.2207
 2859TIP3    H1 8541   2.379   5.281   1.288  0.1225  0.5314  0.8560
 2859TIP3    H2 8542   2.299   5.397   1.234 -0.3216 -1.6641 -3.5851
 2860TIP3   OH2 8543   4.379   4.176   5.425 -0.0441 -0.0570  0.3862
 2860TIP3    H1 8544   4.419   4.093   5.451 -0.9632 -0.6389 -0.0450
 2860TIP3    H2 8545   4.328   4.202   5.502  0.5866  0.3383  0.6805
 2861TIP3   OH2 8546   4.422   5.384   0.507 -0.2870 -0.5666 -0.6872
 2861TIP3    H1 8547   4.350   5.414   0.451 -0.1405  2.2946  0.5132
 2861TIP3    H2 8548   4.493   5.446   0.491  0.5962 -1.1066  0.8943
 2862TIP3   OH2 8549   2.873   1.290   2.162 -0.3307 -0.2330  0.1941
 2862TIP3    H1 8550   2.863   1.354   2.232 -0.7862  0.4892 -0.5122
 2862TIP3    H2 8551   2.784   1.276   2.129 -0.3694 -1.9032  0.8965
 2863TIP3   OH2 8552   5.349   2.044   4.933 -0.0413 -0.0423  0.3201
 2863TIP3    H1 8553   5.287   1.978   4.902 -1.9621  1.3942  0.8743
 2863TIP3    H2 8554   5.305   2.084   5.008  0.0124  3.2878 -1.2629
 2864TIP3   OH2 8555   2.870   1.912   5.136 -0.2852 -0.0016  0.2383
 2864TIP3    H1 8556   2.797   1.963   5.170 -0.1516  2.0353 -2.1664
 2864TIP3    H2 8557   2.829   1.841   5.087 -0.5569 -0.3568  0.9652
 2865TIP3   OH2 8558   4.799   5.881   3.661 -0.5804 -0.5234 -0.2347
 2865TIP3    H1 8559   4.893   5.900   3.666 -0.9264  0.9889  1.7754
 2865TIP3    H2 8560   4.789   5.797   3.705 -0.0386 -1.4176 -1.7440
 2866TIP3   OH2 8561   3.868   5.278   1.731  0.4379 -0.1548  0.3789
 2866TIP3    H1 8562   3.853   5.286   1.637  1.0911  0.0972  0.2910
 2866TIP3    H2 8563   3.958   5.307   1.743  0.3187 -0.0707  1.0986
 2867TIP3   OH2 8564   7.007   4.153   3.595  0.0863 -0.1179 -0.5654
 2867TIP3    H1 8565   7.033   4.189   3.510 -0.3950 -0.1429 -0.7232
 2867TIP3    H2 8566   6.922   4.112   3.579 -0.1125  0.0744 -0.0206
 2868TIP3   OH2 8567   6.710   2.213   4.253  0.0039  0.4967  0.0657
 2868TIP3    H1 8568   6.637   2.256   4.297 -0.0078  0.2285  0.3112
 2868TIP3    H2 8569   6.788   2.262   4.280 -0.0473  0.5750  0.0704
 2869TIP3   OH2 8570   1.475   0.855   3.208  0.5392 -0.3918 -0.6683
 2869TIP3    H1 8571   1.540   0.923   3.187 -0.1230  0.9192  1.2297
 2869TIP3    H2 8572   1.516   0.803   3.277 -0.6579  1.0523  1.2679
 2870TIP3   OH2 8573   2.979   6.139   3.574 -0.8024 -0.1586  0.2078
 2870TIP3    H1 8574   3.073   6.158   3.581 -0.9448  0.5087  0.3168
 2870TIP3    H2 8575   2.965   6.121   3.481 -0.2811 -1.8314  0.4043
 2871TIP3   OH2 8576   0.610   0.578   0.753  0.1424 -0.1429  0.3623
 2871TIP3    H1 8577   0.607   0.491   0.714 -0.2683  0.0233  0.0129
 2871TIP3    H2 8578   0.620   0.637   0.678  0.1864  0.1265  0.5802
 2872TIP3   OH2 8579   7.052   1.547   2.220 -0.7795 -0.0820 -0.2319
 2872TIP3    H1 8580   6.964   1.509   2.213 -0.0737 -1.7682 -0.4743
 2872TIP3    H2 8581   7.108   1.473   2.245  0.9796  0.3786 -2.4853
 2873TIP3   OH2 8582   5.884   2.503   2.580 -0.3679 -0.5390 -0.1964
 2873TIP3    H1 8583   5.948   2.567   2.609 -1.3042 -0.2853  1.4367
 2873TIP3    H2 8584   5.822   2.552   2.526 -0.4833 -0.2950  0.1579
 2874TIP3   OH2 8585   6.688   5.269   1.692  0.4169  0.0826 -0.2281
 2874TIP3    H1 8586   6.780   5.295   1.697  0.0530  1.7279 -1.0827
 2874TIP3    H2 8587   6.666   5.280   1.599 -0.8585  0.6035  0.1202
 2875TIP3   OH2 8588   3.526   5.370   5.558 -0.1204 -0.0694 -0.1045
 2875TIP3    H1 8589   3.527   5.372   5.653 -1.4563  1.7955 -0.0760
 2875TIP3    H2 8590   3.551   5.458   5.532 -0.2642 -0.4084 -1.4784
 2876TIP3   OH2 8591   5.834   6.449   1.309  0.2791  0.6766  0.4616
 2876TIP3    H1 8592   5.793   6.384   1.366  0.2365  0.1392 -0.1700
 2876TIP3    H2 8593   5.862   6.399   1.232  0.6182  1.3354  0.1508
 2877TIP3   OH2 8594   5.175   3.202   5.766 -0.6177  0.5060 -0.2662
 2877TIP3    H1 8595   5.185   3.297   5.764 -2.5371  0.7650  0.1433
 2877TIP3    H2 8596   5.083   3.188   5.788  0.2943 -1.4570  2.9273
 2878TIP3   OH2 8597   5.674   4.224   4.903  0.4789  0.4263 -0.0904
 2878TIP3    H1 8598   5.726   4.229   4.823 -1.1557 -0.5184 -1.2706
 2878TIP3    H2 8599   5.684   4.310   4.944  3.9226 -0.1011  0.4078
 2879TIP3   OH2 8600   6.580   0.890   5.628 -0.6303 -0.0401  0.0819
 2879TIP3    H1 8601   6.535   0.968   5.595  1.4275  1.7893  1.3188
 2879TIP3    H2 8602   6.569   0.825   5.558 -2.7529  1.1967 -0.8320
 2880TIP3   OH2 8603   6.874   0.513   0.027 -0.3426 -0.3844  0.1091
 2880TIP3    H1 8604   6.784   0.541   0.007 -0.6581 -0.7489  0.9635
 2880TIP3    H2 8605   6.864   0.430   0.073  0.4665 -0.6849 -0.2396
 2881TIP3   OH2 8606   5.495   5.413   3.327 -0.4662 -0.1116 -0.6830
 2881TIP3    H1 8607   5.551   5.485   3.355 -3.6278  1.6878  1.7469
 2881TIP3    H2 8608   5.488   5.357   3.404 -1.5352 -0.5667 -1.0948
 2882TIP3   OH2 8609   6.603   5.705   3.344  0.0979 -0.4080  0.2819
 2882TIP3    H1 8610   6.686   5.680   3.386 -0.2447  0.2879  1.4131
 2882TIP3    H2 8611   6.613   5.678   3.253  1.7327  0.0396  0.3058
 2883TIP3   OH2 8612   6.148   0.195   2.872 -0.1127  0.2977 -0.0883
 2883TIP3    H1 8613   6.074   0.242   2.834 -0.1922  0.2926  0.0582
 2883TIP3    H2 8614   6.177   0.251   2.944 -0.7505 -0.2780  0.6391
 2884TIP3   OH2 8615   5.388   3.940   1.118  0.3164  0.1624 -0.0185
 2884TIP3    H1 8616   5.430   3.998   1.181  1.2678 -0.8692  0.3297
 2884TIP3    H2 8617   5.454   3.922   1.052 -1.0899  2.3767 -2.2140
 2885TIP3   OH2 8618   4.663   5.189   0.547  0.8048  0.0667  0.2059
 2885TIP3    H1 8619   4.743   5.203   0.496 -0.4661  1.8336 -1.4444
 2885TIP3    H2 8620   4.592   5.201   0.484 -0.8082 -0.9629  1.7256
 2886TIP3   OH2 8621   3.302   2.998   2.061  0.3077 -0.0362 -0.2380
 2886TIP3    H1 8622   3.345   3.083   2.068 -0.8885  0.4806  1.4931
 2886TIP3    H2 8623   3.234   3.000   2.128  0.0051 -2.2253 -0.4073
 2887TIP3   OH2 8624   3.341   2.387   3.806 -0.4793 -0.0280  0.1097
 2887TIP3    H1 8625   3.328   2.446   3.880 -0.9567  0.2768 -0.2154
 2887TIP3    H2 8626   3.282   2.313   3.824  0.0249 -0.3501  0.4530
 2888TIP3   OH2 8627   1.694   2.344   3.637  0.1860  0.4037 -0.0470
 2888TIP3    H1 8628   1.726   2.279   3.575  1.1404  1.4796 -0.7071
 2888TIP3    H2 8629   1.772   2.375   3.682 -0.2647  1.0768  0.2826
 2889TIP3   OH2 8630   3.520   0.954   4.260 -1.0758 -0.6100  0.1478
 2889TIP3    H1 8631   3.432   0.991   4.247 -0.7568  0.3243  0.5329
 2889TIP3    H2 8632   3.536   0.965   4.354  0.3023  1.2554 -0.2441
 2890TIP3   OH2 8633   4.248   6.111   4.625 -0.5353 -0.2896 -0.1979
 2890TIP3    H1 8634   4.245   6.200   4.659 -0.8209 -0.4424  0.1796
 2890TIP3    H2 8635   4.307   6.116   4.549 -0.8668  0.2953 -0.4187
 2891TIP3   OH2 8636   0.320   0.020   2.797  0.3990  0.2656  0.4667
 2891TIP3    H1 8637   0.392  -0.034   2.831 -0.0982 -1.3754 -0.9336
 2891TIP3    H2 8638   0.293   0.074   2.871  1.9901 -0.2597  1.4799
 2892TIP3   OH2 8639   0.682   2.005   0.421  0.3749 -0.4288 -0.4103
 2892TIP3    H1 8640   0.676   2.004   0.517  1.6101 -1.5235 -0.3260
 2892TIP3    H2 8641   0.751   2.068   0.402  0.3428 -0.4436 -0.5742
 2893TIP3   OH2 8642   3.634   0.806   3.391  0.1843 -0.2082  0.4730
 2893TIP3    H1 8643   3.563   0.833   3.449 -0.8683  2.2237 -1.7953
 2893TIP3    H2 8644   3.690   0.883   3.383  0.9869 -0.8814 -0.7912
 2894TIP3   OH2 8645   6.841   1.818   0.737  0.5061 -0.0896 -0.7385
 2894TIP3    H1 8646   6.935   1.810   0.750  0.5930 -1.3400 -1.8202
 2894TIP3    H2 8647   6.820   1.909   0.759  1.9453  0.1738 -0.3985
 2895TIP3   OH2 8648   1.312   3.251   4.524  0.1879  0.3145  0.1303
 2895TIP3    H1 8649   1.293   3.214   4.438 -0.3429 -0.4374  0.5608
 2895TIP3    H2 8650   1.242   3.316   4.538  1.4682  1.9919 -0.8898
 2896TIP3   OH2 8651   7.111   4.901   3.963 -0.2815 -0.2147 -0.6175
 2896TIP3    H1 8652   7.196   4.879   3.923  0.7925  0.0400  1.3850
 2896TIP3    H2 8653   7.070   4.817   3.979  1.5150 -0.6978  2.2155
 2897TIP3   OH2 8654   6.340   4.824   5.079  0.1029  0.3725  0.0616
 2897TIP3    H1 8655   6.418   4.808   5.027 -0.5561  1.6519 -1.4152
 2897TIP3    H2 8656   6.324   4.741   5.124  1.0272 -0.6325 -1.3646
 2898TIP3   OH2 8657   2.953   6.184   3.900  0.1323 -0.3296  0.0290
 2898TIP3    H1 8658   2.890   6.137   3.845 -0.3628 -1.2957  1.3750
 2898TIP3    H2 8659   3.036   6.140   3.885  0.2516  0.1428 -0.7855
 2899TIP3   OH2 8660   6.794   1.956   0.033  0.6410  0.4877  0.9513
 2899TIP3    H1 8661   6.833   1.964  -0.054  0.2082  1.5508  0.8376
 2899TIP3    H2 8662   6.817   1.868   0.062  0.2995 -0.0968 -0.4775
 2900TIP3   OH2 8663   2.041   1.248   2.403  0.5038 -0.0058 -0.4753
 2900TIP3    H1 8664   2.103   1.221   2.335  0.3099 -0.4775 -0.4730
 2900TIP3    H2 8665   1.955   1.243   2.360  0.1014 -2.6492  0.4187
 2901TIP3   OH2 8666   2.206   5.871   2.384 -0.5096  0.4927 -0.1745
 2901TIP3    H1 8667   2.151   5.877   2.462 -0.1511  0.1213  0.1110
 2901TIP3    H2 8668   2.169   5.798   2.334  0.6153 -0.7484  0.7451
 2902TIP3   OH2 8669   5.475   1.305   2.835  0.1364  0.1638 -0.0781
 2902TIP3    H1 8670   5.516   1.228   2.875  0.9081  0.1605 -0.8413
 2902TIP3    H2 8671   5.396   1.320   2.887  1.1499  0.2276  1.4879
 2903TIP3   OH2 8672   5.534   4.608   0.698  0.2306  0.2767  0.4474
 2903TIP3    H1 8673   5.531   4.523   0.655  0.8523  1.2641 -1.7301
 2903TIP3    H2 8674   5.444   4.626   0.723  0.1176 -1.0539  1.0330
 2904TIP3   OH2 8675   6.002   6.253   3.480  0.5086  0.0726  0.5573
 2904TIP3    H1 8676   5.924   6.215   3.519  1.3534  1.2643  3.6972
 2904TIP3    H2 8677   6.047   6.178   3.440 -1.6170 -0.8088 -0.3412
 2905TIP3   OH2 8678   5.462   4.299   5.518  0.0147 -0.5724  0.3158
 2905TIP3    H1 8679   5.487   4.388   5.493 -1.3099  0.1029  1.2547
 2905TIP3    H2 8680   5.371   4.307   5.545 -0.0723 -2.1988  0.5759
 2906TIP3   OH2 8681   4.203   3.639   4.085  0.0602  0.1651 -0.1365
 2906TIP3    H1 8682   4.213   3.688   4.004  1.0575 -0.4903 -0.4404
 2906TIP3    H2 8683   4.291   3.605   4.103 -0.4816 -1.0552  0.3329
 2907TIP3   OH2 8684   0.446   5.597   5.050 -0.0215 -0.4143 -0.8230
 2907TIP3    H1 8685   0.406   5.609   5.136  1.7281 -1.8014  0.2478
 2907TIP3    H2 8686   0.396   5.526   5.010 -1.6171  1.0375 -1.5049
 2908TIP3   OH2 8687   6.198   0.248   5.853 -0.2170 -0.0884  0.1082
 2908TIP3    H1 8688   6.206   0.194   5.773 -0.9111  1.5179 -1.0971
 2908TIP3    H2 8689   6.143   0.196   5.911 -0.7620 -0.7710 -0.9686
 2909TIP3   OH2 8690   5.033   1.336   4.909 -0.0471  0.6502  0.2871
 2909TIP3    H1 8691   5.021   1.268   4.976  0.5653  0.8026  0.5555
 2909TIP3    H2 8692   5.120   1.321   4.874 -1.1383 -0.7794 -2.0360
 2910TIP3   OH2 8693   2.113   2.044   3.186  0.2242 -0.0285  0.7471
 2910TIP3    H1 8694   2.187   1.999   3.145 -1.0492 -2.4442  0.9451
 2910TIP3    H2 8695   2.072   2.092   3.115  2.0651  1.5999  0.6806
 2911TIP3   OH2 8696   4.730   6.305   5.642 -0.0997  0.3173  0.0651
 2911TIP3    H1 8697   4.785   6.288   5.565  0.8005 -1.7570  1.1033
 2911TIP3    H2 8698   4.770   6.383   5.682 -0.6414  1.4927 -1.5508
 2912TIP3   OH2 8699   4.333   3.753   5.375 -0.3628 -0.2019  0.6736
 2912TIP3    H1 8700   4.362   3.837   5.411  0.3131 -0.4912  0.8094
 2912TIP3    H2 8701   4.361   3.756   5.283  1.8767 -1.2602  1.2525
 2913TIP3   OH2 8702   0.641   5.794   0.958  0.4872  0.5073  0.4037
 2913TIP3    H1 8703   0.561   5.806   0.908  0.5725  0.5125  0.2674
 2913TIP3    H2 8704   0.659   5.879   0.998 -0.1547  0.2373  1.3062
 2914TIP3   OH2 8705   1.321   5.558   3.379  0.2006  0.4507 -0.2816
 2914TIP3    H1 8706   1.383   5.604   3.436 -0.0293  0.6057 -0.1514
 2914TIP3    H2 8707   1.334   5.466   3.400  1.6640  0.3362 -1.5689
 2915TIP3   OH2 8708   6.346   5.375   5.543  0.7131 -0.1373  0.2595
 2915TIP3    H1 8709   6.351   5.371   5.448  0.4256 -1.5027  0.2774
 2915TIP3    H2 8710   6.412   5.440   5.568  0.8963  0.1300 -0.8531
 2916TIP3   OH2 8711   2.917   1.998   1.074  0.4694  0.0161 -0.0657
 2916TIP3    H1 8712   2.843   1.940   1.089  0.3824  0.4118  1.1192
 2916TIP3    H2 8713   2.977   1.947   1.019 -0.9695 -0.0517 -1.6662
 2917TIP3   OH2 8714   1.542   3.491   2.229 -0.4346 -0.0595  0.4602
 2917TIP3    H1 8715   1.599   3.539   2.288  0.1779  0.8209 -0.8093
 2917TIP3    H2 8716   1.565   3.399   2.242 -0.5013  0.0885  1.7541
 2918TIP3   OH2 8717   4.748   5.574   3.064 -0.0632 -0.9439  0.1780
 2918TIP3    H1 8718   4.821   5.582   3.002 -1.2225 -1.0266 -1.2417
 2918TIP3    H2 8719   4.701   5.495   3.036 -2.0642  0.4003 -0.4611
 2919TIP3   OH2 8720   1.151   5.620   1.842  0.7050  0.0672  0.0711
 2919TIP3    H1 8721   1.192   5.545   1.886 -1.6544 -0.7633  1.0057
 2919TIP3    H2 8722   1.140   5.591   1.751  0.8279 -0.2901  0.1679
 2920TIP3   OH2 8723   4.943   1.030   5.876 -0.0260 -0.3846 -0.2751
 2920TIP3    H1 8724   4.989   0.996   5.953  2.5526  1.8135 -0.6972
 2920TIP3    H2 8725   4.944   0.957   5.813  0.8930 -1.1221  0.5650
 2921TIP3   OH2 8726   6.372   5.873   5.744  0.1626 -0.5092  0.3412
 2921TIP3    H1 8727   6.396   5.879   5.652 -0.0565 -0.0984  0.3115
 2921TIP3    H2 8728   6.431   5.805   5.780  0.2444 -0.6705 -0.0955
 2922TIP3   OH2 8729   3.158   0.431   2.790  0.1180 -0.7270  0.4268
 2922TIP3    H1 8730   3.079   0.479   2.765 -1.0758 -2.1954  1.1893
 2922TIP3    H2 8731   3.192   0.396   2.708 -0.7690 -1.1355  0.2216
 2923TIP3   OH2 8732   4.728   5.479   1.210 -0.5001  0.0578 -0.1873
 2923TIP3    H1 8733   4.739   5.418   1.283  2.4017  1.2329  0.5039
 2923TIP3    H2 8734   4.815   5.516   1.197 -1.5891  2.1130 -2.3047
 2924TIP3   OH2 8735   6.197   4.485   5.659  0.8590  0.1165 -0.5581
 2924TIP3    H1 8736   6.140   4.408   5.667 -0.2709  0.6393 -2.7806
 2924TIP3    H2 8737   6.249   4.484   5.739 -1.0386 -1.3941  0.7683
 2925TIP3   OH2 8738   3.038   4.090   3.402 -0.0086 -0.6982 -0.9313
 2925TIP3    H1 8739   3.015   4.055   3.488  0.2260  0.0883 -0.5451
 2925TIP3    H2 8740   3.129   4.065   3.390 -0.2401 -1.4301 -1.2770
 2926TIP3   OH2 8741   1.111   3.003   3.631 -0.1739 -0.0741  0.1490
 2926TIP3    H1 8742   1.073   2.999   3.719 -1.1056  0.3698 -0.2227
 2926TIP3    H2 8743   1.096   3.093   3.602  0.9644  0.0564 -0.1131
 2927TIP3   OH2 8744   6.821   6.737   5.448 -0.1129 -0.7960 -0.4984
 2927TIP3    H1 8745   6.904   6.776   5.474 -1.3758  1.3525  0.5274
 2927TIP3    H2 8746   6.802   6.672   5.516  0.3629 -0.7844 -0.3549
 2928TIP3   OH2 8747   1.390   4.478   2.844  0.2107 -0.0370  0.1681
 2928TIP3    H1 8748   1.460   4.536   2.816  0.0628 -0.0067 -0.1520
 2928TIP3    H2 8749   1.352   4.445   2.762 -2.5730  2.7833  0.1161
 2929TIP3   OH2 8750   7.035   1.845   1.696 -0.2909  0.1437 -0.7523
 2929TIP3    H1 8751   7.070   1.771   1.745 -0.6369  0.7281  0.3902
 2929TIP3    H2 8752   7.000   1.805   1.616  0.2152 -0.8281 -0.5084
 2930TIP3   OH2 8753   7.067   2.321   5.318  0.5102  0.2365 -0.1426
 2930TIP3    H1 8754   7.041   2.323   5.226 -1.6239 -0.5598  0.3867
 2930TIP3    H2 8755   7.127   2.247   5.324 -0.3958 -0.5686 -0.6749
 2931TIP3   OH2 8756   2.928   5.469   3.188 -0.3504 -0.3122  0.0800
 2931TIP3    H1 8757   3.013   5.431   3.167  0.1340  2.3955 -4.1016
 2931TIP3    H2 8758   2.867   5.430   3.126 -1.1453  1.0206 -0.0252
 2932TIP3   OH2 8759   1.481   0.266   0.980  0.5126 -0.6647  0.0616
 2932TIP3    H1 8760   1.470   0.358   1.006 -0.1068 -1.6246  3.6377
 2932TIP3    H2 8761   1.397   0.225   1.000  0.7315 -2.0405 -1.5972
 2933TIP3   OH2 8762   6.106   4.005   0.363  0.3324 -0.1983 -0.3699
 2933TIP3    H1 8763   6.041   3.950   0.319 -1.9633  0.4360  1.9701
 2933TIP3    H2 8764   6.087   4.094   0.333  0.1575 -0.0236  0.2381
 2934TIP3   OH2 8765   0.301   5.343   3.322  0.6518 -0.0601 -0.0009
 2934TIP3    H1 8766   0.304   5.247   3.320 -0.9523 -0.1254 -1.7561
 2934TIP3    H2 8767   0.211   5.363   3.349  1.4061  1.0134  1.8903
 2935TIP3   OH2 8768   5.024   6.437   3.627 -0.2904  0.3430  0.1356
 2935TIP3    H1 8769   5.053   6.449   3.537  0.9297 -0.0580  0.4546
 2935TIP3    H2 8770   4.936   6.400   3.619  0.4137 -1.2009 -0.9247
 2936TIP3   OH2 8771   0.968   1.580   3.571  0.8092  0.2270  0.1101
 2936TIP3    H1 8772   1.003   1.492   3.558  1.0904  0.4220 -0.5079
 2936TIP3    H2 8773   1.016   1.634   3.508  0.9710  0.9111  0.8124
 2937TIP3   OH2 8774   0.077   0.504   5.449 -0.4080  0.1353  0.2702
 2937TIP3    H1 8775   0.131   0.494   5.370 -0.5224  2.8061 -0.2432
 2937TIP3    H2 8776   0.065   0.599   5.458 -3.6055 -0.2405  1.3255
 2938TIP3   OH2 8777   2.908   1.801   0.651 -0.0382 -0.1809  0.0380
 2938TIP3    H1 8778   2.942   1.801   0.741  0.7866 -1.4319 -0.2573
 2938TIP3    H2 8779   2.915   1.893   0.624  1.5958 -0.1002  0.5796
 2939TIP3   OH2 8780   3.013   5.208   0.454 -0.0254 -0.1093 -0.2539
 2939TIP3    H1 8781   2.926   5.233   0.423  0.2131 -0.2999 -1.1207
 2939TIP3    H2 8782   3.034   5.271   0.522 -0.4970  0.4610 -0.6257
 2940TIP3   OH2 8783   3.337   6.020   0.965 -0.2142  0.0716 -0.4556
 2940TIP3    H1 8784   3.337   5.978   1.051  1.0031  0.9437  0.0015
 2940TIP3    H2 8785   3.361   6.111   0.983  0.0233  0.2783 -1.7130
 2941TIP3   OH2 8786   3.138   6.188   4.368  0.5277  0.4204  0.1245
 2941TIP3    H1 8787   3.113   6.232   4.287 -0.2467  1.3147  0.8185
 2941TIP3    H2 8788   3.147   6.096   4.344  0.5343  0.7043 -1.0158
 2942TIP3   OH2 8789   6.354   2.530   0.373 -0.2865  0.1877  0.2426
 2942TIP3    H1 8790   6.320   2.602   0.320 -0.7813 -0.1016  0.1600
 2942TIP3    H2 8791   6.448   2.547   0.379 -0.2275  0.2352 -0.7079
 2943TIP3   OH2 8792   4.722   3.921   3.504 -0.1992 -0.5844 -0.0043
 2943TIP3    H1 8793   4.680   3.839   3.532 -1.6131 -0.4374 -1.5356
 2943TIP3    H2 8794   4.772   3.896   3.426 -1.6149  0.1682 -1.2161
 2944TIP3   OH2 8795   2.638   5.932   1.680  0.2630  0.2845 -0.2958
 2944TIP3    H1 8796   2.695   5.900   1.751 -2.2133 -0.1338  1.6479
 2944TIP3    H2 8797   2.699   5.964   1.614  2.8390 -2.7698  0.3135
 2945TIP3   OH2 8798   0.268   6.630   2.444  0.2831 -0.2637  0.2207
 2945TIP3    H1 8799   0.354   6.669   2.458 -0.1202  0.5309  0.5355
 2945TIP3    H2 8800   0.286   6.537   2.427  1.2452  0.0232 -0.3863
 2946TIP3   OH2 8801   4.267   6.732   4.965 -0.3942 -0.0182 -0.0807
 2946TIP3    H1 8802   4.261   6.827   4.969 -1.1229 -0.0952  2.2682
 2946TIP3    H2 8803   4.242   6.710   4.875 -0.2337  1.9819 -0.6576
 2947TIP3   OH2 8804   6.619   0.043   0.804  0.1082  0.3667 -0.1022
 2947TIP3    H1 8805   6.669  -0.004   0.738 -0.7000  0.3589 -0.7214
 2947TIP3    H2 8806   6.527   0.021   0.786 -0.3501  2.5646 -0.7707
 2948TIP3   OH2 8807   1.918   0.247   0.318  0.3142 -0.0606  0.0522
 2948TIP3    H1 8808   1.871   0.167   0.296  2.5550 -1.2775 -0.6432
 2948TIP3    H2 8809   1.980   0.260   0.246 -0.6892  2.9680 -0.4235
 2949TIP3   OH2 8810   2.936   3.538   2.710  0.4849  0.7206 -0.0864
 2949TIP3    H1 8811   3.005   3.604   2.715  0.5047  0.6170  1.3241
 2949TIP3    H2 8812   2.859   3.581   2.747 -0.2629  0.8579 -1.7078
 2950TIP3   OH2 8813   7.123   0.096   5.602  0.0937 -0.0551 -0.0163
 2950TIP3    H1 8814   7.096   0.095   5.694 -1.2163  0.8488 -0.3594
 2950TIP3    H2 8815   7.137   0.189   5.582  2.7247 -0.4118 -0.1074
 2951TIP3   OH2 8816   0.033   0.276   3.978  0.1726 -0.0622 -0.0490
 2951TIP3    H1 8817   0.080   0.359   3.984 -0.0358  0.0429  0.1259
 2951TIP3    H2 8818  -0.057   0.300   3.958  0.4342 -0.3145 -1.6491
 2952TIP3   OH2 8819   6.244   0.583   2.855  0.3692 -0.0027  0.2597
 2952TIP3    H1 8820   6.210   0.666   2.890  0.7640  0.6469 -0.8600
 2952TIP3    H2 8821   6.183   0.558   2.786  1.9719  1.1062 -1.6785
 2953TIP3   OH2 8822   5.927   6.599   5.024 -0.0877 -0.0648  0.8593
 2953TIP3    H1 8823   5.944   6.649   5.103 -0.1602  0.8517  0.3123
 2953TIP3    H2 8824   6.013   6.589   4.983  0.0050 -0.8589  1.2256
 2954TIP3   OH2 8825   5.438   2.038   3.162  0.9258  0.1286 -0.1704
 2954TIP3    H1 8826   5.366   2.095   3.187 -0.5002 -0.7562 -2.0114
 2954TIP3    H2 8827   5.465   1.995   3.244 -0.0796  1.0772  0.6794
 2955TIP3   OH2 8828   0.785   4.800   1.105 -0.1729  0.0535  0.2570
 2955TIP3    H1 8829   0.723   4.771   1.038  0.5461 -1.2565  0.1240
 2955TIP3    H2 8830   0.833   4.721   1.129  0.8568  0.8686  0.9812
 2956TIP3   OH2 8831   5.923   5.269   1.016 -0.1489  0.3675  0.2141
 2956TIP3    H1 8832   5.917   5.183   0.975  0.6589  0.2949  0.2334
 2956TIP3    H2 8833   5.834   5.287   1.047 -0.4612 -0.1858 -0.3303
 2957TIP3   OH2 8834   2.912   5.273   3.725 -0.6455 -0.2498 -0.4315
 2957TIP3    H1 8835   2.928   5.218   3.649 -1.9357 -0.1960 -0.7504
 2957TIP3    H2 8836   2.974   5.241   3.791  0.7813 -0.0225 -1.6160
 2958TIP3   OH2 8837   5.764   0.268   2.275 -0.0310 -0.2313 -0.0116
 2958TIP3    H1 8838   5.741   0.354   2.241  0.1586  0.2410  1.0240
 2958TIP3    H2 8839   5.683   0.235   2.315 -0.2394 -0.7584 -0.8493
 2959TIP3   OH2 8840   5.584   4.526   2.101  0.6770 -0.0231 -0.6027
 2959TIP3    H1 8841   5.604   4.581   2.026 -0.3715  0.8411 -0.2656
 2959TIP3    H2 8842   5.493   4.545   2.122  0.8985 -0.3728  0.7930
 2960TIP3   OH2 8843   1.760   6.470   1.247 -0.0569  0.3275  0.6478
 2960TIP3    H1 8844   1.813   6.549   1.254 -1.7311  1.7138 -1.0856
 2960TIP3    H2 8845   1.705   6.472   1.326 -0.8305  1.5334  0.1130
 2961TIP3   OH2 8846   2.784   0.526   5.511  0.1772 -0.2558 -0.2422
 2961TIP3    H1 8847   2.868   0.573   5.514 -0.5275  1.0170  0.3711
 2961TIP3    H2 8848   2.787   0.478   5.428  1.0708  0.6139 -0.7462
 2962TIP3   OH2 8849   6.006   3.703   4.227  0.0477 -0.1747 -0.3649
 2962TIP3    H1 8850   5.933   3.658   4.270  0.7786 -1.0646 -0.0413
 2962TIP3    H2 8851   6.060   3.737   4.298 -2.4472  4.8252 -0.3589
 2963TIP3   OH2 8852   2.582   0.512   2.366  0.2179 -0.3437  0.1821
 2963TIP3    H1 8853   2.665   0.464   2.366  0.0740 -0.5990 -0.5686
 2963TIP3    H2 8854   2.605   0.598   2.401  1.2490  0.3183 -1.9576
 2964TIP3   OH2 8855   2.402   1.159   3.833  0.1325  0.1223  0.0201
 2964TIP3    H1 8856   2.330   1.131   3.776  0.7209 -0.9986 -0.1958
 2964TIP3    H2 8857   2.387   1.253   3.845 -1.6422 -0.1640  0.3782
 2965TIP3   OH2 8858   0.074   3.229   2.652  0.1582 -0.2687 -0.8852
 2965TIP3    H1 8859   0.042   3.254   2.739 -1.8676 -0.8942 -1.3949
 2965TIP3    H2 8860   0.051   3.136   2.644  0.0244 -0.1393 -2.2054
 2966TIP3   OH2 8861   4.613   1.932   4.464  0.2836  0.4096 -0.0546
 2966TIP3    H1 8862   4.520   1.948   4.450  0.4793  1.7549  0.0694
 2966TIP3    H2 8863   4.616   1.869   4.536 -0.5597 -1.1821 -1.3351
 2967TIP3   OH2 8864   6.154   2.181   2.336  0.0961  0.4976  0.0832
 2967TIP3    H1 8865   6.109   2.119   2.279  0.6249 -0.4188  0.6453
 2967TIP3    H2 8866   6.210   2.232   2.277  0.6363 -0.4316 -0.2160
 2968TIP3   OH2 8867   6.838   2.998   1.364 -0.1914 -0.4247  0.1215
 2968TIP3    H1 8868   6.782   3.017   1.439 -0.0850 -0.1262  0.1265
 2968TIP3    H2 8869   6.893   3.075   1.355  0.7193 -1.0100  0.5603
 2969TIP3   OH2 8870   1.327   1.105   2.698  0.5408 -0.0226  0.5172
 2969TIP3    H1 8871   1.262   1.063   2.642  1.4777 -0.8782  0.0376
 2969TIP3    H2 8872   1.306   1.198   2.693 -1.2560 -0.3513  1.1881
 2970TIP3   OH2 8873   0.462   4.767   1.095 -0.6614 -0.4357  0.3312
 2970TIP3    H1 8874   0.521   4.703   1.135  0.1937  0.8089  1.1333
 2970TIP3    H2 8875   0.381   4.758   1.144 -0.3621 -0.5179  0.8252
 2971TIP3   OH2 8876   4.476   0.822   2.314 -0.0343  0.0534 -0.2990
 2971TIP3    H1 8877   4.482   0.839   2.220 -1.1417 -0.2777 -0.4415
 2971TIP3    H2 8878   4.566   0.828   2.345  0.6318 -1.7134 -1.6979
 2972TIP3   OH2 8879   6.983   1.637   4.408  0.0565 -0.6321  0.2278
 2972TIP3    H1 8880   7.033   1.620   4.487  0.3907 -1.2344 -0.1103
 2972TIP3    H2 8881   7.024   1.714   4.369  1.1064 -1.4793 -0.3648
 2973TIP3   OH2 8882   4.369   4.629   3.431 -0.1546 -0.0647 -0.1287
 2973TIP3    H1 8883   4.442   4.685   3.459 -1.5956  0.3708  3.1043
 2973TIP3    H2 8884   4.403   4.540   3.439  0.7792  0.1660 -1.1712
 2974TIP3   OH2 8885   1.848   4.079   1.460 -0.0459  0.1302 -0.2436
 2974TIP3    H1 8886   1.822   4.009   1.399  1.0507 -0.9279  0.4710
 2974TIP3    H2 8887   1.767   4.104   1.503 -0.2915 -1.6880  0.4736
 2975TIP3   OH2 8888   6.486   3.848   5.650  0.1008  0.3068 -0.4278
 2975TIP3    H1 8889   6.484   3.763   5.695 -0.2081  0.8115  0.5350
 2975TIP3    H2 8890   6.397   3.882   5.660  0.1404  0.6098 -1.0872
 2976TIP3   OH2 8891   4.450   4.445   4.172  0.3191  0.0956 -0.4798
 2976TIP3    H1 8892   4.373   4.411   4.217  0.3580 -0.2355 -0.6641
 2976TIP3    H2 8893   4.428   4.442   4.079  0.2514  0.7464 -0.4916
 2977TIP3   OH2 8894   6.256   6.466   3.967 -0.2806 -0.2856  0.1304
 2977TIP3    H1 8895   6.203   6.470   3.888  0.7705 -3.0834 -0.8135
 2977TIP3    H2 8896   6.331   6.523   3.949 -0.9624  0.5513 -0.1114
 2978TIP3   OH2 8897   4.907   4.342   2.710  0.1013  0.3161  0.2877
 2978TIP3    H1 8898   4.959   4.405   2.660  0.7853 -0.2348  0.2910
 2978TIP3    H2 8899   4.832   4.322   2.654  1.1954 -0.8009 -0.8378
 2979TIP3   OH2 8900   5.544   6.215   2.910  0.0925  0.6698  0.0510
 2979TIP3    H1 8901   5.635   6.194   2.887  0.4154  0.6096  1.3040
 2979TIP3    H2 8902   5.505   6.131   2.933 -0.2832  0.6991 -0.4725
 2980TIP3   OH2 8903   5.221   1.166   3.755 -0.3813 -0.1164 -0.1589
 2980TIP3    H1 8904   5.243   1.117   3.834 -0.0264  0.4415  0.0930
 2980TIP3    H2 8905   5.261   1.252   3.767 -1.3201  0.3796 -0.4197
 2981TIP3   OH2 8906   5.463   0.786   1.296 -0.5074 -0.3573  0.0421
 2981TIP3    H1 8907   5.508   0.783   1.212  0.2607  0.5080  0.3983
 2981TIP3    H2 8908   5.447   0.695   1.318  0.7207 -0.6755 -0.3033
 2982TIP3   OH2 8909   2.741   5.645   4.399  0.0377  0.3312 -0.1142
 2982TIP3    H1 8910   2.693   5.715   4.444 -2.0864 -0.3918 -1.0955
 2982TIP3    H2 8911   2.677   5.609   4.337  0.3807 -3.7110  1.5998
 2983TIP3   OH2 8912   5.675   0.887   1.034 -0.1027  0.2056  0.3804
 2983TIP3    H1 8913   5.633   0.970   1.058 -1.2359 -0.9091  2.5534
 2983TIP3    H2 8914   5.608   0.839   0.986  1.1377  1.1623 -2.5110
 2984TIP3   OH2 8915   0.681   3.659   2.625 -0.0435 -0.4646  0.5429
 2984TIP3    H1 8916   0.746   3.599   2.587 -0.6866  0.7230 -2.7061
 2984TIP3    H2 8917   0.622   3.602   2.675  1.4804 -2.0004  0.6845
 2985TIP3   OH2 8918   4.654   0.306   2.244  0.4278  0.0183  0.7104
 2985TIP3    H1 8919   4.651   0.401   2.257  1.0167 -0.0662  1.5579
 2985TIP3    H2 8920   4.708   0.274   2.316 -0.8187 -1.0966  1.1874
 2986TIP3   OH2 8921   0.484   5.087   1.466 -0.0201  0.0708  0.8531
 2986TIP3    H1 8922   0.442   5.008   1.501 -0.8544  0.6290  1.1471
 2986TIP3    H2 8923   0.421   5.120   1.401  1.7312 -1.2627 -1.6694
 2987TIP3   OH2 8924   0.719   1.768   3.235  0.1588 -0.1312  0.2990
 2987TIP3    H1 8925   0.809   1.786   3.208 -0.2608 -1.1145 -1.9303
 2987TIP3    H2 8926   0.727   1.741   3.327  2.1601 -0.4030  0.0954
 2988TIP3   OH2 8927   5.139   2.155   0.856 -0.4661 -0.3573  0.2415
 2988TIP3    H1 8928   5.139   2.129   0.764 -0.9500  0.0583  0.1268
 2988TIP3    H2 8929   5.057   2.202   0.869 -0.5708 -0.7220  0.9733
 2989TIP3   OH2 8930   6.091   5.374   2.084 -0.4875 -0.0451  0.1972
 2989TIP3    H1 8931   6.083   5.445   2.148 -1.7429  0.1884 -0.1943
 2989TIP3    H2 8932   6.025   5.310   2.111 -2.3056  0.8619 -1.8534
 2990TIP3   OH2 8933   2.438   0.216   4.822 -0.3995  0.0339  0.9073
 2990TIP3    H1 8934   2.389   0.151   4.771  0.1851 -0.2167  0.6506
 2990TIP3    H2 8935   2.441   0.293   4.764 -0.6582  0.1221  1.0071
 2991TIP3   OH2 8936   2.090   5.233   1.606  0.2379  0.3403  0.0868
 2991TIP3    H1 8937   2.065   5.192   1.524 -2.0486 -0.0774  0.9208
 2991TIP3    H2 8938   2.054   5.322   1.601  0.4313  0.4468  0.4866
 2992TIP3   OH2 8939   0.379   0.696   4.874 -0.2954 -0.1422  0.2555
 2992TIP3    H1 8940   0.288   0.725   4.881  0.1682  1.4045  0.1293
 2992TIP3    H2 8941   0.399   0.661   4.961 -0.2926  1.7373  1.0509
 2993TIP3   OH2 8942   4.530   6.649   3.093 -0.4825 -0.0732  0.3490
 2993TIP3    H1 8943   4.456   6.704   3.067  0.5030  1.6178  0.9667
 2993TIP3    H2 8944   4.594   6.660   3.022 -1.1023 -2.2591 -0.6535
 2994TIP3   OH2 8945   6.648   4.840   0.967 -0.1829  0.3182  0.3351
 2994TIP3    H1 8946   6.627   4.897   1.041  0.5875 -0.4147  1.1486
 2994TIP3    H2 8947   6.649   4.752   1.005  0.8544 -0.0072 -0.4080
 2995TIP3   OH2 8948   2.757   6.115   2.996  0.2210 -0.1479 -0.5152
 2995TIP3    H1 8949   2.755   6.099   2.902 -1.5125 -1.1106 -0.3374
 2995TIP3    H2 8950   2.756   6.028   3.036  0.7228  0.2515  0.4094
 2996TIP3   OH2 8951   5.417   2.107   0.931  0.0864  0.0903 -0.4260
 2996TIP3    H1 8952   5.322   2.099   0.922 -0.0168 -0.3462  0.8429
 2996TIP3    H2 8953   5.443   2.031   0.984  0.6325  2.0554  2.3326
 2997TIP3   OH2 8954   1.521   3.803   3.589  0.6638  0.1867  0.8646
 2997TIP3    H1 8955   1.500   3.892   3.617  0.1942  0.9056 -1.5334
 2997TIP3    H2 8956   1.442   3.773   3.544  1.3895 -0.7941  0.1965
 2998TIP3   OH2 8957   3.712   6.760   2.719 -0.1697 -0.3747 -0.1469
 2998TIP3    H1 8958   3.720   6.834   2.779 -1.1087 -2.2814  2.5230
 2998TIP3    H2 8959   3.795   6.759   2.671 -0.5330  2.9615 -1.1304
 2999TIP3   OH2 8960   2.094   0.966   4.901  0.3601  0.4289  0.0551
 2999TIP3    H1 8961   2.175   0.966   4.952 -0.5208  1.4020  1.5134
 2999TIP3    H2 8962   2.065   0.875   4.902  1.3595  0.0847 -0.3989
 3000TIP3   OH2 8963   6.900   0.943   0.961  0.7533 -0.2488  0.1493
 3000TIP3    H1 8964   6.960   0.869   0.953  1.2351  0.0690  0.7617
 3000TIP3    H2 8965   6.826   0.908   1.011 -0.2093 -1.0020 -1.6995
 3001TIP3   OH2 8966   6.682   5.512   3.777  0.4316 -0.0849 -0.2660
 3001TIP3    H1 8967   6.667   5.514   3.683  0.5305  0.1218 -0.2792
 3001TIP3    H2 8968   6.777   5.522   3.787  0.6311 -1.7944 -0.1966
 3002TIP3   OH2 8969   0.477   3.856   4.252 -0.0914 -0.3371  0.1728
 3002TIP3    H1 8970   0.443   3.942   4.226 -1.7827 -0.9674  0.1492
 3002TIP3    H2 8971   0.475   3.804   4.171  2.7916  0.0911 -0.2838
 3003TIP3   OH2 8972   6.599   1.501   0.605 -0.4345  0.2520 -0.1857
 3003TIP3    H1 8973   6.544   1.580   0.606 -0.7335  0.0830  1.9722
 3003TIP3    H2 8974   6.686   1.533   0.630 -0.3151  0.0480 -0.3453
 3004TIP3   OH2 8975   3.773   1.114   1.161 -0.2490  0.4367 -0.0569
 3004TIP3    H1 8976   3.694   1.121   1.108  0.6560  2.1055 -1.2877
 3004TIP3    H2 8977   3.844   1.141   1.102  1.1080 -0.0354  1.3000
 3005TIP3   OH2 8978   2.767   1.358   0.149  0.0646 -0.2388 -0.1074
 3005TIP3    H1 8979   2.707   1.400   0.210  1.7767  1.3698  0.5530
 3005TIP3    H2 8980   2.845   1.413   0.149  0.7954 -1.1093 -2.4765
 3006TIP3   OH2 8981   6.764   4.931   2.970 -0.0587  0.3592  0.3280
 3006TIP3    H1 8982   6.734   4.895   2.886 -1.7240  0.5259  0.8165
 3006TIP3    H2 8983   6.809   4.858   3.012  0.5470  0.1896 -0.5768
 3007TIP3   OH2 8984   5.460   5.733   0.219  0.7406  0.3140  0.5436
 3007TIP3    H1 8985   5.456   5.815   0.269 -1.0335  0.6747 -0.1158
 3007TIP3    H2 8986   5.430   5.666   0.281  1.7618  0.2074  0.9457
 3008TIP3   OH2 8987   3.197   5.815   1.442 -0.2709 -0.7238 -0.3166
 3008TIP3    H1 8988   3.178   5.896   1.489  4.0477  0.9125 -0.9967
 3008TIP3    H2 8989   3.127   5.809   1.376 -2.2252  0.9139  1.4625
 3009TIP3   OH2 8990   0.665   5.538   3.122  0.0276  0.0438 -0.3228
 3009TIP3    H1 8991   0.690   5.603   3.186  1.5165 -0.2486 -0.5739
 3009TIP3    H2 8992   0.598   5.581   3.069  0.3482  1.0499  0.0698
 3010TIP3   OH2 8993   6.050   2.606   4.894  0.5199  0.2164 -0.8724
 3010TIP3    H1 8994   6.071   2.514   4.914 -1.2851 -0.6257 -2.5594
 3010TIP3    H2 8995   6.078   2.654   4.972 -1.8595 -2.2095  1.7198
 3011TIP3   OH2 8996   6.499   1.710   4.667  0.6645  0.0789  0.0021
 3011TIP3    H1 8997   6.576   1.680   4.716  0.8099 -2.2475 -1.4874
 3011TIP3    H2 8998   6.536   1.761   4.595  0.6528  0.6970  0.4235
 3012TIP3   OH2 8999   5.300   4.837   2.595  0.2276  0.4837 -0.1914
 3012TIP3    H1 9000   5.339   4.754   2.568  1.9263  0.9563  0.6615
 3012TIP3    H2 9001   5.298   4.833   2.691 -0.3449  1.1473 -0.1623
 3013TIP3   OH2 9002   3.665   3.773   1.141 -0.4239  0.0256  0.6395
 3013TIP3    H1 9003   3.590   3.737   1.189 -2.1160  1.0837 -1.0507
 3013TIP3    H2 9004   3.652   3.868   1.144  1.6142  0.3339  1.4083
 3014TIP3   OH2 9005   2.068   1.603   3.307  0.3755  0.1191 -0.1832
 3014TIP3    H1 9006   2.039   1.657   3.381  0.3277  0.5177 -0.4876
 3014TIP3    H2 9007   2.109   1.665   3.247  0.3464 -0.1892 -0.5252
 3015TIP3   OH2 9008   7.036   5.351   3.577  0.0072  0.2035  0.9091
 3015TIP3    H1 9009   6.956   5.302   3.560 -1.2360  1.5655  2.4677
 3015TIP3    H2 9010   7.074   5.309   3.655  1.6148 -1.3011 -0.6064
 3016TIP3   OH2 9011   3.509   4.773   1.244  0.7466 -0.0967  0.1752
 3016TIP3    H1 9012   3.468   4.763   1.330  0.4676 -1.1770 -0.0686
 3016TIP3    H2 9013   3.481   4.859   1.215 -0.6694 -0.4468  0.3960
 3017TIP3   OH2 9014   3.317   5.594   4.625 -0.0391  0.4665  0.0495
 3017TIP3    H1 9015   3.303   5.671   4.569  0.7967  0.2703 -0.4553
 3017TIP3    H2 9016   3.230   5.555   4.634  0.2233 -1.9920 -4.7876
 3018TIP3   OH2 9017   6.247   6.249   2.943  1.4044  0.2626 -0.1126
 3018TIP3    H1 9018   6.340   6.263   2.965  1.2910 -1.2783  1.5600
 3018TIP3    H2 9019   6.200   6.308   3.003  1.2613 -0.0303  0.0618
 3019TIP3   OH2 9020   3.492   6.513   2.436  0.2626 -0.0366 -0.2187
 3019TIP3    H1 9021   3.460   6.428   2.407  0.1975 -0.5605  1.3005
 3019TIP3    H2 9022   3.585   6.500   2.452 -0.1399 -0.5195  2.1987
 3020TIP3   OH2 9023   0.472   1.423   4.460  0.3819 -0.1101  0.7296
 3020TIP3    H1 9024   0.449   1.390   4.374  1.6505 -2.4659  1.1972
 3020TIP3    H2 9025   0.546   1.368   4.488  1.1304  1.6975  2.6074
 3021TIP3   OH2 9026   2.017   1.531   3.734  0.2432  0.1904 -0.0795
 3021TIP3    H1 9027   2.014   1.623   3.708 -0.1783  0.0904 -0.3920
 3021TIP3    H2 9028   2.102   1.500   3.701 -0.2133  0.1054 -1.2210
 3022TIP3   OH2 9029   2.043  -0.002   5.179 -0.7287  0.0545 -0.6166
 3022TIP3    H1 9030   2.001  -0.006   5.265  0.0607 -1.1853 -0.2655
 3022TIP3    H2 9031   2.083   0.085   5.177  3.1713 -1.3579  2.2575
 3023TIP3   OH2 9032   3.333   0.102   2.696  0.1643 -0.6446 -0.4102
 3023TIP3    H1 9033   3.346   0.025   2.641 -1.4929 -1.5112  0.3501
 3023TIP3    H2 9034   3.289   0.165   2.640 -0.5802 -1.1360 -0.3817
 3024TIP3   OH2 9035   1.324   2.125   0.417 -0.2524  0.2459  0.2392
 3024TIP3    H1 9036   1.358   2.146   0.330  1.0584  0.0259  0.6705
 3024TIP3    H2 9037   1.396   2.147   0.476 -0.7926 -0.4614  1.1827
 3025TIP3   OH2 9038   3.626   5.660   5.486 -0.6554 -0.7274  0.1731
 3025TIP3    H1 9039   3.598   5.651   5.577  0.7045  0.2545  0.7219
 3025TIP3    H2 9040   3.597   5.747   5.460  0.9130 -0.0892  0.4357
 3026TIP3   OH2 9041   5.304   2.137   1.526  0.2769 -0.5557  0.4383
 3026TIP3    H1 9042   5.337   2.061   1.478  0.2137 -0.2458 -0.1124
 3026TIP3    H2 9043   5.228   2.104   1.575 -0.3726 -0.6350 -0.5898
 3027TIP3   OH2 9044   3.205   5.787   3.164  0.3212  0.8446 -1.0763
 3027TIP3    H1 9045   3.246   5.854   3.220 -1.4552  1.7705 -0.7993
 3027TIP3    H2 9046   3.278   5.740   3.125  1.6352  0.9619  1.0801
 3028TIP3   OH2 9047   6.795   4.144   3.402  0.2278  0.3462 -0.2390
 3028TIP3    H1 9048   6.728   4.203   3.369 -0.5267 -0.0919  0.4805
 3028TIP3    H2 9049   6.773   4.058   3.365 -0.7029 -0.1765  1.4498
 3029TIP3   OH2 9050   0.543   1.166   0.141  0.3000 -0.1807 -0.1221
 3029TIP3    H1 9051   0.503   1.079   0.153  0.3164  0.0194  1.5599
 3029TIP3    H2 9052   0.515   1.216   0.218  0.1892  1.3699 -1.1324
 3030TIP3   OH2 9053   5.367   3.154   1.318 -0.0330 -0.3067 -0.4688
 3030TIP3    H1 9054   5.328   3.218   1.378  0.7491  0.0070 -0.2871
 3030TIP3    H2 9055   5.415   3.094   1.375  1.6601  0.6403 -0.8188
 3031TIP3   OH2 9056   6.617   3.387   4.518 -0.6793 -0.3471  0.3012
 3031TIP3    H1 9057   6.671   3.317   4.481 -2.0720 -1.6465  0.6430
 3031TIP3    H2 9058   6.678   3.459   4.531  1.1643 -1.9930  1.3987
 3032TIP3   OH2 9059   0.078   2.766   3.887 -0.1682 -0.6077 -0.0839
 3032TIP3    H1 9060  -0.004   2.805   3.919 -0.2566  0.5832 -1.6786
 3032TIP3    H2 9061   0.061   2.672   3.888 -1.3243 -0.4158  0.2062
 3033TIP3   OH2 9062   1.467   3.917   1.032  0.3861 -0.8096  0.5435
 3033TIP3    H1 9063   1.489   3.991   0.975  0.2452 -2.4424 -1.7456
 3033TIP3    H2 9064   1.421   3.957   1.106  2.0423  1.5743  0.3947
 3034TIP3   OH2 9065   5.927   6.159   1.978 -0.5633 -0.5047  0.0138
 3034TIP3    H1 9066   5.990   6.094   2.009 -0.6462 -0.8647 -0.5625
 3034TIP3    H2 9067   5.965   6.243   2.003 -0.1273 -0.7449  0.1684
 3035TIP3   OH2 9068   2.370   4.729   2.169 -0.4939 -0.1892 -0.6024
 3035TIP3    H1 9069   2.288   4.720   2.217 -0.7330 -0.6383 -1.0817
 3035TIP3    H2 9070   2.433   4.677   2.219 -0.9760 -1.4690 -1.2949
 3036TIP3   OH2 9071   6.021   4.296   5.670  0.2555  0.2326 -0.0765
 3036TIP3    H1 9072   5.952   4.363   5.666  0.2340  0.1677 -2.4770
 3036TIP3    H2 9073   6.022   4.268   5.762 -1.1172  2.0752  0.5699
 3037TIP3   OH2 9074   5.743   3.930   3.019  0.3472  0.5613  0.3711
 3037TIP3    H1 9075   5.664   3.876   3.009 -0.0840  0.8371  1.9974
 3037TIP3    H2 9076   5.795   3.884   3.085  0.1628  1.8613  1.4764
 3038TIP3   OH2 9077   5.862   4.429   0.787  0.4420  0.1998 -0.0762
 3038TIP3    H1 9078   5.848   4.517   0.822  1.1927  0.0289  0.7220
 3038TIP3    H2 9079   5.920   4.442   0.712  0.2335  0.4178 -0.2014
 3039TIP3   OH2 9080   2.429   3.194   2.436  0.3211 -0.3878 -0.0544
 3039TIP3    H1 9081   2.403   3.107   2.466  0.9481  0.1736  2.3820
 3039TIP3    H2 9082   2.521   3.184   2.409  1.0530 -0.1603  2.1405
 3040TIP3   OH2 9083   5.041  -0.003   5.332 -0.5582 -0.5397 -0.1053
 3040TIP3    H1 9084   5.006   0.068   5.386 -1.5978 -0.7618 -0.4502
 3040TIP3    H2 9085   5.132   0.021   5.315 -0.1088 -0.6133  1.9716
 3041TIP3   OH2 9086   5.808   3.052   1.326 -0.3889  0.4025  0.7214
 3041TIP3    H1 9087   5.828   3.038   1.234 -0.6981 -1.2594  0.8867
 3041TIP3    H2 9088   5.850   2.979   1.372  1.2073  2.0816  2.1206
 3042TIP3   OH2 9089   1.189   5.831   5.096 -0.1376  0.2001  0.3099
 3042TIP3    H1 9090   1.113   5.780   5.123 -0.4378 -0.1757 -1.1838
 3042TIP3    H2 9091   1.156   5.890   5.029  0.9502 -0.1929 -0.5943
 3043TIP3   OH2 9092   0.465   2.459   2.376  0.4409 -0.4556  0.5449
 3043TIP3    H1 9093   0.502   2.472   2.289  2.2522  0.0524  1.3647
 3043TIP3    H2 9094   0.426   2.543   2.399  0.8175 -0.3072  0.6305
 3044TIP3   OH2 9095   7.034   0.244   2.479 -0.1840 -0.3654 -0.0760
 3044TIP3    H1 9096   6.939   0.251   2.477 -0.2291 -0.9018 -0.2526
 3044TIP3    H2 9097   7.065   0.325   2.518 -0.7050 -0.0976 -0.2201
 3045TIP3   OH2 9098   3.745   6.508   4.460 -0.2037 -0.4404 -0.5199
 3045TIP3    H1 9099   3.774   6.577   4.521 -1.2914  0.0417 -0.5299
 3045TIP3    H2 9100   3.708   6.440   4.517 -2.5097  0.6155 -0.6414
 3046TIP3   OH2 9101   4.277   5.786   4.733 -0.1044 -0.0025  0.0954
 3046TIP3    H1 9102   4.267   5.817   4.642  0.7598 -0.2018 -0.0734
 3046TIP3    H2 9103   4.366   5.812   4.757 -0.3746  0.1573  0.9347
 3047TIP3   OH2 9104   5.845   3.458   5.220 -0.4213 -0.2602 -0.4312
 3047TIP3    H1 9105   5.937   3.460   5.248 -0.4665  0.6523 -0.3184
 3047TIP3    H2 9106   5.798   3.507   5.288 -1.0453 -1.0258 -0.3068
 3048TIP3   OH2 9107   7.035   1.373   3.881  0.4654 -0.1364  0.5769
 3048TIP3    H1 9108   7.013   1.389   3.789 -3.2618 -3.4697  0.6043
 3048TIP3    H2 9109   6.995   1.446   3.928  1.9319  1.3067 -0.3064
 3049TIP3   OH2 9110   0.960   5.952   3.233  0.2346 -0.6560 -0.6575
 3049TIP3    H1 9111   0.896   5.944   3.305  0.2914  2.4991 -0.1132
 3049TIP3    H2 9112   1.045   5.955   3.277  0.3563  0.1447 -0.9340
 3050TIP3   OH2 9113   4.779   3.378   1.146  0.2677  0.1963  0.0955
 3050TIP3    H1 9114   4.856   3.435   1.155  1.0727 -1.1622  2.6761
 3050TIP3    H2 9115   4.812   3.290   1.164 -1.8484 -0.4542  1.0487
 3051TIP3   OH2 9116   1.715   5.917   0.469  0.0416 -0.2687 -0.2777
 3051TIP3    H1 9117   1.797   5.960   0.495 -0.6290  1.2372 -0.5850
 3051TIP3    H2 9118   1.650   5.987   0.468 -2.0722 -1.9596  3.1626
 3052TIP3   OH2 9119   5.865   4.797   5.885 -0.3199 -0.1650  0.0953
 3052TIP3    H1 9120   5.892   4.796   5.794 -1.2756 -0.4650 -0.1975
 3052TIP3    H2 9121   5.772   4.774   5.883 -0.4435  0.1821  1.1110
 3053TIP3   OH2 9122   2.380   0.289   4.415 -0.1708  0.0500 -0.0011
 3053TIP3    H1 9123   2.330   0.349   4.360  1.2374  0.4546 -0.8788
 3053TIP3    H2 9124   2.372   0.325   4.503 -0.4868  0.7286 -0.3040
 3054TIP3   OH2 9125   2.118   6.617   2.739 -0.1056 -0.2617 -0.3507
 3054TIP3    H1 9126   2.039   6.628   2.686 -1.2495 -1.3588  1.0561
 3054TIP3    H2 9127   2.131   6.702   2.780 -1.3339 -0.4087  0.4011
 3055TIP3   OH2 9128   2.600   5.224   3.955  0.3668 -0.5031  0.1976
 3055TIP3    H1 9129   2.565   5.313   3.946 -0.3697 -0.9806 -3.0747
 3055TIP3    H2 9130   2.631   5.202   3.867  1.2892 -3.1993  1.1039
 3056TIP3   OH2 9131   1.155   5.830   5.524 -0.0237  0.4114  0.0413
 3056TIP3    H1 9132   1.163   5.827   5.619  0.1248 -1.7032 -0.0007
 3056TIP3    H2 9133   1.237   5.871   5.495 -1.1389  3.4550  0.8798
 3057TIP3   OH2 9134   4.723   4.675   5.766  0.2327  0.0898  0.3703
 3057TIP3    H1 9135   4.665   4.691   5.840  0.1268  0.6482  0.1724
 3057TIP3    H2 9136   4.801   4.728   5.785  1.0848 -1.3509  1.0831
 3058TIP3   OH2 9137   5.603   6.040   5.849  0.0861 -0.0252  0.0019
 3058TIP3    H1 9138   5.576   5.954   5.880  3.1727 -1.2382 -0.2612
 3058TIP3    H2 9139   5.696   6.046   5.872  0.2561  2.8089 -0.9411
 3059TIP3   OH2 9140   4.860   4.799   4.421  0.5029  0.5625 -0.1494
 3059TIP3    H1 9141   4.854   4.788   4.327 -1.2116  2.4860 -0.3319
 3059TIP3    H2 9142   4.947   4.837   4.435  0.3452  1.3202 -1.0998
 3060TIP3   OH2 9143   3.788   1.625   4.383  0.4503  0.2917 -0.4909
 3060TIP3    H1 9144   3.866   1.667   4.418  1.8742 -1.3295 -1.5744
 3060TIP3    H2 9145   3.731   1.614   4.459  1.1665  1.6624  0.2905
 3061TIP3   OH2 9146   6.887   0.231   5.099 -0.3214 -0.8738  0.5673
 3061TIP3    H1 9147   6.938   0.149   5.098  1.0674 -0.0389  0.3709
 3061TIP3    H2 9148   6.872   0.251   5.007  3.7975  1.6792  0.2108
 3062TIP3   OH2 9149   1.002   2.780   3.468  0.1078 -0.6859 -0.7306
 3062TIP3    H1 9150   1.007   2.820   3.382 -1.4641  0.8812 -0.1587
 3062TIP3    H2 9151   1.046   2.843   3.526 -0.4515 -0.8300 -0.1385
 3063TIP3   OH2 9152   6.648   3.164   3.143 -0.4945  0.0701 -0.4578
 3063TIP3    H1 9153   6.627   3.218   3.219  0.8196  0.8090 -0.5798
 3063TIP3    H2 9154   6.641   3.074   3.174  2.7087  0.3327  1.3963
 3064TIP3   OH2 9155   4.730   4.378   1.551  0.8159  0.5309 -0.0589
 3064TIP3    H1 9156   4.666   4.441   1.585  0.9624  0.0194  1.2247
 3064TIP3    H2 9157   4.805   4.386   1.610  0.8968 -0.7234  0.0251
 3065TIP3   OH2 9158   5.539   0.747   3.070  0.0226  0.2340  0.1420
 3065TIP3    H1 9159   5.465   0.799   3.041 -0.6748 -1.7567 -1.9375
 3065TIP3    H2 9160   5.506   0.657   3.074  2.0494 -0.5840  0.1673
 3066TIP3   OH2 9161   5.905   2.693   1.946 -0.1303  0.7912 -0.1914
 3066TIP3    H1 9162   5.861   2.626   1.892  2.2717  0.6990 -2.2226
 3066TIP3    H2 9163   5.923   2.764   1.884 -0.7282  2.4382  1.4569
 3067TIP3   OH2 9164   5.293   4.325   4.369  1.1169  0.5945  0.0192
 3067TIP3    H1 9165   5.249   4.248   4.333  0.9017  1.1291 -0.8804
 3067TIP3    H2 9166   5.281   4.393   4.304  0.2389  1.7736  1.3574
 3068TIP3   OH2 9167   2.463   1.747   3.023  0.7155 -0.3432 -0.0759
 3068TIP3    H1 9168   2.501   1.724   3.108 -2.1221 -4.0110  0.4427
 3068TIP3    H2 9169   2.503   1.686   2.961  1.0525  0.7675 -0.9965
 3069TIP3   OH2 9170   7.120   2.391   2.950 -0.4443 -0.4163 -0.0032
 3069TIP3    H1 9171   7.161   2.471   2.984 -0.6165 -0.1853 -0.3344
 3069TIP3    H2 9172   7.041   2.422   2.906  0.4618 -0.5684 -1.8126
 3070TIP3   OH2 9173   1.986   2.083   5.648 -0.1830 -0.2150  0.0724
 3070TIP3    H1 9174   2.017   2.092   5.558  0.4011 -2.1022  0.0362
 3070TIP3    H2 9175   1.922   2.012   5.644 -1.7218  1.0692  0.8223
 3071TIP3   OH2 9176   1.905   3.096   2.296  0.4688  0.1568 -0.5367
 3071TIP3    H1 9177   1.967   3.029   2.324  1.1471  0.7378 -0.6123
 3071TIP3    H2 9178   1.947   3.179   2.321 -1.2841  0.5146  1.5273
 3072TIP3   OH2 9179   5.694   3.249   4.284 -0.3233  0.3926  1.0322
 3072TIP3    H1 9180   5.696   3.182   4.216  2.0356  1.2140  0.1892
 3072TIP3    H2 9181   5.602   3.251   4.314 -1.4419 -0.0546 -2.0523
 3073TIP3   OH2 9182   3.133   5.576   5.701 -0.2947  0.0574 -0.0118
 3073TIP3    H1 9183   3.101   5.588   5.790 -1.2815 -0.2695 -0.3144
 3073TIP3    H2 9184   3.054   5.574   5.647  0.3247  1.2241 -1.0215
 3074TIP3   OH2 9185   5.213   4.194   5.232  0.0269 -0.8936  0.2899
 3074TIP3    H1 9186   5.222   4.284   5.264  0.9157 -1.8597  3.0528
 3074TIP3    H2 9187   5.296   4.176   5.188  1.1174 -1.2467  2.3656
 3075TIP3   OH2 9188   0.851   2.503   4.969  0.3307 -0.5106 -0.5983
 3075TIP3    H1 9189   0.823   2.462   5.050 -1.4236 -0.1544 -0.9693
 3075TIP3    H2 9190   0.900   2.435   4.923  0.0158 -1.2066  0.0806
 3076TIP3   OH2 9191   2.026   0.192   1.456 -0.0677  0.2561 -0.0174
 3076TIP3    H1 9192   2.040   0.101   1.482  0.8674  0.4253  0.1179
 3076TIP3    H2 9193   1.959   0.224   1.515  1.8866  0.5836  2.1871
 3077TIP3   OH2 9194   5.852   2.264   0.991  0.2248  0.3090  0.1659
 3077TIP3    H1 9195   5.808   2.282   1.074  1.6721  0.9559  0.8119
 3077TIP3    H2 9196   5.788   2.288   0.924 -1.6820 -1.9280  1.0290
 3078TIP3   OH2 9197   1.861   5.290   3.971  0.7158  0.4435 -0.1544
 3078TIP3    H1 9198   1.895   5.357   3.911  1.2727 -0.7221 -1.1835
 3078TIP3    H2 9199   1.911   5.211   3.950  0.0724 -0.3068  1.0307
 3079TIP3   OH2 9200   4.960   0.152   1.083  0.0294  0.3040  0.2332
 3079TIP3    H1 9201   5.051   0.122   1.079  0.2193  0.8848  0.1068
 3079TIP3    H2 9202   4.918   0.109   1.009  0.5220  1.0605 -0.5145
 3080TIP3   OH2 9203   7.188   0.110   4.899 -0.3587  0.1636  0.3519
 3080TIP3    H1 9204   7.205   0.088   4.991 -0.5720 -1.2011  0.0941
 3080TIP3    H2 9205   7.168   0.026   4.858  1.7858  0.3896 -1.3996
 3081TIP3   OH2 9206   3.964   3.914   5.591  0.3570  0.5005  0.2295
 3081TIP3    H1 9207   4.052   3.948   5.609  0.3704 -0.3342  1.9716
 3081TIP3    H2 9208   3.958   3.911   5.496  1.9691  1.2018  0.0801
 3082TIP3   OH2 9209   5.081   1.877   4.338  0.1722  0.5658 -0.4023
 3082TIP3    H1 9210   5.022   1.914   4.404 -0.1285  1.0950 -0.9529
 3082TIP3    H2 9211   5.026   1.868   4.260  0.4309 -0.4104 -0.4732
 3083TIP3   OH2 9212   0.299   2.211   4.285 -0.3075  0.4382 -0.8360
 3083TIP3    H1 9213   0.324   2.236   4.196  0.8428  1.2457 -0.3237
 3083TIP3    H2 9214   0.298   2.294   4.333  0.5775 -0.1382  0.2273
 3084TIP3   OH2 9215   6.171   0.476   0.880 -0.0483 -0.1235 -0.0648
 3084TIP3    H1 9216   6.261   0.508   0.889 -0.7719  1.9261  0.5527
 3084TIP3    H2 9217   6.168   0.437   0.793  1.1195  0.9621 -0.6259
 3085TIP3   OH2 9218   6.303   5.890   0.354  0.0063 -0.1013 -0.5101
 3085TIP3    H1 9219   6.302   5.796   0.368 -0.0180 -0.0093  0.1470
 3085TIP3    H2 9220   6.252   5.903   0.273 -0.0602 -0.6396 -0.5589
 3086TIP3   OH2 9221   4.844   2.197   1.638  0.1813  0.1236 -0.0069
 3086TIP3    H1 9222   4.873   2.277   1.682 -0.6542 -1.1467  3.0760
 3086TIP3    H2 9223   4.749   2.199   1.643  0.1547 -1.1623  0.3501
 3087TIP3   OH2 9224   6.810   0.315   5.841  0.1086  0.0504 -0.0370
 3087TIP3    H1 9225   6.745   0.322   5.911  0.4254  0.6669  0.2088
 3087TIP3    H2 9226   6.759   0.295   5.763 -0.3380  0.1533  0.2233
 3088TIP3   OH2 9227   6.056   4.252   0.230 -0.7783  0.4577 -0.0145
 3088TIP3    H1 9228   6.109   4.254   0.151 -0.9064 -0.7830 -0.1490
 3088TIP3    H2 9229   6.081   4.332   0.278  0.0512  0.6879 -0.8058
 3089TIP3   OH2 9230   4.669   2.591   5.262  0.1141  0.0412 -0.0355
 3089TIP3    H1 9231   4.649   2.498   5.262 -0.3061  0.1198 -0.7398
 3089TIP3    H2 9232   4.591   2.633   5.297 -0.6147  0.2744 -1.8201
 3090TIP3   OH2 9233   1.055   3.101   1.938 -0.2188  0.6002 -0.8232
 3090TIP3    H1 9234   0.968   3.135   1.959 -1.2439 -1.8498 -0.7409
 3090TIP3    H2 9235   1.076   3.138   1.853 -1.4981  0.9593 -0.9927
 3091TIP3   OH2 9236   3.149   1.013   0.514 -0.2041 -0.2248 -0.4486
 3091TIP3    H1 9237   3.203   0.955   0.460 -1.0548 -1.1864 -0.2956
 3091TIP3    H2 9238   3.069   0.963   0.530 -0.9240  0.9658 -0.2294
 3092TIP3   OH2 9239   2.793   2.300   5.049  0.2319 -0.1385 -0.1709
 3092TIP3    H1 9240   2.818   2.246   4.975  0.3390  0.2537 -0.4238
 3092TIP3    H2 9241   2.805   2.390   5.019  2.6176  0.0486  1.0920
 3093TIP3   OH2 9242   2.367   3.627   3.510  0.8387 -0.1609  0.2665
 3093TIP3    H1 9243   2.343   3.613   3.418 -0.4083 -0.8747  0.6814
 3093TIP3    H2 9244   2.319   3.561   3.558  2.2765 -0.4625  1.3642
 3094TIP3   OH2 9245   2.882   2.716   0.206  0.4358  0.7932  0.5194
 3094TIP3    H1 9246   2.788   2.699   0.201  0.4953  0.7424 -0.6057
 3094TIP3    H2 9247   2.924   2.632   0.187  0.7032  1.3886 -1.8480
 3095TIP3   OH2 9248   1.700   1.947   4.327  0.5708 -0.3414 -0.3904
 3095TIP3    H1 9249   1.745   1.972   4.246  2.2864 -1.6124  0.1044
 3095TIP3    H2 9250   1.667   1.859   4.311  1.9141 -1.0744  0.6019
 3096TIP3   OH2 9251   1.578   6.013   3.410 -0.1031  0.5062 -0.1555
 3096TIP3    H1 9252   1.570   5.989   3.502  1.3806 -1.1584 -0.4061
 3096TIP3    H2 9253   1.635   6.090   3.409  0.5224  0.0549  0.2789
 3097TIP3   OH2 9254   1.391   4.261   0.416  0.3123  0.4830  0.2215
 3097TIP3    H1 9255   1.410   4.237   0.506  0.7743  0.4615  0.1226
 3097TIP3    H2 9256   1.379   4.356   0.419  0.6733  0.5312  0.2530
 3098TIP3   OH2 9257   0.073   1.207   5.545  0.8520 -0.0851  0.1111
 3098TIP3    H1 9258   0.084   1.298   5.574  0.4780  0.5416 -1.6410
 3098TIP3    H2 9259   0.149   1.190   5.490  0.1219 -0.2890 -0.8651
 3099TIP3   OH2 9260   5.203   5.543   1.050 -0.0392 -0.0539 -0.7761
 3099TIP3    H1 9261   5.151   5.606   1.100  3.0534  1.5266  0.7693
 3099TIP3    H2 9262   5.199   5.462   1.102  0.7558  0.7104  0.5379
 3100TIP3   OH2 9263   1.655   2.529   5.428 -0.1538  0.1056  0.0598
 3100TIP3    H1 9264   1.721   2.473   5.469 -0.8161 -0.4243  0.4216
 3100TIP3    H2 9265   1.584   2.532   5.492 -0.5410  0.5494 -0.3910
 3101TIP3   OH2 9266   2.522   2.622   2.556  0.1373 -0.1896  0.1906
 3101TIP3    H1 9267   2.533   2.653   2.646  0.5950  0.1207  0.0318
 3101TIP3    H2 9268   2.427   2.615   2.544 -0.0269  1.8369  0.0148
 3102TIP3   OH2 9269   3.357   6.532   5.309 -0.1501 -0.1499  0.0574
 3102TIP3    H1 9270   3.320   6.487   5.233  0.9008 -0.3030 -0.3819
 3102TIP3    H2 9271   3.317   6.489   5.384  0.5462 -1.5845 -0.3579
 3103TIP3   OH2 9272   4.091   2.005   1.108  0.4804 -0.2258 -0.9444
 3103TIP3    H1 9273   4.077   1.968   1.195  0.1067  0.4038 -0.7303
 3103TIP3    H2 9274   4.107   1.929   1.052  1.5212 -0.5884 -0.1884
 3104TIP3   OH2 9275   4.571   3.541   3.118 -0.2903  0.3840 -0.1787
 3104TIP3    H1 9276   4.664   3.522   3.108 -0.7403 -3.4954  1.1675
 3104TIP3    H2 9277   4.568   3.618   3.175  2.0781  0.2395  0.2494
 3105TIP3   OH2 9278   2.592   1.761   3.528  0.1828 -0.1128  0.7574
 3105TIP3    H1 9279   2.631   1.699   3.467  0.4274 -0.0524  0.8524
 3105TIP3    H2 9280   2.497   1.749   3.516  0.2237 -0.5811  0.8521
 3106TIP3   OH2 9281   1.617   5.073   0.715 -0.3939 -0.0992  0.0402
 3106TIP3    H1 9282   1.552   5.114   0.772  1.0870  1.1361  0.9250
 3106TIP3    H2 9283   1.651   5.145   0.661  2.0155 -0.1111  1.3780
 3107TIP3   OH2 9284   5.942   6.176   0.540  0.4167  0.0316 -0.0558
 3107TIP3    H1 9285   5.925   6.175   0.446  0.2501  1.6279 -0.0620
 3107TIP3    H2 9286   6.035   6.156   0.548  0.6176  0.7095 -0.6208
 3108TIP3   OH2 9287   1.835   1.665   4.607 -0.2861  0.3015 -0.0156
 3108TIP3    H1 9288   1.875   1.593   4.559 -1.2273 -0.0734 -0.2647
 3108TIP3    H2 9289   1.775   1.622   4.668 -0.2038  0.8404  0.4566
 3109TIP3   OH2 9290   5.751   5.116   1.985 -0.4413 -0.5337 -0.2516
 3109TIP3    H1 9291   5.761   5.153   1.897  1.6969 -0.4717 -0.0366
 3109TIP3    H2 9292   5.767   5.022   1.973  1.2575 -0.3342  0.2388
 3110TIP3   OH2 9293   0.302   3.992   3.075  0.2504  0.1066  0.6933
 3110TIP3    H1 9294   0.268   4.068   3.028 -2.8210  0.9539  3.8595
 3110TIP3    H2 9295   0.372   4.027   3.129  4.1210 -0.9532 -3.0957
 3111TIP3   OH2 9296   3.347   5.683   2.740  0.3402 -0.0914 -0.3753
 3111TIP3    H1 9297   3.388   5.610   2.693  0.5737  0.3924 -0.9376
 3111TIP3    H2 9298   3.377   5.761   2.694  1.1373  0.4472  1.0141
 3112TIP3   OH2 9299   1.616   3.215   2.231 -0.5701  0.5924  0.1619
 3112TIP3    H1 9300   1.542   3.197   2.288  0.7985 -2.1972  1.2312
 3112TIP3    H2 9301   1.681   3.149   2.254  1.7662  2.0852 -1.6405
 3113TIP3   OH2 9302   2.655   3.281   1.472  0.2058  0.6923 -0.7753
 3113TIP3    H1 9303   2.611   3.352   1.518 -0.3393 -0.1403  0.0183
 3113TIP3    H2 9304   2.588   3.214   1.462  0.0504  1.1436 -3.5584
 3114TIP3   OH2 9305   4.708   1.866   3.931 -0.6731  0.6569 -0.0860
 3114TIP3    H1 9306   4.625   1.824   3.951  0.1100 -0.3335  1.3214
 3114TIP3    H2 9307   4.714   1.938   3.994 -0.6400  0.9773 -0.4514
 3115TIP3   OH2 9308   6.963   6.671   0.030  0.0081  0.3550  0.3077
 3115TIP3    H1 9309   6.894   6.654   0.094 -0.6766 -1.2622 -0.7740
 3115TIP3    H2 9310   7.044   6.646   0.075 -0.5166 -1.2664  0.4362
 3116TIP3   OH2 9311   0.842   3.842   3.079 -0.3774 -0.2487 -0.4537
 3116TIP3    H1 9312   0.845   3.816   2.987  0.8095  1.2374 -0.8741
 3116TIP3    H2 9313   0.874   3.932   3.080  0.1781 -0.4213  1.4747
 3117TIP3   OH2 9314   2.483   2.968   2.889 -0.4285  0.0971 -0.1966
 3117TIP3    H1 9315   2.415   2.923   2.840 -0.7032  0.0666  0.2026
 3117TIP3    H2 9316   2.533   2.898   2.930 -0.9196  0.1491  0.5087
 3118TIP3   OH2 9317   5.166   1.167   4.680 -0.0241 -0.1502  0.9744
 3118TIP3    H1 9318   5.247   1.147   4.725  1.1834  1.9382 -0.1164
 3118TIP3    H2 9319   5.105   1.098   4.707  1.9748 -1.5504  2.1124
 3119TIP3   OH2 9320   6.990   5.176   0.483 -0.3815 -0.0188  0.2959
 3119TIP3    H1 9321   7.043   5.142   0.556 -0.1618 -0.9202 -0.2637
 3119TIP3    H2 9322   6.908   5.203   0.523 -0.1225 -0.1613  0.9343
 3120TIP3   OH2 9323   3.203   1.354   0.074  0.3113 -0.1279  0.0274
 3120TIP3    H1 9324   3.209   1.299   0.152 -1.2585 -0.7035 -0.2319
 3120TIP3    H2 9325   3.127   1.411   0.090 -1.2137 -1.5203 -1.8058
 3121TIP3   OH2 9326   6.967   5.879   5.062 -0.4134 -0.1261  0.1645
 3121TIP3    H1 9327   6.975   5.790   5.097  0.9034 -0.1347 -0.1137
 3121TIP3    H2 9328   6.901   5.921   5.118  0.2902 -0.7148  1.4610
 3122TIP3   OH2 9329   3.081   1.606   1.141 -0.2542  0.0127 -0.3654
 3122TIP3    H1 9330   3.174   1.594   1.161 -0.1185  0.0323 -0.9898
 3122TIP3    H2 9331   3.080   1.663   1.064 -0.8312  2.1102  1.1032
 3123TIP3   OH2 9332   6.621   0.293   5.458  0.6590  0.1400 -0.0563
 3123TIP3    H1 9333   6.640   0.204   5.488 -0.3962  0.3335  1.2502
 3123TIP3    H2 9334   6.546   0.283   5.400  1.4012  0.0225 -1.0119
 3124TIP3   OH2 9335   1.002   4.012   0.588 -0.0587  0.2518 -0.0377
 3124TIP3    H1 9336   1.076   3.985   0.644  0.1970  1.6395  0.3262
 3124TIP3    H2 9337   1.043   4.036   0.505 -0.1137  0.8265  0.0975
 3125TIP3   OH2 9338   5.064   2.683   4.057  0.5326 -0.0921 -0.2125
 3125TIP3    H1 9339   5.040   2.608   4.112  1.3641 -0.7873 -0.7791
 3125TIP3    H2 9340   5.072   2.756   4.119 -0.3942 -0.4341  0.3301
 3126TIP3   OH2 9341   5.306   5.983   1.676 -0.8545 -0.0939  0.0613
 3126TIP3    H1 9342   5.211   5.978   1.664 -1.0456  2.0478  0.2294
 3126TIP3    H2 9343   5.319   5.963   1.769 -1.2371  0.3755  0.2226
 3127TIP3   OH2 9344   1.087   1.448   2.112 -0.3032 -0.8021 -0.4610
 3127TIP3    H1 9345   1.175   1.484   2.126 -0.7567 -0.2632  1.1306
 3127TIP3    H2 9346   1.028   1.511   2.153 -1.2841 -2.2315  0.3977
 3128TIP3   OH2 9347   5.191   2.679   1.780  0.1620 -0.2858 -0.3632
 3128TIP3    H1 9348   5.158   2.733   1.709  2.1226 -0.0780 -1.1861
 3128TIP3    H2 9349   5.113   2.647   1.824 -1.0769  1.5148 -1.1334
 3129TIP3   OH2 9350   7.027   4.434   0.145  0.6687 -0.5189 -0.9181
 3129TIP3    H1 9351   7.040   4.359   0.087  1.7338 -0.9056 -0.2210
 3129TIP3    H2 9352   7.017   4.396   0.232  0.5269  0.1175 -0.6452
 3130TIP3   OH2 9353   2.126   2.445   5.454  0.0179  0.4914 -0.4652
 3130TIP3    H1 9354   2.074   2.497   5.394 -0.4605  0.2268 -0.2880
 3130TIP3    H2 9355   2.106   2.354   5.431  1.5651  0.3561 -1.4025
 3131TIP3   OH2 9356   2.202   0.839   4.330 -0.4301 -0.0196  0.2865
 3131TIP3    H1 9357   2.259   0.774   4.290 -0.4084  0.5963 -0.7428
 3131TIP3    H2 9358   2.133   0.853   4.265 -0.0985  1.4135  0.2043
 3132TIP3   OH2 9359   1.774   1.532   5.125  0.3553  0.3509 -0.1463
 3132TIP3    H1 9360   1.782   1.627   5.114  1.1855  0.4953  1.4522
 3132TIP3    H2 9361   1.680   1.518   5.136  0.2936  1.0894  0.3422
 3133TIP3   OH2 9362   0.335   4.976   0.985  0.4132  0.6262 -0.1316
 3133TIP3    H1 9363   0.389   4.907   1.023  1.0556  1.6060  0.7991
 3133TIP3    H2 9364   0.323   5.039   1.056 -1.8073  0.5406 -0.3675
 3134TIP3   OH2 9365   6.305   5.922   1.772 -0.6734  0.0383  0.1015
 3134TIP3    H1 9366   6.218   5.916   1.732 -0.0903  2.1995 -1.6536
 3134TIP3    H2 9367   6.354   5.849   1.733 -0.6153  1.1039 -1.9486
 3135TIP3   OH2 9368   1.072   2.276   4.453  0.4227 -0.0996  0.0732
 3135TIP3    H1 9369   1.043   2.226   4.376 -1.1751 -1.6995  1.5850
 3135TIP3    H2 9370   1.141   2.222   4.491  0.7044  0.3256  0.1683
 3136TIP3   OH2 9371   5.984   4.784   2.326 -0.5217  0.2038  0.0234
 3136TIP3    H1 9372   6.000   4.869   2.286 -2.8396  1.5483  1.7090
 3136TIP3    H2 9373   5.907   4.750   2.279 -0.8113 -0.0402  0.6556
 3137TIP3   OH2 9374   1.842   1.080   3.939 -0.0307  0.2222  0.0975
 3137TIP3    H1 9375   1.804   1.012   3.884 -1.0575 -0.2703  1.3610
 3137TIP3    H2 9376   1.874   1.034   4.016  1.9499  0.8161 -0.3082
 3138TIP3   OH2 9377   3.004   2.761   1.541 -0.1591 -0.8800 -0.3405
 3138TIP3    H1 9378   3.017   2.842   1.490 -0.5670  0.0476  0.9742
 3138TIP3    H2 9379   3.087   2.749   1.588  0.1387 -1.6094 -1.0436
 3139TIP3   OH2 9380   3.817   2.717   0.937 -0.0429  0.2542  0.7765
 3139TIP3    H1 9381   3.758   2.688   1.007 -0.2338 -1.6010 -0.0670
 3139TIP3    H2 9382   3.902   2.680   0.960 -0.7861 -3.4773 -1.5350
 3140TIP3   OH2 9383   4.686   3.836   1.602 -0.4468 -0.5674  0.6431
 3140TIP3    H1 9384   4.635   3.862   1.525  1.2739 -0.2086 -0.4255
 3140TIP3    H2 9385   4.756   3.901   1.607  1.7217 -2.7459  0.1958
 3141TIP3   OH2 9386   6.515   1.967   0.324 -0.0661  0.1356 -0.2049
 3141TIP3    H1 9387   6.574   1.921   0.382 -0.3902  0.9908  0.8391
 3141TIP3    H2 9388   6.526   1.924   0.239  0.0508 -1.4563  0.5831
 3142TIP3   OH2 9389   5.726   0.478   2.099  0.4761  0.0503  0.1382
 3142TIP3    H1 9390   5.720   0.413   2.029 -1.2807 -0.2176  0.4987
 3142TIP3    H2 9391   5.651   0.536   2.084 -1.0612 -1.0834  2.8246
 3143TIP3   OH2 9392   6.280   5.638   2.768 -0.2594 -0.3731 -0.0390
 3143TIP3    H1 9393   6.344   5.677   2.709 -0.9171  2.6104  1.0345
 3143TIP3    H2 9394   6.212   5.705   2.778 -1.4849 -1.7907  2.0120
 3144TIP3   OH2 9395   1.202   6.639   3.191 -0.1290 -0.3646  0.1545
 3144TIP3    H1 9396   1.231   6.548   3.192 -0.5717 -0.5772 -2.2706
 3144TIP3    H2 9397   1.110   6.636   3.214 -0.3349 -0.6270 -0.6867
 3145TIP3   OH2 9398   0.619   1.938   0.152  0.8001  0.0895 -0.0908
 3145TIP3    H1 9399   0.602   1.844   0.147  1.5548  0.0049 -2.7636
 3145TIP3    H2 9400   0.614   1.958   0.245 -0.7482 -2.3153  0.4451
 3146TIP3   OH2 9401   5.670   0.191   3.316 -0.1384 -0.0567 -0.4103
 3146TIP3    H1 9402   5.703   0.177   3.227 -1.1358  0.0299 -0.8141
 3146TIP3    H2 9403   5.694   0.281   3.337 -0.3741  0.1018 -0.8079
 3147TIP3   OH2 9404   1.905   6.694   5.158 -0.0284 -0.4335  0.2833
 3147TIP3    H1 9405   1.814   6.717   5.178  0.0573 -0.1953  0.4029
 3147TIP3    H2 9406   1.910   6.600   5.172 -0.3820 -0.5273 -0.1947
 3148TIP3   OH2 9407   4.433   1.413   0.501  0.3323 -0.6609  0.0000
 3148TIP3    H1 9408   4.481   1.460   0.432 -0.6057  0.3409 -0.0022
 3148TIP3    H2 9409   4.354   1.381   0.458  0.2095 -0.8813  0.3835
 3149TIP3   OH2 9410   4.072   3.017   3.656 -0.0357  0.6173 -0.2065
 3149TIP3    H1 9411   4.029   3.043   3.737  0.7603  1.7498 -0.1188
 3149TIP3    H2 9412   4.007   3.035   3.587 -0.2617  0.8570  0.0669
 3150TIP3   OH2 9413   5.423   2.863   3.158  0.1223  0.0523  0.5073
 3150TIP3    H1 9414   5.435   2.901   3.071  1.7688 -0.6636  0.3823
 3150TIP3    H2 9415   5.333   2.830   3.157  0.3194 -0.5376 -1.1730
 3151TIP3   OH2 9416   0.728   4.304   5.189  0.4849  0.2917 -0.9639
 3151TIP3    H1 9417   0.700   4.221   5.151  1.7675 -0.3602 -0.5280
 3151TIP3    H2 9418   0.738   4.363   5.114  0.1848 -0.1256 -1.3360
 3152TIP3   OH2 9419   6.731   3.797   1.199 -0.4623 -0.1105 -0.0091
 3152TIP3    H1 9420   6.640   3.793   1.170  0.3867 -0.5244 -3.0135
 3152TIP3    H2 9421   6.777   3.838   1.125  1.8085 -0.0033  1.3844
 3153TIP3   OH2 9422   1.602   1.418   3.673  0.1271 -0.1330 -0.0691
 3153TIP3    H1 9423   1.596   1.392   3.765  0.5965  1.4655  0.4511
 3153TIP3    H2 9424   1.616   1.335   3.626 -0.4412 -1.0151  1.2486
 3154TIP3   OH2 9425   2.709   2.611   3.690  0.6934 -0.1155  0.3482
 3154TIP3    H1 9426   2.641   2.612   3.622  0.6405  3.3301  0.2701
 3154TIP3    H2 9427   2.661   2.601   3.772  0.3692 -0.2330  0.1470
 3155TIP3   OH2 9428   2.863   0.687   2.969 -0.2610  0.1583 -0.4066
 3155TIP3    H1 9429   2.850   0.781   2.953 -0.6250  0.1025 -0.4313
 3155TIP3    H2 9430   2.953   0.671   2.940 -0.5100  0.3003 -1.2956
 3156TIP3   OH2 9431   4.066   5.265   2.733 -0.1562  0.0482  0.0372
 3156TIP3    H1 9432   4.081   5.242   2.641  1.8836 -1.6658  0.7195
 3156TIP3    H2 9433   4.125   5.339   2.749  0.4623 -0.5059  0.3065
 3157TIP3   OH2 9434   2.967   4.763   3.063 -0.5108 -0.9219 -0.6456
 3157TIP3    H1 9435   2.873   4.748   3.065 -0.7332  0.2650 -0.9240
 3157TIP3    H2 9436   2.975   4.859   3.058  0.7311 -0.9026  0.8874
 3158TIP3   OH2 9437   1.984   0.987   1.014 -0.1851 -0.1301 -0.3894
 3158TIP3    H1 9438   1.960   1.048   0.944 -0.5450  1.8062  1.3082
 3158TIP3    H2 9439   1.981   0.901   0.974  2.0834  1.0278 -3.4355
 3159TIP3   OH2 9440   4.786   5.744   5.670  0.3238  0.0136 -0.1274
 3159TIP3    H1 9441   4.763   5.725   5.761  1.4923 -0.4945  0.0765
 3159TIP3    H2 9442   4.818   5.834   5.671  3.6124 -1.0116  0.6737
 3160TIP3   OH2 9443   1.782   3.867   5.890  0.3890  0.0166 -0.1539
 3160TIP3    H1 9444   1.719   3.826   5.949  0.8472 -1.9831 -0.9490
 3160TIP3    H2 9445   1.736   3.871   5.806  0.2664  1.4309 -0.0318
 3161TIP3   OH2 9446   3.802   5.949   1.993  0.0105  0.4041 -0.2790
 3161TIP3    H1 9447   3.779   5.877   2.053 -0.7426  1.3015  0.5359
 3161TIP3    H2 9448   3.726   6.007   1.995  0.7902  1.4629 -0.5602
 3162TIP3   OH2 9449   0.070   4.436   4.595  0.2243  0.1167 -0.2219
 3162TIP3    H1 9450   0.043   4.354   4.555  1.2484 -0.1529 -0.4115
 3162TIP3    H2 9451   0.129   4.410   4.666 -1.5186  0.5899  1.4740
 3163TIP3   OH2 9452   1.820   4.825   2.313  0.3847  0.0180 -0.7132
 3163TIP3    H1 9453   1.799   4.775   2.392  3.9893 -1.0082 -0.2458
 3163TIP3    H2 9454   1.818   4.916   2.341 -1.7330 -0.0536 -0.4186
 3164TIP3   OH2 9455   1.151   5.933   2.529  0.3454 -0.4706  0.3641
 3164TIP3    H1 9456   1.085   5.875   2.491  1.6032 -0.7896 -1.4838
 3164TIP3    H2 9457   1.192   5.976   2.454  1.2941  0.7703  1.5360
 3165TIP3   OH2 9458   5.312   5.636   2.321 -0.1428 -0.1949  0.2275
 3165TIP3    H1 9459   5.313   5.540   2.325  2.5818 -0.2879 -0.5589
 3165TIP3    H2 9460   5.393   5.662   2.363  0.3594  1.6207 -1.6857
 3166TIP3   OH2 9461   2.837   4.588   1.861  0.0219  0.0730 -0.4692
 3166TIP3    H1 9462   2.858   4.517   1.800 -0.2376 -0.8616  0.5159
 3166TIP3    H2 9463   2.758   4.628   1.825  0.3854  0.1268 -1.2322
 3167TIP3   OH2 9464   6.351   6.697   1.144  0.3019 -0.1870  0.1631
 3167TIP3    H1 9465   6.325   6.605   1.143  0.3863 -0.2099  0.0675
 3167TIP3    H2 9466   6.385   6.714   1.056 -0.6949  0.2212 -0.1571
 3168TIP3   OH2 9467   5.823   1.792   1.830 -0.3058 -0.1866 -0.2099
 3168TIP3    H1 9468   5.840   1.776   1.923 -1.3299 -0.1558 -0.0024
 3168TIP3    H2 9469   5.777   1.713   1.800  1.1258 -0.7377 -1.0108
 3169TIP3   OH2 9470   4.150   1.629   4.562  0.3278 -0.3906  0.0139
 3169TIP3    H1 9471   4.069   1.678   4.569  2.0084  2.4443  1.3330
 3169TIP3    H2 9472   4.188   1.655   4.478  0.0664 -1.4754 -0.4650
 3170TIP3   OH2 9473   3.118   2.490   0.205  0.1459 -0.0197 -0.5106
 3170TIP3    H1 9474   3.143   2.559   0.266  0.5705  0.1161 -0.8348
 3170TIP3    H2 9475   3.114   2.411   0.259 -1.0290  0.3713  0.0001
 3171TIP3   OH2 9476   2.290   5.376   4.467  0.0736  0.3741  0.0894
 3171TIP3    H1 9477   2.271   5.437   4.396 -0.9806 -0.3211 -0.2462
 3171TIP3    H2 9478   2.251   5.417   4.544  1.2184  1.1294  0.2951
 3172TIP3   OH2 9479   1.428   3.811   4.949  0.4909 -0.4543 -0.0387
 3172TIP3    H1 9480   1.394   3.851   5.029 -3.0642 -0.8999 -1.1700
 3172TIP3    H2 9481   1.505   3.863   4.927  0.2761  1.0637  2.4407
 3173TIP3   OH2 9482   1.725   5.735   3.459 -0.2395  0.0488  0.2242
 3173TIP3    H1 9483   1.757   5.721   3.548 -1.8180  1.3053  1.0315
 3173TIP3    H2 9484   1.632   5.751   3.469 -0.5009 -0.0357 -1.6965
 3174TIP3   OH2 9485   1.586   2.801   4.904 -0.1575  0.5987 -0.7316
 3174TIP3    H1 9486   1.598   2.783   4.998 -3.4375 -1.6447 -0.5604
 3174TIP3    H2 9487   1.618   2.722   4.861  0.3026  1.1539 -1.4061
 3175TIP3   OH2 9488   6.606   5.337   4.209  0.0980  0.2668 -0.2397
 3175TIP3    H1 9489   6.576   5.388   4.284 -1.8700 -0.5332 -0.4374
 3175TIP3    H2 9490   6.576   5.385   4.132  0.5429  0.1588 -0.4911
 3176TIP3   OH2 9491   3.733   5.729   3.912 -0.7040 -0.6470 -0.4181
 3176TIP3    H1 9492   3.689   5.653   3.872 -0.1323 -1.1886 -0.0427
 3176TIP3    H2 9493   3.806   5.747   3.853 -0.2916 -0.9850 -0.0226
 3177TIP3   OH2 9494   2.154   5.980   2.089  0.1939 -0.4409  0.3217
 3177TIP3    H1 9495   2.179   6.032   2.165  1.7541  1.4911 -1.3950
 3177TIP3    H2 9496   2.061   5.998   2.076  0.7096  2.1346 -0.2839
 3178TIP3   OH2 9497   0.302   5.764   5.825 -0.3548 -0.1206  0.2860
 3178TIP3    H1 9498   0.224   5.800   5.868 -0.4483  0.6081 -0.4661
 3178TIP3    H2 9499   0.351   5.841   5.797 -0.1594 -0.5779 -0.6627
 3179TIP3   OH2 9500   6.011   3.703   3.963 -0.2086  0.8900 -0.3558
 3179TIP3    H1 9501   6.102   3.713   3.937 -0.0968 -0.0935 -0.3869
 3179TIP3    H2 9502   6.014   3.687   4.057 -0.2781  0.1317 -0.4716
 3180TIP3   OH2 9503   0.295   5.125   4.680 -0.3851  0.3073 -0.3447
 3180TIP3    H1 9504   0.368   5.170   4.638 -0.3837  0.1486 -0.5152
 3180TIP3    H2 9505   0.335   5.068   4.745 -0.4222  0.9883  0.2885
 3181TIP3   OH2 9506   5.501   5.521   5.216  0.1096 -0.6911  0.0766
 3181TIP3    H1 9507   5.467   5.500   5.129 -1.6258 -0.1671  0.6029
 3181TIP3    H2 9508   5.518   5.615   5.214 -1.6499 -0.3160  0.8216
 3182TIP3   OH2 9509   1.446   1.326   5.426  0.3887 -0.4025  0.0852
 3182TIP3    H1 9510   1.482   1.239   5.446  1.6018  0.1077  0.2002
 3182TIP3    H2 9511   1.460   1.377   5.505 -1.9149 -0.5556  0.6577
 3183TIP3   OH2 9512   3.638   1.792   4.219 -0.0592  0.9274  0.1822
 3183TIP3    H1 9513   3.691   1.726   4.264 -0.2831 -0.3490 -1.3632
 3183TIP3    H2 9514   3.697   1.829   4.153 -1.1216 -0.8247 -1.8661
 3184TIP3   OH2 9515   5.468   3.183   5.257 -0.4052 -0.1479  0.0943
 3184TIP3    H1 9516   5.516   3.184   5.174  1.1518  0.6003  0.9464
 3184TIP3    H2 9517   5.402   3.115   5.247  1.7306 -2.2366 -0.7000
 3185TIP3   OH2 9518   6.876   3.716   4.152 -0.0747  0.0900 -0.3494
 3185TIP3    H1 9519   6.785   3.689   4.161 -0.4257  1.4367  0.5938
 3185TIP3    H2 9520   6.871   3.812   4.145  1.2408  0.1433 -0.7281
 3186TIP3   OH2 9521   4.925   4.473   0.861  0.5815  0.0839  0.4227
 3186TIP3    H1 9522   4.895   4.404   0.802  0.5645  0.6261 -0.2289
 3186TIP3    H2 9523   4.899   4.444   0.948  1.3307 -1.1332  0.2663
 3187TIP3   OH2 9524   1.455   6.706   5.046 -1.1479  0.0191 -0.3615
 3187TIP3    H1 9525   1.367   6.679   5.020 -0.1544 -3.5454 -0.6569
 3187TIP3    H2 9526   1.511   6.676   4.974  0.3084  2.8000 -0.5115
 3188TIP3   OH2 9527   3.252   4.848   5.677  0.3121 -0.3989 -0.3806
 3188TIP3    H1 9528   3.215   4.760   5.668  0.9951 -0.6277 -1.1224
 3188TIP3    H2 9529   3.178   4.903   5.701 -0.2240 -1.0934 -0.4027
 3189TIP3   OH2 9530   0.377   1.509   1.422 -0.0732 -0.3907 -0.1275
 3189TIP3    H1 9531   0.458   1.492   1.469  0.0406  0.8186  0.1337
 3189TIP3    H2 9532   0.382   1.602   1.397 -1.2298 -0.3798 -0.3823
 3190TIP3   OH2 9533   5.378   5.115   2.505  0.4043  0.3910  0.0510
 3190TIP3    H1 9534   5.355   5.023   2.522  0.9840  0.4195  1.0776
 3190TIP3    H2 9535   5.442   5.136   2.573  0.2810  1.5604 -0.1841
 3191TIP3   OH2 9536   4.954   4.612   3.754 -0.8787 -0.1869 -0.2211
 3191TIP3    H1 9537   4.877   4.630   3.808 -0.3678 -1.6412  1.0688
 3191TIP3    H2 9538   4.998   4.540   3.798  1.4276  0.8103 -0.7206
 3192TIP3   OH2 9539   6.464   3.723   0.784  0.1958 -0.1148 -0.5606
 3192TIP3    H1 9540   6.530   3.675   0.835 -1.2180 -1.9410 -0.3628
 3192TIP3    H2 9541   6.412   3.770   0.850  1.6963  2.0151 -0.7628
 3193TIP3   OH2 9542   7.086   5.386   2.218 -0.5363  0.4413 -0.0767
 3193TIP3    H1 9543   7.119   5.384   2.308 -0.0986 -2.2402 -0.1966
 3193TIP3    H2 9544   7.024   5.313   2.213  1.6262 -1.4542 -2.6188
 3194TIP3   OH2 9545   0.507   6.365   3.466  0.6477  0.0511 -0.5011
 3194TIP3    H1 9546   0.495   6.271   3.457 -0.4782 -0.1136  1.9627
 3194TIP3    H2 9547   0.601   6.376   3.482  0.6535 -0.7515  0.0582
 3195TIP3   OH2 9548   6.523   3.533   3.578  0.0806  0.5523 -0.0077
 3195TIP3    H1 9549   6.516   3.488   3.494 -1.2816  0.9525 -0.1353
 3195TIP3    H2 9550   6.617   3.538   3.595  0.3253 -0.6823 -0.8767
 3196TIP3   OH2 9551   1.389   5.438   0.472  0.1759  0.2182  0.3545
 3196TIP3    H1 9552   1.346   5.396   0.547 -1.8555 -1.2408 -1.4806
 3196TIP3    H2 9553   1.325   5.432   0.401  2.1065  1.2446 -1.6117
 3197TIP3   OH2 9554   7.124  -0.025   2.509 -0.4043 -0.4751 -0.3515
 3197TIP3    H1 9555   7.194  -0.031   2.574 -1.0636  1.1634  0.5520
 3197TIP3    H2 9556   7.118   0.068   2.489 -0.9172 -0.8373 -2.0199
 3198TIP3   OH2 9557   4.936   5.718   0.158 -0.5371  0.3025  0.4103
 3198TIP3    H1 9558   4.889   5.773   0.096  1.9950  0.1933 -1.8262
 3198TIP3    H2 9559   5.003   5.775   0.196 -0.6574 -0.1834  1.3793
 3199TIP3   OH2 9560   1.963   0.460   3.833  0.5693 -0.1037 -0.1280
 3199TIP3    H1 9561   1.932   0.371   3.851  0.6952 -0.0277  0.4728
 3199TIP3    H2 9562   2.052   0.449   3.800  0.2523 -0.2595 -0.9457
 3200TIP3   OH2 9563   2.027   2.842   4.231  0.2275 -0.1468 -0.2285
 3200TIP3    H1 9564   1.982   2.877   4.307  0.9230  0.4254 -0.0681
 3200TIP3    H2 9565   1.974   2.767   4.204 -1.2913  1.0234 -0.5927
 3201TIP3   OH2 9566   6.149   3.292   0.816  0.4100 -0.9614 -0.2563
 3201TIP3    H1 9567   6.097   3.351   0.871  1.0902  0.0278 -0.6531
 3201TIP3    H2 9568   6.093   3.276   0.740  0.6116  0.0117 -0.6287
 3202TIP3   OH2 9569   1.882   5.940   3.357 -0.1965  0.3701  0.2038
 3202TIP3    H1 9570   1.810   5.881   3.379  0.4235  0.5675  3.1188
 3202TIP3    H2 9571   1.841   6.026   3.351 -0.3568  0.3311  0.7655
 3203TIP3   OH2 9572   2.085   0.443   2.758 -0.2036  0.0015  0.4914
 3203TIP3    H1 9573   2.027   0.412   2.689 -0.8330 -0.8146  1.3678
 3203TIP3    H2 9574   2.144   0.504   2.713 -0.7030 -0.3700 -0.7237
 3204TIP3   OH2 9575   3.319   6.716   3.424 -0.3874  0.2228  0.0151
 3204TIP3    H1 9576   3.245   6.686   3.476  0.6599 -0.5651  1.0833
 3204TIP3    H2 9577   3.311   6.812   3.424 -0.6740  0.2107  1.2194
 3205TIP3   OH2 9578   2.761   3.419   2.194  0.1787 -0.4007  0.0989
 3205TIP3    H1 9579   2.776   3.339   2.143  1.0112  0.1086 -0.4845
 3205TIP3    H2 9580   2.816   3.409   2.271  1.6817  0.3432 -0.8157
 3206TIP3   OH2 9581   3.466   6.196   2.930 -0.4333 -0.0150 -0.2773
 3206TIP3    H1 9582   3.390   6.243   2.965 -0.4698  0.4585 -0.9669
 3206TIP3    H2 9583   3.434   6.155   2.850  0.2941  1.0921 -1.1713
 3207TIP3   OH2 9584   3.266   1.253   1.692  0.5111 -0.1528  0.1484
 3207TIP3    H1 9585   3.190   1.272   1.637 -1.6420  0.1214  2.9180
 3207TIP3    H2 9586   3.282   1.335   1.739  3.3801  0.1520 -1.2112
 3208TIP3   OH2 9587   3.497   3.449   0.695 -0.3159 -0.8937  0.4666
 3208TIP3    H1 9588   3.515   3.475   0.786  1.5951 -2.7114  0.6809
 3208TIP3    H2 9589   3.576   3.473   0.648 -0.5107 -1.7553 -0.3167
 3209TIP3   OH2 9590   3.953   3.384   5.863 -0.0934  0.4061  0.0258
 3209TIP3    H1 9591   3.908   3.355   5.783  0.7222  0.9803 -0.6534
 3209TIP3    H2 9592   3.917   3.328   5.932 -1.0537  0.1281 -0.6842
 3210TIP3   OH2 9593   5.680   0.805   4.193  0.2950 -0.0564 -0.2250
 3210TIP3    H1 9594   5.721   0.723   4.164 -0.1176  0.4971 -2.5914
 3210TIP3    H2 9595   5.754   0.863   4.212  0.5954 -1.0032  1.7362
 3211TIP3   OH2 9596   0.171   2.497   4.352 -0.1455  0.7330  0.1295
 3211TIP3    H1 9597   0.117   2.574   4.369 -0.4120  0.2935  1.3714
 3211TIP3    H2 9598   0.112   2.434   4.311 -0.0787  0.9575 -0.3192
 3212TIP3   OH2 9599   3.691   3.223   0.464  0.3271 -0.1851 -0.1397
 3212TIP3    H1 9600   3.721   3.301   0.511 -0.5139  1.9150 -2.8946
 3212TIP3    H2 9601   3.763   3.202   0.404 -0.8414  0.7463 -1.9539
 3213TIP3   OH2 9602   1.977   0.747   1.384 -0.0154 -0.1348  0.2988
 3213TIP3    H1 9603   2.019   0.679   1.437 -1.2674 -0.6640  0.6365
 3213TIP3    H2 9604   2.049   0.805   1.359  0.8903 -0.9205  0.9955
 3214TIP3   OH2 9605   4.185   4.934   3.273  0.3642  0.2031  0.0467
 3214TIP3    H1 9606   4.225   4.898   3.194  0.0176 -0.7374  0.2948
 3214TIP3    H2 9607   4.254   4.988   3.312  1.1841 -0.8845  0.1280
 3215TIP3   OH2 9608   6.157   3.514   4.495  0.4111  0.6062  0.8914
 3215TIP3    H1 9609   6.113   3.531   4.578 -0.6080  2.1788  0.0932
 3215TIP3    H2 9610   6.176   3.601   4.460 -0.2000  0.0330 -1.0219
 3216TIP3   OH2 9611   5.486   5.510   0.779  0.2245  0.3740  0.5730
 3216TIP3    H1 9612   5.474   5.433   0.724  0.0947  0.4903  0.4377
 3216TIP3    H2 9613   5.580   5.511   0.800  1.1188  2.4028 -2.7488
 3217TIP3   OH2 9614   1.874   0.690   2.688  0.4182 -0.6554  0.1007
 3217TIP3    H1 9615   1.966   0.678   2.665  0.2191 -1.0866 -0.5218
 3217TIP3    H2 9616   1.861   0.784   2.687  1.1359 -0.5245  1.3793
 3218TIP3   OH2 9617   4.536   5.548   3.404  0.7597  0.2575  0.6378
 3218TIP3    H1 9618   4.532   5.508   3.491  1.7081  0.7788  0.9309
 3218TIP3    H2 9619   4.466   5.613   3.405 -0.0009 -0.5340  0.5820
 3219TIP3   OH2 9620   7.092   0.974   3.426 -0.1074  0.3812  0.0307
 3219TIP3    H1 9621   7.043   1.001   3.503 -0.2505  0.6067 -0.1373
 3219TIP3    H2 9622   7.165   1.035   3.421 -0.2536  0.5403 -0.1699
 3220TIP3   OH2 9623   2.552   4.641   4.051 -0.5205  0.1424  0.0594
 3220TIP3    H1 9624   2.561   4.609   4.141 -1.1760 -0.3614 -0.0470
 3220TIP3    H2 9625   2.584   4.569   3.997  0.2217  0.5879 -0.1066
 3221TIP3   OH2 9626   3.012   0.713   1.080 -0.4203 -0.3357 -0.1317
 3221TIP3    H1 9627   3.106   0.691   1.083 -0.1228  0.9047  0.1484
 3221TIP3    H2 9628   2.971   0.646   1.135  0.6942  0.8762  2.3717
 3222TIP3   OH2 9629   7.128   5.067   5.270 -0.1000 -0.2687  0.1758
 3222TIP3    H1 9630   7.129   5.050   5.176  2.8227  0.4196 -0.0253
 3222TIP3    H2 9631   7.122   4.980   5.310  1.8655 -0.8988 -0.7388
 3223TIP3   OH2 9632   5.488   0.377   0.921  0.3049 -0.3770 -0.5643
 3223TIP3    H1 9633   5.437   0.446   0.964  0.0589 -0.6455 -0.4194
 3223TIP3    H2 9634   5.558   0.424   0.875  0.7507 -0.1102  0.3646
 3224TIP3   OH2 9635   4.340   4.666   1.312 -0.4856  0.3205 -0.2201
 3224TIP3    H1 9636   4.253   4.699   1.333 -0.1968 -0.2438  2.2461
 3224TIP3    H2 9637   4.324   4.581   1.271 -1.0840  0.7388 -0.8850
 3225TIP3   OH2 9638   2.473   4.690   3.385 -0.5277 -0.6810  0.1065
 3225TIP3    H1 9639   2.449   4.681   3.478  0.1104 -1.9387  0.1718
 3225TIP3    H2 9640   2.533   4.764   3.384 -3.1210  1.5736  0.1497
 3226TIP3   OH2 9641   3.513   2.459   4.519 -0.3471  0.4147  0.5974
 3226TIP3    H1 9642   3.526   2.446   4.425 -3.0335 -0.9342  0.3129
 3226TIP3    H2 9643   3.474   2.546   4.526  1.7565  1.4147  0.7552
 3227TIP3   OH2 9644   2.322   0.234   2.943 -0.7315  0.5460  0.4711
 3227TIP3    H1 9645   2.341   0.153   2.991  1.6597  1.4552  1.1903
 3227TIP3    H2 9646   2.306   0.205   2.853 -2.0498 -0.8779  1.1081
 3228TIP3   OH2 9647   5.598   4.475   2.487 -0.1570 -0.3207 -0.2064
 3228TIP3    H1 9648   5.576   4.409   2.421  0.4356 -0.9136  0.1761
 3228TIP3    H2 9649   5.689   4.455   2.511 -0.4411 -0.2519  0.9497
 3229TIP3   OH2 9650   1.633   1.815   3.024  0.1491 -0.1753 -0.0176
 3229TIP3    H1 9651   1.655   1.768   3.105  1.9439 -0.5016 -0.6512
 3229TIP3    H2 9652   1.707   1.798   2.966 -0.6913  0.7954 -1.4200
 3230TIP3   OH2 9653   2.949   3.877   3.641 -0.0379  0.1827 -0.1450
 3230TIP3    H1 9654   2.974   3.816   3.572  0.2453  1.1095 -0.8869
 3230TIP3    H2 9655   3.032   3.912   3.674 -0.1643 -0.2815  0.7167
 3231TIP3   OH2 9656   3.755   2.244   5.319 -0.4774 -0.1736 -0.2218
 3231TIP3    H1 9657   3.711   2.321   5.355  0.9970  1.4191 -1.6027
 3231TIP3    H2 9658   3.696   2.212   5.251 -0.2394  1.0012 -1.0100
 3232TIP3   OH2 9659   3.037   4.617   3.346  0.5071  0.2900  0.0837
 3232TIP3    H1 9660   2.970   4.563   3.303  1.0399 -0.2784 -0.0428
 3232TIP3    H2 9661   2.994   4.701   3.359 -1.1851 -0.8279  2.4454
 3233TIP3   OH2 9662   7.152   1.823   4.279  0.1079 -0.1226  0.4462
 3233TIP3    H1 9663   7.216   1.808   4.350 -0.8968 -3.2148  0.8656
 3233TIP3    H2 9664   7.154   1.917   4.264  1.6051  0.4402  3.4366
 3234TIP3   OH2 9665   3.229   6.226   2.494 -0.2526  0.3296  0.0747
 3234TIP3    H1 9666   3.159   6.177   2.450 -0.8379  0.6669  0.6037
 3234TIP3    H2 9667   3.300   6.229   2.431  0.3093 -2.3169  0.4616
 3235TIP3   OH2 9668   2.269   2.870   3.248  1.0209 -0.4487  0.2055
 3235TIP3    H1 9669   2.246   2.960   3.271 -2.0750 -1.4347  1.4026
 3235TIP3    H2 9670   2.362   2.875   3.224  0.8714  3.1046 -0.2042
 3236TIP3   OH2 9671   5.966   6.376   1.647  0.4368  0.6308  0.4598
 3236TIP3    H1 9672   5.903   6.323   1.599 -0.2128  1.7591  0.0380
 3236TIP3    H2 9673   6.007   6.432   1.581  3.3463 -1.4006  0.3714
 3237TIP3   OH2 9674   5.886   0.436   5.014 -0.2266  0.2972  0.0078
 3237TIP3    H1 9675   5.950   0.463   5.080 -1.6916  2.1134  0.7864
 3237TIP3    H2 9676   5.870   0.344   5.033  0.1952  0.4964  1.5260
 3238TIP3   OH2 9677   5.245   4.850   2.278  0.0854 -0.4976  0.2187
 3238TIP3    H1 9678   5.291   4.897   2.208 -0.2432 -0.0406  0.3038
 3238TIP3    H2 9679   5.283   4.884   2.359  0.2076 -0.7555  0.2681
 3239TIP3   OH2 9680   6.261   2.800   4.275  0.0457 -0.3060 -0.4305
 3239TIP3    H1 9681   6.297   2.803   4.187 -2.6348  2.8851 -1.6086
 3239TIP3    H2 9682   6.306   2.871   4.321 -1.9109  1.2675 -0.8135
 3240TIP3   OH2 9683   5.410   3.506   5.759  0.0178 -0.2745  0.1796
 3240TIP3    H1 9684   5.318   3.526   5.777 -0.2565  0.6884 -2.0034
 3240TIP3    H2 9685   5.407   3.441   5.689  0.9608  0.8345 -0.9399
 3241TIP3   OH2 9686   3.023   4.220   2.606 -0.3711 -0.2024 -0.0138
 3241TIP3    H1 9687   2.939   4.253   2.638  0.1485  1.3161 -0.1677
 3241TIP3    H2 9688   3.072   4.298   2.580  1.0345 -1.0661 -0.0777
 3242TIP3   OH2 9689   1.347   0.580   3.453 -0.0570 -0.1151  0.2143
 3242TIP3    H1 9690   1.386   0.662   3.485  0.0607  0.3070 -0.9584
 3242TIP3    H2 9691   1.331   0.596   3.360 -0.2381 -1.3620  0.0167
 3243TIP3   OH2 9692   5.205   0.073   1.044  0.6507 -0.1047 -0.0125
 3243TIP3    H1 9693   5.230  -0.017   1.023 -1.0244 -0.1320 -2.2781
 3243TIP3    H2 9694   5.281   0.125   1.019  1.3686 -0.7968  0.6554
 3244TIP3   OH2 9695   4.726   0.868   3.268 -0.8064 -0.4975 -0.1843
 3244TIP3    H1 9696   4.764   0.782   3.285 -1.0271 -0.6133 -0.2692
 3244TIP3    H2 9697   4.726   0.876   3.172  2.0033  0.8596 -0.1463
 3245TIP3   OH2 9698   1.780   2.448   1.584  0.0165 -0.4980  0.3235
 3245TIP3    H1 9699   1.754   2.435   1.493 -0.4610 -1.8201  0.6217
 3245TIP3    H2 9700   1.810   2.362   1.613  2.1942  0.3602  0.8266
 3246TIP3   OH2 9701   2.685   3.489   5.380  0.2201 -0.1734 -0.2708
 3246TIP3    H1 9702   2.747   3.423   5.411  0.5470  0.0201 -0.5020
 3246TIP3    H2 9703   2.734   3.538   5.314 -0.5199 -0.6844 -1.2227
 3247TIP3   OH2 9704   6.219   6.678   5.639  0.2309 -0.2103 -0.4900
 3247TIP3    H1 9705   6.274   6.658   5.716  1.3605 -0.6023 -1.3705
 3247TIP3    H2 9706   6.265   6.749   5.595 -1.3503  1.2515  0.1141
 3248TIP3   OH2 9707   1.819   5.007   3.038  0.3445 -0.1644  0.4010
 3248TIP3    H1 9708   1.778   5.022   2.953  0.0156  0.0498  0.5963
 3248TIP3    H2 9709   1.913   5.018   3.021  0.1961  1.2078  0.3390
 3249TIP3   OH2 9710   1.035   6.310   0.680 -0.3934  0.1581  0.2320
 3249TIP3    H1 9711   0.963   6.370   0.702  0.0111  0.8466 -0.2763
 3249TIP3    H2 9712   1.112   6.348   0.723 -0.3822 -0.7723  1.0774
 3250TIP3   OH2 9713   5.341   0.270   5.539 -0.2486 -0.3265  0.4978
 3250TIP3    H1 9714   5.427   0.243   5.570  0.6240  0.9208 -0.7129
 3250TIP3    H2 9715   5.356   0.299   5.449 -2.1959 -1.3847 -0.2440
 3251TIP3   OH2 9716   1.900   0.258   4.555 -0.0879 -0.1318 -0.3537
 3251TIP3    H1 9717   1.912   0.228   4.466 -2.3613  0.0441 -0.7941
 3251TIP3    H2 9718   1.945   0.194   4.609  1.4214 -0.1689 -1.6156
 3252TIP3   OH2 9719   5.156   2.902   5.708 -0.2725  0.0243 -1.0589
 3252TIP3    H1 9720   5.189   2.906   5.798 -0.1135  0.8262 -1.1489
 3252TIP3    H2 9721   5.221   2.950   5.656 -1.3145  1.2384 -1.3014
 3253TIP3   OH2 9722   3.587   2.802   3.951  0.1667 -0.1904  0.1576
 3253TIP3    H1 9723   3.515   2.740   3.939 -0.5288  0.4914  0.7166
 3253TIP3    H2 9724   3.659   2.749   3.984 -0.1663 -0.8346 -0.1405
 3254TIP3   OH2 9725   2.173   1.297   0.115 -0.4339 -0.1303  0.3654
 3254TIP3    H1 9726   2.085   1.335   0.113 -0.7780 -0.7828  2.0927
 3254TIP3    H2 9727   2.198   1.297   0.207  0.9942 -0.8685  0.0082
 3255TIP3   OH2 9728   1.498   6.087   0.411 -0.0971  0.0764 -0.3678
 3255TIP3    H1 9729   1.444   6.038   0.349 -0.8490 -1.1149  1.1679
 3255TIP3    H2 9730   1.440   6.106   0.484  0.8881  1.0248  0.2054
 3256TIP3   OH2 9731   1.611   6.721   2.376 -0.2709 -0.3504 -0.3263
 3256TIP3    H1 9732   1.551   6.668   2.324 -0.6070 -1.3095  0.9758
 3256TIP3    H2 9733   1.570   6.724   2.463  1.4056 -0.7648  0.5179
 3257TIP3   OH2 9734   3.733   5.016   0.064 -0.3406 -0.4099 -0.1625
 3257TIP3    H1 9735   3.738   5.006   0.159  0.8193 -0.3609 -0.2043
 3257TIP3    H2 9736   3.685   4.939   0.034  0.2468 -0.9993  0.3707
 3258TIP3   OH2 9737   4.140   3.182   2.741  0.4052 -0.1298  0.1681
 3258TIP3    H1 9738   4.071   3.240   2.708  0.1846 -0.1781  0.5305
 3258TIP3    H2 9739   4.166   3.130   2.666 -0.0558 -0.2074  0.0586
 3259TIP3   OH2 9740   0.511   6.545   1.748 -0.1620 -0.4858  0.4061
 3259TIP3    H1 9741   0.531   6.637   1.765 -1.2397  0.0109 -0.8930
 3259TIP3    H2 9742   0.430   6.528   1.795 -1.3429 -0.0255 -1.3540
 3260TIP3   OH2 9743   4.712   3.474   4.055 -0.2237  0.2392 -0.1503
 3260TIP3    H1 9744   4.758   3.424   4.121 -3.1553 -0.4069  1.6019
 3260TIP3    H2 9745   4.667   3.408   4.002 -1.3918  0.8648  0.0196
 3261TIP3   OH2 9746   7.146   1.731   0.114 -0.2472 -0.4075 -0.0010
 3261TIP3    H1 9747   7.215   1.670   0.141 -0.9634 -2.6248 -2.5818
 3261TIP3    H2 9748   7.183   1.777   0.039 -0.5981  0.5180  0.3838
 3262TIP3   OH2 9749   0.634   1.542   1.494 -0.4539  0.2276  0.2983
 3262TIP3    H1 9750   0.667   1.544   1.404  0.4563 -1.9916  0.5111
 3262TIP3    H2 9751   0.706   1.576   1.546 -0.1181 -0.5294  0.3523
 3263TIP3   OH2 9752   0.583   5.699   4.132 -0.4882  0.1966 -0.0664
 3263TIP3    H1 9753   0.590   5.604   4.143 -0.7600  0.2240  0.4046
 3263TIP3    H2 9754   0.673   5.730   4.130 -0.3986  0.1114  1.5688
 3264TIP3   OH2 9755   0.965   6.289   2.191  0.4199 -0.5629  0.4807
 3264TIP3    H1 9756   0.913   6.266   2.269 -0.6182 -0.0604 -0.0400
 3264TIP3    H2 9757   1.029   6.352   2.223 -0.9204  0.7632  0.7029
 3265TIP3   OH2 9758   3.090   1.779   4.267 -0.4948  0.0682  0.1262
 3265TIP3    H1 9759   2.997   1.798   4.258 -0.2215  1.1215 -0.7214
 3265TIP3    H2 9760   3.115   1.818   4.351 -0.9984 -1.0279  0.7956
 3266TIP3   OH2 9761   5.827   2.088   0.427  0.2827  0.2826  0.3590
 3266TIP3    H1 9762   5.759   2.136   0.379  0.0218 -0.1674  0.2770
 3266TIP3    H2 9763   5.826   2.127   0.515  0.6846  1.0328  0.0400
 3267TIP3   OH2 9764   3.606   0.922   4.560  0.6723 -0.5935  0.8115
 3267TIP3    H1 9765   3.529   0.869   4.583 -0.5611  0.3808 -0.8073
 3267TIP3    H2 9766   3.609   0.990   4.627 -0.7289  0.1432  0.1837
 3268TIP3   OH2 9767   4.907   4.033   3.740 -0.1571 -0.6888 -0.1526
 3268TIP3    H1 9768   4.875   3.957   3.788  1.8930 -2.2909 -1.1527
 3268TIP3    H2 9769   4.827   4.079   3.712 -1.4327 -1.7245  1.5629
 3269TIP3   OH2 9770   4.562   1.338   1.903  0.2068  0.1455  0.0045
 3269TIP3    H1 9771   4.552   1.397   1.828  0.8538  0.4268  0.1345
 3269TIP3    H2 9772   4.650   1.356   1.936 -0.0010 -0.1189  0.7156
 3270TIP3   OH2 9773   3.647   6.239   4.871 -0.1624 -0.9802 -0.2373
 3270TIP3    H1 9774   3.595   6.244   4.952  1.9877 -0.0194  1.1803
 3270TIP3    H2 9775   3.694   6.155   4.879 -3.4705 -3.3421 -2.9152
 3271TIP3   OH2 9776   4.010   3.423   2.659  0.2231  0.1910  0.0909
 3271TIP3    H1 9777   4.056   3.496   2.618 -2.3714 -0.2835 -4.1778
 3271TIP3    H2 9778   3.928   3.459   2.690  0.3128 -0.3564  1.0344
 3272TIP3   OH2 9779   6.851   2.672   3.468  0.2931  0.2014 -0.1658
 3272TIP3    H1 9780   6.922   2.611   3.486  0.5107  0.5930  0.3460
 3272TIP3    H2 9781   6.891   2.742   3.416  0.5795  1.0053  1.0787
 3273TIP3   OH2 9782   2.209   0.494   1.991 -0.0858 -0.6467  0.4524
 3273TIP3    H1 9783   2.233   0.586   2.006 -1.2163 -0.4930  1.5401
 3273TIP3    H2 9784   2.216   0.482   1.896 -1.1691  0.9495  0.1347
 3274TIP3   OH2 9785   5.885   4.560   1.887 -0.9019  0.4246 -0.6937
 3274TIP3    H1 9786   5.890   4.479   1.938 -1.6535  0.9097  0.2086
 3274TIP3    H2 9787   5.969   4.603   1.901 -0.9473  0.3549 -0.1774
 3275TIP3   OH2 9788   1.377   4.947   4.322 -0.2358  0.6048 -0.0712
 3275TIP3    H1 9789   1.460   4.900   4.316 -0.1948  0.7722 -1.0248
 3275TIP3    H2 9790   1.332   4.927   4.239 -0.4161  1.8402 -0.2931
 3276TIP3   OH2 9791   0.411   1.305   3.542  0.0501 -0.4264  0.5016
 3276TIP3    H1 9792   0.402   1.252   3.463  2.0713 -0.3341  0.1557
 3276TIP3    H2 9793   0.342   1.372   3.534 -0.6461 -1.2256 -0.4818
 3277TIP3   OH2 9794   3.156   1.024   1.450  0.2043 -0.3082  0.8057
 3277TIP3    H1 9795   3.248   1.028   1.423 -0.4038  1.5707 -1.3680
 3277TIP3    H2 9796   3.152   0.952   1.512  2.8548 -1.4564 -0.1980
 3278TIP3   OH2 9797   2.293   4.276   2.660  0.1484 -0.4670 -0.0889
 3278TIP3    H1 9798   2.237   4.328   2.603 -1.5162 -2.1145 -0.0633
 3278TIP3    H2 9799   2.320   4.337   2.729 -1.6376  0.4041 -0.0982
 3279TIP3   OH2 9800   3.310   4.364   3.222 -0.4915  0.0527  0.1677
 3279TIP3    H1 9801   3.383   4.302   3.221 -0.8883 -0.4457  0.8780
 3279TIP3    H2 9802   3.351   4.450   3.228  0.0655 -0.3056  3.6293
 3280TIP3   OH2 9803   1.165   2.993   5.427 -0.0963 -0.5072  0.2322
 3280TIP3    H1 9804   1.137   2.950   5.346  1.6814 -2.3747  0.5250
 3280TIP3    H2 9805   1.156   2.926   5.494  0.1165  0.4611  1.2538
 3281TIP3   OH2 9806   3.996   2.626   3.623  0.0630 -0.7691 -0.1176
 3281TIP3    H1 9807   4.053   2.570   3.675  1.5793  0.9278  0.1315
 3281TIP3    H2 9808   3.981   2.704   3.677  0.7608  0.5427 -1.7144
 3282TIP3   OH2 9809   2.710   5.204   5.725  0.0347  0.6055  0.2510
 3282TIP3    H1 9810   2.783   5.178   5.781  0.7449  0.0685 -0.8931
 3282TIP3    H2 9811   2.750   5.253   5.654 -0.5638 -0.6641 -1.0008
 3283TIP3   OH2 9812   2.587   0.405   1.255  0.1497 -0.6796 -0.7918
 3283TIP3    H1 9813   2.508   0.452   1.281 -0.6648 -2.2547 -0.2658
 3283TIP3    H2 9814   2.619   0.366   1.336  1.9105  0.5078 -0.8671
 3284TIP3   OH2 9815   1.334   1.065   0.363 -0.3295  0.0679 -0.2694
 3284TIP3    H1 9816   1.262   1.099   0.309 -2.2681  0.6542  2.4854
 3284TIP3    H2 9817   1.383   1.144   0.388 -0.3004 -0.0417  0.0107
 3285TIP3   OH2 9818   6.915   1.834   2.588  0.1489 -0.1864  0.4516
 3285TIP3    H1 9819   6.943   1.743   2.572 -1.0211 -0.3074 -1.1262
 3285TIP3    H2 9820   6.820   1.830   2.589  0.0895  0.9067  1.3702
 3286TIP3   OH2 9821   4.425   3.219   2.802 -0.4831  0.3425  0.1622
 3286TIP3    H1 9822   4.330   3.225   2.787 -0.6322 -2.3054 -0.5191
 3286TIP3    H2 9823   4.461   3.196   2.716  0.2749 -2.2148  1.0698
 3287TIP3   OH2 9824   1.533   6.218   4.184 -0.0752 -0.0754  0.4293
 3287TIP3    H1 9825   1.525   6.138   4.236  0.2155  1.3065  2.7480
 3287TIP3    H2 9826   1.452   6.221   4.132 -1.2746 -0.6488  2.1593
 3288TIP3   OH2 9827   6.173   5.459   2.535  0.2261 -0.3578  0.0933
 3288TIP3    H1 9828   6.149   5.390   2.597 -0.8169  0.3860  0.5269
 3288TIP3    H2 9829   6.171   5.540   2.586  0.4940  0.1248 -0.6446
 3289TIP3   OH2 9830   1.037   0.111   5.280 -0.2375  0.5267  0.3369
 3289TIP3    H1 9831   1.086   0.030   5.266 -2.6471 -1.0827  0.6703
 3289TIP3    H2 9832   1.006   0.105   5.370 -3.9728 -0.3507 -0.8504
 3290TIP3   OH2 9833   5.218   3.152   1.641  0.7030 -0.0502 -0.6721
 3290TIP3    H1 9834   5.280   3.083   1.665  0.4680  0.0724  0.3457
 3290TIP3    H2 9835   5.176   3.176   1.724 -0.7140 -0.1336 -1.3420
 3291TIP3   OH2 9836   0.630   2.456   4.208  0.5638 -0.3401  0.0979
 3291TIP3    H1 9837   0.571   2.455   4.284  1.0990 -0.6180  0.5136
 3291TIP3    H2 9838   0.571   2.460   4.132  0.0105 -0.6613  0.5041
 3292TIP3   OH2 9839   0.138   3.332   2.241 -0.4858 -0.2707 -0.1417
 3292TIP3    H1 9840   0.112   3.407   2.188 -1.8670 -0.0349  0.7985
 3292TIP3    H2 9841   0.089   3.343   2.323  1.1156 -0.9272  0.9497
 3293TIP3   OH2 9842   3.069   6.342   4.151 -0.1618 -0.5952  0.0522
 3293TIP3    H1 9843   3.043   6.334   4.059  3.2314 -1.7685 -0.9692
 3293TIP3    H2 9844   3.083   6.436   4.164 -1.0464 -0.3789 -0.4688
 3294TIP3   OH2 9845   6.250   1.763   0.331  0.2521  0.1825  0.6412
 3294TIP3    H1 9846   6.292   1.848   0.318  1.3502 -0.2907  1.0116
 3294TIP3    H2 9847   6.322   1.703   0.349 -0.5371 -0.7737  0.6815
 3295TIP3   OH2 9848   3.271   2.764   3.603 -0.1600 -0.3884 -0.4617
 3295TIP3    H1 9849   3.219   2.745   3.525 -0.0197 -1.1231 -0.3782
 3295TIP3    H2 9850   3.360   2.742   3.579 -0.0189 -0.0193 -0.2915
 3296TIP3   OH2 9851   3.715   3.342   3.278 -0.4651 -0.6434 -0.6114
 3296TIP3    H1 9852   3.625   3.330   3.246  0.0324  0.8177 -2.7669
 3296TIP3    H2 9853   3.762   3.265   3.246 -0.0609  0.6221 -3.3157
 3297TIP3   OH2 9854   7.233   2.168   2.496 -0.0536  0.2086  0.1299
 3297TIP3    H1 9855   7.173   2.147   2.425  0.4694 -0.7173 -0.0562
 3297TIP3    H2 9856   7.196   2.123   2.572  1.7251 -2.6096 -0.5296
 3298TIP3   OH2 9857   5.626   4.896   1.658  0.5201  0.1889 -0.1894
 3298TIP3    H1 9858   5.622   4.821   1.599  0.8777  0.9899 -1.2649
 3298TIP3    H2 9859   5.536   4.906   1.690  0.4905 -0.7525  0.0455
 3299TIP3   OH2 9860   1.200   2.901   1.743  0.7773  0.0757 -0.3170
 3299TIP3    H1 9861   1.148   2.976   1.769  1.3641  0.7784 -1.1145
 3299TIP3    H2 9862   1.257   2.883   1.819 -1.2320 -1.3209  0.9524
 3300TIP3   OH2 9863   1.291   0.870   2.380 -0.0976 -0.1639  0.0829
 3300TIP3    H1 9864   1.238   0.934   2.428  0.0650  0.5137 -0.6181
 3300TIP3    H2 9865   1.359   0.844   2.441  1.8070  2.7783 -0.6060
 3301TIP3   OH2 9866   7.177   4.830   0.548 -0.2512  0.1389  0.3613
 3301TIP3    H1 9867   7.147   4.819   0.458  1.1834  1.0819 -0.2681
 3301TIP3    H2 9868   7.220   4.747   0.570  0.8480  0.4804 -0.4290
 3302TIP3   OH2 9869   5.578   6.390   3.501  0.1369  0.5763  0.2587
 3302TIP3    H1 9870   5.585   6.483   3.479 -1.0021  0.1813 -2.0008
 3302TIP3    H2 9871   5.503   6.385   3.560  0.2294  1.0638  0.4253
 3303TIP3   OH2 9872   3.566   2.275   3.545  0.4632 -0.1294 -0.6233
 3303TIP3    H1 9873   3.512   2.353   3.556 -0.3209 -0.5864 -1.1957
 3303TIP3    H2 9874   3.592   2.277   3.453  1.0167 -0.1856 -0.4751
 3304TIP3   OH2 9875   3.400   6.511   1.317 -0.1601  0.1763  0.0391
 3304TIP3    H1 9876   3.463   6.446   1.286  0.2514  0.2162  0.7838
 3304TIP3    H2 9877   3.390   6.493   1.410  0.9068  1.9493  0.5485
 3305TIP3   OH2 9878   6.395   6.660   0.841 -0.2728 -0.1938 -0.6601
 3305TIP3    H1 9879   6.448   6.701   0.774 -0.4942 -0.4173 -0.9742
 3305TIP3    H2 9880   6.321   6.620   0.794 -0.6896  0.0615 -0.2409
 3306TIP3   OH2 9881   2.194   5.042   5.104 -0.2286  0.0131  0.0392
 3306TIP3    H1 9882   2.231   5.107   5.046 -0.0635 -0.4064 -0.3282
 3306TIP3    H2 9883   2.116   5.084   5.141  0.6320  0.9105  0.8572
 3307TIP3   OH2 9884   0.724   0.263   4.515  0.7833  0.3612 -0.5524
 3307TIP3    H1 9885   0.677   0.239   4.435 -0.3899  0.1267  0.1861
 3307TIP3    H2 9886   0.664   0.240   4.586  1.7534  0.6849  0.3940
 3308TIP3   OH2 9887   4.216   5.449   4.830 -0.5142 -0.4293 -0.5538
 3308TIP3    H1 9888   4.213   5.361   4.791 -2.5766 -1.9890  2.7335
 3308TIP3    H2 9889   4.270   5.438   4.908  1.1326  1.8984 -1.2722
 3309TIP3   OH2 9890   0.167   2.433   5.875 -0.2996  0.2810 -0.8279
 3309TIP3    H1 9891   0.188   2.483   5.954 -0.7803 -0.4580 -0.2179
 3309TIP3    H2 9892   0.103   2.488   5.828 -1.4072 -0.0862  0.2132
 3310TIP3   OH2 9893   0.478   5.932   4.381  0.2030  0.4226 -0.3137
 3310TIP3    H1 9894   0.528   5.860   4.343  0.2926  0.8461 -1.0046
 3310TIP3    H2 9895   0.489   5.921   4.476  0.4401 -0.3047 -0.4184
 3311TIP3   OH2 9896   1.282   3.642   2.576 -0.0525 -0.1590  0.7209
 3311TIP3    H1 9897   1.328   3.721   2.602  0.4721 -0.6675  1.3701
 3311TIP3    H2 9898   1.216   3.672   2.513  0.8326  0.6434  0.1560
 3312TIP3   OH2 9899   1.844   2.644   0.248  0.6049  0.3337  0.1795
 3312TIP3    H1 9900   1.784   2.647   0.173  0.1921 -1.9464  0.3559
 3312TIP3    H2 9901   1.789   2.619   0.322  1.5498 -0.6836  0.5661
 3313TIP3   OH2 9902   6.293   4.187   3.354 -0.5960  0.2181 -0.3536
 3313TIP3    H1 9903   6.285   4.103   3.308  0.6733  0.6524 -1.4191
 3313TIP3    H2 9904   6.279   4.253   3.287 -1.0172  0.8784  0.3651
 3314TIP3   OH2 9905   4.450   2.345   3.882 -0.0891  0.1113  0.1985
 3314TIP3    H1 9906   4.476   2.302   3.800 -0.5115  0.5393 -0.1696
 3314TIP3    H2 9907   4.497   2.428   3.882 -2.3746  1.5063 -1.1335
 3315TIP3   OH2 9908   1.640   3.913   5.129 -0.0534 -0.4914  0.5821
 3315TIP3    H1 9909   1.638   3.975   5.202 -2.3214 -1.8190  1.7592
 3315TIP3    H2 9910   1.717   3.859   5.145 -0.0012 -0.1680  1.4826
 3316TIP3   OH2 9911   5.751   2.613   5.131 -0.2222  0.4373  0.4875
 3316TIP3    H1 9912   5.763   2.652   5.044  2.7341  2.2249  1.5489
 3316TIP3    H2 9913   5.821   2.548   5.138 -2.4020 -2.0689  0.4314
 3317TIP3   OH2 9914   6.773   5.188   3.435 -0.3251 -0.1751  0.1317
 3317TIP3    H1 9915   6.699   5.242   3.409 -1.0633 -1.6202 -0.8986
 3317TIP3    H2 9916   6.823   5.174   3.355  0.7423  0.2503  0.6923
 3318TIP3   OH2 9917   1.837   2.484   2.188  0.3607  0.0468 -0.0427
 3318TIP3    H1 9918   1.825   2.429   2.266  1.1761 -1.0426 -0.6594
 3318TIP3    H2 9919   1.865   2.423   2.120 -1.3843  0.7978 -1.5111
 3319TIP3   OH2 9920   7.025   2.990   1.615 -0.1590  0.3918 -0.3705
 3319TIP3    H1 9921   7.023   2.923   1.683  1.1932 -1.1119 -1.7041
 3319TIP3    H2 9922   6.980   2.949   1.540  2.1733  0.2022 -1.7729
 3320TIP3   OH2 9923   0.241   4.976   1.391  0.4405 -0.2155 -0.0264
 3320TIP3    H1 9924   0.302   4.903   1.382  0.1758 -0.4462  0.0276
 3320TIP3    H2 9925   0.168   4.954   1.332  0.4287  0.0778 -0.1243
 3321TIP3   OH2 9926   2.337   3.517   3.222 -0.0962  0.7059  0.7094
 3321TIP3    H1 9927   2.255   3.475   3.248  1.2652 -1.0253  2.4324
 3321TIP3    H2 9928   2.316   3.558   3.138 -1.9782 -2.1269 -0.3677
 3322TIP3   OH2 9929   0.877   3.190   2.129  0.2612  0.0973 -0.3141
 3322TIP3    H1 9930   0.895   3.281   2.149  1.3277 -0.2125  0.2168
 3322TIP3    H2 9931   0.803   3.192   2.068 -0.5485  1.2481  0.6722
 3323TIP3   OH2 9932   1.138   4.240   0.837  0.1693  0.2833 -0.3063
 3323TIP3    H1 9933   1.208   4.304   0.825  0.7198  0.2162  2.1669
 3323TIP3    H2 9934   1.174   4.158   0.803  1.8336 -0.0289  2.0274
 3324TIP3   OH2 9935   2.706   2.387   5.734 -0.0245  0.3970 -0.0199
 3324TIP3    H1 9936   2.613   2.379   5.714  0.2468 -0.4550 -1.0655
 3324TIP3    H2 9937   2.741   2.298   5.721  1.1662  0.9770 -0.9423
 3325TIP3   OH2 9938   4.750   6.734   4.317  0.4570  0.4726  0.0314
 3325TIP3    H1 9939   4.728   6.772   4.232  0.3652  0.7269  0.1688
 3325TIP3    H2 9940   4.717   6.644   4.312 -1.4554  1.1075  0.5768
 3326TIP3   OH2 9941   5.857   6.020   2.556  0.0208 -0.7710  0.2549
 3326TIP3    H1 9942   5.942   6.059   2.539 -0.5324  1.0210  1.3237
 3326TIP3    H2 9943   5.798   6.095   2.569 -1.6929 -1.9534 -0.2914
 3327TIP3   OH2 9944   2.183   5.961   0.857 -0.2228 -0.6155  0.6069
 3327TIP3    H1 9945   2.164   5.906   0.781 -1.0811 -1.9472  1.7195
 3327TIP3    H2 9946   2.261   6.010   0.833 -0.0763 -1.5121 -0.8610
 3328TIP3   OH2 9947   1.437   1.867   2.842  0.7516  0.5665 -0.6985
 3328TIP3    H1 9948   1.494   1.842   2.915 -1.3293 -1.4078  0.3895
 3328TIP3    H2 9949   1.402   1.953   2.867 -0.1510 -0.2002  0.8473
 3329TIP3   OH2 9950   5.252   1.922   5.181  0.4541 -0.3023 -0.3422
 3329TIP3    H1 9951   5.167   1.944   5.219 -0.1314  2.6978 -3.0272
 3329TIP3    H2 9952   5.231   1.870   5.104  0.7328  2.2744 -2.2853
 3330TIP3   OH2 9953   2.582   1.512   0.265 -0.3041 -0.6051  0.5031
 3330TIP3    H1 9954   2.632   1.567   0.325 -0.9362 -0.6208  1.0639
 3330TIP3    H2 9955   2.517   1.571   0.227 -0.2377 -0.7105  0.2257
 3331TIP3   OH2 9956   0.719   6.738   5.338 -0.0449  0.0850  0.0524
 3331TIP3    H1 9957   0.641   6.776   5.380 -0.7815 -1.5404  0.2537
 3331TIP3    H2 9958   0.699   6.740   5.244  0.4396  1.2661 -0.0330
 3332TIP3   OH2 9959   6.598   5.060   1.252 -0.5460 -0.2533  0.3556
 3332TIP3    H1 9960   6.635   5.120   1.317 -1.3856 -0.1189  0.7231
 3332TIP3    H2 9961   6.514   5.099   1.229 -0.8858 -1.0424  0.2387
 3333TIP3   OH2 9962   4.878   0.314   3.300  0.1285  0.2714 -0.2619
 3333TIP3    H1 9963   4.951   0.291   3.243  0.4214  1.5915 -0.4496
 3333TIP3    H2 9964   4.912   0.307   3.389  0.7926  1.7865 -0.3696
 3334TIP3   OH2 9965   1.750   1.465   5.503  0.2561  0.1062  0.3720
 3334TIP3    H1 9966   1.694   1.542   5.511  0.7445  0.2948  2.6292
 3334TIP3    H2 9967   1.796   1.459   5.587  3.0384 -0.5123 -1.0720
 3335TIP3   OH2 9968   0.101   4.016   1.944  0.3681 -0.3040  0.8262
 3335TIP3    H1 9969   0.060   4.003   2.029 -0.3422  1.6432  0.8325
 3335TIP3    H2 9970   0.182   3.965   1.948 -0.0462 -0.8997  2.3452
 3336TIP3   OH2 9971   0.764   3.608   1.576  0.2489  0.5120  0.0878
 3336TIP3    H1 9972   0.763   3.522   1.534 -2.7594  0.2644  0.4377
 3336TIP3    H2 9973   0.819   3.596   1.653 -0.8871 -1.4417  0.6677
 3337TIP3   OH2 9974   5.894   3.902   3.363  0.0495 -0.1788  0.4592
 3337TIP3    H1 9975   5.964   3.841   3.342  1.2283  1.2901 -0.0078
 3337TIP3    H2 9976   5.814   3.854   3.342  0.9192 -1.6334  0.3365
 3338TIP3   OH2 9977   5.323   4.753   2.867 -0.5244 -0.7130  0.4794
 3338TIP3    H1 9978   5.235   4.761   2.904 -0.3084 -0.2035  0.8867
 3338TIP3    H2 9979   5.360   4.677   2.910 -0.5639 -0.5971  0.7206
 3339TIP3   OH2 9980   5.268   2.527   0.424  0.4425 -0.3914  0.3001
 3339TIP3    H1 9981   5.212   2.449   0.431  1.3613 -1.0589  0.4861
 3339TIP3    H2 9982   5.339   2.500   0.366  1.0514  0.1365  0.7873
 3340TIP3   OH2 9983   4.816   1.777   4.629 -0.1490  0.0747 -0.3707
 3340TIP3    H1 9984   4.787   1.708   4.570  1.2740  0.3251 -1.4119
 3340TIP3    H2 9985   4.877   1.734   4.689  0.2970  0.2889 -0.6598
 3341TIP3   OH2 9986   4.634   0.033   5.569 -0.3173 -0.5276 -0.2447
 3341TIP3    H1 9987   4.717  -0.015   5.570 -0.8680 -1.5102 -0.3202
 3341TIP3    H2 9988   4.610   0.042   5.661 -0.3422 -0.6382 -0.2399
 3342TIP3   OH2 9989   0.670   4.009   4.691 -0.3854  0.3124  0.0346
 3342TIP3    H1 9990   0.740   4.069   4.664  0.0104 -0.4021 -0.5774
 3342TIP3    H2 9991   0.713   3.923   4.695 -1.1351 -0.0672  0.0535
 3343TIP3   OH2 9992   2.886   5.417   5.799 -0.0628  0.5302 -0.2959
 3343TIP3    H1 9993   2.953   5.369   5.847 -1.4664 -0.1808  1.0315
 3343TIP3    H2 9994   2.886   5.377   5.712 -1.0698 -1.8619  0.7069
 3344TIP3   OH2 9995   2.793   5.016   4.073 -0.6067 -0.2819  0.5448
 3344TIP3    H1 9996   2.723   5.068   4.033 -0.1805  0.3003  0.5453
 3344TIP3    H2 9997   2.824   4.960   4.002 -0.4090  0.1629  0.2734
 3345TIP3   OH2 9998   1.727   6.219   4.408 -0.5513 -0.1959  0.1598
 3345TIP3    H1 9999   1.702   6.157   4.476  0.8726 -0.1640  0.7532
 3345TIP3    H210000   1.644   6.249   4.371 -1.3021 -1.6876  0.5355
 3346TIP3   OH210001   0.867   1.233   1.365  0.5521 -0.2342  0.4386
 3346TIP3    H110002   0.913   1.197   1.441  0.2481 -1.3688  0.1087
 3346TIP3    H210003   0.905   1.188   1.290  0.1281  0.1088  0.0097
 3347TIP3   OH210004   4.185   4.796   4.940 -0.4111  0.2878  0.6327
 3347TIP3    H110005   4.250   4.769   5.005  0.3424  2.2531  0.7885
 3347TIP3    H210006   4.104   4.806   4.989  0.0897  1.5005  1.2580
 3348TIP3   OH210007   5.140   4.711   3.995  0.3784 -0.2601  0.2658
 3348TIP3    H110008   5.159   4.686   3.905 -1.1691 -1.7997  0.3170
 3348TIP3    H210009   5.048   4.688   4.008  0.2224  1.0275  1.8885
 3349TIP3   OH210010   5.248   2.285   4.763 -0.2909 -0.6254 -0.5399
 3349TIP3    H110011   5.337   2.267   4.795  0.2276  1.8856 -0.3766
 3349TIP3    H210012   5.224   2.207   4.713  1.6757 -1.6935  0.0903
 3350TIP3   OH210013   2.492   6.310   4.567 -0.3017  0.0965 -0.3706
 3350TIP3    H110014   2.558   6.351   4.510 -1.7556  1.8469 -0.8933
 3350TIP3    H210015   2.496   6.361   4.648 -0.1988 -0.5662  0.0442
 3351TIP3   OH210016   0.549   3.437   5.518  0.2396  0.0442  0.3995
 3351TIP3    H110017   0.462   3.444   5.478  0.9026  0.5422 -1.0216
 3351TIP3    H210018   0.537   3.467   5.608 -0.9872  0.4469  0.1128
 3352TIP3   OH210019   1.890   4.401   0.434  0.1847 -0.4933  0.5475
 3352TIP3    H110020   1.950   4.468   0.401 -1.4102  2.0222  2.3417
 3352TIP3    H210021   1.943   4.349   0.494  0.5424  2.2337  2.7963
 3353TIP3   OH210022   1.839   6.718   3.562 -0.6973  0.3157 -0.2568
 3353TIP3    H110023   1.781   6.672   3.502 -0.6200 -0.5881  0.3403
 3353TIP3    H210024   1.783   6.781   3.606 -1.4366 -1.0420  0.8493
 3354TIP3   OH210025   1.873   2.629   3.725 -1.0183  0.2677  0.5568
 3354TIP3    H110026   1.945   2.666   3.676 -1.6765  1.7215  0.6353
 3354TIP3    H210027   1.915   2.578   3.795 -0.0844  0.5036  0.1806
 3355TIP3   OH210028   4.470   6.799   4.432 -0.2501 -0.2427  0.0192
 3355TIP3    H110029   4.467   6.793   4.337 -1.1783  1.4638 -0.1025
 3355TIP3    H210030   4.503   6.714   4.461 -3.9671 -2.4539 -1.5820
 3356TIP3   OH210031   4.013   1.979   5.698 -0.0745 -0.0229  0.8815
 3356TIP3    H110032   4.050   1.899   5.661 -0.1244 -0.0830  0.9614
 3356TIP3    H210033   3.936   1.997   5.644  0.3131  0.3418  0.4421
 3357TIP3   OH210034   5.623   6.392   4.124  0.1978 -0.3515  0.1448
 3357TIP3    H110035   5.537   6.360   4.149 -0.1422 -0.1607 -0.7332
 3357TIP3    H210036   5.649   6.336   4.051  0.9487 -0.5997  0.6017
 3358TIP3   OH210037   3.032   1.709   2.757 -0.1229 -0.4040  0.0733
 3358TIP3    H110038   2.970   1.645   2.790 -2.0503  1.5303  0.4192
 3358TIP3    H210039   3.000   1.733   2.671  0.1640  0.5820  0.2244
 3359TIP3   OH210040   2.855   2.007   0.315  0.4944 -0.2705  0.2906
 3359TIP3    H110041   2.762   1.987   0.320  0.1442  1.3459  0.5481
 3359TIP3    H210042   2.864   2.063   0.237  1.0576  0.5403  0.9275
 3360TIP3   OH210043   4.062   4.972   2.714 -0.1279  0.1124  0.4267
 3360TIP3    H110044   4.071   5.057   2.670 -0.7177  0.3431  0.7375
 3360TIP3    H210045   3.983   4.934   2.677  0.1315 -0.2972  0.2971
 3361TIP3   OH210046   6.959   5.991   0.587  0.3583  0.5813  0.4353
 3361TIP3    H110047   6.894   6.038   0.535 -1.1449 -1.7715  0.0359
 3361TIP3    H210048   7.029   6.055   0.601 -1.6686  3.0134  0.2640
 3362TIP3   OH210049   2.404   4.519   5.870 -0.4792 -0.1437  0.9554
 3362TIP3    H110050   2.405   4.595   5.811  0.0866  1.0883  2.4818
 3362TIP3    H210051   2.353   4.548   5.945 -1.9732 -1.9961  0.7372
 3363TIP3   OH210052   7.084   1.737   4.904 -0.6306 -0.1245  0.3843
 3363TIP3    H110053   7.024   1.680   4.856  0.9175 -1.4941 -0.0255
 3363TIP3    H210054   7.131   1.679   4.963  2.7425  0.1346 -1.7657
 3364TIP3   OH210055   2.489   0.072   5.856  0.3636  0.3614  0.1065
 3364TIP3    H110056   2.465  -0.009   5.811  1.8873  0.6981 -1.3835
 3364TIP3    H210057   2.405   0.115   5.875 -0.3594 -0.3768 -1.3007
 3365TIP3   OH210058   6.569   6.386   1.783 -0.3112 -0.0181  0.6622
 3365TIP3    H110059   6.501   6.338   1.737  0.9178 -0.0590 -1.2139
 3365TIP3    H210060   6.532   6.403   1.870 -2.4690 -0.4947 -0.1096
 3366TIP3   OH210061   4.036   4.156   2.170  0.1848 -0.1203 -0.0774
 3366TIP3    H110062   4.064   4.216   2.102 -2.3869  1.4063  0.0794
 3366TIP3    H210063   4.079   4.188   2.249  2.1378 -1.1036 -0.6931
 3367TIP3   OH210064   0.468   6.050   2.415  0.4359 -0.1422 -0.3667
 3367TIP3    H110065   0.488   5.998   2.337  1.4357 -0.4719  0.0893
 3367TIP3    H210066   0.375   6.037   2.430  0.5454 -1.3061 -0.6252
 3368TIP3   OH210067   3.254   4.111   4.975  0.3550 -0.1506  0.6481
 3368TIP3    H110068   3.203   4.183   5.014  2.1820  1.4851  0.1566
 3368TIP3    H210069   3.215   4.098   4.889  0.4565  0.7950  0.4447
 3369TIP3   OH210070   0.165   2.574   3.425 -0.6816  0.3047  0.0733
 3369TIP3    H110071   0.207   2.558   3.510 -1.1244 -1.5964 -0.0207
 3369TIP3    H210072   0.235   2.559   3.361 -0.2227  2.1904  0.0574
 3370TIP3   OH210073   3.043   1.237   4.155 -0.6665  0.2479 -0.0286
 3370TIP3    H110074   3.085   1.320   4.178  1.5441 -0.9018  0.3921
 3370TIP3    H210075   2.995   1.213   4.234  0.0826  0.3201  0.4597
 3371TIP3   OH210076   2.679   2.544   0.474 -0.1689 -0.6966  0.2767
 3371TIP3    H110077   2.741   2.584   0.413  0.4057 -0.1330  1.1980
 3371TIP3    H210078   2.638   2.618   0.518 -0.5577 -1.0917  0.5840
 3372TIP3   OH210079   1.902   5.624   3.061 -0.4247  0.5137  0.1902
 3372TIP3    H110080   1.910   5.548   3.003 -0.3083  2.3076 -2.2875
 3372TIP3    H210081   1.991   5.657   3.070 -0.4440  0.2768  1.4503
 3373TIP3   OH210082   6.734   5.716   2.765  0.2574  0.1822 -0.3229
 3373TIP3    H110083   6.797   5.650   2.794 -1.8099 -2.0343 -0.4983
 3373TIP3    H210084   6.720   5.771   2.842  0.4917 -0.9002  0.5224
 3374TIP3   OH210085   1.349   5.983   1.335  0.2322 -0.0341  0.0049
 3374TIP3    H110086   1.347   6.076   1.357 -2.5133 -0.2359  0.8981
 3374TIP3    H210087   1.380   5.981   1.245  1.6589  1.5936  0.3852
 3375TIP3   OH210088   3.102   2.075   1.810 -0.0469 -0.1974  0.0590
 3375TIP3    H110089   3.140   1.996   1.849  0.2530 -0.8817 -1.5531
 3375TIP3    H210090   3.162   2.097   1.738 -0.6929  0.9036 -0.1635
 3376TIP3   OH210091   4.096   0.709   1.623  0.1063 -0.7117 -0.3223
 3376TIP3    H110092   4.168   0.648   1.643  0.1937 -0.9191 -1.2270
 3376TIP3    H210093   4.033   0.695   1.694  1.0903 -0.2960  0.6644
 3377TIP3   OH210094   4.835   2.768   3.916  0.3728 -0.1647 -0.4478
 3377TIP3    H110095   4.926   2.744   3.934 -0.0775 -1.7168 -0.1201
 3377TIP3    H210096   4.842   2.848   3.863  1.9402 -0.6256 -1.0056
 3378TIP3   OH210097   4.432   3.936   2.335  0.3255  0.4808  0.1697
 3378TIP3    H110098   4.462   3.925   2.245  0.1605  1.2763  0.0082
 3378TIP3    H210099   4.337   3.931   2.330  0.3500 -0.2554  0.4177
 3379TIP3   OH210100   2.854   2.790   0.856 -0.5794 -0.1097  0.1456
 3379TIP3    H110101   2.885   2.717   0.802  2.5962  0.6542  0.7574
 3379TIP3    H210102   2.868   2.867   0.803 -1.4007  0.3141  0.5192
 3380TIP3   OH210103   0.275   2.705   0.264  0.0244 -0.3305  0.0880
 3380TIP3    H110104   0.355   2.752   0.242 -0.7647  1.0668  0.0931
 3380TIP3    H210105   0.246   2.666   0.181 -0.8136  1.5991 -0.5750
 3381TIP3   OH210106   3.742   5.544   2.700 -0.1907  0.0956  0.1340
 3381TIP3    H110107   3.733   5.449   2.703 -1.0124  0.1888  2.4312
 3381TIP3    H210108   3.684   5.571   2.629 -0.4140 -1.0690 -0.1502
 3382TIP3   OH210109   3.121   4.394   3.451 -0.2188 -0.4429 -0.1115
 3382TIP3    H110110   3.190   4.393   3.384  0.9745 -1.3405  1.0666
 3382TIP3    H210111   3.063   4.465   3.425  1.9077  1.2763 -0.4445
 3383TIP3   OH210112   3.582   5.703   0.176 -0.8093 -0.4135 -0.4174
 3383TIP3    H110113   3.572   5.609   0.162 -0.9606 -0.4767  0.0766
 3383TIP3    H210114   3.621   5.735   0.095 -2.7192 -0.5471 -1.4520
 3384TIP3   OH210115   3.527   4.825   0.509 -0.2663  0.2987  0.5652
 3384TIP3    H110116   3.568   4.817   0.596  0.0863  0.8296  0.4504
 3384TIP3    H210117   3.458   4.889   0.522 -0.1330  0.4695  0.4221
 3385TIP3   OH210118   1.752   6.145   5.085 -0.0223 -0.2678 -0.4542
 3385TIP3    H110119   1.823   6.136   5.021 -0.6409  0.9234 -1.3565
 3385TIP3    H210120   1.675   6.111   5.040  0.1597 -2.9200  1.0345
 3386TIP3   OH210121   4.721   1.104   3.683  0.5157 -0.2291  0.4480
 3386TIP3    H110122   4.705   1.189   3.642  1.4599 -0.4044 -0.2952
 3386TIP3    H210123   4.798   1.117   3.737  0.7922 -0.6623  0.1674
 3387TIP3   OH210124   3.773   6.023   5.343  0.4893  0.7116 -0.5268
 3387TIP3    H110125   3.858   6.017   5.298  1.4349  0.5684  1.1904
 3387TIP3    H210126   3.774   6.111   5.382 -0.3887  0.8920 -0.8914
 3388TIP3   OH210127   6.198   0.895   2.153 -0.3720  0.2322 -0.4743
 3388TIP3    H110128   6.163   0.984   2.156 -0.6986  0.1568 -1.6745
 3388TIP3    H210129   6.288   0.906   2.123 -0.6124  0.1199 -1.2612
 3389TIP3   OH210130   5.308   3.881   2.599  0.0749  0.4441  0.7943
 3389TIP3    H110131   5.357   3.799   2.586  0.7721  1.0131 -0.2918
 3389TIP3    H210132   5.350   3.922   2.674  1.5033  1.0444 -0.2715
 3390TIP3   OH210133   1.166   2.129   3.970 -0.2969  0.9086  0.0913
 3390TIP3    H110134   1.257   2.151   3.993 -0.3854  1.0793  0.2740
 3390TIP3    H210135   1.136   2.205   3.919 -0.5054  1.0808  0.4695
 3391TIP3   OH210136   5.210   5.236   3.355  0.2368  0.5830  0.0394
 3391TIP3    H110137   5.220   5.331   3.350 -0.0458  0.6111 -0.0324
 3391TIP3    H210138   5.283   5.202   3.303  2.0893  0.6649  2.3922
 3392TIP3   OH210139   6.589   4.402   4.615 -0.1228 -0.4089 -0.4187
 3392TIP3    H110140   6.551   4.456   4.685  0.4855  0.1351 -0.5051
 3392TIP3    H210141   6.608   4.318   4.658 -0.0048 -0.1698  0.0067
 3393TIP3   OH210142   2.666   0.917   1.181  0.5045 -0.0579 -0.0893
 3393TIP3    H110143   2.584   0.959   1.207  0.2877 -0.0320 -0.7860
 3393TIP3    H210144   2.694   0.868   1.258  1.5241  2.5058  1.2971
 3394TIP3   OH210145   0.594   1.016   1.360 -0.2662  0.3331 -0.0788
 3394TIP3    H110146   0.597   1.092   1.418  0.0145  2.0234 -2.1725
 3394TIP3    H210147   0.501   1.004   1.341 -0.3359 -0.0558  0.4881
 3395TIP3   OH210148   5.547   0.481   3.434 -0.4025 -0.0666  0.0286
 3395TIP3    H110149   5.510   0.436   3.510  0.5133 -0.9974 -0.0478
 3395TIP3    H210150   5.613   0.540   3.470 -1.3344  0.9709  0.0960
 3396TIP3   OH210151   5.983   1.016   1.967 -0.5518 -0.2164 -0.5768
 3396TIP3    H110152   5.995   0.976   1.881 -0.9018 -1.3480 -0.1188
 3396TIP3    H210153   6.067   1.003   2.012 -0.1042  1.0634 -0.9987
 3397TIP3   OH210154   0.544   6.313   1.003  0.3729 -0.0069  0.1284
 3397TIP3    H110155   0.485   6.383   0.975  0.8561 -0.1524 -1.2982
 3397TIP3    H210156   0.618   6.318   0.943  0.6570 -1.4125  0.3325
 3398TIP3   OH210157   5.808   4.841   1.992  0.1661 -0.4803 -0.4933
 3398TIP3    H110158   5.860   4.771   1.954 -0.8507 -1.9155  0.6344
 3398TIP3    H210159   5.717   4.814   1.977 -0.2503  0.0245  0.9204
 3399TIP3   OH210160   5.033   5.025   3.364  0.2716 -0.6065 -0.1445
 3399TIP3    H110161   5.035   5.021   3.460 -0.2894 -1.3443 -0.1511
 3399TIP3    H210162   5.084   5.103   3.342  0.3920 -0.4184  0.7537
 3400TIP3   OH210163   2.014   5.861   2.629 -0.0658  0.2125 -0.4645
 3400TIP3    H110164   2.033   5.923   2.700 -0.3905 -0.0417 -0.1521
 3400TIP3    H210165   2.009   5.776   2.672  1.9967 -0.2898 -1.1287
 3401TIP3   OH210166   2.231   1.443   4.150  0.0161 -0.0545 -0.4037
 3401TIP3    H110167   2.169   1.487   4.092  0.3086 -0.7241 -1.2551
 3401TIP3    H210168   2.316   1.459   4.111  0.1266 -1.3732 -0.7733
 3402TIP3   OH210169   2.876   3.728   5.569 -0.0898  0.2500 -0.0290
 3402TIP3    H110170   2.926   3.794   5.521  0.5233 -0.6254 -0.6159
 3402TIP3    H210171   2.787   3.737   5.535  0.2072  0.0733 -0.8654
 3403TIP3   OH210172   3.576   6.137   1.984  0.1644 -0.1093  0.5136
 3403TIP3    H110173   3.537   6.190   2.053 -0.5328  0.9482 -0.6440
 3403TIP3    H210174   3.501   6.107   1.933  0.6211 -1.4202  0.5763
 3404TIP3   OH210175   5.424   0.778   0.898 -0.9134 -0.3454 -0.3508
 3404TIP3    H110176   5.357   0.716   0.929 -1.5708 -1.3222 -3.3063
 3404TIP3    H210177   5.379   0.862   0.895 -1.6494 -0.7509 -1.1042
 3405TIP3   OH210178   0.849   4.264   0.739  0.6446  0.3013  0.2764
 3405TIP3    H110179   0.939   4.236   0.755  0.1938 -1.3367  0.0935
 3405TIP3    H210180   0.796   4.186   0.754 -0.5811  0.7716 -1.2953
 3406TIP3   OH210181   4.311   6.713   1.081  0.4256 -0.6195 -0.1457
 3406TIP3    H110182   4.382   6.716   1.017  0.2646  0.5568 -0.3025
 3406TIP3    H210183   4.232   6.701   1.030  0.3997 -0.7376 -0.0776
 3407TIP3   OH210184   2.520   1.895   2.082  0.5386 -0.2480 -0.2647
 3407TIP3    H110185   2.497   1.804   2.059 -0.9728  0.1267 -0.3116
 3407TIP3    H210186   2.572   1.925   2.007 -0.6236 -0.4692 -1.2063
 3408TIP3   OH210187   4.047   4.913   0.006 -0.0156 -0.5109  0.0055
 3408TIP3    H110188   4.063   5.000  -0.030 -1.2749 -0.3998 -0.3400
 3408TIP3    H210189   3.991   4.928   0.082  0.0104 -0.9994  0.1286
 3409TIP3   OH210190   0.092   5.164   0.426  0.4711  0.7357  0.1930
 3409TIP3    H110191   0.028   5.228   0.395  0.8077  1.0986  0.2235
 3409TIP3    H210192   0.084   5.166   0.521  0.1591  0.3874  0.1761
 3410TIP3   OH210193   7.092   6.640   5.156  0.1543  0.0230 -0.3256
 3410TIP3    H110194   7.002   6.670   5.170  0.4512  0.8017 -0.0676
 3410TIP3    H210195   7.082   6.562   5.101 -0.6908 -0.0216 -0.1304
 3411TIP3   OH210196   2.853   2.729   3.492  0.3425  0.1744  0.0048
 3411TIP3    H110197   2.935   2.763   3.529  0.5759  1.0873 -1.2883
 3411TIP3    H210198   2.803   2.699   3.568  1.5383  0.3440  0.8866
 3412TIP3   OH210199   0.269   4.553   0.899 -0.6931  0.0288 -0.4493
 3412TIP3    H110200   0.270   4.602   0.817  2.4077  2.9289  1.0532
 3412TIP3    H210201   0.230   4.613   0.963  0.6241 -0.4895  0.9193
 3413TIP3   OH210202   4.875   2.790   0.628 -0.8065  0.2976 -0.0041
 3413TIP3    H110203   4.829   2.845   0.564 -0.7876  1.1454  0.6965
 3413TIP3    H210204   4.814   2.782   0.701 -1.8283 -2.6904 -1.0713
 3414TIP3   OH210205   2.171   5.084   3.797  0.0343 -0.0211 -0.1925
 3414TIP3    H110206   2.209   5.043   3.719 -0.2277  0.4086 -0.5505
 3414TIP3    H210207   2.207   5.172   3.798  0.5279 -0.2230  0.5285
 3415TIP3   OH210208   2.962   6.726   1.290  0.1138 -0.4180  0.5349
 3415TIP3    H110209   2.901   6.703   1.219  0.2113 -0.8543  0.5905
 3415TIP3    H210210   3.046   6.739   1.245  0.1028 -0.3648  0.5293
 3416TIP3   OH210211   0.777   4.371   4.908  0.1433  0.2377  0.0229
 3416TIP3    H110212   0.744   4.426   4.836 -0.3292  2.0207  1.5081
 3416TIP3    H210213   0.783   4.283   4.871 -3.7826  0.2721 -1.1946
 3417TIP3   OH210214   2.776   5.685   5.751  0.2032  0.1983  0.0731
 3417TIP3    H110215   2.697   5.700   5.802 -0.5803 -0.8587 -0.7956
 3417TIP3    H210216   2.825   5.620   5.802  0.8037  1.2637  0.8903
 3418TIP3   OH210217   0.050   2.039   0.793  0.1432  0.6821 -0.3051
 3418TIP3    H110218   0.058   2.077   0.881 -1.9885 -2.2026  1.3105
 3418TIP3    H210219  -0.013   2.096   0.749  0.8039  1.8547  0.2121
 3419TIP3   OH210220   4.575   4.364   5.146  0.0063 -0.2045 -0.1191
 3419TIP3    H110221   4.640   4.425   5.110 -1.0858  0.4336 -1.0908
 3419TIP3    H210222   4.616   4.277   5.137  1.8288  0.3720  1.8432
 3420TIP3   OH210223   2.892   5.311   5.541  0.1187  0.4511 -0.2816
 3420TIP3    H110224   2.830   5.282   5.474  0.2974 -0.5692 -0.0305
 3420TIP3    H210225   2.975   5.321   5.494  0.3702 -0.7886 -0.1349
 3421TIP3   OH210226   2.007   5.467   0.236  0.2190  0.3607 -0.4851
 3421TIP3    H110227   1.971   5.473   0.147  1.6155  2.2868 -0.9839
 3421TIP3    H210228   1.989   5.552   0.276  1.5554  0.3298  0.2640
 3422TIP3   OH210229   6.102   1.092   5.738  0.0021 -0.1403  0.4053
 3422TIP3    H110230   6.173   1.148   5.770  0.2240 -0.4501  0.4658
 3422TIP3    H210231   6.046   1.077   5.814 -0.3546  0.4333  0.2641
 3423TIP3   OH210232   3.005   5.369   5.237  0.5326 -0.4208 -0.5417
 3423TIP3    H110233   3.035   5.282   5.262  0.9463 -0.3612 -0.8347
 3423TIP3    H210234   2.953   5.355   5.158  1.0941 -0.3264 -0.9265
 3424TIP3   OH210235   3.052   2.991   3.736  0.1609  0.3588  0.0126
 3424TIP3    H110236   3.121   2.998   3.803  0.9492 -2.6656 -0.3294
 3424TIP3    H210237   2.976   2.959   3.784  0.2629 -0.3064 -0.2596
 3425TIP3   OH210238   2.948   3.737   0.558 -0.7937  0.2102 -0.2656
 3425TIP3    H110239   2.855   3.749   0.578 -0.8897 -0.6225 -0.2076
 3425TIP3    H210240   2.988   3.717   0.643 -0.6917 -0.2271 -0.4173
 3426TIP3   OH210241   1.327   4.593   1.426  0.1210 -0.0124 -0.2143
 3426TIP3    H110242   1.242   4.552   1.412 -0.3263  0.7128  0.3366
 3426TIP3    H210243   1.307   4.677   1.466  1.1138  0.0328  0.2114
 3427TIP3   OH210244   3.056   3.806   2.342  0.4150 -0.5021 -0.2759
 3427TIP3    H110245   3.070   3.787   2.435  1.1758 -1.0088 -0.4897
 3427TIP3    H210246   3.111   3.882   2.325  1.7244 -1.5173 -0.7325
 3428TIP3   OH210247   6.455   5.589   5.178 -0.3198  0.1840 -0.4469
 3428TIP3    H110248   6.504   5.603   5.097  0.4154 -0.4710 -0.1271
 3428TIP3    H210249   6.491   5.655   5.239  0.7913 -0.8296  0.0423
 3429TIP3   OH210250   0.288   2.890   2.647  0.7428 -0.2020 -0.0482
 3429TIP3    H110251   0.212   2.912   2.592  1.0300 -2.0046 -1.2486
 3429TIP3    H210252   0.257   2.903   2.737 -1.6472 -2.6326 -0.4059
 3430TIP3   OH210253   0.756   4.797   4.516  0.0378 -0.1425  0.3981
 3430TIP3    H110254   0.829   4.809   4.577 -0.2601  0.5648  0.6182
 3430TIP3    H210255   0.794   4.816   4.430  1.2724 -4.0138 -0.1159
 3431TIP3   OH210256   4.829   5.514   2.405 -0.2700 -0.2759  0.3383
 3431TIP3    H110257   4.801   5.592   2.454 -0.4332 -0.5411  0.6753
 3431TIP3    H210258   4.919   5.533   2.378 -0.1902 -0.1112  0.7159
 3432TIP3   OH210259   6.714   2.801   5.451 -0.3022  0.3866  0.3755
 3432TIP3    H110260   6.736   2.853   5.373 -1.8547  0.1999 -0.2367
 3432TIP3    H210261   6.771   2.725   5.446  0.9181  1.2746  0.4407
 3433TIP3   OH210262   5.505   4.075   1.313  0.8583  0.3059  0.0516
 3433TIP3    H110263   5.526   3.990   1.351  2.0512  0.4602 -0.2199
 3433TIP3    H210264   5.484   4.130   1.388  1.7728  0.2204  0.3905
 3434TIP3   OH210265   2.911   0.755   3.910 -0.2209  0.2678  0.0940
 3434TIP3    H110266   2.985   0.775   3.852  0.9125 -1.6350  0.7893
 3434TIP3    H210267   2.865   0.684   3.866  0.0961 -0.5440  1.0468
 3435TIP3   OH210268   3.612   1.238   3.049 -0.5079  0.3835  0.3853
 3435TIP3    H110269   3.620   1.332   3.063 -0.2625  0.3560  0.4279
 3435TIP3    H210270   3.701   1.209   3.027 -0.8531  0.4246 -1.1726
 3436TIP3   OH210271   5.498   1.826   1.092 -0.4235 -0.1330 -0.0285
 3436TIP3    H110272   5.531   1.907   1.131 -1.9989  0.2558  0.5693
 3436TIP3    H210273   5.556   1.758   1.126  0.0375  0.5671  0.6171
 3437TIP3   OH210274   5.594   0.437   2.932 -0.0360 -0.5052  0.3054
 3437TIP3    H110275   5.683   0.444   2.967 -0.6273 -0.3875  1.8463
 3437TIP3    H210276   5.538   0.428   3.009 -1.5620  1.3275 -0.5047
 3438TIP3   OH210277   0.989   1.476   5.602 -0.5372  0.2966  0.0453
 3438TIP3    H110278   1.007   1.538   5.531 -0.2409  1.3088  0.9844
 3438TIP3    H210279   1.044   1.400   5.581  1.1695  1.4065  0.2660
 3439TIP3   OH210280   0.333   5.666   1.663  0.4425  0.6390 -0.1173
 3439TIP3    H110281   0.240   5.654   1.678  0.4196 -0.3734 -0.9764
 3439TIP3    H210282   0.339   5.739   1.602  0.1747  0.3444 -0.5016
 3440TIP3   OH210283   5.396   1.415   4.660 -0.0554 -0.2476  0.4290
 3440TIP3    H110284   5.415   1.476   4.732  1.2795 -1.1174  0.8324
 3440TIP3    H210285   5.304   1.433   4.638  0.2652  1.8883  0.5479
 3441TIP3   OH210286   6.287   2.198   3.210 -0.2895 -0.4628 -0.0636
 3441TIP3    H110287   6.212   2.208   3.151 -0.4559 -0.1592  0.1964
 3441TIP3    H210288   6.360   2.173   3.153 -0.5759 -0.7159 -0.3258
 3442TIP3   OH210289   2.649   5.186   1.047  0.0189 -0.3685 -0.1744
 3442TIP3    H110290   2.562   5.208   1.012 -0.2434 -0.1142  0.5954
 3442TIP3    H210291   2.660   5.246   1.121  1.0339 -0.1232 -0.5067
 3443TIP3   OH210292   6.855   5.275   5.878 -0.5586 -0.2062 -0.1984
 3443TIP3    H110293   6.936   5.260   5.830 -0.6642 -3.2865  0.3574
 3443TIP3    H210294   6.792   5.301   5.810  0.4693  0.5417 -0.8963
 3444TIP3   OH210295   2.393   3.665   4.735 -0.1011  0.4055 -0.1029
 3444TIP3    H110296   2.413   3.575   4.708  0.0841 -0.5017  2.7193
 3444TIP3    H210297   2.461   3.718   4.694  0.9773 -1.0265 -0.2523
 3445TIP3   OH210298   5.066   0.942   1.825  0.0870 -0.2393  0.0946
 3445TIP3    H110299   4.992   0.999   1.846  0.1881 -0.1901  0.3073
 3445TIP3    H210300   5.026   0.855   1.813 -0.5557  0.3709 -3.2368
 3446TIP3   OH210301   1.395   5.720   1.019  0.1746 -0.0040 -0.0183
 3446TIP3    H110302   1.442   5.801   0.998  0.7346 -0.2739  0.1673
 3446TIP3    H210303   1.353   5.694   0.937  0.0944  0.4087 -0.1079
 3447TIP3   OH210304   4.166   4.328   4.045 -0.3880 -0.1562 -0.3342
 3447TIP3    H110305   4.095   4.311   3.983  1.6881 -2.2102 -2.3405
 3447TIP3    H210306   4.238   4.361   3.991  0.6724  0.5485  1.4101
 3448TIP3   OH210307   2.119   0.175   2.051  0.3175  0.3757  0.2491
 3448TIP3    H110308   2.094   0.131   1.969  1.8123  0.4850 -0.3072
 3448TIP3    H210309   2.106   0.109   2.119 -0.9276  0.2760 -0.0695
 3449TIP3   OH210310   2.700   4.163   1.541 -0.0654 -0.4765  0.0951
 3449TIP3    H110311   2.673   4.247   1.579  0.4605 -0.0207 -0.5106
 3449TIP3    H210312   2.638   4.100   1.576 -1.1022  0.3315 -0.2313
 3450TIP3   OH210313   4.256   3.369   1.994 -1.0011 -0.1650  0.1367
 3450TIP3    H110314   4.313   3.308   2.040  0.3839  0.3390 -0.8472
 3450TIP3    H210315   4.209   3.315   1.931  0.1126 -0.2662 -0.6334
 3451TIP3   OH210316   5.276   0.530   3.414  0.2190 -0.2265 -0.3484
 3451TIP3    H110317   5.305   0.612   3.455 -0.0760 -0.2997  0.0147
 3451TIP3    H210318   5.351   0.471   3.424  0.3114 -0.1035 -0.3083
 3452TIP3   OH210319   2.168   3.740   4.842 -0.3156 -0.0889 -0.2187
 3452TIP3    H110320   2.250   3.708   4.803 -0.8051 -0.8980 -0.6098
 3452TIP3    H210321   2.114   3.662   4.852 -1.2939  0.5194 -0.5858
 3453TIP3   OH210322   2.815   5.908   1.911 -0.1133 -0.0295 -0.1622
 3453TIP3    H110323   2.902   5.896   1.872  0.0053 -0.0068  0.0953
 3453TIP3    H210324   2.832   5.933   2.002 -0.3815 -2.7527  0.7424
 3454TIP3   OH210325   6.944   5.456   5.422  0.1020  0.6361 -0.5679
 3454TIP3    H110326   6.914   5.523   5.482 -0.8221 -0.0156 -0.2658
 3454TIP3    H210327   6.884   5.463   5.347  1.1625  1.3609 -1.3789
 3455TIP3   OH210328   1.718   0.971   4.282 -0.6752  0.1119 -0.2829
 3455TIP3    H110329   1.769   1.052   4.288 -0.5835 -0.0184  0.9262
 3455TIP3    H210330   1.659   0.974   4.357 -0.2376 -1.2276  0.1450
 3456TIP3   OH210331   6.825   3.358   2.991  0.2403  0.8816  0.1219
 3456TIP3    H110332   6.761   3.348   3.061 -1.3595  0.8424 -1.2797
 3456TIP3    H210333   6.893   3.294   3.010 -0.8219 -0.0241  0.9412
 3457TIP3   OH210334   0.520   1.333   5.028 -0.6054  0.0633 -0.1063
 3457TIP3    H110335   0.590   1.282   4.988  0.3509 -0.2013  1.7782
 3457TIP3    H210336   0.440   1.297   4.991  0.1511 -1.3596 -0.4370
 3458TIP3   OH210337   5.480   4.660   4.317  0.3430 -0.4975  0.3453
 3458TIP3    H110338   5.401   4.639   4.366 -0.3458  0.1165 -0.4816
 3458TIP3    H210339   5.499   4.583   4.265 -0.7337 -0.0180 -0.7859
 3459TIP3   OH210340   4.203   2.727   2.706  0.6619  0.5473 -0.0896
 3459TIP3    H110341   4.250   2.800   2.745  0.0229  0.2658  1.2824
 3459TIP3    H210342   4.139   2.768   2.647  1.3885  1.0078 -0.5612
 3460TIP3   OH210343   6.042   1.686   2.178  0.2075  0.1755  0.1653
 3460TIP3    H110344   6.097   1.688   2.100  0.1255  1.3219  0.1147
 3460TIP3    H210345   5.958   1.721   2.147 -1.1359 -3.0441 -0.1655
 3461TIP3   OH210346   1.414   0.822   0.327  0.2725  0.0951  0.0501
 3461TIP3    H110347   1.421   0.805   0.421 -0.4347 -1.4047 -0.1396
 3461TIP3    H210348   1.391   0.915   0.321  0.0673  0.1492  1.3664
 3462TIP3   OH210349   4.452   1.152   4.491  0.0527 -0.1261 -0.1197
 3462TIP3    H110350   4.519   1.105   4.442  0.5603  0.5499 -0.1004
 3462TIP3    H210351   4.500   1.194   4.563  0.0605  2.3066 -1.4293
 3463TIP3   OH210352   5.195   1.374   1.272 -0.6835  0.2498  0.0853
 3463TIP3    H110353   5.179   1.467   1.258 -3.0884 -0.0382  0.3863
 3463TIP3    H210354   5.108   1.338   1.291  0.5215 -1.6001  2.7344
 3464TIP3   OH210355   0.275   6.368   3.323 -0.4833 -0.3132 -0.1821
 3464TIP3    H110356   0.345   6.402   3.378  0.2150  1.1839 -1.8976
 3464TIP3    H210357   0.243   6.290   3.369  1.2608 -0.1512  1.3915
 3465TIP3   OH210358  -0.003   4.021   2.186  0.7607  0.5879 -0.0117
 3465TIP3    H110359  -0.057   4.099   2.200  1.6420  1.2813 -0.3534
 3465TIP3    H210360   0.072   4.033   2.244  0.9416  0.0146 -0.1163
 3466TIP3   OH210361   1.359   5.627   4.449 -0.9258  0.5352  0.0652
 3466TIP3    H110362   1.338   5.683   4.374  1.6264  0.7010 -0.6045
 3466TIP3    H210363   1.390   5.546   4.410 -0.8112  0.1348  0.9749
 3467TIP3   OH210364   2.640   1.677   5.288  0.1385 -0.3551  0.2936
 3467TIP3    H110365   2.623   1.617   5.360  0.1258 -1.0153 -0.2482
 3467TIP3    H210366   2.555   1.715   5.268  0.0092 -0.7059  0.1649
 3468TIP3   OH210367   6.335   0.422   0.107 -0.2143  0.3873  0.0131
 3468TIP3    H110368   6.273   0.493   0.090  0.8282  1.7775  1.7091
 3468TIP3    H210369   6.282   0.342   0.102 -1.4857  1.2538 -1.6109
 3469TIP3   OH210370   7.020   4.422   4.900 -0.1850 -0.0236  0.0976
 3469TIP3    H110371   7.090   4.367   4.934  0.2808  0.5045 -0.0031
 3469TIP3    H210372   7.047   4.511   4.920  0.0326  0.2985 -1.5134
 3470TIP3   OH210373   0.614   3.564   3.531 -0.5252 -0.4309  0.6532
 3470TIP3    H110374   0.609   3.602   3.444  0.9050  0.9996  1.1571
 3470TIP3    H210375   0.561   3.484   3.525  1.1416 -1.4813 -2.0868
 3471TIP3   OH210376   5.649   1.157   3.752 -0.4081 -0.1720 -0.2072
 3471TIP3    H110377   5.702   1.159   3.673 -0.6660  0.2063 -0.3740
 3471TIP3    H210378   5.663   1.243   3.792 -0.4642 -0.2748  0.0357
 3472TIP3   OH210379   0.563   0.700   4.511  0.0058 -0.7701 -0.2305
 3472TIP3    H110380   0.658   0.703   4.521  0.0238  3.7837  0.6893
 3472TIP3    H210381   0.532   0.648   4.584  1.7565 -0.8288  0.5179
 3473TIP3   OH210382   3.641   1.937   3.279  0.5058 -0.6367  0.1016
 3473TIP3    H110383   3.598   1.925   3.363  0.9333  0.0523  0.4188
 3473TIP3    H210384   3.666   2.029   3.276  1.1067 -0.8042 -0.4845
 3474TIP3   OH210385   0.965   3.702   1.395 -0.4056  0.0234  0.2589
 3474TIP3    H110386   1.024   3.673   1.464 -0.5933  2.1530  1.3866
 3474TIP3    H210387   0.878   3.673   1.424 -0.4826  0.9044  0.9398
 3475TIP3   OH210388   3.509   1.471   3.301  0.3528 -0.3618  0.1275
 3475TIP3    H110389   3.540   1.419   3.375  1.4186 -1.0467 -0.7860
 3475TIP3    H210390   3.416   1.448   3.293  0.3545 -0.6763  0.9032
 3476TIP3   OH210391   4.866   6.287   2.997  0.3421 -0.0055  0.2625
 3476TIP3    H110392   4.898   6.202   2.965 -0.5049 -0.3987  0.4388
 3476TIP3    H210393   4.811   6.319   2.926 -0.6710 -0.3770  0.8605
 3477TIP3   OH210394   4.311   5.883   5.523 -0.4940  0.2010 -0.5672
 3477TIP3    H110395   4.230   5.921   5.555 -0.8426 -1.8948  1.3160
 3477TIP3    H210396   4.379   5.945   5.550 -1.2299  0.6629  0.2766
 3478TIP3   OH210397   3.670   1.662   0.483  0.5846 -0.2418 -0.2643
 3478TIP3    H110398   3.722   1.663   0.403  1.5824  1.1118  0.3625
 3478TIP3    H210399   3.580   1.673   0.452  0.8445 -0.7157 -1.2469
 3479TIP3   OH210400   4.710   0.823   5.344 -0.4414 -0.6430  0.3062
 3479TIP3    H110401   4.699   0.812   5.250  0.5912 -3.0909  0.3883
 3479TIP3    H210402   4.687   0.737   5.381  2.1471 -0.7434  1.9358
 3480TIP3   OH210403   5.975   5.508   3.429 -0.0478 -0.6680  0.5668
 3480TIP3    H110404   5.922   5.428   3.430  0.8905 -1.4730 -2.5680
 3480TIP3    H210405   5.940   5.558   3.355 -0.1506  1.5714  2.0417
 3481TIP3   OH210406   0.033   2.857   3.202  0.0068 -0.4795 -0.0347
 3481TIP3    H110407   0.051   2.947   3.173 -0.3755 -0.5648 -0.5413
 3481TIP3    H210408   0.106   2.836   3.261  0.0230  0.2141  0.2050
 3482TIP3   OH210409   3.472   0.501   2.663 -0.3702  0.0531 -0.2077
 3482TIP3    H110410   3.453   0.412   2.635  0.2152 -0.3719  0.7111
 3482TIP3    H210411   3.420   0.556   2.604 -0.7522 -0.8866 -0.7712
 3483TIP3   OH210412   0.377   1.657   0.702 -0.6812  0.2287 -0.2878
 3483TIP3    H110413   0.331   1.670   0.619  1.2078  0.1678 -1.4027
 3483TIP3    H210414   0.366   1.739   0.750 -3.2067 -0.3119  0.1872
 3484TIP3   OH210415   5.076   5.034   5.299 -0.0189  0.2289  0.0900
 3484TIP3    H110416   5.078   5.065   5.209 -0.9278 -1.9817 -0.7630
 3484TIP3    H210417   5.107   5.108   5.351 -0.4448  1.8982 -1.9215
 3485TIP3   OH210418   2.979   3.267   2.663 -0.3502 -0.6496  0.4344
 3485TIP3    H110419   3.075   3.265   2.663 -0.3468 -2.0264  0.1043
 3485TIP3    H210420   2.957   3.359   2.666  0.9969 -0.2457 -0.8445
 3486TIP3   OH210421   1.162   0.414   5.630 -0.0031  0.1743  0.0533
 3486TIP3    H110422   1.084   0.401   5.684 -0.0746 -1.0321 -0.3247
 3486TIP3    H210423   1.128   0.443   5.545 -0.3560 -3.2197 -1.1297
 3487TIP3   OH210424   4.901   3.905   0.675 -0.5590 -0.3516  0.4092
 3487TIP3    H110425   4.994   3.911   0.651  0.2098 -1.7697  2.7263
 3487TIP3    H210426   4.855   3.939   0.598  1.7787 -1.4446 -1.6510
 3488TIP3   OH210427   0.679   3.841   0.890 -0.1641  0.3639  0.1034
 3488TIP3    H110428   0.642   3.775   0.949  0.2328  0.1647  0.1297
 3488TIP3    H210429   0.769   3.852   0.919 -0.1342  0.6877 -0.1045
 3489TIP3   OH210430   3.041   6.630   4.139  0.2017 -0.4207  0.2054
 3489TIP3    H110431   3.053   6.674   4.055  0.3434  0.5247  0.7078
 3489TIP3    H210432   3.069   6.695   4.204 -0.5035 -0.9135  1.0113
 3490TIP3   OH210433   0.441   4.916   1.736  0.5008  0.1963  0.8722
 3490TIP3    H110434   0.529   4.882   1.749  1.2087  0.7527 -1.9366
 3490TIP3    H210435   0.452   5.011   1.735 -0.0590  0.2611  0.1494
 3491TIP3   OH210436   6.373   0.913   0.994  0.1291 -0.0660 -0.1047
 3491TIP3    H110437   6.412   0.915   1.081  0.8886 -0.1058 -0.4342
 3491TIP3    H210438   6.289   0.958   1.004  0.7003  0.9205  0.4085
 3492TIP3   OH210439   3.242   4.988   2.803  0.3693  0.2564  0.2309
 3492TIP3    H110440   3.197   4.916   2.846  1.7498 -0.6668  0.1928
 3492TIP3    H210441   3.229   4.973   2.709  0.6297  0.0648  0.2240
 3493TIP3   OH210442   6.181   1.427   2.034  0.3942 -0.6018 -0.5449
 3493TIP3    H110443   6.221   1.407   2.119  0.5084  0.2000 -0.4083
 3493TIP3    H210444   6.095   1.385   2.037  0.1855 -0.1384  0.1722
 3494TIP3   OH210445   5.546   3.229   1.742  0.0840 -0.2943 -0.1583
 3494TIP3    H110446   5.592   3.204   1.662  0.3534 -1.1911  0.2598
 3494TIP3    H210447   5.527   3.322   1.731  0.2552 -0.3692 -1.1909
 3495TIP3   OH210448   2.172   1.104   3.706 -0.3405  0.3372  0.3723
 3495TIP3    H110449   2.105   1.169   3.727 -1.4056 -0.4744 -0.3633
 3495TIP3    H210450   2.130   1.046   3.643  1.1208 -0.1222 -0.2330
 3496TIP3   OH210451   3.600   4.897   2.380  0.1584  0.0642  0.1046
 3496TIP3    H110452   3.549   4.895   2.299 -0.3742 -0.3399  0.4411
 3496TIP3    H210453   3.622   4.989   2.393 -1.0006  0.3277  0.2668
 3497TIP3   OH210454   6.577   5.970   1.602  0.5187  0.4104 -0.0003
 3497TIP3    H110455   6.592   5.994   1.694  1.9715 -1.2151  0.2448
 3497TIP3    H210456   6.538   5.883   1.605 -0.3084  0.7239 -0.9344
 3498TIP3   OH210457   2.498   4.435   2.234 -0.0815 -0.1408  0.5022
 3498TIP3    H110458   2.484   4.486   2.314  1.1185  1.2787 -0.1353
 3498TIP3    H210459   2.586   4.459   2.205 -0.4428 -0.6973 -1.1862
 3499TIP3   OH210460   0.528   0.141   5.393  0.3893  0.0968  0.3983
 3499TIP3    H110461   0.435   0.126   5.409  0.4040  0.8415  1.2220
 3499TIP3    H210462   0.572   0.073   5.444  0.3039 -0.5286 -0.3316
 3500TIP3   OH210463   0.276   3.139   2.102 -0.0107 -0.3741  0.2506
 3500TIP3    H110464   0.257   3.184   2.184 -0.5888 -3.1166  1.7613
 3500TIP3    H210465   0.210   3.171   2.041 -0.7177  0.3860  1.3773
 3501TIP3   OH210466   6.445   0.994   4.556 -0.1210 -0.8447  0.3036
 3501TIP3    H110467   6.418   1.070   4.505 -0.0596  0.7928  2.5286
 3501TIP3    H210468   6.539   0.985   4.539 -0.0877 -0.2697  0.1708
 3502TIP3   OH210469   6.607   6.089   4.214  0.1819 -0.0915  0.3721
 3502TIP3    H110470   6.610   6.120   4.124 -0.9156 -1.7604 -0.2970
 3502TIP3    H210471   6.622   5.994   4.207 -0.2286 -0.3019  1.9100
 3503TIP3   OH210472   2.488   4.385   1.271 -0.4214 -0.2016  0.1326
 3503TIP3    H110473   2.483   4.481   1.267 -0.8959 -0.2421 -0.5059
 3503TIP3    H210474   2.556   4.362   1.208 -0.0488 -0.2695  0.5562
 3504TIP3   OH210475   0.827   4.075   5.880 -0.3639 -0.8047 -0.4401
 3504TIP3    H110476   0.822   4.167   5.853 -2.9560 -0.5635  0.5709
 3504TIP3    H210477   0.901   4.040   5.830 -0.4660  1.3482 -2.2978
 3505TIP3   OH210478   5.537   5.505   1.639 -0.0246  0.0565  0.8077
 3505TIP3    H110479   5.603   5.459   1.587 -1.2313 -0.9390  0.1111
 3505TIP3    H210480   5.541   5.596   1.607  0.2090 -0.2487 -0.0574
 3506TIP3   OH210481   2.225   4.415   0.806 -0.0789  0.0147  0.0928
 3506TIP3    H110482   2.160   4.467   0.758 -0.1950 -0.3758 -0.1880
 3506TIP3    H210483   2.309   4.440   0.767 -0.3603 -2.1123 -2.1339
 3507TIP3   OH210484   3.508   0.397   0.804  0.1776 -0.8981 -0.0292
 3507TIP3    H110485   3.458   0.334   0.752  0.1954  0.3859 -1.6921
 3507TIP3    H210486   3.567   0.439   0.741  0.9471  0.0184  1.2428
 3508TIP3   OH210487   1.197   4.733   2.171  0.5980 -0.1054 -0.2295
 3508TIP3    H110488   1.101   4.739   2.178  0.5474 -0.0571 -0.8955
 3508TIP3    H210489   1.220   4.660   2.228  0.1183 -0.3798 -0.3790
 3509TIP3   OH210490   3.116   4.942   0.094  0.5980  0.3577  0.5322
 3509TIP3    H110491   3.097   4.991   0.014 -2.2477  3.0059  2.5801
 3509TIP3    H210492   3.042   4.881   0.103  1.6980 -1.0587  0.4500
 3510TIP3   OH210493   0.695   1.871   0.859 -0.5323 -0.0455  0.0078
 3510TIP3    H110494   0.636   1.823   0.917 -1.3040  0.2551 -0.5138
 3510TIP3    H210495   0.728   1.805   0.799  0.3357 -0.3753  0.8167
 3511TIP3   OH210496   2.545   5.986   2.081 -0.5745  0.3279  0.4473
 3511TIP3    H110497   2.537   5.911   2.021  0.9548 -0.4947  1.2149
 3511TIP3    H210498   2.518   5.951   2.166  0.9795  0.3629  0.9880
 3512TIP3   OH210499   2.263   3.772   1.942 -0.0170  0.2092 -0.0275
 3512TIP3    H110500   2.203   3.800   1.872 -1.7252  0.6475  1.5381
 3512TIP3    H210501   2.266   3.677   1.934 -1.1386  0.1540  0.0032
 3513TIP3   OH210502   6.186   3.066   1.026 -0.0165 -0.2429  0.3186
 3513TIP3    H110503   6.180   3.120   0.947 -0.1647 -0.0062  0.4923
 3513TIP3    H210504   6.176   3.128   1.098  1.2162 -0.2836  0.5532
 3514TIP3   OH210505   0.916   6.723   3.601 -0.6227  0.1959  0.3735
 3514TIP3    H110506   0.966   6.642   3.587 -2.2978 -0.8660  0.3085
 3514TIP3    H210507   0.845   6.719   3.537 -0.8710  1.6265  0.5158
 3515TIP3   OH210508   0.002   1.351   2.330 -1.2491 -0.3502  0.6372
 3515TIP3    H110509  -0.022   1.302   2.408 -0.4101 -0.7552  0.6545
 3515TIP3    H210510   0.025   1.285   2.265  0.6538 -0.0142  0.9087
 3516TIP3   OH210511   3.445   2.721   4.445  0.1908 -0.5397  0.5232
 3516TIP3    H110512   3.495   2.794   4.483  0.6278 -1.1827  1.1932
 3516TIP3    H210513   3.359   2.759   4.425  0.7372  0.4267 -0.0990
 3517TIP3   OH210514   6.386   5.231   0.880  0.4025  0.0892 -0.4173
 3517TIP3    H110515   6.354   5.309   0.926  0.2234  0.0645 -0.4978
 3517TIP3    H210516   6.308   5.193   0.839  0.1529 -1.1885  1.1561
 3518TIP3   OH210517   2.037   2.402   4.585 -0.0401  0.4534 -0.4580
 3518TIP3    H110518   2.048   2.307   4.581 -0.4649  0.4022 -0.3959
 3518TIP3    H210519   2.046   2.431   4.494  1.6934  0.5392 -0.3016
 3519TIP3   OH210520   5.580   3.504   1.684  0.2301 -0.0830 -0.2223
 3519TIP3    H110521   5.649   3.516   1.749 -1.0953  0.5149  1.1356
 3519TIP3    H210522   5.507   3.555   1.718 -0.9301 -0.8215 -1.5381
 3520TIP3   OH210523   5.151   5.144   5.059 -0.3094 -0.2122 -0.1508
 3520TIP3    H110524   5.131   5.059   5.019  0.2156 -0.6918  0.5869
 3520TIP3    H210525   5.245   5.153   5.050 -0.2976  0.0566  0.2480
 3521TIP3   OH210526   1.988   3.755   1.067  0.2611  0.0685  0.0153
 3521TIP3    H110527   2.059   3.763   1.130 -0.5366 -1.6971  1.2244
 3521TIP3    H210528   1.931   3.829   1.085  1.1200  0.7681 -0.0920
 3522TIP3   OH210529   6.255   3.879   0.889 -0.1029  0.4000 -0.0551
 3522TIP3    H110530   6.217   3.887   0.802 -1.8955 -0.1160  0.6150
 3522TIP3    H210531   6.191   3.922   0.947 -0.3483 -1.6438  1.2968
 3523TIP3   OH210532   5.996   2.209   1.600  0.3483  0.1040  0.3699
 3523TIP3    H110533   5.941   2.271   1.550  1.2990  0.3139 -0.4530
 3523TIP3    H210534   6.053   2.170   1.534  0.4589 -0.9132  1.0480
 3524TIP3   OH210535   6.323   5.811   0.768  0.0276  0.0261 -0.0866
 3524TIP3    H110536   6.330   5.902   0.797  0.4012  0.0068 -0.1167
 3524TIP3    H210537   6.402   5.769   0.803 -1.4185 -0.9464  2.3017
 3525TIP3   OH210538   5.937   4.968   0.320 -0.2650  0.7165  0.2855
 3525TIP3    H110539   5.889   4.885   0.320 -0.4123  0.8024 -0.3175
 3525TIP3    H210540   5.887   5.025   0.263  1.0433  0.5254 -1.1019
 3526TIP3   OH210541   2.435   6.783   0.291  0.0724 -0.1201  0.0572
 3526TIP3    H110542   2.468   6.797   0.202  1.7244 -1.1290  0.4616
 3526TIP3    H210543   2.340   6.791   0.283  0.2093  0.1159 -1.7306
 3527TIP3   OH210544   1.177   4.742   5.289  0.0867  0.5468  0.1219
 3527TIP3    H110545   1.090   4.720   5.256  0.8715  0.9472 -2.3947
 3527TIP3    H210546   1.162   4.812   5.353 -1.6210 -1.2001  1.7665
 3528TIP3   OH210547   1.120   1.368   3.462  0.0965 -0.1654 -0.3095
 3528TIP3    H110548   1.148   1.330   3.379  0.7493 -1.5927  0.5386
 3528TIP3    H210549   1.201   1.383   3.510 -0.2902  0.5144  0.1546
 3529TIP3   OH210550   1.970   1.553   4.002  0.1672 -0.3727  0.3520
 3529TIP3    H110551   1.917   1.629   3.981 -0.4750 -0.5500  1.2942
 3529TIP3    H210552   2.009   1.527   3.918  0.5651  1.0933  0.0550
 3530TIP3   OH210553   0.558   4.631   2.604  0.2520 -0.6276 -0.3474
 3530TIP3    H110554   0.584   4.658   2.692 -0.3645 -1.1528  0.0148
 3530TIP3    H210555   0.462   4.635   2.605  0.2148 -1.1304 -0.8227
 3531TIP3   OH210556   1.889   2.343   0.596 -0.0459 -1.2706 -0.1043
 3531TIP3    H110557   1.843   2.344   0.513  1.6175 -0.6384 -1.0625
 3531TIP3    H210558   1.933   2.258   0.598 -0.0840 -1.2857  0.1313
 3532TIP3   OH210559   2.702   1.441   3.991 -0.3328 -0.3830 -0.5455
 3532TIP3    H110560   2.789   1.472   4.017 -0.9741 -0.2170  1.6234
 3532TIP3    H210561   2.682   1.491   3.912  0.5759  1.3778  0.2746
 3533TIP3   OH210562   0.613   1.608   5.058 -0.3547  0.1326  0.5371
 3533TIP3    H110563   0.583   1.517   5.069 -0.1617 -0.0020  0.0078
 3533TIP3    H210564   0.532   1.659   5.053 -0.4691  0.2149  2.4145
 3534TIP3   OH210565   6.847   3.396   3.722  0.0410 -0.2279 -0.7353
 3534TIP3    H110566   6.942   3.383   3.731 -0.1238 -2.3222 -1.5097
 3534TIP3    H210567   6.809   3.338   3.787 -0.7283 -0.0936 -1.0582
 3535TIP3   OH210568   6.497   6.565   3.299  0.6432 -0.1354  0.0129
 3535TIP3    H110569   6.490   6.619   3.378 -1.1725  0.7232 -0.6748
 3535TIP3    H210570   6.445   6.612   3.234  3.5364  0.1997 -2.3143
 3536TIP3   OH210571   2.275   6.807   1.350  0.0953 -0.3419 -1.5891
 3536TIP3    H110572   2.252   6.743   1.281  0.1199 -1.9704 -0.1617
 3536TIP3    H210573   2.260   6.759   1.432 -0.4958  1.7304 -0.4293
 3537TIP3   OH210574   3.499   3.713   2.735  0.0056 -0.6397  0.5496
 3537TIP3    H110575   3.487   3.652   2.661 -1.6490  0.6752 -0.3383
 3537TIP3    H210576   3.486   3.659   2.813  0.5059 -1.7995 -0.1395
 3538TIP3   OH210577   3.662   2.030   5.706 -0.3882 -0.3843  0.5178
 3538TIP3    H110578   3.704   2.055   5.623  0.2117  3.8025  1.8121
 3538TIP3    H210579   3.735   2.011   5.765 -0.4273  1.6388  1.3208
 3539TIP3   OH210580   4.674   1.118   0.883 -0.1347  0.2544 -0.2834
 3539TIP3    H110581   4.739   1.147   0.947 -0.4520 -0.9405  0.6023
 3539TIP3    H210582   4.722   1.058   0.826 -0.3119 -0.1617  0.0034
 3540TIP3   OH210583   0.032   4.102   4.065  0.0189 -0.1908  0.3219
 3540TIP3    H110584   0.083   4.134   4.140  0.1252 -1.9720  1.0632
 3540TIP3    H210585  -0.054   4.080   4.103  0.1476 -1.3270  0.0067
 3541TIP3   OH210586   6.460   1.090   5.537  0.2380  0.3902  0.3578
 3541TIP3    H110587   6.395   1.133   5.593 -0.7983 -1.1866  0.4210
 3541TIP3    H210588   6.469   1.149   5.462 -1.5028  0.5258  0.2058
 3542TIP3   OH210589   5.396   4.086   2.353  0.0939  0.0838  0.2069
 3542TIP3    H110590   5.465   4.025   2.381  1.1576  1.3093  0.3367
 3542TIP3    H210591   5.319   4.031   2.342  1.6934 -1.8340 -2.5875
 3543TIP3   OH210592   1.339   0.316   1.770 -0.4496  0.4330 -0.0352
 3543TIP3    H110593   1.384   0.400   1.762 -0.7783  0.9314  2.4439
 3543TIP3    H210594   1.246   0.340   1.775 -0.4707  0.1498  2.1738
 3544TIP3   OH210595   2.329   2.882   4.206  0.4466 -0.4988  0.0302
 3544TIP3    H110596   2.365   2.802   4.244  0.5403 -0.1556  0.6715
 3544TIP3    H210597   2.235   2.865   4.198  0.5027 -0.7683 -0.0921
 3545TIP3   OH210598   5.312   3.461   2.000 -0.7188 -0.0000  0.6541
 3545TIP3    H110599   5.374   3.507   1.943 -1.8543  0.5619 -0.1779
 3545TIP3    H210600   5.227   3.476   1.959 -1.3884 -0.9038  1.6673
 3546TIP3   OH210601   3.719   4.309   4.021  0.3130 -1.2320 -0.0777
 3546TIP3    H110602   3.780   4.236   4.010  0.7798 -0.6995 -1.1693
 3546TIP3    H210603   3.758   4.381   3.971  0.5310  0.1934  1.9797
 3547TIP3   OH210604   3.492   3.100   5.340  0.1330  0.1012  0.2816
 3547TIP3    H110605   3.433   3.032   5.305 -2.4552  1.1303  2.2500
 3547TIP3    H210606   3.556   3.051   5.392 -1.9550 -0.9270  2.0533
 3548TIP3   OH210607   2.294   1.272   1.957 -0.5802  0.0909  0.1532
 3548TIP3    H110608   2.224   1.275   2.023 -0.2030 -0.3851  0.5847
 3548TIP3    H210609   2.372   1.299   2.004 -0.1956 -0.8089  0.0645
 3549TIP3   OH210610   1.783   5.974   5.583  0.2382 -0.2800  0.1847
 3549TIP3    H110611   1.735   5.966   5.666  0.1186 -0.8776  0.0607
 3549TIP3    H210612   1.731   6.037   5.533  0.0780 -0.2342  0.4025
 3550TIP3   OH210613   0.841   3.531   4.725 -0.6261 -0.1700  0.4964
 3550TIP3    H110614   0.777   3.593   4.760 -1.6661 -1.4157  0.8830
 3550TIP3    H210615   0.865   3.567   4.639 -2.1495  0.1344  0.1628
 3551TIP3   OH210616   3.048   6.528   2.854 -0.3985  0.4665  0.1457
 3551TIP3    H110617   3.081   6.585   2.923  0.8422 -0.6526  0.5236
 3551TIP3    H210618   3.010   6.587   2.789  0.9146  1.7102  0.4743
 3552TIP3   OH210619   3.113   0.109   0.148  0.1976 -0.3800  0.4194
 3552TIP3    H110620   3.021   0.117   0.175 -0.7921  0.2120 -2.6566
 3552TIP3    H210621   3.109   0.107   0.052  3.4660  0.3889  0.1556
 3553TIP3   OH210622   0.771   2.473   3.749  0.1403  0.0380  0.1222
 3553TIP3    H110623   0.801   2.433   3.830  0.5001 -1.2148 -0.5920
 3553TIP3    H210624   0.849   2.510   3.709  0.5461 -1.8108 -0.9580
 3554TIP3   OH210625   1.111   2.933   3.237  0.3100  0.3504  0.5701
 3554TIP3    H110626   1.018   2.957   3.230  0.5190  1.0017 -0.2011
 3554TIP3    H210627   1.156   3.016   3.251  0.5703 -0.2169  3.9269
 3555TIP3   OH210628   5.910   0.514   2.415  0.1506 -0.1292 -0.1680
 3555TIP3    H110629   5.853   0.525   2.339 -0.1900  1.6775  0.2990
 3555TIP3    H210630   5.989   0.564   2.392 -0.3613  1.3116  1.0202
 3556TIP3   OH210631   7.099   4.520   0.615  0.2768 -0.2534  0.2929
 3556TIP3    H110632   7.077   4.437   0.574  0.0019 -0.5777  1.0694
 3556TIP3    H210633   7.018   4.547   0.658  1.2667 -1.4193  3.1225
 3557TIP3   OH210634   4.654   3.427   0.340 -0.1576  0.1484 -0.5179
 3557TIP3    H110635   4.715   3.381   0.398  0.0060  0.5049 -0.4019
 3557TIP3    H210636   4.572   3.429   0.388 -0.3879 -0.7439 -0.8716
 3558TIP3   OH210637   0.914   0.090   2.471 -0.0145  0.8589  0.0504
 3558TIP3    H110638   0.856   0.161   2.496 -1.8340 -0.0946 -1.2046
 3558TIP3    H210639   0.930   0.103   2.378  0.2119  0.0253 -0.0408
 3559TIP3   OH210640   2.630   1.171   1.671 -0.7784  0.3644 -0.1925
 3559TIP3    H110641   2.574   1.201   1.600 -0.7481  0.8442 -0.0200
 3559TIP3    H210642   2.623   1.076   1.669 -0.4855  0.3508 -1.0820
 3560TIP3   OH210643   2.362   2.500   4.455 -0.4506 -1.0581  0.0569
 3560TIP3    H110644   2.456   2.483   4.452 -0.2963 -0.1317 -1.1836
 3560TIP3    H210645   2.336   2.508   4.363 -0.9957  2.3990  0.3593
 3561TIP3   OH210646   0.483   1.058   1.955 -0.4018  0.1355  0.5006
 3561TIP3    H110647   0.565   1.016   1.930  0.4498  0.5216  2.4531
 3561TIP3    H210648   0.508   1.118   2.025 -2.1535  1.2785  0.2040
 3562TIP3   OH210649   6.833   3.025   3.608  0.4194  0.3528 -0.0234
 3562TIP3    H110650   6.874   2.991   3.688  0.7156  0.7336 -0.0110
 3562TIP3    H210651   6.903   3.072   3.563  0.4696 -0.5741 -0.9371
 3563TIP3   OH210652   4.313   1.555   1.490  0.2596  0.2761 -0.4149
 3563TIP3    H110653   4.331   1.608   1.412 -1.0825  1.1332 -0.1697
 3563TIP3    H210654   4.253   1.608   1.542  0.5873 -0.5761  0.8906
 3564TIP3   OH210655   3.026   5.033   3.062  0.6038  0.2878  0.4552
 3564TIP3    H110656   2.943   5.055   3.105  0.6377  0.5956  0.3614
 3564TIP3    H210657   3.089   5.095   3.097  0.2783  1.6766 -1.2916
 3565TIP3   OH210658   1.141   2.877   4.808  0.3248 -0.0146  0.4112
 3565TIP3    H110659   1.198   2.951   4.788 -0.1629  0.5850  1.1854
 3565TIP3    H210660   1.159   2.857   4.900 -1.8805  1.3109  1.2406
 3566TIP3   OH210661   4.508   5.935   0.295  0.3666 -0.3859  0.1772
 3566TIP3    H110662   4.433   5.889   0.333 -1.8866  2.1736 -0.8730
 3566TIP3    H210663   4.527   6.006   0.357 -0.2984  0.9840 -1.1450
 3567TIP3   OH210664   0.358   1.247   1.777  0.3417 -0.1496 -0.4679
 3567TIP3    H110665   0.395   1.181   1.835 -0.9924 -2.1987 -1.8363
 3567TIP3    H210666   0.270   1.261   1.810  0.2841  0.2347 -0.7737
 3568TIP3   OH210667   1.580   0.581   3.621  0.0990 -0.1682  0.2099
 3568TIP3    H110668   1.497   0.533   3.620  1.0786 -1.9628 -0.3285
 3568TIP3    H210669   1.558   0.668   3.589 -1.5531 -0.6409 -0.0268
 3569TIP3   OH210670   0.733   5.634   0.661  0.0986 -0.7009  0.3761
 3569TIP3    H110671   0.648   5.594   0.643 -0.6848 -0.0815  2.4193
 3569TIP3    H210672   0.762   5.594   0.743  1.1591  0.0587  0.3966
 3570TIP3   OH210673   3.142   5.494   0.120  0.0619 -0.0056 -0.3514
 3570TIP3    H110674   3.152   5.485   0.215 -2.3978 -1.2896 -0.1198
 3570TIP3    H210675   3.072   5.432   0.098  0.0386  0.8225 -2.8984
 3571TIP3   OH210676   2.093   3.588   2.767  0.1275  0.7703  0.1857
 3571TIP3    H110677   2.042   3.526   2.819  1.1638  0.5113  0.9150
 3571TIP3    H210678   2.108   3.542   2.684 -1.1761  1.0249 -0.2171
 3572TIP3   OH210679   1.787   2.527   2.724 -0.2487 -0.1430 -1.0830
 3572TIP3    H110680   1.827   2.614   2.723  0.4514 -0.4256  0.6504
 3572TIP3    H210681   1.858   2.467   2.702  0.0793 -0.5465  0.9412
 3573TIP3   OH210682   4.008   5.488   3.321 -0.1536  0.1753  0.2465
 3573TIP3    H110683   4.051   5.510   3.404  1.2300 -2.1982  0.2393
 3573TIP3    H210684   3.926   5.445   3.347 -0.9074  1.5809  0.3001
 3574TIP3   OH210685   4.371   4.448   1.148 -0.1868  0.1666  0.1199
 3574TIP3    H110686   4.451   4.397   1.135 -0.3929 -0.2644  0.5060
 3574TIP3    H210687   4.350   4.482   1.062  0.2172 -0.0126 -0.0539
 3575TIP3   OH210688   5.726   1.080   5.250 -0.1315  0.2774  0.3987
 3575TIP3    H110689   5.704   0.991   5.221 -0.6982  0.8980 -1.2111
 3575TIP3    H210690   5.821   1.084   5.244  0.0990 -0.8173  2.4425
 3576TIP3   OH210691   3.425   5.197   3.512 -0.1120 -0.2476 -0.2912
 3576TIP3    H110692   3.446   5.213   3.419 -0.1764 -0.7616 -0.3946
 3576TIP3    H210693   3.445   5.280   3.555  0.4476 -0.1743 -0.6800
 3577TIP3   OH210694   4.361   2.000   4.413 -0.2860  0.1205 -0.0349
 3577TIP3    H110695   4.358   2.065   4.343  4.2099  0.4556 -0.2261
 3577TIP3    H210696   4.354   2.052   4.494  0.4091  0.5206 -0.2204
 3578TIP3   OH210697   4.368   0.302   2.171 -0.0096  0.3936 -0.5066
 3578TIP3    H110698   4.354   0.373   2.234 -2.2460 -1.5092  1.3473
 3578TIP3    H210699   4.454   0.267   2.194  0.1406  1.0924  0.0542
 3579TIP3   OH210700   3.235   4.777   3.605 -0.2673  0.1904  0.0699
 3579TIP3    H110701   3.144   4.756   3.583  0.3510 -0.8260 -1.6524
 3579TIP3    H210702   3.251   4.860   3.560 -0.0623 -0.0884 -0.3652
 3580TIP3   OH210703   1.918   0.629   5.478  0.0473 -0.6573  0.1721
 3580TIP3    H110704   1.932   0.549   5.529  1.4188 -0.8558 -0.4588
 3580TIP3    H210705   2.004   0.648   5.441 -1.0459 -1.0833 -2.8693
 3581TIP3   OH210706   6.272   4.154   0.657 -0.4338 -0.5224 -0.8653
 3581TIP3    H110707   6.216   4.078   0.638  0.3996 -0.9811 -1.5095
 3581TIP3    H210708   6.350   4.141   0.604 -0.4043  0.9595 -1.2326
 3582TIP3   OH210709   1.967   4.825   4.362  0.0461  0.3387  0.0532
 3582TIP3    H110710   1.923   4.812   4.446  0.6714  1.9817  0.6908
 3582TIP3    H210711   2.006   4.913   4.369  0.7028  0.2288 -1.6925
 3583TIP3   OH210712   2.675   2.091   5.194 -0.1279 -0.5469 -0.3181
 3583TIP3    H110713   2.603   2.093   5.131 -1.4455  0.8754  1.1121
 3583TIP3    H210714   2.717   2.177   5.185 -0.2674 -0.3611  0.6055
 3584TIP3   OH210715   1.063   5.805   0.536  0.1039 -0.0104  0.1565
 3584TIP3    H110716   0.986   5.841   0.581 -1.4695 -3.0193  0.1885
 3584TIP3    H210717   1.134   5.812   0.600 -0.7896  0.5277  1.1282
 3585TIP3   OH210718   3.713   5.804   0.882  0.1058 -0.0372  0.0861
 3585TIP3    H110719   3.793   5.764   0.848 -0.3158 -0.7130 -0.1320
 3585TIP3    H210720   3.743   5.860   0.953  1.0056  1.3637 -1.3316
 3586TIP3   OH210721   3.667   0.297   0.562  0.6987  0.1274 -0.3496
 3586TIP3    H110722   3.662   0.208   0.528  0.3934 -0.5204  1.2734
 3586TIP3    H210723   3.736   0.292   0.629 -2.7850 -0.3973  3.6601
 3587TIP3   OH210724   4.422   5.819   2.675 -0.2008 -0.3792  0.0277
 3587TIP3    H110725   4.350   5.875   2.703 -0.0906  0.9308 -2.0942
 3587TIP3    H210726   4.399   5.793   2.586  0.9886 -1.6140  0.0539
 3588TIP3   OH210727   6.109   6.517   4.562 -1.2273 -0.3577  0.3698
 3588TIP3    H110728   6.180   6.574   4.592  0.2260 -1.3566 -0.9844
 3588TIP3    H210729   6.035   6.576   4.548 -0.3780  0.8762  0.9065
 3589TIP3   OH210730   3.281   2.248   5.215 -0.2664  0.0936  0.4540
 3589TIP3    H110731   3.256   2.317   5.276 -0.1256 -1.3528  2.2416
 3589TIP3    H210732   3.204   2.191   5.211 -0.4956  0.4784 -1.2308
 3590TIP3   OH210733   6.315   2.614   3.895  0.2923  0.1895  0.2602
 3590TIP3    H110734   6.365   2.614   3.814  1.1716  1.5550  0.7660
 3590TIP3    H210735   6.226   2.637   3.869 -0.1240 -2.1535 -0.6339
 3591TIP3   OH210736   0.836   2.491   1.081 -0.1317 -0.2680 -0.2625
 3591TIP3    H110737   0.824   2.411   1.132  4.7332 -0.2754  1.4006
 3591TIP3    H210738   0.785   2.557   1.129 -1.5158 -1.6792  0.2984
 3592TIP3   OH210739   6.958   3.087   5.428 -0.0124 -0.2982 -0.2569
 3592TIP3    H110740   7.001   3.170   5.407  0.0660 -0.6315 -1.4508
 3592TIP3    H210741   6.987   3.027   5.360 -2.5524 -0.4690 -1.3081
 3593TIP3   OH210742   6.536   3.834   2.074 -0.0268 -0.3576 -0.4120
 3593TIP3    H110743   6.561   3.872   2.158  1.6202 -0.2949 -0.9040
 3593TIP3    H210744   6.492   3.752   2.097  0.3015 -0.2860  0.5145
 3594TIP3   OH210745   3.508   0.781   3.155 -0.6310 -0.0764  0.1260
 3594TIP3    H110746   3.565   0.800   3.229 -1.3923  0.6994  0.5367
 3594TIP3    H210747   3.566   0.746   3.088 -0.0467 -1.6099  1.3712
 3595TIP3   OH210748   2.141   2.943   2.336 -0.4822  0.1872  0.4036
 3595TIP3    H110749   2.196   2.992   2.275  0.9979 -1.6462  0.1550
 3595TIP3    H210750   2.129   2.858   2.294 -0.7710 -0.5674  1.9444
 3596TIP3   OH210751   0.664   0.184   1.227 -0.4469  0.3849  0.3005
 3596TIP3    H110752   0.578   0.220   1.252  0.6310  1.5062  2.7166
 3596TIP3    H210753   0.659   0.092   1.252 -1.7986 -0.2911 -2.1042
 3597TIP3   OH210754   2.879   4.501   2.437  0.1277 -0.4305  0.2232
 3597TIP3    H110755   2.854   4.494   2.345  1.2684 -0.6364 -0.0784
 3597TIP3    H210756   2.834   4.428   2.479 -0.1495 -0.5226 -0.2240
 3598TIP3   OH210757   5.769   3.859   1.131  0.1098 -0.1819 -0.2572
 3598TIP3    H110758   5.721   3.777   1.136 -0.1525 -0.0961 -1.1562
 3598TIP3    H210759   5.718   3.913   1.070  0.3572  0.5946  0.2035
 3599TIP3   OH210760   5.394  -0.007   3.644  0.2953  0.0261  0.4296
 3599TIP3    H110761   5.403   0.088   3.650 -1.2417  0.1551  1.0465
 3599TIP3    H210762   5.370  -0.023   3.553  0.6900  0.2024  0.2896
 3600TIP3   OH210763   4.391   3.164   2.132 -0.4342  0.2593  0.1212
 3600TIP3    H110764   4.367   3.072   2.143  0.5944 -0.0318 -0.0105
 3600TIP3    H210765   4.485   3.163   2.112 -0.3651  1.3498  0.3141
 3601TIP3   OH210766   4.074   3.253   1.327  0.1589  0.2298 -0.2853
 3601TIP3    H110767   4.065   3.159   1.339  0.6281  0.3436  1.2851
 3601TIP3    H210768   4.143   3.262   1.261 -0.7778 -0.5125 -1.3925
 3602TIP3   OH210769   6.620   0.127   4.557  0.7578  0.7004 -0.0865
 3602TIP3    H110770   6.694   0.098   4.504  0.3719  0.9005 -0.7437
 3602TIP3    H210771   6.590   0.048   4.602  0.2062  0.2256 -1.2599
 3603TIP3   OH210772   0.725   1.466   5.332 -0.1086 -0.0237 -0.2077
 3603TIP3    H110773   0.813   1.451   5.298  0.3509  0.6884  0.6315
 3603TIP3    H210774   0.712   1.560   5.325 -0.9906 -0.1639 -0.7302
 3604TIP3   OH210775   0.396   4.232   2.348  0.3524  0.1784  0.2919
 3604TIP3    H110776   0.451   4.288   2.404 -0.5073  1.0010  0.3231
 3604TIP3    H210777   0.366   4.289   2.278 -0.8847 -0.1298  0.5563
 3605TIP3   OH210778   1.574   5.198   0.095 -0.3510 -0.9781  0.3289
 3605TIP3    H110779   1.513   5.126   0.111  0.5696 -1.3281  2.5938
 3605TIP3    H210780   1.563   5.256   0.170 -0.4212  0.8266 -1.0059
 3606TIP3   OH210781   6.903   0.535   4.365  0.7484 -0.1487  0.0006
 3606TIP3    H110782   6.844   0.542   4.290  0.9841 -0.8386 -0.2541
 3606TIP3    H210783   6.961   0.610   4.357 -0.1132  0.5596  0.2735
 3607TIP3   OH210784   6.376   2.335   2.276  0.1546 -0.0059  0.2470
 3607TIP3    H110785   6.399   2.275   2.205  0.3671  1.6316 -1.1502
 3607TIP3    H210786   6.439   2.317   2.345  1.0941 -0.4310 -0.6978
 3608TIP3   OH210787   4.873   0.734   0.125 -0.2015  0.6487  1.1048
 3608TIP3    H110788   4.901   0.645   0.105  1.4067  0.7933  2.5171
 3608TIP3    H210789   4.921   0.788   0.062  1.2069  0.7259  2.1970
 3609TIP3   OH210790   1.588   5.202   5.114 -1.1575 -0.3345 -0.2433
 3609TIP3    H110791   1.564   5.125   5.167  0.9225 -1.8597 -1.3702
 3609TIP3    H210792   1.581   5.171   5.024  0.9298  0.4011 -0.6968
 3610TIP3   OH210793   4.638   2.546   3.851 -0.3273 -0.1814  0.1154
 3610TIP3    H110794   4.713   2.601   3.873 -0.9920  0.3980  0.9754
 3610TIP3    H210795   4.620   2.566   3.759 -0.4241  0.8768  0.3514
 3611TIP3   OH210796   4.273   3.648   0.170 -0.5608  0.1572 -0.5401
 3611TIP3    H110797   4.338   3.585   0.200 -1.0929  0.2828  0.9639
 3611TIP3    H210798   4.210   3.595   0.121 -0.7516 -0.4265  0.3100
 3612TIP3   OH210799   1.348   1.522   3.825  0.4358  0.1013 -0.8735
 3612TIP3    H110800   1.253   1.526   3.814  0.3385  0.8036  0.1556
 3612TIP3    H210801   1.374   1.447   3.771 -0.9886 -1.5976  0.6783
 3613TIP3   OH210802   3.805   3.663   3.006 -0.3338 -0.1228 -0.3200
 3613TIP3    H110803   3.869   3.716   2.957 -1.0462  0.7913 -0.2789
 3613TIP3    H210804   3.750   3.625   2.938 -0.3887 -0.0729 -0.3032
 3614TIP3   OH210805   1.851   0.966   2.634  0.0161  0.3997  0.5557
 3614TIP3    H110806   1.877   1.020   2.559 -1.6865 -0.9570 -1.1385
 3614TIP3    H210807   1.756   0.974   2.637 -0.0821 -0.8011  1.6063
 3615TIP3   OH210808   0.773   3.425   0.822 -0.4829  0.3161 -0.3879
 3615TIP3    H110809   0.801   3.515   0.808  0.0176  0.1099 -0.7493
 3615TIP3    H210810   0.684   3.422   0.786 -1.2357  1.1233  1.2871
 3616TIP3   OH210811   3.111   1.306   5.669  0.5347 -0.1164  0.0169
 3616TIP3    H110812   3.184   1.250   5.644  0.5675 -0.7188  1.3435
 3616TIP3    H210813   3.066   1.327   5.587  2.5343  0.7654 -0.9065
 3617TIP3   OH210814   5.164   4.681   0.305 -0.1199  0.2339 -0.4184
 3617TIP3    H110815   5.070   4.662   0.309 -0.4859  1.7987 -1.0521
 3617TIP3    H210816   5.203   4.597   0.279 -1.6015  0.1042 -2.6017
 3618TIP3   OH210817   3.678   2.736   0.698  0.3570 -0.8699  0.1824
 3618TIP3    H110818   3.743   2.708   0.634  1.2829  0.5453  0.4831
 3618TIP3    H210819   3.707   2.697   0.780 -0.2441 -1.7907 -0.0163
 3619TIP3   OH210820   4.840   4.823   1.428 -0.0595  0.0749 -0.1372
 3619TIP3    H110821   4.824   4.732   1.453 -0.4275 -0.0636 -0.8454
 3619TIP3    H210822   4.775   4.841   1.361  0.4689  0.6398 -0.5083
 3620TIP3   OH210823   6.443   3.935   3.424 -0.1649 -0.4288 -0.2444
 3620TIP3    H110824   6.371   3.900   3.477 -1.0931  0.3051 -0.9984
 3620TIP3    H210825   6.481   4.004   3.477  0.4840 -1.3126  0.4718
 3621TIP3   OH210826   3.081   3.329   5.157  0.0793  0.0228  0.6077
 3621TIP3    H110827   3.053   3.418   5.174  2.6346  0.8963  0.7157
 3621TIP3    H210828   3.007   3.275   5.184 -1.2319  2.0505  1.2918
 3622TIP3   OH210829   2.413   6.641   3.992 -0.3863 -0.1239  0.5913
 3622TIP3    H110830   2.402   6.712   4.056 -0.4900 -0.1889  0.6455
 3622TIP3    H210831   2.328   6.597   3.990 -0.8008  0.6726 -0.5543
 3623TIP3   OH210832   0.028   2.069   5.307 -0.5628 -0.0504 -0.5108
 3623TIP3    H110833   0.100   2.023   5.349 -0.8117 -0.4438 -0.5097
 3623TIP3    H210834  -0.005   2.008   5.241  1.1310  1.2770 -2.7404
 3624TIP3   OH210835   6.418   2.226   5.875  0.2290  0.7466 -0.2878
 3624TIP3    H110836   6.357   2.154   5.890  1.4258 -0.5667 -1.4686
 3624TIP3    H210837   6.365   2.295   5.835 -0.5031 -0.3502 -1.2690
 3625TIP3   OH210838   0.712   2.216   0.930 -0.1241  0.2361  0.3960
 3625TIP3    H110839   0.619   2.221   0.905  0.0414  1.6533 -0.0597
 3625TIP3    H210840   0.757   2.265   0.861  0.8950  0.0375  0.9135
 3626TIP3   OH210841   4.108   1.171   0.153 -0.1775 -0.5448  0.0954
 3626TIP3    H110842   4.166   1.111   0.105  0.4052 -0.4416  0.6503
 3626TIP3    H210843   4.083   1.122   0.232  0.1634 -0.1279  0.4664
 3627TIP3   OH210844   6.358   5.062   5.638  0.5096 -0.3004 -0.1868
 3627TIP3    H110845   6.313   5.054   5.554  1.1667  0.3588 -0.6135
 3627TIP3    H210846   6.416   5.137   5.627  1.3061 -0.7991  0.5367
 3628TIP3   OH210847   5.967   1.397   5.329  0.0009 -0.3202  0.7272
 3628TIP3    H110848   5.872   1.400   5.328 -0.0062  2.9271 -0.7707
 3628TIP3    H210849   5.991   1.414   5.420 -0.8891  0.7603  0.7788
 3629TIP3   OH210850   2.929   0.952   2.195  0.2236  0.2430 -0.1890
 3629TIP3    H110851   2.870   0.879   2.215 -0.1094  0.8114  0.9560
 3629TIP3    H210852   2.883   1.001   2.126 -0.1275  0.0799 -0.0753
 3630TIP3   OH210853   5.532   5.259   4.235 -0.0063 -0.2991 -0.2289
 3630TIP3    H110854   5.456   5.200   4.232  0.4891 -1.0343  1.1187
 3630TIP3    H210855   5.600   5.213   4.186  0.2446 -0.6632  0.4509
 3631TIP3   OH210856   1.507   1.487   5.180  0.4300  0.0174  0.0643
 3631TIP3    H110857   1.545   1.416   5.231 -0.2067  0.2092  0.8276
 3631TIP3    H210858   1.472   1.547   5.246  0.2742  0.6493 -0.5880
 3632TIP3   OH210859   2.808   2.141   5.607  0.6330 -0.1939 -0.0943
 3632TIP3    H110860   2.818   2.056   5.649  0.3382 -0.3362 -0.3120
 3632TIP3    H210861   2.884   2.148   5.549 -0.2347 -1.0655 -1.3769
 3633TIP3   OH210862   1.647   2.980   1.293  0.0315 -1.3652  0.4341
 3633TIP3    H110863   1.564   3.025   1.311 -1.0063 -1.8370 -2.6503
 3633TIP3    H210864   1.694   2.983   1.377 -1.2253  2.7242  1.2440
 3634TIP3   OH210865   4.983   4.839   2.022 -0.0967 -0.4597  0.6239
 3634TIP3    H110866   4.887   4.845   2.018 -0.0572  0.2680  0.6523
 3634TIP3    H210867   5.001   4.746   2.008 -0.7882 -0.5482  0.2615
 3635TIP3   OH210868   4.410   0.144   5.749 -0.0041 -0.4053  0.0489
 3635TIP3    H110869   4.446   0.178   5.667  1.0489 -0.7980  0.3409
 3635TIP3    H210870   4.319   0.124   5.728 -0.0714  0.5982 -0.7023
 3636TIP3   OH210871   2.409   6.203   1.049  0.8446 -0.9890 -0.2402
 3636TIP3    H110872   2.365   6.133   1.097  1.6185 -1.4846 -0.2270
 3636TIP3    H210873   2.366   6.204   0.964 -1.5024  0.8566  0.8813
 3637TIP3   OH210874   6.477   5.714   1.629  0.1419  0.4986 -0.1867
 3637TIP3    H110875   6.533   5.651   1.674 -1.4940 -0.5511  0.4997
 3637TIP3    H210876   6.401   5.663   1.601 -1.1519  2.1076  0.1963
 3638TIP3   OH210877   1.207   5.293   3.692 -0.0445  0.3526 -0.1868
 3638TIP3    H110878   1.258   5.246   3.758 -0.6971  1.5657  1.2731
 3638TIP3    H210879   1.268   5.356   3.654 -0.2970  1.5374  1.2796
 3639TIP3   OH210880   6.107   1.889   5.307 -0.0407  0.3705 -0.3867
 3639TIP3    H110881   6.157   1.932   5.238 -0.4457 -0.8513 -1.4824
 3639TIP3    H210882   6.040   1.840   5.260 -0.1819 -0.6698  0.8683
 3640TIP3   OH210883   2.822   1.861   4.336  0.4758  0.3585 -0.0261
 3640TIP3    H110884   2.812   1.906   4.253  1.1373 -0.8986 -0.8141
 3640TIP3    H210885   2.841   1.931   4.399 -0.2935  1.3458 -0.8599
 3641TIP3   OH210886   0.279   5.634   1.369 -0.6648  0.2262  0.8023
 3641TIP3    H110887   0.326   5.554   1.345 -1.6019 -0.3841  0.9299
 3641TIP3    H210888   0.241   5.665   1.288 -0.5363  0.3848  0.8029
 3642TIP3   OH210889   6.958   6.577   1.894 -0.2181 -0.1872  0.3066
 3642TIP3    H110890   7.010   6.618   1.963 -1.0324  1.6674 -0.1238
 3642TIP3    H210891   7.006   6.496   1.873  0.1167 -0.7522  2.8986
 3643TIP3   OH210892   1.539   0.847   5.348  0.3128 -0.4317 -0.2454
 3643TIP3    H110893   1.528   0.909   5.419  0.1477  0.0754 -0.7054
 3643TIP3    H210894   1.603   0.888   5.290 -1.0645  0.1405 -1.4369
 3644TIP3   OH210895   3.255   0.986   4.365  0.1457  0.2851  0.0060
 3644TIP3    H110896   3.160   0.980   4.378 -0.2115 -0.3717 -2.4908
 3644TIP3    H210897   3.289   1.016   4.450 -2.5663  3.3915  0.2080
 3645TIP3   OH210898   2.895   2.409   2.934  0.1878  0.2247 -0.4436
 3645TIP3    H110899   2.831   2.416   3.005  1.4711  0.3669  0.7325
 3645TIP3    H210900   2.908   2.499   2.905  1.1241  0.4165  0.5063
 3646TIP3   OH210901   0.174   0.654   4.390 -0.2044  0.1434  0.3206
 3646TIP3    H110902   0.156   0.601   4.468  1.1039 -0.6344  0.1318
 3646TIP3    H210903   0.232   0.599   4.337  0.7927  1.5659 -0.1163
 3647TIP3   OH210904   3.522   0.249   2.860 -0.4065  0.0272  0.4518
 3647TIP3    H110905   3.449   0.214   2.809  0.6191  0.5955 -1.4955
 3647TIP3    H210906   3.524   0.342   2.839  2.6962 -0.4355 -2.0648
 3648TIP3   OH210907   2.293   1.692   1.563 -0.0363 -0.1082 -0.0721
 3648TIP3    H110908   2.258   1.695   1.473  0.2493  0.2116 -0.1759
 3648TIP3    H210909   2.388   1.686   1.551  0.1391  1.6244  0.1948
 3649TIP3   OH210910   4.656   5.113   5.488 -0.5477  0.2167  0.1793
 3649TIP3    H110911   4.596   5.064   5.432 -1.8944  1.7496  0.2293
 3649TIP3    H210912   4.665   5.058   5.566 -1.5616 -0.2403 -0.0065
 3650TIP3   OH210913   7.236   3.625   1.556 -0.6248  0.7903  0.3652
 3650TIP3    H110914   7.160   3.626   1.614 -1.8889  1.2029 -1.2177
 3650TIP3    H210915   7.200   3.643   1.469  0.3166 -4.6113 -1.5589
 3651TIP3   OH210916   2.123   6.309   3.717 -0.1481 -0.5375 -0.3048
 3651TIP3    H110917   2.115   6.405   3.717 -0.3086 -0.5499 -0.0161
 3651TIP3    H210918   2.090   6.282   3.803  3.2662 -0.5683  1.1719
 3652TIP3   OH210919   2.292   6.743   3.361  0.4702 -0.1231 -0.5148
 3652TIP3    H110920   2.212   6.765   3.409  2.4152  2.5194  1.8801
 3652TIP3    H210921   2.298   6.810   3.293  1.6000  1.0516  0.6710
 3653TIP3   OH210922   4.420   6.785   0.075 -0.0685 -0.5988 -0.4412
 3653TIP3    H110923   4.451   6.793   0.166 -0.1078 -1.9848 -0.2843
 3653TIP3    H210924   4.370   6.704   0.074 -0.3408 -0.4332 -1.6424
 3654TIP3   OH210925   2.794   6.483   3.656  0.2524 -0.4676  0.4202
 3654TIP3    H110926   2.769   6.392   3.638 -1.8380  0.3986 -1.3339
 3654TIP3    H210927   2.762   6.499   3.745  1.1435 -1.5714  0.9730
 3655TIP3   OH210928   1.789   0.063   4.901  0.1194 -0.7422 -0.1050
 3655TIP3    H110929   1.814  -0.001   4.967  1.2723 -0.3263 -0.1217
 3655TIP3    H210930   1.871   0.100   4.870 -0.5438  1.3935  0.5305
 3656TIP3   OH210931   0.783   1.602   2.779  0.1991  0.0996 -0.1659
 3656TIP3    H110932   0.745   1.532   2.725 -1.0685  1.3060 -0.9146
 3656TIP3    H210933   0.716   1.619   2.846  0.7509  0.2086  0.3643
 3657TIP3   OH210934   0.807   5.307   2.952 -0.2380 -0.5173  0.2941
 3657TIP3    H110935   0.741   5.357   2.903 -0.0567  0.8586  1.3743
 3657TIP3    H210936   0.808   5.348   3.039  2.1907 -0.3384  0.2517
 3658TIP3   OH210937   4.671   5.772   0.654 -0.3709  0.4639  0.0806
 3658TIP3    H110938   4.729   5.817   0.593 -0.2108  1.0336  0.6465
 3658TIP3    H210939   4.722   5.766   0.735 -0.1926 -1.1734 -0.1055
 3659TIP3   OH210940   1.398   1.171   3.457  0.1351 -0.3587 -0.3558
 3659TIP3    H110941   1.341   1.174   3.381 -1.4391 -1.7153  0.7091
 3659TIP3    H210942   1.477   1.127   3.426  0.0651  0.2721 -1.4978
 3660TIP3   OH210943   5.593   6.759   0.553  0.1022 -0.3541 -0.1639
 3660TIP3    H110944   5.628   6.710   0.478  1.0338  1.4345 -0.9508
 3660TIP3    H210945   5.499   6.761   0.539  0.1673 -0.8942 -0.7348
 3661TIP3   OH210946   4.718   4.897   4.196 -0.6090 -0.1539  0.4830
 3661TIP3    H110947   4.674   4.972   4.237 -0.2764 -0.1923  0.9130
 3661TIP3    H210948   4.714   4.916   4.102  1.4874  1.5526  0.6669
 3662TIP3   OH210949   4.996   0.143   4.815  0.4149 -0.6937  0.1010
 3662TIP3    H110950   5.026   0.227   4.780  0.6460  0.7215  3.3283
 3662TIP3    H210951   5.035   0.077   4.758  1.7232  1.3392 -1.4742
 3663TIP3   OH210952   3.887   2.498   2.147 -0.0585 -0.2884  0.1099
 3663TIP3    H110953   3.901   2.431   2.081  0.4754  1.1106 -1.2498
 3663TIP3    H210954   3.798   2.482   2.179 -0.9799  0.0014 -2.1507
 3664TIP3   OH210955   4.374   3.165   0.782 -0.2713  0.1366  0.0411
 3664TIP3    H110956   4.415   3.212   0.854  0.4537  3.0442 -2.0860
 3664TIP3    H210957   4.289   3.208   0.771  0.4165  1.0795 -1.9756
 3665TIP3   OH210958   3.033   0.104   0.774  0.1603  0.4661  0.5456
 3665TIP3    H110959   3.085   0.177   0.742 -0.0156  0.0546 -0.7515
 3665TIP3    H210960   2.960   0.144   0.821 -0.1388  1.1393 -0.4718
 3666TIP3   OH210961   6.084   0.721   3.589  0.0875 -0.3302  0.0640
 3666TIP3    H110962   6.047   0.790   3.644 -1.0024 -0.7176 -0.1616
 3666TIP3    H210963   6.176   0.717   3.614 -0.0453  0.5697  0.7336
 3667TIP3   OH210964   0.642   0.961   4.052 -0.5658 -0.3150 -0.5350
 3667TIP3    H110965   0.651   0.907   4.131  0.6862  0.1169 -0.3668
 3667TIP3    H210966   0.637   0.897   3.980  1.4262 -0.7002 -0.3922
 3668TIP3   OH210967   6.820   5.106   5.229 -0.0254  0.3990  0.0804
 3668TIP3    H110968   6.767   5.081   5.154 -1.6212 -1.1265  1.6211
 3668TIP3    H210969   6.910   5.104   5.196 -0.4689 -2.3492 -1.3132
 3669TIP3   OH210970   0.734   3.959   1.262 -0.0999  0.1964  0.0994
 3669TIP3    H110971   0.752   3.896   1.193  2.5484  0.4927  0.4151
 3669TIP3    H210972   0.700   3.906   1.335  0.9685 -0.6985 -0.0372
 3670TIP3   OH210973   4.982   1.458   0.820  0.4801  0.2027 -0.3428
 3670TIP3    H110974   4.917   1.522   0.849 -1.5382 -0.6829 -2.5820
 3670TIP3    H210975   5.043   1.509   0.766 -1.0394  0.3604 -2.0067
 3671TIP3   OH210976   5.498   4.903   4.776  0.1437 -0.5853  0.0858
 3671TIP3    H110977   5.484   4.854   4.856  0.4661  1.3754  1.4035
 3671TIP3    H210978   5.419   4.956   4.766  1.0371  0.8501  0.3819
 3672TIP3   OH210979   4.436   4.799   0.942 -0.0501  0.4075  0.0491
 3672TIP3    H110980   4.503   4.734   0.921 -0.4009  0.0558  0.0013
 3672TIP3    H210981   4.439   4.860   0.868 -0.3946 -0.1099 -0.4011
 3673TIP3   OH210982   4.415   4.607   0.138 -0.2227  0.2906  0.4300
 3673TIP3    H110983   4.498   4.635   0.100 -0.5697  2.6858  1.2871
 3673TIP3    H210984   4.364   4.687   0.147 -2.0396 -0.9035  1.3690
 3674TIP3   OH210985   2.793   0.856   4.126  0.5390 -0.2346 -0.1123
 3674TIP3    H110986   2.709   0.816   4.104 -0.3396  0.5079  1.6726
 3674TIP3    H210987   2.853   0.824   4.059 -1.1217 -0.9035 -1.3504
 3675TIP3   OH210988   3.901   5.838   4.847 -0.0583  0.3725  0.4298
 3675TIP3    H110989   3.829   5.818   4.908 -0.8736  1.4016 -0.1517
 3675TIP3    H210990   3.859   5.840   4.761  0.4401  1.9465  0.1810
 3676TIP3   OH210991   3.661   2.286   3.294 -0.6148 -0.0891 -0.1843
 3676TIP3    H110992   3.618   2.253   3.215 -1.3508 -1.1352  0.6310
 3676TIP3    H210993   3.695   2.372   3.268 -0.5086 -0.5700 -1.7395
 3677TIP3   OH210994   4.294   1.273   1.493 -0.5295 -0.3323  0.3902
 3677TIP3    H110995   4.327   1.362   1.487  0.4568 -0.7855 -1.6088
 3677TIP3    H210996   4.372   1.217   1.491 -1.2020 -1.2956 -0.9322
 3678TIP3   OH210997   5.217   2.916   4.789  0.1982  0.3064  0.0982
 3678TIP3    H110998   5.164   2.885   4.862 -0.5830  1.8827  0.2295
 3678TIP3    H210999   5.189   3.006   4.775  2.8290  1.2082  0.1410
 3679TIP3   OH211000   4.572   2.630   0.510 -0.2038 -0.6140 -0.3100
 3679TIP3    H111001   4.518   2.682   0.450  0.1180  0.3876  0.2621
 3679TIP3    H211002   4.662   2.644   0.481 -0.0408 -0.0787  0.4384
 3680TIP3   OH211003   3.387   4.612   0.354 -0.1759 -0.4313  0.2382
 3680TIP3    H111004   3.321   4.640   0.291  0.3878 -0.5873 -0.4337
 3680TIP3    H211005   3.440   4.690   0.369 -0.6624 -0.2297  0.9887
 3681TIP3   OH211006   6.991   5.131   4.370 -0.3844 -0.0877  0.0668
 3681TIP3    H111007   7.060   5.097   4.313 -2.4408 -2.0798 -1.4075
 3681TIP3    H211008   6.962   5.056   4.421 -1.4354  0.7211  0.7168
 3682TIP3   OH211009   1.724   3.808   4.077 -0.0282  1.0429  0.7998
 3682TIP3    H111010   1.819   3.797   4.084 -0.1640 -0.1935  0.9403
 3682TIP3    H211011   1.695   3.831   4.165 -0.0150 -0.1106  1.1322
 3683TIP3   OH211012   1.147   6.570   0.133  0.5451 -0.4467  0.4616
 3683TIP3    H111013   1.070   6.517   0.110  0.9070 -0.1830 -1.5876
 3683TIP3    H211014   1.220   6.525   0.091  1.1611  0.5514  0.4425
 3684TIP3   OH211015   4.095   4.437   1.421 -0.3073  0.5068 -0.1455
 3684TIP3    H111016   4.077   4.482   1.339  0.5329 -0.4718 -0.8896
 3684TIP3    H211017   4.168   4.379   1.401 -2.1724 -2.2195  0.3772
 3685TIP3   OH211018   4.116   2.101   1.684  0.4546  0.2828  0.1854
 3685TIP3    H111019   4.199   2.089   1.731  0.4793 -1.9045 -0.3091
 3685TIP3    H211020   4.054   2.128   1.752  0.4418 -2.9638  1.6712
 3686TIP3   OH211021   3.282   6.391   2.058 -0.3145 -0.6259 -1.2480
 3686TIP3    H111022   3.212   6.325   2.058 -2.7578  1.7473  0.1686
 3686TIP3    H211023   3.346   6.358   2.121 -0.5531 -2.4428 -1.8805
 3687TIP3   OH211024   6.131   1.024   1.055 -0.3371  0.5914 -0.2079
 3687TIP3    H111025   6.054   1.069   1.088  0.2510  1.9973 -0.6963
 3687TIP3    H211026   6.098   0.940   1.022 -1.0604 -0.7092  3.3171
 3688TIP3   OH211027   5.559   3.319   1.212  0.5068  0.7878 -0.6605
 3688TIP3    H111028   5.612   3.320   1.292  0.8064  1.2738 -0.8579
 3688TIP3    H211029   5.503   3.242   1.221  1.9750 -0.3597 -0.9305
 3689TIP3   OH211030   2.304   1.679   3.512 -0.4412  0.2200  0.3425
 3689TIP3    H111031   2.251   1.725   3.576 -0.9314 -1.1901  0.9966
 3689TIP3    H211032   2.253   1.600   3.492  1.2721 -1.0421  0.7951
 3690TIP3   OH211033   1.816   2.212   3.418  0.6061 -0.4635  0.0453
 3690TIP3    H111034   1.805   2.141   3.355  0.2212  0.6178 -1.1420
 3690TIP3    H211035   1.903   2.248   3.398  0.7563 -0.5267  0.5707
 3691TIP3   OH211036   5.985   0.186   2.152 -0.2553 -0.6580 -0.1876
 3691TIP3    H111037   5.991   0.098   2.187  0.3421 -0.1637  1.0374
 3691TIP3    H211038   5.914   0.227   2.201  0.3478 -0.0677  0.2253
 3692TIP3   OH211039   6.388   2.586   5.629 -0.1346  0.6739  0.2070
 3692TIP3    H111040   6.432   2.553   5.550  0.4663 -1.1391  1.2416
 3692TIP3    H211041   6.453   2.641   5.672  0.1664  0.2159  0.3403
 3693TIP3   OH211042   4.054   3.615   0.495  0.2726  0.7395  0.2861
 3693TIP3    H111043   4.048   3.533   0.445  1.7722 -0.4669  1.9645
 3693TIP3    H211044   3.974   3.662   0.472  0.1698 -0.3925 -2.0721
 3694TIP3   OH211045   1.679   5.329   0.375  0.4066  0.3888 -0.8452
 3694TIP3    H111046   1.748   5.306   0.437  0.9215  0.4453 -1.3889
 3694TIP3    H211047   1.665   5.422   0.388 -1.1959 -0.0315  0.8741
 3695TIP3   OH211048   3.166   1.936   3.469 -0.2952 -0.1860 -0.1845
 3695TIP3    H111049   3.245   1.987   3.485  0.6064 -1.5183 -0.2265
 3695TIP3    H211050   3.098   2.001   3.455  1.2506  1.0522 -2.5480
 3696TIP3   OH211051   6.647   2.605   3.282 -0.4874 -0.5448 -0.0961
 3696TIP3    H111052   6.593   2.527   3.285 -0.4653 -0.5371  0.6964
 3696TIP3    H211053   6.723   2.583   3.336 -0.3176 -0.0967 -0.1500
 3697TIP3   OH211054   5.068   5.319   1.109 -0.3093  0.7851  0.1131
 3697TIP3    H111055   5.032   5.245   1.158  1.6296  0.2926  0.9027
 3697TIP3    H211056   5.071   5.391   1.172  0.9376  0.5318  0.3822
 3698TIP3   OH211057   2.661   0.917   1.569  0.0802 -0.7262  0.3537
 3698TIP3    H111058   2.728   0.849   1.575  0.9669  0.0344 -0.4140
 3698TIP3    H211059   2.691   0.974   1.498 -1.0055  0.0581  0.4887
 3699TIP3   OH211060   0.278   4.507   0.357  0.0655 -0.4965  0.1701
 3699TIP3    H111061   0.367   4.531   0.332 -0.0483  0.0805  0.2975
 3699TIP3    H211062   0.245   4.456   0.284 -0.0608  0.6697 -0.6126
 3700TIP3   OH211063   4.006   1.061   1.352  0.0167  0.2532 -0.2830
 3700TIP3    H111064   4.036   1.151   1.360 -0.4054  0.5823 -1.9416
 3700TIP3    H211065   3.961   1.059   1.267  1.1496 -1.8290 -0.8999
 3701TIP3   OH211066   6.437   3.546   0.381  0.0262  0.4401  0.1043
 3701TIP3    H111067   6.443   3.468   0.435 -0.0589  0.1058 -0.3658
 3701TIP3    H211068   6.428   3.513   0.291  0.2511  0.9856 -0.1241
 3702TIP3   OH211069   5.275   1.062   1.965  0.3154 -0.5391  0.2639
 3702TIP3    H111070   5.216   1.132   1.994 -0.4234 -1.5627  1.3048
 3702TIP3    H211071   5.238   1.033   1.882  0.8746  0.5745 -0.3965
 3703TIP3   OH211072   6.767   4.507   5.049  0.5765  0.3447 -0.6213
 3703TIP3    H111073   6.842   4.451   5.028 -1.4545 -2.8326 -0.1100
 3703TIP3    H211074   6.736   4.474   5.133  1.0052  4.3979  1.3206
 3704TIP3   OH211075   2.143   3.984   5.302  0.2711 -0.1043 -0.0464
 3704TIP3    H111076   2.143   3.987   5.206 -0.2076 -1.6769 -0.1175
 3704TIP3    H211077   2.217   4.040   5.328 -0.7873  1.9493 -1.2391
 3705TIP3   OH211078   4.737   6.407   3.550  0.4297  0.5638  0.0969
 3705TIP3    H111079   4.776   6.404   3.462  0.5124  1.5996  0.0902
 3705TIP3    H211080   4.643   6.421   3.534  0.5019  1.1383  0.1860
 3706TIP3   OH211081   5.646   2.337   3.579  0.3635  0.0872  0.2879
 3706TIP3    H111082   5.625   2.253   3.620  2.5114 -0.8149 -0.3153
 3706TIP3    H211083   5.637   2.319   3.485  0.4110  0.6620  0.1742
 3707TIP3   OH211084   2.099   3.057   1.877 -0.5295 -0.3647 -0.6717
 3707TIP3    H111085   2.121   2.966   1.856  1.8277 -0.2615  0.9954
 3707TIP3    H211086   2.007   3.065   1.851 -1.5498 -3.8836  1.1373
 3708TIP3   OH211087   1.245   1.664   5.569  0.0011  0.0084  0.0063
 3708TIP3    H111088   1.207   1.622   5.645  3.0033  0.5750  1.9966
 3708TIP3    H211089   1.227   1.757   5.581 -1.6988 -0.0787 -1.4085
 3709TIP3   OH211090   7.114   1.173   5.294 -0.4530  0.0835 -0.1162
 3709TIP3    H111091   7.174   1.194   5.365  2.3387  0.6427 -2.4837
 3709TIP3    H211092   7.119   1.078   5.286 -3.2750 -0.4248  2.3441
 3710TIP3   OH211093   3.957   5.165   5.486  0.0905 -0.1718  0.0299
 3710TIP3    H111094   3.891   5.102   5.515  0.4727  0.0148  1.3654
 3710TIP3    H211095   3.987   5.207   5.566  0.4998  1.0762 -0.7527
 3711TIP3   OH211096   0.445   2.478   4.007 -0.4017  0.2598  0.1523
 3711TIP3    H111097   0.350   2.474   4.012 -0.3708  0.9671  1.7274
 3711TIP3    H211098   0.463   2.509   3.918 -1.6942  1.7214  0.3727
 3712TIP3   OH211099   6.969   4.400   2.439  0.2459 -0.0108 -0.0274
 3712TIP3    H111100   6.981   4.461   2.512  1.5134  0.0462 -0.2680
 3712TIP3    H211101   6.890   4.350   2.462 -0.3597  1.1741  0.5463
 3713TIP3   OH211102   3.944   2.008   3.825 -0.1574 -0.4157 -0.1152
 3713TIP3    H111103   3.857   1.980   3.851 -0.6252  1.3822  0.4092
 3713TIP3    H211104   3.930   2.092   3.780  1.3750  0.5610  1.1157
 3714TIP3   OH211105   6.850   1.428   3.652 -0.2417 -0.1985 -0.3767
 3714TIP3    H111106   6.817   1.517   3.656 -0.6048 -0.3247 -0.5907
 3714TIP3    H211107   6.874   1.414   3.560 -1.0360 -0.6277 -0.5235
 3715TIP3   OH211108   0.595   2.776   1.968  0.0810 -0.3992 -0.6346
 3715TIP3    H111109   0.688   2.789   1.986 -0.1614 -0.8940  1.1519
 3715TIP3    H211110   0.592   2.698   1.912  0.6975 -1.1225  0.2996
 3716TIP3   OH211111   7.001   1.205   4.501  0.0667 -0.3304 -0.3579
 3716TIP3    H111112   7.011   1.113   4.528  1.2215  0.4842  2.3134
 3716TIP3    H211113   7.090   1.232   4.478  0.0936  0.6077  0.7649
 3717TIP3   OH211114   4.611   4.656   4.872  0.0655  0.0578  0.2204
 3717TIP3    H111115   4.692   4.665   4.922  1.3512  0.0620 -1.7116
 3717TIP3    H211116   4.597   4.742   4.833 -0.3444 -0.1894 -0.1936
 3718TIP3   OH211117   3.662   2.641   2.702 -0.2635 -0.0451 -0.1037
 3718TIP3    H111118   3.755   2.662   2.707 -0.2506  0.6852 -2.2071
 3718TIP3    H211119   3.618   2.710   2.751  0.1898  1.1165 -1.2626
 3719TIP3   OH211120   0.092   4.955   1.818  0.2695  0.1131  0.1301
 3719TIP3    H111121   0.132   5.003   1.745  0.6613  1.4167  1.1632
 3719TIP3    H211122   0.103   4.863   1.795  2.9704  0.4236 -0.1194
 3720TIP3   OH211123   5.462   2.611   3.776 -0.3519  0.3310  0.1617
 3720TIP3    H111124   5.437   2.640   3.864 -3.5492 -2.0015  0.2266
 3720TIP3    H211125   5.453   2.689   3.722 -0.8320  1.2589  1.5102
 3721TIP3   OH211126   3.059   2.378   3.212 -0.2342  0.7047  0.4280
 3721TIP3    H111127   2.995   2.307   3.209  0.3199  0.2176 -0.5220
 3721TIP3    H211128   3.144   2.334   3.199  0.2923  1.3553  1.4747
 3722TIP3   OH211129   5.733   5.415   5.355  0.1627  0.3348 -0.0818
 3722TIP3    H111130   5.709   5.431   5.446  0.0228  1.3856 -0.2946
 3722TIP3    H211131   5.668   5.463   5.303  0.3138 -0.1480 -0.7364
 3723TIP3   OH211132   0.294   1.311   3.896 -0.0163 -0.4428  0.2658
 3723TIP3    H111133   0.371   1.366   3.908 -0.0306 -0.2669 -0.4073
 3723TIP3    H211134   0.322   1.224   3.922 -0.3865  0.0998  2.7076
 3724TIP3   OH211135   4.344   0.420   4.770  0.2952  0.2125  0.5587
 3724TIP3    H111136   4.386   0.339   4.798  0.2971  0.3277  0.8828
 3724TIP3    H211137   4.276   0.391   4.708 -0.5235 -0.1456  1.5918
 3725TIP3   OH211138   1.483   6.284   2.319  0.0150 -0.2532  0.5447
 3725TIP3    H111139   1.446   6.356   2.268  0.5321 -0.5130 -0.2081
 3725TIP3    H211140   1.413   6.258   2.379  0.2054  1.6607  1.6747
 3726TIP3   OH211141   2.550   3.837   1.953  0.0904 -0.2427 -0.4611
 3726TIP3    H111142   2.612   3.783   2.003  0.7354  1.5216  0.7374
 3726TIP3    H211143   2.466   3.794   1.964  0.7543 -1.6010 -0.4710
 3727TIP3   OH211144   3.539   4.985   5.122 -0.2769  0.0195 -0.8008
 3727TIP3    H111145   3.550   5.026   5.036 -1.7352 -0.7112 -1.3799
 3727TIP3    H211146   3.581   4.899   5.114  1.4028  0.7448 -0.0923
 3728TIP3   OH211147   4.427   6.257   4.003  0.1040 -0.1353 -0.8805
 3728TIP3    H111148   4.514   6.233   3.972  0.0308 -0.6002 -0.7351
 3728TIP3    H211149   4.376   6.176   3.998 -0.0470 -0.1033 -0.0229
 3729TIP3   OH211150   1.033   0.087   2.186 -0.3777  0.4319  0.8134
 3729TIP3    H111151   1.128   0.076   2.194 -0.3579  0.0346  0.0656
 3729TIP3    H211152   0.998  -0.003   2.189 -0.5714  0.4195 -0.8406
 3730TIP3   OH211153   5.562   4.235   2.734 -0.0775  0.1426  0.1346
 3730TIP3    H111154   5.587   4.320   2.699 -1.4458  0.7027  0.4472
 3730TIP3    H211155   5.595   4.235   2.824 -1.8351  1.2067  0.8154
 3731TIP3   OH211156   5.506   6.347   1.573 -0.2594 -0.2130  0.1862
 3731TIP3    H111157   5.587   6.302   1.549 -0.2078  0.2404 -0.5160
 3731TIP3    H211158   5.495   6.328   1.666  0.4203 -0.6399  0.1881
 3732TIP3   OH211159   0.212   1.972   2.416  0.1981  0.4757  0.3942
 3732TIP3    H111160   0.173   2.048   2.459  1.6899  1.3373  0.2810
 3732TIP3    H211161   0.227   1.909   2.487  0.5970  1.0020  0.7789
 3733TIP3   OH211162   1.010   1.570   5.028  0.0863  0.5768 -0.1832
 3733TIP3    H111163   0.949   1.558   4.955  0.0107 -1.2033  0.1235
 3733TIP3    H211164   0.972   1.519   5.100  1.0413  0.8821  0.5580
 3734TIP3   OH211165   4.469   0.613   2.063  0.3371 -0.4567  0.6988
 3734TIP3    H111166   4.561   0.635   2.074  0.2715 -0.0572  0.4541
 3734TIP3    H211167   4.449   0.639   1.973  0.6501 -2.8571 -0.1425
 3735TIP3   OH211168   3.544   4.079   4.762 -0.1321 -0.4085 -0.6976
 3735TIP3    H111169   3.639   4.076   4.759 -0.0926  0.0566 -0.0101
 3735TIP3    H211170   3.518   3.989   4.786  0.2081 -0.1905  0.5652
 3736TIP3   OH211171   1.776   4.561   0.003 -0.4584 -0.7476  0.1323
 3736TIP3    H111172   1.834   4.484  -0.003  0.6774  0.1509 -1.1056
 3736TIP3    H211173   1.830   4.628   0.045 -0.4954  0.1741 -1.2372
 3737TIP3   OH211174   5.611   6.553   1.880  0.2416  0.5584 -0.1153
 3737TIP3    H111175   5.557   6.612   1.933  0.8082  0.4450  0.6090
 3737TIP3    H211176   5.602   6.586   1.791  1.6956  2.6911  0.4378
 3738TIP3   OH211177   6.746   1.178   3.713  0.0445 -0.8129 -0.2985
 3738TIP3    H111178   6.796   1.258   3.723  0.9096 -1.4252  0.4063
 3738TIP3    H211179   6.661   1.207   3.679  0.1562  0.4472  0.4339
 3739TIP3   OH211180   0.678   2.756   3.244 -0.3219  0.4796  0.2561
 3739TIP3    H111181   0.604   2.745   3.184 -0.6380 -1.3060  0.8913
 3739TIP3    H211182   0.700   2.667   3.271  1.6823  1.0068  0.5737
 3740TIP3   OH211183   3.438   2.982   2.723  0.9826  0.1167  0.3358
 3740TIP3    H111184   3.379   2.931   2.667  1.7745 -0.6556  0.1871
 3740TIP3    H211185   3.444   2.931   2.804  1.3251  0.2646  0.4032
 3741TIP3   OH211186   4.389   2.765   4.476  0.0184 -0.1649 -0.3614
 3741TIP3    H111187   4.347   2.850   4.486  1.3216  0.7782 -2.1869
 3741TIP3    H211188   4.362   2.715   4.552 -2.1645  1.2913 -0.1054
 3742TIP3   OH211189   0.381   6.774   1.511  0.3600 -0.1064  0.5522
 3742TIP3    H111190   0.412   6.805   1.596  0.5333 -0.3865  0.5934
 3742TIP3    H211191   0.337   6.691   1.530  2.1283 -1.1784  0.1211
 3743TIP3   OH211192   2.632   3.045   3.453  0.4794 -0.6464  0.1797
 3743TIP3    H111193   2.591   3.130   3.466  1.2806 -0.3807  1.0104
 3743TIP3    H211194   2.611   2.995   3.532  1.2187 -0.7227  0.3356
 3744TIP3   OH211195   4.793   1.880   4.257 -0.2950  0.1248  0.2376
 3744TIP3    H111196   4.767   1.792   4.230 -1.4670  1.5824 -4.3592
 3744TIP3    H211197   4.717   1.915   4.303 -0.6270 -0.5798  0.2326
 3745TIP3   OH211198   5.924   3.370   3.520  0.3183 -0.2805  0.5908
 3745TIP3    H111199   5.923   3.456   3.563  0.3660 -0.4075  0.8446
 3745TIP3    H211200   6.014   3.338   3.534  0.9696  0.5450 -1.3080
 3746TIP3   OH211201   6.487   3.855   1.091 -0.0193 -0.5990  0.1091
 3746TIP3    H111202   6.431   3.889   1.021 -0.3726  0.5124  0.8988
 3746TIP3    H211203   6.489   3.925   1.156  0.7335 -1.3964  0.9737
 3747TIP3   OH211204   2.900   2.826   4.692 -0.2728  0.6524 -0.0030
 3747TIP3    H111205   2.882   2.861   4.779 -2.1936 -1.1877  0.4410
 3747TIP3    H211206   2.813   2.813   4.653  0.5009  0.2429 -1.6875
 3748TIP3   OH211207   6.231   0.175   1.344 -0.2916 -0.2407  0.0413
 3748TIP3    H111208   6.234   0.228   1.264 -0.3461 -1.0650 -0.5090
 3748TIP3    H211209   6.322   0.149   1.359 -0.4360 -1.0198 -0.3881
 3749TIP3   OH211210   7.124   6.700   5.685  0.1882  0.0688  0.0241
 3749TIP3    H111211   7.146   6.686   5.593 -0.0347  2.5671 -0.4799
 3749TIP3    H211212   7.036   6.663   5.694 -0.2477  0.7886 -1.0853
 3750TIP3   OH211213   3.145   0.617   3.010  0.1870  0.2714 -0.1333
 3750TIP3    H111214   3.186   0.677   2.948  0.0100  0.6249  0.0901
 3750TIP3    H211215   3.164   0.530   2.975  2.1143  0.3568  0.5851
 3751TIP3   OH211216   5.181   0.539   5.744  0.4436 -0.0722 -0.4481
 3751TIP3    H111217   5.206   0.540   5.837 -0.8779 -3.0007  0.0674
 3751TIP3    H211218   5.257   0.504   5.699  0.8713  0.7815 -0.4080
 3752TIP3   OH211219   3.003   4.999   2.522 -0.0338  0.4619 -0.0547
 3752TIP3    H111220   2.936   5.030   2.461  0.0850  0.1815 -0.3261
 3752TIP3    H211221   2.973   4.912   2.548  0.0463  0.4782  0.0932
 3753TIP3   OH211222   5.564   0.819   2.315  0.3861  0.1220  0.3377
 3753TIP3    H111223   5.518   0.736   2.307  0.9029 -0.2838  1.4305
 3753TIP3    H211224   5.642   0.808   2.260  0.7741 -0.3545  0.9753
 3754TIP3   OH211225   4.901   4.093   1.950 -0.3611 -0.2934  0.1307
 3754TIP3    H111226   4.910   4.167   1.890  0.0847  0.9810  1.6781
 3754TIP3    H211227   4.962   4.113   2.021 -1.0102 -1.6339  1.1044
 3755TIP3   OH211228   4.571   3.848   0.731  0.6723 -0.0498 -0.8502
 3755TIP3    H111229   4.637   3.816   0.670  0.3725 -1.1550 -0.6047
 3755TIP3    H211230   4.609   3.834   0.818 -0.0584 -1.1554 -0.6830
 3756TIP3   OH211231   4.600   6.777   1.423  0.2667 -0.0123  0.0373
 3756TIP3    H111232   4.527   6.727   1.460 -0.2467  1.8212  1.6212
 3756TIP3    H211233   4.666   6.778   1.492  1.1963 -0.3377 -0.8177
 3757TIP3   OH211234   0.668   5.231   5.075 -0.2160  0.0587 -0.1239
 3757TIP3    H111235   0.694   5.296   5.140  0.4003  0.5317 -0.8136
 3757TIP3    H211236   0.588   5.193   5.109  0.4818 -0.2235  1.2509
 3758TIP3   OH211237   0.740   0.943   3.660 -0.0132  0.0429  0.3752
 3758TIP3    H111238   0.652   0.905   3.663  0.1620 -0.6808 -1.7427
 3758TIP3    H211239   0.727   1.037   3.666 -0.8931 -0.0894  0.5914
 3759TIP3   OH211240   4.378   2.001   2.916 -0.1381 -0.4842  0.2533
 3759TIP3    H111241   4.339   1.959   2.992 -1.2620 -1.5310 -0.8536
 3759TIP3    H211242   4.305   2.013   2.855  0.8008 -0.0630 -0.8320
 3760TIP3   OH211243   6.086   1.165   2.512  0.4598  0.2915 -0.3686
 3760TIP3    H111244   6.025   1.198   2.446  0.2726 -1.1189 -0.9289
 3760TIP3    H211245   6.033   1.158   2.592  0.2228  0.2965 -0.5246
 3761TIP3   OH211246   6.133   4.339   3.165 -0.2353 -0.2353 -0.1189
 3761TIP3    H111247   6.142   4.363   3.073 -2.3883 -0.3088 -0.4036
 3761TIP3    H211248   6.116   4.421   3.210 -1.3637 -0.4436 -0.1410
 3762TIP3   OH211249   0.478   6.173   5.418  0.0877  0.3462  0.4374
 3762TIP3    H111250   0.439   6.114   5.353 -0.9254 -0.3210  1.6057
 3762TIP3    H211251   0.571   6.149   5.419 -0.1429 -0.5997  0.2368
 3763TIP3   OH211252   5.166   4.795   5.182 -0.0495  0.0115 -0.1751
 3763TIP3    H111253   5.167   4.870   5.241 -0.4045 -1.2483  1.5050
 3763TIP3    H211254   5.147   4.833   5.096  0.8441  1.9480  0.4167
 3764TIP3   OH211255   2.274   1.356   1.098  0.3669  0.6722 -0.6524
 3764TIP3    H111256   2.231   1.275   1.069  0.2157 -0.6399  2.7486
 3764TIP3    H211257   2.361   1.352   1.059  0.2083 -0.9430 -0.9304
 3765TIP3   OH211258   0.148   2.109   3.498 -0.1181 -0.1712  0.1787
 3765TIP3    H111259   0.104   2.180   3.449  2.1559 -0.0503 -1.8589
 3765TIP3    H211260   0.110   2.029   3.462 -0.6448 -0.0562  0.4538
 3766TIP3   OH211261   6.123   0.465   3.205 -0.7299 -0.9393 -0.6684
 3766TIP3    H111262   6.202   0.457   3.259  0.0225 -1.6267 -1.8004
 3766TIP3    H211263   6.054   0.424   3.256 -1.0257  1.9718  1.5057
 3767TIP3   OH211264   3.296   3.594   5.055 -0.3970  0.3218  0.5001
 3767TIP3    H111265   3.265   3.523   5.111 -0.9272  1.5457  1.8531
 3767TIP3    H211266   3.338   3.655   5.116 -1.0224  1.7247 -0.4126
 3768TIP3   OH211267   1.766   5.842   2.943  0.7797  0.0944  0.2585
 3768TIP3    H111268   1.789   5.762   2.991  1.7485 -0.0652 -0.4698
 3768TIP3    H211269   1.844   5.896   2.948  0.5183  0.5183 -0.2494
 3769TIP3   OH211270   6.877   4.827   1.843  0.0310 -0.0352 -0.0630
 3769TIP3    H111271   6.920   4.834   1.928 -1.7033 -1.7254  1.0014
 3769TIP3    H211272   6.925   4.758   1.797  0.7968  0.6958 -0.4007
 3770TIP3   OH211273   0.454   2.271   2.560 -0.2071 -0.0088 -0.6083
 3770TIP3    H111274   0.474   2.211   2.488  0.0634  0.4444 -0.9144
 3770TIP3    H211275   0.472   2.358   2.525  2.2671  0.1090  0.7076
 3771TIP3   OH211276   2.511   5.010   5.597  0.4718  0.5804  0.2285
 3771TIP3    H111277   2.547   4.921   5.599 -1.2733 -0.1482  1.8182
 3771TIP3    H211278   2.568   5.059   5.656  0.4658  0.1171  0.6251
 3772TIP3   OH211279   0.111   3.631   1.024 -0.1450 -0.0865 -0.3118
 3772TIP3    H111280   0.121   3.651   0.931 -0.7339  0.9351 -0.1815
 3772TIP3    H211281   0.132   3.714   1.068  0.8021 -0.7495  0.5067
 3773TIP3   OH211282   3.894   5.179   3.520  0.0833  0.1112  0.1146
 3773TIP3    H111283   3.939   5.206   3.440  1.2469 -0.7026  0.4693
 3773TIP3    H211284   3.955   5.201   3.590 -0.6896  0.2950  0.7449
 3774TIP3   OH211285   5.819   5.054   0.887 -0.1508 -0.0510  0.1852
 3774TIP3    H111286   5.804   4.960   0.893 -1.0167  0.1442  1.3508
 3774TIP3    H211287   5.739   5.089   0.848 -0.5048  0.3772  1.2723
 3775TIP3   OH211288   1.868   3.527   3.833 -0.2990 -0.1992 -0.1963
 3775TIP3    H111289   1.873   3.609   3.785  1.5694  0.4840  1.0409
 3775TIP3    H211290   1.785   3.531   3.880 -0.1795  1.0379 -0.0625
 3776TIP3   OH211291   1.830   0.241   1.657 -0.2121  0.5118  0.0663
 3776TIP3    H111292   1.786   0.165   1.694  1.5691  0.2598  1.8084
 3776TIP3    H211293   1.760   0.306   1.645 -1.6033 -1.0404 -0.6293
 3777TIP3   OH211294   5.345   6.587   3.216 -0.5736 -0.2885 -0.3334
 3777TIP3    H111295   5.437   6.615   3.210 -0.1046 -1.6888 -0.0689
 3777TIP3    H211296   5.295   6.667   3.205  0.7071  0.6872  0.5790
 3778TIP3   OH211297   6.932   4.159   0.635 -0.0716  0.8468  0.2211
 3778TIP3    H111298   7.014   4.141   0.589  0.8914 -0.9397  2.4636
 3778TIP3    H211299   6.873   4.089   0.608  0.7111 -0.5943  2.0982
 3779TIP3   OH211300   6.245   4.701   1.523 -0.6182  0.0930 -0.4280
 3779TIP3    H111301   6.299   4.701   1.602 -0.0141  0.1872 -0.8329
 3779TIP3    H211302   6.239   4.609   1.498  1.1453  0.2435 -1.5664
 3780TIP3   OH211303   2.281   4.385   4.784 -0.2998 -0.5255 -0.2170
 3780TIP3    H111304   2.358   4.418   4.831 -0.7460 -1.6601  1.3878
 3780TIP3    H211305   2.285   4.428   4.698  1.3938  0.4355  0.2992
 3781TIP3   OH211306   2.018   0.037   2.534  0.4768 -0.0037  0.5437
 3781TIP3    H111307   2.064   0.099   2.590  1.4333 -2.0131  2.1527
 3781TIP3    H211308   1.935   0.020   2.580  0.6958 -0.6758  0.7156
 3782TIP3   OH211309   2.705   4.913   1.331 -0.5301 -0.2911 -0.0842
 3782TIP3    H111310   2.753   4.878   1.406  0.7712  1.0264 -0.2641
 3782TIP3    H211311   2.766   4.975   1.290 -2.1856  1.0342 -0.6492
 3783TIP3   OH211312   3.985   6.493   4.320  0.4521 -0.3506  0.1546
 3783TIP3    H111313   3.950   6.478   4.232  0.9029 -1.0081  0.0819
 3783TIP3    H211314   3.908   6.493   4.377  0.1963 -0.3049 -0.1881
 3784TIP3   OH211315   1.911   4.418   3.975 -0.8160 -0.3572 -0.4806
 3784TIP3    H111316   1.887   4.338   4.022  0.6739 -0.1677  0.6490
 3784TIP3    H211317   1.964   4.388   3.901  2.1173 -0.3529  1.4608
 3785TIP3   OH211318   4.256   4.278   0.537 -0.3217 -0.2548 -0.5986
 3785TIP3    H111319   4.166   4.311   0.537  0.0449  0.8579  1.0355
 3785TIP3    H211320   4.251   4.195   0.585 -0.7904 -1.3147 -2.3780
 3786TIP3   OH211321   4.219   3.622   1.504  0.1952 -0.0255  0.3436
 3786TIP3    H111322   4.260   3.708   1.489  0.2421 -0.2960 -1.3443
 3786TIP3    H211323   4.288   3.560   1.480 -0.4650 -0.5002 -0.3517
 3787TIP3   OH211324   6.483   1.988   3.164  0.5886 -0.2569  0.1043
 3787TIP3    H111325   6.424   1.940   3.106 -1.1937  0.6208  1.0925
 3787TIP3    H211326   6.531   2.047   3.106  0.4729 -0.9758 -0.7340
 3788TIP3   OH211327   2.272   5.281   4.971 -0.6679  0.9107 -0.3412
 3788TIP3    H111328   2.334   5.351   4.949 -0.9254  0.6744 -1.9125
 3788TIP3    H211329   2.252   5.239   4.888  0.1107 -1.6078  0.6462
 3789TIP3   OH211330   4.992   3.536   0.235 -0.1845 -0.3360  0.5566
 3789TIP3    H111331   4.951   3.509   0.152  1.4796 -1.0688 -0.0768
 3789TIP3    H211332   5.085   3.519   0.222  0.5521  2.4453  1.4538
 3790TIP3   OH211333   4.433   4.821   2.575  0.2959 -0.4765 -0.4196
 3790TIP3    H111334   4.503   4.789   2.519  0.8250 -0.3469  0.1543
 3790TIP3    H211335   4.458   4.911   2.595  0.7152 -0.8831  0.9602
 3791TIP3   OH211336   0.168   4.948   4.203  0.5733  0.4184  0.0302
 3791TIP3    H111337   0.103   5.017   4.187 -1.5360 -1.6425 -0.8489
 3791TIP3    H211338   0.212   4.936   4.119  0.9403  0.6650  0.1827
 3792TIP3   OH211339   4.824   6.789   2.239  0.1593  0.2843  0.3377
 3792TIP3    H111340   4.865   6.753   2.318 -0.3791  0.2394  0.6009
 3792TIP3    H211341   4.743   6.739   2.229  0.5960 -0.2538 -0.6923
 3793TIP3   OH211342   7.197   0.759   3.287 -0.0523 -0.4331 -0.7028
 3793TIP3    H111343   7.218   0.784   3.196 -0.6100  0.2690 -0.6541
 3793TIP3    H211344   7.169   0.841   3.328 -0.9622 -0.9566 -0.2309
 3794TIP3   OH211345   4.826   3.130   0.899 -0.3920 -0.4836 -0.5773
 3794TIP3    H111346   4.887   3.115   0.971 -2.1994 -2.3212  0.6592
 3794TIP3    H211347   4.803   3.223   0.906 -0.0336 -0.4834  0.7990
 3795TIP3   OH211348   0.455   3.332   3.500 -0.3214  0.3740 -0.0608
 3795TIP3    H111349   0.391   3.372   3.559 -1.1333 -1.2325  0.2113
 3795TIP3    H211350   0.402   3.283   3.437  0.5610  1.5580 -1.7866
 3796TIP3   OH211351   2.514   4.148   2.949  0.0859 -0.0289  0.7265
 3796TIP3    H111352   2.567   4.137   2.870 -0.7209  1.3536 -0.0443
 3796TIP3    H211353   2.434   4.099   2.932  0.8955 -1.7995  1.7375
 3797TIP3   OH211354   3.921   2.290   0.576 -0.5121  0.0755  0.2743
 3797TIP3    H111355   3.989   2.336   0.527  0.1173 -1.5475 -0.4340
 3797TIP3    H211356   3.881   2.231   0.513 -1.3930 -0.2557  1.1139
 3798TIP3   OH211357   1.355   6.392   2.642  0.7476  0.1069  0.4066
 3798TIP3    H111358   1.382   6.426   2.728  0.0453 -1.1292  1.1512
 3798TIP3    H211359   1.403   6.310   2.633  3.5762  1.7967 -2.0231
 3799TIP3   OH211360   3.721   0.113   0.839  0.5236 -0.1200 -0.3807
 3799TIP3    H111361   3.804   0.072   0.816  0.7523 -0.2118  0.5716
 3799TIP3    H211362   3.743   0.176   0.907 -0.1124  0.2197 -0.4808
 3800TIP3   OH211363   5.086   3.877   3.232  0.4963  0.8305  0.1030
 3800TIP3    H111364   5.008   3.850   3.184  0.9779  0.5733 -0.5431
 3800TIP3    H211365   5.158   3.866   3.170  1.2017  0.0257  1.0232
 3801TIP3   OH211366   2.060   0.049   0.771 -0.3215  0.0007 -0.0240
 3801TIP3    H111367   2.077   0.085   0.684 -0.4840 -0.2066 -0.1420
 3801TIP3    H211368   2.017   0.120   0.819 -0.5579 -0.0048 -0.2268
 3802TIP3   OH211369   6.165   5.059   4.825  0.1342 -0.1342 -0.2291
 3802TIP3    H111370   6.176   5.151   4.801  0.2201 -0.2542 -0.6582
 3802TIP3    H211371   6.155   5.060   4.920  2.3687  0.1298  0.0514
 3803TIP3   OH211372   7.182   1.189   2.122 -0.1844  0.2630  0.2101
 3803TIP3    H111373   7.098   1.224   2.091 -0.5644 -1.1153 -0.3698
 3803TIP3    H211374   7.167   1.095   2.133  0.8299  0.2322  1.6819
 3804TIP3   OH211375   3.176   1.477   5.340  0.1689  0.2419 -0.3670
 3804TIP3    H111376   3.117   1.533   5.290  0.5781 -0.9151 -2.2235
 3804TIP3    H211377   3.120   1.403   5.367 -0.2754  1.2655  1.7462
 3805TIP3   OH211378   4.704   6.731   2.879 -0.2913 -0.1432 -0.2439
 3805TIP3    H111379   4.756   6.759   2.955 -0.7556  0.3077 -0.0914
 3805TIP3    H211380   4.656   6.809   2.852  1.2110  0.2290 -2.1313
 3806TIP3   OH211381   3.046   0.852   2.786  0.2884 -0.3920  0.2264
 3806TIP3    H111382   2.983   0.911   2.746  0.0536 -0.3871  0.5995
 3806TIP3    H211383   3.057   0.781   2.723  0.9587  0.2995 -0.4495
 3807TIP3   OH211384   0.022   4.992   0.215 -0.2806  0.2379  0.6186
 3807TIP3    H111385   0.050   5.055   0.281  0.9588  1.5367 -1.0491
 3807TIP3    H211386   0.065   4.910   0.241 -0.3272  0.5508  1.7413
 3808TIP3   OH211387   4.796   5.182   0.806 -0.2335 -0.2046 -0.0724
 3808TIP3    H111388   4.724   5.168   0.867 -1.3651  2.1848 -0.7227
 3808TIP3    H211389   4.756   5.170   0.719  0.9963 -2.1486 -0.4110
 3809TIP3   OH211390   6.747   4.442   1.651 -0.2014 -0.0112  0.1302
 3809TIP3    H111391   6.695   4.506   1.603  0.0938 -0.6567 -1.0930
 3809TIP3    H211392   6.759   4.370   1.590  1.5834 -0.1520  0.5848
 3810TIP3   OH211393   1.530   2.885   4.475 -0.5969  0.1909  0.3945
 3810TIP3    H111394   1.569   2.963   4.515 -1.8894  0.0305  2.0696
 3810TIP3    H211395   1.544   2.816   4.540  1.9597 -1.4650 -1.7074
 3811TIP3   OH211396   7.178   4.595   0.321  0.0690  0.3081  0.1016
 3811TIP3    H111397   7.137   4.543   0.251  1.2282  0.8257 -0.9932
 3811TIP3    H211398   7.151   4.550   0.401  0.4016 -1.5683 -0.7588
 3812TIP3   OH211399   3.706   4.759   1.079 -1.0850  0.3106 -0.1412
 3812TIP3    H111400   3.759   4.836   1.098 -0.7431  0.4560 -1.5305
 3812TIP3    H211401   3.634   4.763   1.141 -1.6456  2.3385 -0.8437
 3813TIP3   OH211402   6.711   0.167   3.525 -0.3663 -0.0076 -0.5161
 3813TIP3    H111403   6.672   0.220   3.594 -1.8074 -0.4538 -0.9481
 3813TIP3    H211404   6.706   0.221   3.447  0.7670  0.2840 -0.4162
 3814TIP3   OH211405   3.801   2.919   2.254  0.3585 -0.4221  0.7832
 3814TIP3    H111406   3.831   2.962   2.334  0.9247  1.4219 -0.3424
 3814TIP3    H211407   3.877   2.925   2.195 -0.6901  0.0971 -0.5511
 3815TIP3   OH211408   3.979   0.444   1.398  0.3259 -0.0871  0.0654
 3815TIP3    H111409   3.975   0.362   1.348  1.2051  0.0454 -0.2572
 3815TIP3    H211410   3.892   0.454   1.436 -0.5426  0.0405 -1.8189
 3816TIP3   OH211411   3.820   5.078   5.174 -0.4192  0.1961 -0.7973
 3816TIP3    H111412   3.753   5.146   5.169 -1.1765 -0.4362  0.3469
 3816TIP3    H211413   3.800   5.031   5.255  0.3861 -1.0744 -1.3170
 3817TIP3   OH211414   1.734   4.773   2.594 -0.6843 -0.2937  0.0325
 3817TIP3    H111415   1.646   4.808   2.607 -0.7486 -0.4376 -0.0169
 3817TIP3    H211416   1.792   4.848   2.610 -0.7799 -0.3646  0.7213
 3818TIP3   OH211417   1.099   2.227   1.024 -0.1831  0.8566  0.3667
 3818TIP3    H111418   1.180   2.177   1.028 -1.4427 -1.3385 -0.0994
 3818TIP3    H211419   1.049   2.198   1.100 -0.8690  1.5621  0.2016
 3819TIP3   OH211420   2.251   4.233   1.294 -0.0432 -0.0086 -0.3026
 3819TIP3    H111421   2.329   4.286   1.307 -1.3295  1.4960  1.8929
 3819TIP3    H211422   2.215   4.262   1.210  1.7389 -0.8062 -1.3927
 3820TIP3   OH211423   5.445   5.198   1.162  0.2132 -0.5642  0.0049
 3820TIP3    H111424   5.412   5.279   1.201 -0.6933 -0.5514 -0.7341
 3820TIP3    H211425   5.366   5.145   1.147  0.5412 -0.6627 -1.5423
 3821TIP3   OH211426   4.820   5.595   3.755  0.2502  0.5113 -0.0840
 3821TIP3    H111427   4.789   5.511   3.790 -0.0349  0.6817  0.0790
 3821TIP3    H211428   4.888   5.571   3.692 -1.6666 -0.0107 -2.0652
 3822TIP3   OH211429   5.369   5.010   2.092  0.1299 -0.0540 -0.1643
 3822TIP3    H111430   5.370   4.981   2.001 -1.4687 -0.4906 -0.0637
 3822TIP3    H211431   5.378   5.106   2.086 -0.0695 -0.0682 -0.7806
 3823TIP3   OH211432   4.034   3.837   0.966  0.0732  0.0591 -0.7685
 3823TIP3    H111433   4.032   3.798   1.053 -0.7798  1.1518 -0.2784
 3823TIP3    H211434   4.121   3.876   0.959  1.1203 -2.1901 -1.4352
 3824TIP3   OH211435   0.150   3.332   0.971  0.1923  0.2522 -0.5529
 3824TIP3    H111436   0.156   3.367   0.882  0.6154  0.7042 -0.3528
 3824TIP3    H211437   0.060   3.349   0.997 -0.0745 -0.3446 -1.0837
 3825TIP3   OH211438   3.758   6.149   3.582  0.0561  0.0821 -0.8723
 3825TIP3    H111439   3.782   6.072   3.634 -0.6730  0.2742 -0.2270
 3825TIP3    H211440   3.837   6.172   3.534  0.4530 -0.7130 -0.6137
 3826TIP3   OH211441   4.394   4.360   3.449 -0.5448 -0.0326  1.0445
 3826TIP3    H111442   4.446   4.280   3.449 -0.4098  0.0519  0.3964
 3826TIP3    H211443   4.321   4.341   3.390 -0.5981  0.2671  1.0133
 3827TIP3   OH211444   6.964   3.180   0.101 -0.3928 -0.0712 -0.3058
 3827TIP3    H111445   6.892   3.234   0.069  0.7321  0.3111 -2.4143
 3827TIP3    H211446   6.949   3.094   0.062 -0.8514 -0.6154  1.0278
 3828TIP3   OH211447   1.187   6.091   5.231 -0.3336  0.2536  0.7114
 3828TIP3    H111448   1.246   6.123   5.163 -1.4859  0.0557 -0.4167
 3828TIP3    H211449   1.188   5.996   5.220 -3.0990  0.3323 -1.3676
 3829TIP3   OH211450   0.431   5.204   1.711 -0.4377  0.0123 -0.1556
 3829TIP3    H111451   0.347   5.165   1.691 -0.6772  0.0744  0.6846
 3829TIP3    H211452   0.480   5.199   1.629  0.0956 -3.3936  0.2165
 3830TIP3   OH211453   6.397   5.423   1.963  0.1364  0.3635 -0.3734
 3830TIP3    H111454   6.312   5.455   1.933  0.0823  1.7707  1.0961
 3830TIP3    H211455   6.383   5.330   1.982 -0.7872  0.3424 -1.1102
 3831TIP3   OH211456   5.476   6.732   0.888 -0.1214 -0.2482  0.5822
 3831TIP3    H111457   5.531   6.716   0.812  0.5058 -1.1220  1.1946
 3831TIP3    H211458   5.421   6.807   0.864  0.9952  0.3253 -0.2258
 3832TIP3   OH211459   1.980   1.486   2.568  0.3157 -0.7523 -0.1191
 3832TIP3    H111460   1.970   1.432   2.490 -1.2986  1.3130 -1.4496
 3832TIP3    H211461   2.063   1.532   2.555 -1.0087  1.3087 -1.8539
 3833TIP3   OH211462   4.900   5.360   1.383 -0.5134 -0.0679  0.4943
 3833TIP3    H111463   4.977   5.414   1.366 -0.7322 -0.5978 -2.7213
 3833TIP3    H211464   4.882   5.372   1.477  2.8817  0.7788  1.1517
 3834TIP3   OH211465   4.635   2.470   4.816  0.1241  0.0318  0.3113
 3834TIP3    H111466   4.626   2.477   4.721  0.8934  1.2039  0.3112
 3834TIP3    H211467   4.628   2.376   4.833 -2.1134 -0.0598 -0.6579
 3835TIP3   OH211468   0.345   3.517   3.034 -0.0298  0.3522  0.4355
 3835TIP3    H111469   0.298   3.586   3.081 -0.9178  1.0290 -1.3621
 3835TIP3    H211470   0.399   3.564   2.970  1.5257 -0.5210  1.0368
 3836TIP3   OH211471   0.687   4.620   3.814 -0.0505  0.3040 -0.4175
 3836TIP3    H111472   0.691   4.709   3.778 -2.6496  0.8645  0.4312
 3836TIP3    H211473   0.754   4.618   3.882  1.3905  0.9204 -1.7550
 3837TIP3   OH211474   3.393   3.705   2.308 -0.1401 -0.0749  0.2122
 3837TIP3    H111475   3.420   3.786   2.351 -0.4898  0.9132 -1.3799
 3837TIP3    H211476   3.444   3.702   2.228  0.2480 -1.7200  0.4799
 3838TIP3   OH211477   6.636   2.980   1.579  0.0683 -0.1445 -0.3587
 3838TIP3    H111478   6.635   2.887   1.601  0.1675 -0.0347  0.1300
 3838TIP3    H211479   6.580   3.020   1.645 -0.0273  0.1351 -0.6090
 3839TIP3   OH211480   0.420   2.207   3.649  0.1517  0.0189 -0.4951
 3839TIP3    H111481   0.356   2.180   3.583  0.1542  2.4414 -1.5713
 3839TIP3    H211482   0.463   2.125   3.675  0.2086 -1.0391 -3.5544
 3840TIP3   OH211483   4.300   1.106   3.577 -0.1331 -0.4047  0.2225
 3840TIP3    H111484   4.265   1.030   3.624  0.0245 -0.3889  0.3683
 3840TIP3    H211485   4.321   1.168   3.647 -1.9894  0.5130  0.0087
 3841TIP3   OH211486   1.742   5.073   1.307  0.2592 -0.1662  0.5136
 3841TIP3    H111487   1.782   5.159   1.320  0.4569 -0.2771  0.6433
 3841TIP3    H211488   1.651   5.084   1.334  0.3602 -0.0781  0.8130
 3842TIP3   OH211489   5.962   6.622   5.688  0.1939 -0.1357  0.1577
 3842TIP3    H111490   5.940   6.593   5.600  1.8360 -0.5134 -0.1683
 3842TIP3    H211491   6.058   6.626   5.688  0.2401 -0.4692  2.0262
 3843TIP3   OH211492   1.734   2.228   0.329  0.2834  0.1458  0.2992
 3843TIP3    H111493   1.713   2.138   0.355 -1.4317  0.4153 -0.0108
 3843TIP3    H211494   1.811   2.219   0.273  1.2977 -0.9010  1.7988
 3844TIP3   OH211495   3.910   0.088   4.671  0.6662 -0.0444 -0.0021
 3844TIP3    H111496   3.846   0.017   4.658 -1.1521  1.6199 -0.8020
 3844TIP3    H211497   3.957   0.093   4.588  0.2919  0.1254 -0.2086
 3845TIP3   OH211498   1.230   2.510   0.543 -0.2697  0.8292 -0.2434
 3845TIP3    H111499   1.212   2.443   0.608  0.1070  1.6502  0.7346
 3845TIP3    H211500   1.159   2.573   0.554 -0.2288  0.9498 -0.6585
 3846TIP3   OH211501   1.010   4.728   0.719  0.0991  0.2247  0.1909
 3846TIP3    H111502   0.998   4.651   0.775  0.0034  0.0216 -0.1100
 3846TIP3    H211503   0.994   4.802   0.778 -2.1434  0.0038 -0.0375
 3847TIP3   OH211504   2.042   0.608   4.075 -0.6864  0.0724  0.6662
 3847TIP3    H111505   1.964   0.660   4.093 -0.2137  1.0691 -0.0570
 3847TIP3    H211506   2.020   0.558   3.997 -0.9482 -0.4076  1.0445
 3848TIP3   OH211507   3.582   3.174   5.637 -0.1026  0.1769  0.5663
 3848TIP3    H111508   3.663   3.169   5.586 -0.0733 -1.9617  0.7083
 3848TIP3    H211509   3.521   3.222   5.581  0.4942 -0.4963 -0.7166
 3849TIP3   OH211510   3.134   0.920   4.722 -0.0710  0.0820  0.1589
 3849TIP3    H111511   3.081   0.974   4.780 -0.1297  1.2246 -0.9323
 3849TIP3    H211512   3.070   0.870   4.671 -0.0619  0.2608 -0.0287
 3850TIP3   OH211513   5.627   5.928   1.082 -0.3493 -0.6193 -0.2796
 3850TIP3    H111514   5.608   5.973   1.164 -1.0219  0.3628 -0.9555
 3850TIP3    H211515   5.689   5.985   1.037 -0.3826 -0.8950 -0.6806
 3851TIP3   OH211516   5.081   6.032   0.669  0.4889 -0.4650  0.0252
 3851TIP3    H111517   5.157   5.989   0.628 -0.3450 -0.6655 -1.3608
 3851TIP3    H211518   5.096   6.125   0.655  1.8062 -0.2861  2.1676
 3852TIP3   OH211519   3.346   4.963   4.618  0.3371 -0.0500 -0.3798
 3852TIP3    H111520   3.427   4.957   4.669  0.6362  2.5050 -0.4325
 3852TIP3    H211521   3.375   4.967   4.527  0.0348 -0.7615 -0.5126
 3853TIP3   OH211522   4.990   2.411   4.876  0.1158 -0.0687  0.4718
 3853TIP3    H111523   4.935   2.337   4.851  0.2547  0.1710 -0.5913
 3853TIP3    H211524   5.076   2.373   4.892  0.0386 -0.2220  0.5162
 3854TIP3   OH211525   6.459   3.789   0.527  0.2194  0.1438 -0.2873
 3854TIP3    H111526   6.480   3.715   0.470  0.9875 -0.2592  0.5005
 3854TIP3    H211527   6.475   3.757   0.616 -1.6868  0.5125  0.2405
 3855TIP3   OH211528   3.443   1.337   2.849 -0.2003  0.2554  0.4601
 3855TIP3    H111529   3.480   1.269   2.907  0.9791  0.7714  0.3415
 3855TIP3    H211530   3.512   1.353   2.784 -1.6293 -0.5870 -1.3652
 3856TIP3   OH211531   0.420   2.735   3.015  0.2106  0.0586  0.5379
 3856TIP3    H111532   0.350   2.789   2.979 -0.1472 -0.5393  0.3190
 3856TIP3    H211533   0.440   2.672   2.946  1.0273  0.2701  0.5686
 3857TIP3   OH211534   2.842   4.496   2.181 -0.1118  0.0436  0.1953
 3857TIP3    H111535   2.856   4.576   2.130  1.1949  0.3214  0.9364
 3857TIP3    H211536   2.905   4.434   2.145 -0.1264 -0.1924  0.5718
 3858TIP3   OH211537   4.511   2.501   2.528  0.3834 -0.6324  0.4369
 3858TIP3    H111538   4.588   2.523   2.476  1.8608 -3.1365  1.3779
 3858TIP3    H211539   4.486   2.413   2.499 -2.7771  0.4423 -0.4946
 3859TIP3   OH211540   5.589   1.271   4.873 -0.3353 -0.3341  0.3311
 3859TIP3    H111541   5.660   1.335   4.869  0.4405 -0.9329  2.7701
 3859TIP3    H211542   5.625   1.193   4.832 -0.9210  0.3876 -1.6985
 3860TIP3   OH211543   3.652   0.760   0.839  1.0433 -0.0263 -0.0400
 3860TIP3    H111544   3.616   0.837   0.795 -1.0256 -0.6410  0.4389
 3860TIP3    H211545   3.642   0.689   0.776  3.9840  0.2027 -0.9230
 3861TIP3   OH211546   4.521   2.064   2.068  0.0641  0.3271  0.2890
 3861TIP3    H111547   4.549   2.017   1.990 -1.4120 -0.6419  0.3138
 3861TIP3    H211548   4.593   2.125   2.086  0.3152  0.7850 -1.9598
 3862TIP3   OH211549   6.050   2.113   3.939  0.5530 -0.2068  0.1129
 3862TIP3    H111550   6.051   2.159   3.855 -1.3264 -0.4019 -0.0379
 3862TIP3    H211551   6.012   2.028   3.921  0.3065 -0.3303  1.1347
 3863TIP3   OH211552   0.747   3.392   0.218 -0.0314  0.3917  0.5653
 3863TIP3    H111553   0.737   3.474   0.169  1.6527 -0.3047 -1.0749
 3863TIP3    H211554   0.796   3.335   0.158 -1.0741 -1.7920  1.6934
 3864TIP3   OH211555   5.806   1.924   0.186  0.2233 -0.1503 -0.0440
 3864TIP3    H111556   5.818   1.967   0.102 -0.0530  1.3551  0.6597
 3864TIP3    H211557   5.798   1.995   0.249 -2.9691 -1.1054  0.8430
 3865TIP3   OH211558   2.994   3.017   2.179  0.1186  0.0625  0.4675
 3865TIP3    H111559   3.014   2.939   2.127  0.5197  0.7320 -0.3970
 3865TIP3    H211560   2.931   3.065   2.127 -2.0464 -0.8355  2.0827
 3866TIP3   OH211561   2.275   1.673   1.822  0.5698 -0.0806 -0.6981
 3866TIP3    H111562   2.278   1.768   1.828 -0.5675 -0.0720  0.0448
 3866TIP3    H211563   2.267   1.655   1.729  0.3889  0.5780 -0.8148
 3867TIP3   OH211564   1.061   1.275   1.900  0.0849 -0.8927 -0.4308
 3867TIP3    H111565   1.062   1.325   1.982  0.0786 -0.6719 -0.5646
 3867TIP3    H211566   1.031   1.188   1.925 -1.8100 -0.3068 -0.4972
 3868TIP3   OH211567   5.411   1.023   4.752  0.2085  0.5032  0.4929
 3868TIP3    H111568   5.438   0.935   4.727  0.4878  0.0274  2.3420
 3868TIP3    H211569   5.408   1.022   4.848 -0.3058  2.3515  0.5480
 3869TIP3   OH211570   3.408   3.259   2.029  0.1160  0.2143  0.0032
 3869TIP3    H111571   3.320   3.295   2.028  0.6919  1.7474  0.5701
 3869TIP3    H211572   3.449   3.298   2.107  1.3941 -0.1738 -0.4474
 3870TIP3   OH211573   6.377   4.660   1.998 -0.0129 -0.6850 -0.0229
 3870TIP3    H111574   6.407   4.570   2.007  0.3183 -0.5625  0.1261
 3870TIP3    H211575   6.415   4.706   2.073 -0.3277 -0.4604  0.0015
 3871TIP3   OH211576   0.936   3.608   4.001 -0.6065  0.2874 -0.2175
 3871TIP3    H111577   0.996   3.547   4.044 -2.2760 -1.7448 -0.6666
 3871TIP3    H211578   0.881   3.554   3.946 -1.2297  2.3914 -1.7847
 3872TIP3   OH211579   5.219   4.810   1.209  0.5708  0.2451  0.2011
 3872TIP3    H111580   5.222   4.836   1.301  0.2040 -0.0095  0.2871
 3872TIP3    H211581   5.216   4.893   1.161  1.4857  0.3974  0.3839
 3873TIP3   OH211582   0.802   4.334   5.754  0.0553 -0.6077 -0.3559
 3873TIP3    H111583   0.814   4.391   5.830  1.7132 -3.4547  1.7027
 3873TIP3    H211584   0.725   4.369   5.710 -0.5287  1.6311  2.1750
 3874TIP3   OH211585   6.508   1.575   2.841 -0.2970  0.0902  0.5179
 3874TIP3    H111586   6.563   1.547   2.767  1.3429  0.6733  1.4535
 3874TIP3    H211587   6.420   1.578   2.805  0.3411 -0.3598 -1.2159
 3875TIP3   OH211588   0.566   4.283   0.525  0.3650 -0.3681 -0.2117
 3875TIP3    H111589   0.526   4.342   0.588  0.6661 -2.5588  2.2052
 3875TIP3    H211590   0.660   4.291   0.540  0.4218 -1.1934 -0.0817
 3876TIP3   OH211591   3.072   0.138   1.541 -0.4597 -0.4672 -0.5592
 3876TIP3    H111592   3.012   0.080   1.589 -2.0530  1.4966 -0.0024
 3876TIP3    H211593   3.159   0.108   1.566 -1.2031 -2.3447 -0.0041
 3877TIP3   OH211594   2.476   1.912   1.207  0.1811 -0.1420  0.0468
 3877TIP3    H111595   2.539   1.878   1.270  0.0463 -0.5701 -0.0461
 3877TIP3    H211596   2.423   1.836   1.183  0.6180 -0.1279 -1.0385
 3878TIP3   OH211597   2.458   4.925   3.659 -0.5200 -0.3536  0.1551
 3878TIP3    H111598   2.503   5.001   3.695  0.5856 -1.2473  0.7322
 3878TIP3    H211599   2.418   4.957   3.578 -0.6415  0.9954  0.7290
 3879TIP3   OH211600   6.413   0.934   0.718  0.3387  0.0697  0.2243
 3879TIP3    H111601   6.384   0.898   0.802  0.9539  0.5948  0.6644
 3879TIP3    H211602   6.376   1.022   0.715 -0.0874 -0.1215 -0.2782
 3880TIP3   OH211603   6.367   4.366   5.397  0.5962 -0.6817 -0.0632
 3880TIP3    H111604   6.360   4.426   5.471  0.1456 -1.8319  0.8644
 3880TIP3    H211605   6.309   4.293   5.420  0.3275 -1.0023 -1.6279
 3881TIP3   OH211606   6.815   3.544   1.347  0.2381  0.1454 -0.6543
 3881TIP3    H111607   6.790   3.629   1.312  0.5893  0.0012 -1.2853
 3881TIP3    H211608   6.797   3.482   1.275 -2.2822 -0.6975  0.5981
 3882TIP3   OH211609   6.523   0.912   3.998  0.2442 -0.1298  0.5600
 3882TIP3    H111610   6.463   0.979   3.966 -0.4679 -1.0626 -0.1112
 3882TIP3    H211611   6.507   0.909   4.092 -1.4071 -0.9639  0.2785
 3883TIP3   OH211612   6.427   0.790   2.274 -0.5198  0.2464  0.1013
 3883TIP3    H111613   6.386   0.730   2.212 -1.9143  0.7048  0.5356
 3883TIP3    H211614   6.437   0.739   2.354  2.6389 -0.8145 -0.8120
 3884TIP3   OH211615   4.127   1.438   1.731  0.5021  0.4254  0.3759
 3884TIP3    H111616   4.176   1.440   1.649  0.4434 -0.3199  0.3147
 3884TIP3    H211617   4.177   1.379   1.787 -0.4484 -0.5606  0.2173
 3885TIP3   OH211618   6.264   3.914   2.536  0.1766  0.5361  0.0210
 3885TIP3    H111619   6.250   3.971   2.611 -0.4456 -0.9775  1.1180
 3885TIP3    H211620   6.336   3.857   2.561 -1.0169 -0.9965  0.1493
 3886TIP3   OH211621   6.959   2.751   0.972 -0.4436 -0.3415  0.4721
 3886TIP3    H111622   6.868   2.781   0.981 -0.9032 -1.6285  0.2992
 3886TIP3    H211623   6.991   2.794   0.893 -0.8892  0.1256  0.5401
 3887TIP3   OH211624   2.138   3.444   1.331  0.0030  0.0895  0.1703
 3887TIP3    H111625   2.103   3.425   1.418  0.1753  1.9775  0.6903
 3887TIP3    H211626   2.227   3.475   1.346  0.2320 -0.0926 -0.7258
 3888TIP3   OH211627   0.343   4.296   1.752  0.1470  0.4733  0.0864
 3888TIP3    H111628   0.299   4.264   1.831  1.7606  0.3830  0.9794
 3888TIP3    H211629   0.274   4.298   1.686 -0.3671 -3.9269  0.2066
 3889TIP3   OH211630   1.740   5.629   0.735 -0.2795 -0.0228 -0.6302
 3889TIP3    H111631   1.699   5.612   0.650  2.1857 -1.2354 -1.6776
 3889TIP3    H211632   1.730   5.547   0.783 -2.8463  1.0715  0.8797
 3890TIP3   OH211633   1.753   0.050   1.241  0.1901 -0.5312  0.0025
 3890TIP3    H111634   1.798  -0.021   1.287 -0.1687 -0.2228  0.8464
 3890TIP3    H211635   1.668   0.012   1.215 -0.0634 -0.3723  0.5861
 3891TIP3   OH211636   4.209   5.735   5.027 -0.7534 -0.5888 -0.5766
 3891TIP3    H111637   4.284   5.794   5.030  1.7028 -3.4521 -0.5902
 3891TIP3    H211638   4.179   5.728   5.118 -0.0408 -0.5321 -0.3365
 3892TIP3   OH211639   6.315   5.228   3.075 -0.8278 -0.2158  0.0065
 3892TIP3    H111640   6.394   5.211   3.024 -0.3586 -0.3435  0.7690
 3892TIP3    H211641   6.266   5.291   3.022 -1.8008 -2.5612 -2.0529
 3893TIP3   OH211642   4.091   3.570   3.438  0.2153 -0.0566  0.7746
 3893TIP3    H111643   4.092   3.652   3.388 -2.4178  0.3540  1.2118
 3893TIP3    H211644   4.066   3.503   3.374 -0.6269  0.0348  0.9913
 3894TIP3   OH211645   4.953   6.539   0.075  0.1456  0.7053  0.1469
 3894TIP3    H111646   4.858   6.525   0.076 -0.0651  1.9607  1.9474
 3894TIP3    H211647   4.963   6.634   0.078  1.4516  0.5743  0.3990
 3895TIP3   OH211648   4.988   3.886   0.214 -0.4711 -0.4104 -0.3267
 3895TIP3    H111649   4.915   3.878   0.152 -0.2375  1.4589 -0.8946
 3895TIP3    H211650   5.064   3.908   0.159  0.2958 -1.2457  0.3732
 3896TIP3   OH211651   6.138   3.792   4.446  0.3122  0.3798  0.3796
 3896TIP3    H111652   6.230   3.814   4.431  0.3492  0.2434  0.4064
 3896TIP3    H211653   6.123   3.815   4.538 -0.1785  2.1481 -0.1005
 3897TIP3   OH211654   0.876   2.749   5.822  0.2093 -0.2650  0.0068
 3897TIP3    H111655   0.905   2.658   5.828  2.1730  0.2805 -0.3745
 3897TIP3    H211656   0.874   2.767   5.728 -2.3370 -0.5165 -0.0368
 3898TIP3   OH211657   4.273   2.476   2.672  0.3437  0.4977 -0.2695
 3898TIP3    H111658   4.361   2.476   2.634  0.4123  1.3117 -0.1336
 3898TIP3    H211659   4.253   2.569   2.686  0.1793  0.2543  1.3103
 3899TIP3   OH211660   4.697   1.361   2.702 -0.4574  0.1271 -0.3649
 3899TIP3    H111661   4.753   1.300   2.653 -0.9002 -0.4713 -0.1325
 3899TIP3    H211662   4.614   1.361   2.655 -0.2794  1.0131 -0.7046
 3900TIP3   OH211663   0.653   6.659   5.089  0.2340  0.3086  0.1772
 3900TIP3    H111664   0.677   6.671   4.997 -0.0488  0.8338  0.1710
 3900TIP3    H211665   0.558   6.671   5.091 -0.0548 -1.6500  0.2193
 3901TIP3   OH211666   6.110   0.035   4.269  0.2196 -0.0682 -0.1345
 3901TIP3    H111667   6.140   0.006   4.183 -0.1826 -0.7955 -0.0441
 3901TIP3    H211668   6.190   0.047   4.320  0.4465  0.0593 -0.5161
 3902TIP3   OH211669   5.954   1.014   1.294  0.4019  0.1006  0.5964
 3902TIP3    H111670   5.922   1.063   1.218 -0.0292  0.1707  0.8231
 3902TIP3    H211671   5.943   1.073   1.368  3.1210  1.0167  0.4077
 3903TIP3   OH211672   1.850   3.682   0.203 -0.0544  0.1972  0.8211
 3903TIP3    H111673   1.792   3.756   0.185 -1.9882 -1.2486  0.6530
 3903TIP3    H211674   1.808   3.608   0.158  1.0281 -1.2690  2.1089
 3904TIP3   OH211675   1.078   1.704   5.806  0.2645 -0.4115 -0.2958
 3904TIP3    H111676   1.072   1.630   5.866 -0.1618 -0.9929 -1.0280
 3904TIP3    H211677   0.989   1.737   5.799  0.0711 -1.1133 -1.5120
 3905TIP3   OH211678   4.793   6.251   0.056 -0.4809  0.2898  0.3157
 3905TIP3    H111679   4.780   6.346   0.065 -0.1972  0.2395  1.3469
 3905TIP3    H211680   4.705   6.214   0.061 -0.7024  0.5573 -1.1248
 3906TIP3   OH211681   0.524   4.933   3.862 -0.3602 -0.4517  0.4626
 3906TIP3    H111682   0.533   5.027   3.875 -1.1124 -0.0804 -1.3726
 3906TIP3    H211683   0.602   4.907   3.812 -0.3330 -0.7260  0.6445
 3907TIP3   OH211684   5.846   1.166   1.087  0.1294  0.4922  0.0394
 3907TIP3    H111685   5.754   1.142   1.078 -0.0729  0.9619  0.7579
 3907TIP3    H211686   5.870   1.206   1.003  0.0032 -0.6525 -0.5621
 3908TIP3   OH211687   0.280   0.446   0.684 -0.7873  0.1944 -0.1500
 3908TIP3    H111688   0.272   0.351   0.691 -0.5247  0.2059  0.4044
 3908TIP3    H211689   0.235   0.479   0.761  1.2058  0.4002  1.0116
 3909TIP3   OH211690   3.574   6.630   4.795  0.1918 -0.8217 -0.1552
 3909TIP3    H111691   3.665   6.603   4.808  0.2218 -0.7533 -0.2224
 3909TIP3    H211692   3.523   6.553   4.820  0.2514 -0.7304  0.2667
 3910TIP3   OH211693   7.048   3.194   4.969  0.2483  0.0795  0.0690
 3910TIP3    H111694   6.999   3.112   4.957  1.3634 -0.4028 -1.5531
 3910TIP3    H211695   7.134   3.176   4.932  0.8036  1.7314  0.4809
 3911TIP3   OH211696   0.931   5.682   1.604 -0.2872 -0.2321 -0.5833
 3911TIP3    H111697   0.951   5.771   1.632 -2.6328  0.2214 -0.1724
 3911TIP3    H211698   0.949   5.682   1.510 -1.0691  0.9286 -0.7451
 3912TIP3   OH211699   1.590   2.556   3.448 -0.3938 -0.1734  0.2779
 3912TIP3    H111700   1.581   2.486   3.512 -0.5270  0.1251  0.5935
 3912TIP3    H211701   1.514   2.547   3.391 -2.3994  1.7835  2.3828
 3913TIP3   OH211702   2.827   0.111   0.207  0.1170  0.2055 -0.5030
 3913TIP3    H111703   2.792   0.035   0.253  1.2630  0.2246  0.4426
 3913TIP3    H211704   2.752   0.148   0.161 -1.1695  0.3407  1.5792
 3914TIP3   OH211705   1.806   0.466   1.288  0.0492  0.1122 -0.1818
 3914TIP3    H111706   1.777   0.480   1.198 -0.7034 -1.4640 -0.2273
 3914TIP3    H211707   1.895   0.430   1.279  0.5594  1.3231 -0.2042
 3915TIP3   OH211708   5.005   2.491   0.812  0.0187 -0.2329  0.2806
 3915TIP3    H111709   5.091   2.489   0.771 -0.7125 -1.5784 -1.3052
 3915TIP3    H211710   5.007   2.568   0.869  1.5718  0.9537 -1.2897
 3916TIP3   OH211711   2.885   0.507   0.858 -0.0771  0.3818 -0.3412
 3916TIP3    H111712   2.834   0.584   0.882  0.3381  0.3053  0.8774
 3916TIP3    H211713   2.834   0.463   0.791 -2.2414 -0.3564  1.6709
 3917TIP3   OH211714   5.035   2.047   5.693 -0.1872  0.2759 -0.4551
 3917TIP3    H111715   4.971   2.113   5.720 -2.3727 -1.2674 -1.5250
 3917TIP3    H211716   5.035   1.982   5.763  1.5265  1.0519  0.3231
 3918TIP3   OH211717   6.430   0.898   4.258  0.0190 -0.7916  0.0866
 3918TIP3    H111718   6.457   0.942   4.339 -2.5942 -1.4718  1.4472
 3918TIP3    H211719   6.419   0.806   4.283 -1.4925 -0.9020 -0.8192
 3919TIP3   OH211720   2.878   3.139   4.055  0.1507 -0.0890  0.3518
 3919TIP3    H111721   2.833   3.172   4.133 -0.5750  1.5700 -0.7196
 3919TIP3    H211722   2.952   3.089   4.089 -0.1066  0.6600  2.0907
 3920TIP3   OH211723   2.572   3.378   5.031  0.1248  0.1134 -0.4027
 3920TIP3    H111724   2.652   3.430   5.036  1.0026 -1.3355  2.8958
 3920TIP3    H211725   2.528   3.395   5.114 -2.2855 -0.3197 -1.5140
 3921TIP3   OH211726   2.655   3.757   4.638  0.1303 -0.1882 -0.2066
 3921TIP3    H111727   2.687   3.712   4.559  0.4845 -0.3805  0.0458
 3921TIP3    H211728   2.666   3.693   4.708  0.4306  0.2169  0.1153
 3922TIP3   OH211729   4.056   2.141   4.323 -0.4206  0.0288  0.2178
 3922TIP3    H111730   4.145   2.157   4.293 -0.8487  1.4988 -0.3276
 3922TIP3    H211731   4.043   2.204   4.394 -0.9159 -0.3978  0.5120
 3923TIP3   OH211732   6.692   2.004   5.248  0.5063 -0.8437  0.0492
 3923TIP3    H111733   6.720   1.972   5.162 -2.0896 -0.1540 -1.1392
 3923TIP3    H211734   6.621   1.946   5.274 -0.9066  0.8407  0.1615
 3924TIP3   OH211735   3.695   1.131   3.448  0.0116 -0.7651 -0.1111
 3924TIP3    H111736   3.748   1.211   3.443  1.8717 -1.9385 -0.3808
 3924TIP3    H211737   3.608   1.160   3.475  0.7241  1.2944  0.0885
 3925TIP3   OH211738   4.903   0.226   2.072  0.1743  0.4619 -0.0449
 3925TIP3    H111739   4.906   0.182   2.157 -0.9298 -0.3475 -0.4006
 3925TIP3    H211740   4.863   0.311   2.091  0.1014  0.3593  0.2727
 3926TIP3   OH211741   0.887   6.800   1.594  0.3185  0.2006  0.4152
 3926TIP3    H111742   0.915   6.759   1.675  2.3541  2.1161  0.8125
 3926TIP3    H211743   0.839   6.732   1.547 -0.9125 -0.9714  3.1660
 3927TIP3   OH211744   3.981   0.707   4.752  0.1115 -0.3537  0.3620
 3927TIP3    H111745   3.902   0.663   4.722  1.3802 -1.8878 -0.9250
 3927TIP3    H211746   4.033   0.638   4.793  2.9863 -0.7142 -3.3436
 3928TIP3   OH211747   4.426   2.360   0.282 -0.2517 -0.1102  0.6236
 3928TIP3    H111748   4.483   2.418   0.232 -0.8936 -0.1646 -0.1947
 3928TIP3    H211749   4.480   2.330   0.355  1.3844 -1.6086 -1.1118
 3929TIP3   OH211750   2.578   4.191   4.698 -0.2462 -0.2087  0.1311
 3929TIP3    H111751   2.611   4.139   4.771  1.0527  1.6996  1.0018
 3929TIP3    H211752   2.656   4.209   4.644 -0.5018  1.2928  0.2084
 3930TIP3   OH211753   0.360   2.206   4.027 -0.8869 -0.1824 -0.2493
 3930TIP3    H111754   0.386   2.141   4.092 -1.2572  0.6949  0.8144
 3930TIP3    H211755   0.428   2.272   4.031 -1.5321  0.4761  0.1468
 3931TIP3   OH211756   2.765   0.521   4.210  0.6169  0.6576  0.1744
 3931TIP3    H111757   2.728   0.433   4.209  0.8942  0.5343  0.6298
 3931TIP3    H211758   2.741   0.558   4.124 -0.0392  0.3739  0.2325
 3932TIP3   OH211759   6.833   5.899   5.552  0.2774  0.3789 -0.2175
 3932TIP3    H111760   6.759   5.936   5.600 -0.3046 -1.5344  0.4540
 3932TIP3    H211761   6.906   5.959   5.570 -0.4800  0.9022  1.2505
 3933TIP3   OH211762   5.635   3.300   0.496 -0.2005 -0.0517  0.1863
 3933TIP3    H111763   5.656   3.219   0.450 -2.4127 -0.3487 -0.4430
 3933TIP3    H211764   5.712   3.356   0.484  0.6101 -1.3698 -0.9869
 3934TIP3   OH211765   1.958   2.579   5.279  0.2566  0.1376 -0.2766
 3934TIP3    H111766   1.867   2.605   5.295  0.4337  0.0026  1.0797
 3934TIP3    H211767   2.001   2.659   5.250 -0.2142  0.2947 -0.5431
 3935TIP3   OH211768   3.308   0.647   1.183 -0.0239  0.5366  0.2735
 3935TIP3    H111769   3.374   0.594   1.228  0.6283  0.5798 -0.5951
 3935TIP3    H211770   3.333   0.641   1.090 -0.4493  1.6663  0.0773
 3936TIP3   OH211771   5.276   1.067   4.046 -0.3696 -0.0684  0.5114
 3936TIP3    H111772   5.362   1.049   4.082  1.2125 -0.9085 -3.1756
 3936TIP3    H211773   5.244   0.981   4.016  0.0911  0.8128 -2.9962
 3937TIP3   OH211774   0.850   1.947   4.033 -0.1196  0.0926  0.0881
 3937TIP3    H111775   0.916   1.927   3.967 -0.9422  0.9589 -1.0467
 3937TIP3    H211776   0.791   2.009   3.990 -1.8522 -0.8867  0.9353
 3938TIP3   OH211777   0.999   0.648   5.096  0.4433  1.0054 -0.2580
 3938TIP3    H111778   1.072   0.598   5.060 -0.3803  1.6374 -3.0103
 3938TIP3    H211779   1.032   0.681   5.180  2.3908 -0.7781 -0.2384
 3939TIP3   OH211780   1.369   1.602   2.739 -0.2254  0.2298 -0.8794
 3939TIP3    H111781   1.302   1.547   2.779  0.5378 -0.2234 -0.1975
 3939TIP3    H211782   1.381   1.675   2.800  1.6103 -0.9457  0.2524
 3940TIP3   OH211783   3.958   3.633   3.721  0.2280  0.1890  0.1632
 3940TIP3    H111784   4.046   3.669   3.711  1.5129 -2.0144  2.5624
 3940TIP3    H211785   3.960   3.551   3.672 -0.6186  0.2340  0.0279
 3941TIP3   OH211786   5.275   0.686   4.858  0.0841 -0.4506 -0.1860
 3941TIP3    H111787   5.284   0.601   4.900  0.3992 -0.6284 -0.5980
 3941TIP3    H211788   5.365   0.719   4.851 -0.2007  1.4214  2.9414
 3942TIP3   OH211789   0.467   2.794   1.598 -0.3565  0.1777  0.2769
 3942TIP3    H111790   0.432   2.707   1.581 -1.8967  0.4508  1.8077
 3942TIP3    H211791   0.392   2.845   1.628  0.3405  2.2738 -1.2783
 3943TIP3   OH211792   3.916   5.446   0.590  0.0008 -0.1796 -0.0717
 3943TIP3    H111793   3.890   5.371   0.536 -0.5270 -0.0274 -0.0354
 3943TIP3    H211794   3.924   5.518   0.528  0.8861 -0.3463 -0.1635
 3944TIP3   OH211795   4.326   5.964   1.287  0.1063 -0.0240 -0.2798
 3944TIP3    H111796   4.419   5.969   1.265  0.5374 -3.2154  0.3823
 3944TIP3    H211797   4.316   6.020   1.364  1.3167  0.8785 -0.7500
 3945TIP3   OH211798   2.102   4.897   5.837  0.5473  0.4752  0.3029
 3945TIP3    H111799   2.157   4.819   5.827 -0.8536 -0.4730 -0.3602
 3945TIP3    H211800   2.071   4.916   5.749 -1.6079 -0.1319  0.8620
 3946TIP3   OH211801   4.594   1.453   1.256 -0.4880  0.3960  0.3582
 3946TIP3    H111802   4.574   1.442   1.163 -2.0725  1.7601  0.4946
 3946TIP3    H211803   4.631   1.541   1.262 -1.0153  0.5787  1.0928
 3947TIP3   OH211804   6.292   0.167   2.197 -1.0924  0.4309  0.1566
 3947TIP3    H111805   6.216   0.215   2.230  0.5677  2.6849  0.9897
 3947TIP3    H211806   6.322   0.220   2.123  0.7695  0.7140  1.0696
 3948TIP3   OH211807   3.411   2.753   1.955 -0.0732 -1.1486 -0.0122
 3948TIP3    H111808   3.355   2.819   1.996 -0.4926 -1.1129 -0.6252
 3948TIP3    H211809   3.500   2.778   1.982 -0.1256  0.2771 -1.0275
 3949TIP3   OH211810   4.825   3.605   5.053 -0.2866 -0.2202 -0.2868
 3949TIP3    H111811   4.817   3.513   5.080  0.1634 -0.1705  0.0419
 3949TIP3    H211812   4.794   3.654   5.129  1.3662 -0.0706  0.3443
 3950TIP3   OH211813   0.229   3.402   3.672 -0.3569 -0.4779 -0.5059
 3950TIP3    H111814   0.134   3.401   3.675 -0.3323 -0.7405  1.3143
 3950TIP3    H211815   0.256   3.379   3.761  1.4087  2.7662 -0.0662
 3951TIP3   OH211816   3.679   1.967   3.844 -0.1887 -0.9211 -0.3969
 3951TIP3    H111817   3.660   1.930   3.758 -0.6546 -1.2060 -0.1785
 3951TIP3    H211818   3.594   1.966   3.889  0.1132 -1.0808  0.1798
 3952TIP3   OH211819   5.794   3.892   4.493  0.6483  0.0319  0.5692
 3952TIP3    H111820   5.837   3.900   4.408 -0.5017 -0.6914 -0.1096
 3952TIP3    H211821   5.837   3.957   4.548 -0.7727  2.9096 -1.4693
 3953TIP3   OH211822   4.273   1.399   2.394  0.0090  0.1241 -0.5161
 3953TIP3    H111823   4.337   1.347   2.345 -0.8122 -0.6293 -0.8173
 3953TIP3    H211824   4.250   1.470   2.334 -0.2143 -0.2032 -0.8236
 3954TIP3   OH211825   1.132   1.902   1.155  0.4209 -0.0066  0.1432
 3954TIP3    H111826   1.138   1.894   1.060  0.3672  1.3313  0.0038
 3954TIP3    H211827   1.147   1.813   1.188  0.9224 -0.3985 -1.0851
 3955TIP3   OH211828   4.486   1.522   4.302 -0.4832 -0.1684  0.1618
 3955TIP3    H111829   4.550   1.496   4.368 -1.9095 -0.5819  1.4298
 3955TIP3    H211830   4.434   1.591   4.343 -0.5017  0.5837 -1.0620
 3956TIP3   OH211831   0.580   0.878   5.244 -0.0562 -0.0617  0.0146
 3956TIP3    H111832   0.634   0.933   5.187  0.9261 -0.6902  0.3034
 3956TIP3    H211833   0.505   0.853   5.190 -0.1940  1.0361 -0.3171
 3957TIP3   OH211834   6.797   1.738   5.489 -0.2524 -0.2694 -0.2613
 3957TIP3    H111835   6.861   1.808   5.472 -1.0118  1.1281  2.1097
 3957TIP3    H211836   6.822   1.668   5.430  2.2316  0.9865 -0.8520
 3958TIP3   OH211837   3.955   4.374   4.776  0.2080  0.1111 -0.2155
 3958TIP3    H111838   3.865   4.379   4.744 -0.4202  1.6391  1.6175
 3958TIP3    H211839   3.999   4.450   4.739  1.3529 -1.5654 -2.5772
 3959TIP3   OH211840   5.891   2.802   2.790  0.5332  0.2571  0.1520
 3959TIP3    H111841   5.956   2.773   2.726  1.3679 -1.6616  1.7599
 3959TIP3    H211842   5.813   2.822   2.738  1.9441  1.3384 -1.6860
 3960TIP3   OH211843   0.347   6.497   4.520  0.0193  0.0645 -0.6734
 3960TIP3    H111844   0.299   6.580   4.525  0.3210  0.2396 -0.6552
 3960TIP3    H211845   0.290   6.434   4.563  0.3105  0.5064  0.3867
 3961TIP3   OH211846   6.558   2.224   3.033  0.3371 -0.1237 -0.3664
 3961TIP3    H111847   6.652   2.240   3.043 -0.1189  3.2762 -0.3881
 3961TIP3    H211848   6.545   2.215   2.939  0.7310 -1.6371 -0.2963
 3962TIP3   OH211849   6.799   0.893   3.971 -0.2233 -0.0441 -0.3294
 3962TIP3    H111850   6.706   0.912   3.969 -0.0785  0.7712 -2.5289
 3962TIP3    H211851   6.810   0.819   3.911  0.5792  0.1694 -0.4584
 3963TIP3   OH211852   3.515   5.837   1.720 -0.1678  0.2914 -0.3923
 3963TIP3    H111853   3.465   5.761   1.748  0.2198  0.4327  0.7279
 3963TIP3    H211854   3.604   5.822   1.753  0.6730 -0.1116 -2.6166
 3964TIP3   OH211855   4.596   4.837   2.992 -0.0844  0.9860 -0.0052
 3964TIP3    H111856   4.601   4.801   2.903  0.0289 -0.5386  0.5916
 3964TIP3    H211857   4.688   4.849   3.018 -0.0991  3.1412 -0.7055
 3965TIP3   OH211858   2.508   1.702   0.020 -0.4456  0.2253  0.3984
 3965TIP3    H111859   2.559   1.753  -0.043 -0.4861  0.0531  0.2288
 3965TIP3    H211860   2.462   1.768   0.072 -0.7310  0.3525 -0.0161
 3966TIP3   OH211861   4.691   3.258   0.092  0.2795 -0.6028  0.3092
 3966TIP3    H111862   4.622   3.276   0.028 -0.8820 -1.6124  1.2020
 3966TIP3    H211863   4.661   3.302   0.172  1.5144  0.3195  0.2830
 3967TIP3   OH211864   5.257   2.382   5.735  0.3020 -0.3241  0.2028
 3967TIP3    H111865   5.345   2.347   5.722  0.8783 -0.9056  4.4894
 3967TIP3    H211866   5.219   2.328   5.804 -2.6098  1.3019  0.0270
 3968TIP3   OH211867   2.242   0.937   3.930  0.1159  0.1433  0.1061
 3968TIP3    H111868   2.254   1.020   3.884 -0.8806  0.5335  0.5293
 3968TIP3    H211869   2.271   0.870   3.868 -1.6997  0.6054 -1.3266
 3969TIP3   OH211870   2.631   0.319   4.323 -0.0661  0.5022 -0.9654
 3969TIP3    H111871   2.650   0.228   4.301 -1.8171  0.0753 -0.8500
 3969TIP3    H211872   2.542   0.317   4.360  0.3039  2.0932  0.1244
 3970TIP3   OH211873   6.214   3.885   3.585  0.8375  0.0956 -0.5644
 3970TIP3    H111874   6.180   3.878   3.496  1.2954 -0.2844 -0.7126
 3970TIP3    H211875   6.204   3.977   3.607 -3.1137 -0.4082  0.5374
 3971TIP3   OH211876   4.650   4.887   0.770 -0.1092 -0.0633 -0.6317
 3971TIP3    H111877   4.705   4.810   0.786 -0.0836 -0.2196 -1.3845
 3971TIP3    H211878   4.619   4.874   0.680 -2.7061 -0.7992  0.2851
 3972TIP3   OH211879   1.869   4.478   5.294 -0.1694 -0.0219 -0.1010
 3972TIP3    H111880   1.866   4.573   5.303 -1.9355 -0.1490  0.9763
 3972TIP3    H211881   1.851   4.445   5.381  3.5244 -1.4317  0.3300
 3973TIP3   OH211882   4.239   6.345   1.280 -0.2886  0.3942 -0.6317
 3973TIP3    H111883   4.311   6.331   1.219 -0.4717  0.4158 -0.8513
 3973TIP3    H211884   4.264   6.294   1.358 -0.6105 -0.5756 -1.1527
 3974TIP3   OH211885   7.116   6.556   1.455  0.7280  0.2156  0.4861
 3974TIP3    H111886   7.169   6.553   1.375  0.8607 -1.5720  0.5865
 3974TIP3    H211887   7.121   6.466   1.489  0.4819  0.8941  2.3790
 3975TIP3   OH211888   3.363   5.572   1.476 -0.4876  0.0671 -0.3947
 3975TIP3    H111889   3.353   5.531   1.562  0.6972 -2.2083 -1.2610
 3975TIP3    H211890   3.293   5.638   1.473 -0.6842  0.0902  2.2049
 3976TIP3   OH211891   1.673   3.452   4.779 -0.1082  0.0491  0.7807
 3976TIP3    H111892   1.689   3.541   4.747 -0.6980  0.8559  2.5750
 3976TIP3    H211893   1.619   3.412   4.711  1.0481  0.6653 -0.5633
 3977TIP3   OH211894   1.101   2.175   0.571  0.2253 -0.1887 -0.6483
 3977TIP3    H111895   1.118   2.246   0.632 -1.7490 -1.0941  1.0894
 3977TIP3    H211896   1.178   2.172   0.514  1.6802  1.3786  1.1276
 3978TIP3   OH211897   6.214   3.424   1.914 -0.1786  0.1219  0.1127
 3978TIP3    H111898   6.189   3.410   1.822  2.7832 -4.0127 -0.3635
 3978TIP3    H211899   6.271   3.501   1.912 -0.0004 -0.0181 -1.5688
 3979TIP3   OH211900   5.124   2.271   0.233  0.0219  0.3856 -0.6471
 3979TIP3    H111901   5.196   2.265   0.170  0.0514  0.4453 -0.6189
 3979TIP3    H211902   5.045   2.255   0.182 -0.0468  1.4640 -0.8939
 3980TIP3   OH211903   5.563   4.748   1.093 -0.1110 -0.1667  0.4711
 3980TIP3    H111904   5.541   4.691   1.166 -0.6483  2.0359  2.1693
 3980TIP3    H211905   5.492   4.736   1.030  0.4136 -2.1753  0.2216
 3981TIP3   OH211906   2.351   5.802   0.606 -0.0847 -0.3701 -0.0830
 3981TIP3    H111907   2.281   5.758   0.558 -0.9437 -0.2893  1.0520
 3981TIP3    H211908   2.387   5.865   0.543 -1.6641  0.2574 -0.4067
 3982TIP3   OH211909   3.624   4.033   3.089  0.8578 -0.6409  0.6361
 3982TIP3    H111910   3.584   4.120   3.086  0.5772 -0.7798  0.4126
 3982TIP3    H211911   3.688   4.033   3.018 -0.4810 -1.2784 -0.6189
 3983TIP3   OH211912   5.050   0.532   5.053 -0.0973 -0.0247 -0.2357
 3983TIP3    H111913   5.140   0.503   5.036 -0.7853 -1.6823 -1.3554
 3983TIP3    H211914   5.001   0.451   5.065 -1.3108  0.8737  1.2390
 3984TIP3   OH211915   3.550   2.529   5.712 -0.2267 -0.4738 -0.3006
 3984TIP3    H111916   3.553   2.519   5.617  1.5583  0.4322 -0.3962
 3984TIP3    H211917   3.642   2.531   5.739 -0.6775 -0.0503  1.3736
 3985TIP3   OH211918   0.564   1.951   3.525 -0.0967  0.9658  0.4726
 3985TIP3    H111919   0.479   1.916   3.554 -0.3391 -1.3123 -2.5860
 3985TIP3    H211920   0.625   1.923   3.593 -1.5718  1.8187  2.2482
 3986TIP3   OH211921   5.661   3.571   3.082 -0.0071 -0.2908  0.2867
 3986TIP3    H111922   5.643   3.525   3.000  0.3096  0.1536 -0.0367
 3986TIP3    H211923   5.575   3.589   3.119 -0.1957  0.6323 -0.5791
 3987TIP3   OH211924   0.906   0.920   3.961 -0.1463  0.1130  0.3895
 3987TIP3    H111925   0.847   0.979   4.007 -0.3874  1.3216 -1.3309
 3987TIP3    H211926   0.853   0.882   3.891  0.2972 -1.3385  0.8158
 3988TIP3   OH211927   2.266   2.832   2.767  0.5733  0.3218 -0.3644
 3988TIP3    H111928   2.211   2.888   2.713 -0.0903 -0.0586 -0.1015
 3988TIP3    H211929   2.205   2.790   2.827  0.6485 -2.6721 -2.2044
 3989TIP3   OH211930   0.690   1.497   5.681 -0.0416 -0.5933 -0.5181
 3989TIP3    H111931   0.610   1.445   5.694 -0.2352 -0.6433 -1.7945
 3989TIP3    H211932   0.730   1.460   5.602 -0.0419  1.0000 -1.3028
 3990TIP3   OH211933   1.843   1.979   0.406  0.0676  0.0491  0.3107
 3990TIP3    H111934   1.856   1.890   0.438  0.8576 -0.2701 -0.8470
 3990TIP3    H211935   1.924   2.025   0.430 -0.0550  0.2646  0.3110
 3991TIP3   OH211936   5.826   2.962   4.191  0.0065 -0.3725  0.6964
 3991TIP3    H111937   5.785   2.883   4.226 -1.1138 -0.0323  0.2081
 3991TIP3    H211938   5.756   3.006   4.142  1.1920 -0.2546 -0.9910
 3992TIP3   OH211939   5.517   5.538   1.916  0.3443 -1.0692  0.1490
 3992TIP3    H111940   5.583   5.597   1.951 -1.2425  0.8943 -0.0106
 3992TIP3    H211941   5.544   5.524   1.825  0.5486 -0.2811  0.0814
 3993TIP3   OH211942   0.571   5.311   4.596  0.1777  0.4529 -0.1324
 3993TIP3    H111943   0.524   5.313   4.512 -1.1612 -0.4842  0.5605
 3993TIP3    H211944   0.594   5.219   4.609 -0.1147  0.4993  0.7911
 3994TIP3   OH211945   5.474   0.151   1.069 -0.7632 -0.1363  0.0786
 3994TIP3    H111946   5.492   0.227   1.014  0.6624 -0.2542  0.3486
 3994TIP3    H211947   5.524   0.166   1.149  3.4936 -3.4020 -1.6243
 3995TIP3   OH211948   3.783   6.502   2.441  0.2535  0.4749 -0.4030
 3995TIP3    H111949   3.861   6.446   2.445  0.6402  1.0132 -0.2694
 3995TIP3    H211950   3.811   6.578   2.389 -0.3146  0.4700 -0.7202
 3996TIP3   OH211951   5.593   2.675   1.659 -0.1674  0.0136  0.4267
 3996TIP3    H111952   5.655   2.647   1.726 -0.6488 -2.2254  0.0002
 3996TIP3    H211953   5.605   2.612   1.588 -1.2363  1.0121 -0.6786
 3997TIP3   OH211954   2.785   1.925   3.207 -0.6533  0.1391 -0.2879
 3997TIP3    H111955   2.792   1.886   3.294 -1.5438 -0.6602 -0.5565
 3997TIP3    H211956   2.826   1.862   3.148 -1.5086 -0.1154 -0.6398
 3998TIP3   OH211957   6.742   5.606   1.500  0.3094  0.0439  0.1529
 3998TIP3    H111958   6.816   5.575   1.448 -0.8789 -0.2553 -1.4304
 3998TIP3    H211959   6.667   5.555   1.468 -0.9654  1.7339  0.2733
 3999TIP3   OH211960   1.133   5.446   0.625  0.3369 -0.3936 -0.2501
 3999TIP3    H111961   1.051   5.456   0.674 -0.8043  0.8834 -2.2499
 3999TIP3    H211962   1.128   5.358   0.589 -0.1474 -0.3547 -0.2952
 4000TIP3   OH211963   5.145   3.515   5.775 -0.2161 -0.4956  0.3072
 4000TIP3    H111964   5.055   3.481   5.782 -0.4161 -0.2173 -0.7525
 4000TIP3    H211965   5.134   3.606   5.748  0.3839 -0.2204  0.9520
 4001TIP3   OH211966   0.228   2.839   3.402  0.4848  0.0512 -0.4239
 4001TIP3    H111967   0.211   2.746   3.417 -0.2427  0.2712  0.1704
 4001TIP3    H211968   0.272   2.869   3.482 -1.3775  0.7236  0.3917
 4002TIP3   OH211969   0.429   2.914   2.242  0.3945  0.0139 -0.2485
 4002TIP3    H111970   0.475   2.903   2.159 -0.5385  0.1563 -0.7945
 4002TIP3    H211971   0.417   3.009   2.250 -0.0197 -0.0388 -0.2352
 4003TIP3   OH211972   4.371   4.096   1.728  0.7562  0.1359  0.1552
 4003TIP3    H111973   4.347   4.166   1.789  2.0496  1.2117 -0.5108
 4003TIP3    H211974   4.459   4.119   1.698  1.0168 -1.5205 -0.4837
 4004TIP3   OH211975   1.292   1.544   5.004 -0.3522 -0.0220 -0.4184
 4004TIP3    H111976   1.320   1.525   5.093 -0.8839  0.8813 -0.0410
 4004TIP3    H211977   1.198   1.561   5.012 -0.2751  0.7510 -1.0261
 4005TIP3   OH211978   2.034   4.180   1.834  0.1643  0.2639 -0.0809
 4005TIP3    H111979   2.049   4.226   1.751  2.5510 -1.0827 -0.4855
 4005TIP3    H211980   2.038   4.087   1.812 -1.9141 -0.1792  1.1531
 4006TIP3   OH211981   5.465   5.749   0.585 -0.6656  0.1601 -0.7226
 4006TIP3    H111982   5.505   5.793   0.660  0.8714 -0.7336 -0.9727
 4006TIP3    H211983   5.424   5.671   0.622  2.1923 -1.6180 -1.0073
 4007TIP3   OH211984   0.645   1.214   3.697  0.0588 -0.0406  0.2304
 4007TIP3    H111985   0.573   1.249   3.644  0.5584  1.4739  0.5001
 4007TIP3    H211986   0.724   1.241   3.651  0.4791 -0.9457  0.3997
 4008TIP3   OH211987   4.398   0.975   1.237  0.1459 -0.3981 -0.0693
 4008TIP3    H111988   4.421   1.019   1.319 -0.4357 -1.0909  0.4703
 4008TIP3    H211989   4.369   1.046   1.179 -2.5259 -0.1969  1.3771
 4009TIP3   OH211990   3.012   1.725   5.528  1.0510  0.4156  0.0433
 4009TIP3    H111991   3.026   1.641   5.572 -0.7310 -0.0537 -0.2085
 4009TIP3    H211992   3.046   1.712   5.440  1.7459  0.3089  0.3248
 4010TIP3   OH211993   1.914   0.403   1.950  0.5188  0.0970 -0.6433
 4010TIP3    H111994   1.838   0.456   1.926 -0.1149 -0.7066 -0.4725
 4010TIP3    H211995   1.929   0.347   1.874 -0.2447 -1.0519  0.0106
 4011TIP3   OH211996   2.125   5.217   0.166 -0.2446  0.7039 -0.3477
 4011TIP3    H111997   2.062   5.176   0.106  1.4260 -0.0881 -1.6385
 4011TIP3    H211998   2.071   5.275   0.220 -2.3755 -1.3634 -0.0667
 4012TIP3   OH211999   7.094   3.777   2.165 -0.3169  0.8082 -0.0766
 4012TIP3    H112000   7.021   3.815   2.116  0.0735  0.6589 -0.7921
 4012TIP3    H212001   7.152   3.851   2.182 -0.4139  0.8452  0.1008
 4013TIP3   OH212002   3.664   0.200   4.736  0.1181 -0.6846  0.0536
 4013TIP3    H112003   3.686   0.272   4.677 -0.5709  0.6594  1.3852
 4013TIP3    H212004   3.735   0.136   4.723 -0.1342 -0.5808 -2.3833
 4014TIP3   OH212005   0.476   0.313   1.543  0.1065 -0.5892  0.5957
 4014TIP3    H112006   0.440   0.347   1.462 -1.2942 -0.5458  1.2146
 4014TIP3    H212007   0.519   0.388   1.585 -0.3136 -0.3023  0.5122
 4015TIP3   OH212008   0.349   3.829   1.977 -0.2852  0.2923  0.0257
 4015TIP3    H112009   0.326   3.739   2.000  1.1775 -0.1570 -0.2102
 4015TIP3    H212010   0.434   3.844   2.017 -1.0914  2.0614  1.2180
 4016TIP3   OH212011   2.177   5.861   5.362  0.3995 -0.2237 -0.0237
 4016TIP3    H112012   2.225   5.816   5.292 -0.6617  0.1964 -1.0368
 4016TIP3    H212013   2.200   5.953   5.352 -0.9300  0.0359 -0.7785
 4017TIP3   OH212014   5.987   5.246   3.122  0.1286  0.2225  0.2843
 4017TIP3    H112015   5.986   5.172   3.062  2.2317  0.2770  0.1014
 4017TIP3    H212016   6.026   5.317   3.070 -2.2986  1.6603  0.2803
 4018TIP3   OH212017   2.477   1.682   4.944 -0.3791  0.1682  0.1691
 4018TIP3    H112018   2.456   1.621   4.873  3.0639 -2.9051  1.4377
 4018TIP3    H212019   2.429   1.649   5.019 -1.4797  1.4361  0.0479
 4019TIP3   OH212020   6.371   0.947   1.657  0.3045  0.2584 -0.3445
 4019TIP3    H112021   6.292   0.994   1.680  0.9672  1.3769 -0.2921
 4019TIP3    H212022   6.372   0.946   1.561 -0.1944 -0.5222 -0.3558
 4020TIP3   OH212023   4.560   1.634   0.811 -0.0505 -0.3909 -0.2334
 4020TIP3    H112024   4.602   1.628   0.725 -0.7431 -0.4205 -0.5697
 4020TIP3    H212025   4.571   1.546   0.849  0.1409 -0.4145 -0.3404
 4021TIP3   OH212026   4.375   0.041   4.176 -0.2882 -0.3796  0.3093
 4021TIP3    H112027   4.347   0.029   4.085  0.4518 -0.6102  0.1033
 4021TIP3    H212028   4.330   0.121   4.205  0.5516  0.5091 -0.7172
 4022TIP3   OH212029   0.361   2.743   4.864  0.4347  0.2240 -0.6012
 4022TIP3    H112030   0.424   2.808   4.832 -1.2559  1.2615 -1.9976
 4022TIP3    H212031   0.304   2.726   4.790 -1.2141 -0.3296  0.7327
 4023TIP3   OH212032   5.222   6.549   0.807 -0.2542 -0.1334 -0.3734
 4023TIP3    H112033   5.207   6.612   0.737 -0.1373  0.3634  0.0458
 4023TIP3    H212034   5.200   6.596   0.887  0.5549 -0.3889  0.0078
 4024TIP3   OH212035   1.680   2.958   0.197 -0.3767  0.4700 -0.1334
 4024TIP3    H112036   1.656   3.019   0.127  1.1758  0.4874 -0.7021
 4024TIP3    H212037   1.697   2.875   0.152 -0.5142  0.1700  0.3695
 4025TIP3   OH212038   2.447   5.594   2.149  0.0780 -0.8284 -0.0717
 4025TIP3    H112039   2.452   5.504   2.114 -0.9205 -0.9020 -0.0503
 4025TIP3    H212040   2.499   5.646   2.087 -1.3354 -1.0236 -1.4977
 4026TIP3   OH212041   0.957   2.201   0.094  0.7843  0.3401 -0.4725
 4026TIP3    H112042   1.000   2.118   0.116 -1.5542 -1.0891 -0.9133
 4026TIP3    H212043   0.864   2.179   0.090  0.0566  3.0583 -0.4484
 4027TIP3   OH212044   2.140   6.765   2.168  0.0905  0.0109  0.0001
 4027TIP3    H112045   2.207   6.789   2.104  1.2148 -0.8867  0.8029
 4027TIP3    H212046   2.061   6.750   2.116  0.2501  1.9014 -0.8777
 4028TIP3   OH212047   5.170   4.443   5.347 -0.0850  0.3640 -0.3653
 4028TIP3    H112048   5.166   4.390   5.427 -0.9202 -0.2308 -0.7798
 4028TIP3    H212049   5.103   4.510   5.360  2.1882  2.5442  0.9497
 4029TIP3   OH212050   3.887   3.697   4.467  0.4764 -0.1997 -0.2117
 4029TIP3    H112051   3.821   3.637   4.502 -0.1007  0.5035 -0.0731
 4029TIP3    H212052   3.964   3.684   4.523  0.0337 -0.1106  0.4298
 4030TIP3   OH212053   2.713   4.015   4.865  0.3862 -0.0730  0.1200
 4030TIP3    H112054   2.799   4.020   4.824  0.0025 -0.9489 -0.8604
 4030TIP3    H212055   2.705   3.923   4.893 -1.0691 -0.6172 -1.8352
 4031TIP3   OH212056   3.054   2.140   5.111 -0.1755 -0.5981  0.5576
 4031TIP3    H112057   2.996   2.066   5.096 -1.3143  0.0088  1.7085
 4031TIP3    H212058   3.025   2.206   5.048 -0.4642 -0.4496  0.8413
 4032TIP3   OH212059   0.634   1.210   1.532  0.0138 -0.2509  0.0075
 4032TIP3    H112060   0.713   1.225   1.480  0.2619 -1.9396 -0.1576
 4032TIP3    H212061   0.568   1.266   1.492  0.9399  0.6713 -0.2773
 4033TIP3   OH212062   5.652   3.262   3.564  0.4587  0.1945 -0.1739
 4033TIP3    H112063   5.715   3.322   3.525  1.1270  0.9495  1.9254
 4033TIP3    H212064   5.568   3.307   3.558  0.4848  0.1544 -0.9784
 4034TIP3   OH212065   0.916   2.367   1.559  0.0865 -0.1507  0.0619
 4034TIP3    H112066   0.982   2.360   1.490  0.0967 -0.7210  0.1311
 4034TIP3    H212067   0.864   2.443   1.534  1.1642  0.7091  0.3547
 4035TIP3   OH212068   6.483   6.814   1.750  0.4433 -0.1924  0.0037
 4035TIP3    H112069   6.550   6.750   1.773  0.0255 -0.1746  1.3269
 4035TIP3    H212070   6.400   6.767   1.762  0.1117  0.7382  1.5207
 4036TIP3   OH212071   6.809   6.559   4.873 -0.4900 -0.1113 -0.3476
 4036TIP3    H112072   6.734   6.590   4.924 -0.6633  1.2624 -1.3616
 4036TIP3    H212073   6.782   6.573   4.782  0.4511 -0.9546 -0.7752
 4037TIP3   OH212074   1.826   3.644   2.060 -0.2185  0.2110 -0.1481
 4037TIP3    H112075   1.886   3.687   2.121 -0.8162 -0.7850  1.1971
 4037TIP3    H212076   1.829   3.552   2.085  0.2355 -0.4219 -2.2726
 4038TIP3   OH212077   4.303   0.099   2.014 -0.2585 -0.1692  0.3060
 4038TIP3    H112078   4.274   0.144   1.934  2.2652 -0.8851 -1.0987
 4038TIP3    H212079   4.321   0.170   2.076  2.8772  0.9065 -1.6005
 4039TIP3   OH212080   3.612   4.933   3.329 -0.5476 -0.3810  0.0549
 4039TIP3    H112081   3.675   4.980   3.276 -0.2012 -0.8759  0.0243
 4039TIP3    H212082   3.641   4.841   3.327 -0.4815 -0.4069  1.1405
 4040TIP3   OH212083   6.827   2.005   1.698 -0.2153  0.2367 -0.4168
 4040TIP3    H112084   6.769   1.931   1.719 -0.2145  0.4715  0.4722
 4040TIP3    H212085   6.913   1.966   1.686  0.0166  0.1918  1.1723
 4041TIP3   OH212086   6.148   0.908   4.176  0.1338 -0.5941  0.0902
 4041TIP3    H112087   6.160   0.819   4.142 -0.2634 -0.7034  0.2288
 4041TIP3    H212088   6.237   0.939   4.193  0.2792 -0.9458 -0.0094
 4042TIP3   OH212089   2.222   2.182   2.396 -0.2848  0.2656 -0.3760
 4042TIP3    H112090   2.139   2.203   2.352 -2.0219 -0.3711  2.3304
 4042TIP3    H212091   2.275   2.261   2.385 -1.6546  1.0946 -1.3655
 4043TIP3   OH212092   3.925   1.138   0.916  0.4013  0.0807 -0.6423
 4043TIP3    H112093   3.890   1.131   0.827  1.6224  0.6770 -1.1870
 4043TIP3    H212094   4.020   1.140   0.905  0.5596  0.7593  0.6347
 4044TIP3   OH212095   5.568   1.105   5.799  0.2392 -0.0469  0.1928
 4044TIP3    H112096   5.556   1.190   5.840 -0.0675 -0.2634  0.5532
 4044TIP3    H212097   5.581   1.126   5.706  1.7644  0.4926  0.5027
 4045TIP3   OH212098   5.187   2.083   4.008 -0.1897  0.1806  0.3681
 4045TIP3    H112099   5.111   2.028   4.027 -0.7024  0.0257 -1.8487
 4045TIP3    H212100   5.149   2.167   3.982  0.1233 -0.6427 -3.2887
 4046TIP3   OH212101   6.503   5.602   3.586  0.4890  0.0192 -0.6184
 4046TIP3    H112102   6.495   5.506   3.579  0.6012 -0.0653  0.2611
 4046TIP3    H212103   6.529   5.630   3.499 -4.3808 -0.1745 -2.4147
 4047TIP3   OH212104   0.871   2.079   1.657  0.3908  0.2089  0.0227
 4047TIP3    H112105   0.902   2.166   1.633 -1.1755  0.5605 -0.8352
 4047TIP3    H212106   0.928   2.052   1.729  0.6549  2.0838  0.5565
 4048TIP3   OH212107   2.586   1.294   5.878  0.2177  0.2383  0.3630
 4048TIP3    H112108   2.672   1.287   5.835 -0.1384 -0.4384 -0.2585
 4048TIP3    H212109   2.523   1.285   5.806 -0.3834 -0.1800  0.9344
 4049TIP3   OH212110   0.471   0.782   2.703 -0.4605  0.0903 -0.2206
 4049TIP3    H112111   0.521   0.748   2.777 -1.7599 -2.4775 -0.3818
 4049TIP3    H212112   0.467   0.876   2.717  1.1277 -0.0827  1.8125
 4050TIP3   OH212113   7.036   1.833   2.174 -0.5255  0.6113  0.3349
 4050TIP3    H112114   7.117   1.805   2.216 -1.1399  0.7386  1.6636
 4050TIP3    H212115   7.004   1.756   2.128  0.5712  0.6913 -0.6150
 4051TIP3   OH212116   0.827   1.014   5.096  0.4508 -0.2622 -0.2232
 4051TIP3    H112117   0.791   1.084   5.151 -1.0900 -1.4521  0.3597
 4051TIP3    H212118   0.868   0.953   5.157  1.5418 -0.0387 -0.7042
 4052TIP3   OH212119   2.615   6.205   4.794  0.2374  0.0052 -0.3614
 4052TIP3    H112120   2.637   6.112   4.793  1.3764  0.1617  2.3329
 4052TIP3    H212121   2.556   6.215   4.868  0.8321  1.5405 -0.0544
 4053TIP3   OH212122   1.211   6.225   5.486 -0.2687 -0.6931  0.3710
 4053TIP3    H112123   1.205   6.284   5.411 -2.7563  0.7538  1.5997
 4053TIP3    H212124   1.208   6.137   5.447 -0.0261 -0.0109 -1.2906
 4054TIP3   OH212125   3.832   0.202   0.153 -0.3345 -0.3164 -0.1108
 4054TIP3    H112126   3.771   0.235   0.088 -0.5262  1.8099  1.0667
 4054TIP3    H212127   3.876   0.128   0.110 -0.8699  0.6331 -2.3945
 4055TIP3   OH212128   1.993   1.996   0.797  0.1435 -0.2470 -0.3522
 4055TIP3    H112129   1.898   1.995   0.811  0.1679 -0.3776 -0.1974
 4055TIP3    H212130   2.028   1.941   0.866  0.3650  0.1025 -0.1811
 4056TIP3   OH212131   0.096   3.519   1.263 -0.3877  0.4091 -0.0423
 4056TIP3    H112132   0.101   3.547   1.172 -1.0257 -0.8825 -0.4980
 4056TIP3    H212133   0.039   3.584   1.304 -1.6916 -0.0446 -1.0350
 4057TIP3   OH212134   7.096   5.873   0.220 -0.3500  0.4821  0.2357
 4057TIP3    H112135   7.007   5.843   0.208  1.0527 -4.2591 -0.2834
 4057TIP3    H212136   7.119   5.845   0.309  0.7633  1.1451  0.1795
 4058TIP3   OH212137   2.437   5.966   0.400 -0.1535  0.3358 -0.0338
 4058TIP3    H112138   2.368   5.954   0.335 -0.8435 -1.2463  0.9365
 4058TIP3    H212139   2.438   6.060   0.417 -2.8118  0.3283  0.6579
 4059TIP3   OH212140   5.465   1.905   3.396  0.5116 -0.3450  0.0709
 4059TIP3    H112141   5.443   1.949   3.478  0.7628  1.0384 -0.5654
 4059TIP3    H212142   5.399   1.837   3.387  0.0017 -0.0018  1.0326
 4060TIP3   OH212143   2.079   2.198   4.849  0.1934  0.2937  0.0094
 4060TIP3    H112144   2.130   2.127   4.812  2.0547  0.9359  1.2181
 4060TIP3    H212145   1.988   2.179   4.824  0.9889 -0.9113 -2.1449
 4061TIP3   OH212146   5.776   3.499   5.670  0.3349 -0.5802 -0.5239
 4061TIP3    H112147   5.772   3.575   5.729  0.8448 -0.0488 -1.1503
 4061TIP3    H212148   5.828   3.435   5.716 -1.8099 -1.4037  0.9246
 4062TIP3   OH212149   5.258   4.220   1.251 -0.0453 -0.4622  0.0611
 4062TIP3    H112150   5.350   4.204   1.232 -0.6277 -1.8803 -1.8798
 4062TIP3    H212151   5.259   4.280   1.325  2.4245 -0.5900  0.2146
 4063TIP3   OH212152   6.253   4.805   4.740  0.2852 -0.1114  0.1825
 4063TIP3    H112153   6.251   4.882   4.798  1.5658 -0.5418  0.8447
 4063TIP3    H212154   6.274   4.840   4.654 -2.1681  0.6049 -0.1948
 4064TIP3   OH212155   0.093   0.159   3.219 -0.1594  0.0017 -0.1624
 4064TIP3    H112156   0.074   0.180   3.311 -1.6190 -1.7054 -0.0263
 4064TIP3    H212157   0.088   0.243   3.174  1.2872  1.0010  1.3886
 4065TIP3   OH212158   0.370   2.928   4.480 -0.5194  0.6148  0.3622
 4065TIP3    H112159   0.281   2.951   4.506 -0.7133 -0.8273  1.0559
 4065TIP3    H212160   0.425   2.961   4.551 -0.5113  1.3199  0.0341
 4066TIP3   OH212161   6.766   0.647   5.535 -0.2823 -0.4321 -0.0355
 4066TIP3    H112162   6.839   0.702   5.507 -0.0107 -0.0339  1.3792
 4066TIP3    H212163   6.757   0.664   5.629 -1.1761 -1.6648  0.1361
 4067TIP3   OH212164   6.565   4.153   4.939  0.0348 -0.2623 -0.1683
 4067TIP3    H112165   6.630   4.222   4.951 -1.5545  1.6105 -1.5136
 4067TIP3    H212166   6.578   4.094   5.014  2.2012  0.8659  0.4312
 4068TIP3   OH212167   0.654   0.765   4.254 -0.1813 -0.0816 -0.4250
 4068TIP3    H112168   0.607   0.765   4.338  0.3674 -2.2070 -0.0758
 4068TIP3    H212169   0.657   0.673   4.228  2.5962  0.1395 -1.1184
 4069TIP3   OH212170   0.862   5.908   0.676 -0.1831 -0.5737 -0.6275
 4069TIP3    H112171   0.779   5.952   0.656 -0.0183  0.2890  0.4950
 4069TIP3    H212172   0.836   5.827   0.720 -0.4443  0.1551  0.6093
 4070TIP3   OH212173   2.874   6.118   1.215  0.4592  0.7315 -0.6292
 4070TIP3    H112174   2.921   6.201   1.218 -2.1393  2.3923 -1.9388
 4070TIP3    H212175   2.858   6.103   1.122 -2.2580  0.7549 -0.2470
 4071TIP3   OH212176   5.287   5.719   4.229  0.1444 -0.3293 -0.2225
 4071TIP3    H112177   5.337   5.639   4.212 -2.1034 -2.0200  0.5308
 4071TIP3    H212178   5.200   5.701   4.194  0.0115  2.5662 -1.6868
 4072TIP3   OH212179   5.404   6.709   5.585 -0.0113 -0.8538  0.5581
 4072TIP3    H112180   5.496   6.734   5.590 -0.8867  3.2623 -0.2588
 4072TIP3    H212181   5.392   6.676   5.496  0.7128 -1.8654  0.8202
 4073TIP3   OH212182   3.270   0.611   4.294  0.0703  0.3377  0.5402
 4073TIP3    H112183   3.221   0.574   4.221 -0.8984 -0.7542  1.7029
 4073TIP3    H212184   3.269   0.705   4.278  2.7365  0.0293 -2.5938
 4074TIP3   OH212185   6.579   2.408   1.231 -0.1997 -0.1120  0.1978
 4074TIP3    H112186   6.554   2.342   1.296 -1.8859  0.7001  0.4311
 4074TIP3    H212187   6.536   2.380   1.150  0.0609  0.0650 -0.0061
 4075TIP3   OH212188   0.951   1.664   1.197 -0.2577 -0.3143  0.3335
 4075TIP3    H112189   0.915   1.752   1.205 -3.8320 -1.5601 -0.3922
 4075TIP3    H212190   1.000   1.666   1.115 -0.2283  1.0081  0.3624
 4076TIP3   OH212191   4.952   4.926   1.067 -0.0693  0.2607 -0.4534
 4076TIP3    H112192   4.924   4.988   1.134 -2.6289  0.7869 -1.8643
 4076TIP3    H212193   4.871   4.893   1.029  1.2588 -1.5595 -1.9268
 4077TIP3   OH212194   5.462   0.101   0.577 -0.0155  0.0570 -0.4040
 4077TIP3    H112195   5.388   0.041   0.577  1.5795 -2.0651  1.1491
 4077TIP3    H212196   5.513   0.078   0.499 -0.8215  1.3859 -1.3679
 4078TIP3   OH212197   0.726   4.931   2.414 -0.5957 -0.4983 -0.3098
 4078TIP3    H112198   0.774   4.900   2.336  0.4768 -0.4641  0.3146
 4078TIP3    H212199   0.749   5.024   2.421  0.6243 -0.8590  0.9428
 4079TIP3   OH212200   3.484   4.784   2.978  0.1952 -0.2388  0.0911
 4079TIP3    H112201   3.450   4.862   3.021 -1.8297  0.0335 -1.8380
 4079TIP3    H212202   3.408   4.742   2.938  1.5599 -1.9107 -0.9532
 4080TIP3   OH212203   1.307   3.360   2.623 -0.0439  0.1026  0.4087
 4080TIP3    H112204   1.229   3.305   2.630  0.3667 -0.5286  0.1542
 4080TIP3    H212205   1.275   3.449   2.635 -1.0176 -0.0134 -1.1084
 4081TIP3   OH212206   0.223   2.904   1.976 -0.1974  0.0281  0.1927
 4081TIP3    H112207   0.236   2.982   2.030  3.6159 -0.0363 -0.3303
 4081TIP3    H212208   0.221   2.937   1.887  0.2328 -0.3655  0.0354
 4082TIP3   OH212209   4.567   3.378   0.917 -0.0288 -0.1372  0.3985
 4082TIP3    H112210   4.642   3.415   0.964  0.7010 -0.5721 -0.3825
 4082TIP3    H212211   4.495   3.382   0.980  0.8956 -0.6600  1.5451
 4083TIP3   OH212212   4.637   4.757   5.308  0.4074 -0.4913  0.4712
 4083TIP3    H112213   4.626   4.711   5.391 -3.3411 -0.7041  0.0628
 4083TIP3    H212214   4.581   4.835   5.316  0.6846 -0.0165 -1.5106
 4084TIP3   OH212215   7.091   3.683   1.347 -0.7000 -0.3053 -0.0498
 4084TIP3    H112216   7.085   3.745   1.275 -0.2344 -0.1284  0.0627
 4084TIP3    H212217   7.000   3.659   1.365 -0.8782  0.2943 -0.1314
 4085TIP3   OH212218   0.988   5.968   1.634  0.5477 -0.1551 -0.2993
 4085TIP3    H112219   0.928   6.020   1.687  1.6422  0.5035  0.3204
 4085TIP3    H212220   1.074   6.007   1.649  1.1741 -1.2100 -0.9997
 4086TIP3   OH212221   3.821   1.466   5.449 -0.0476  0.4237  0.2590
 4086TIP3    H112222   3.892   1.518   5.412 -1.8054  1.5414 -1.7431
 4086TIP3    H212223   3.830   1.381   5.407 -0.0331  0.6342 -0.1688
 4087TIP3   OH212224   4.190   5.647   5.849 -0.1125  0.4058 -0.0211
 4087TIP3    H112225   4.253   5.648   5.922  0.4587  1.3008 -0.5163
 4087TIP3    H212226   4.245   5.648   5.771 -0.7032 -1.2599 -0.5035
 4088TIP3   OH212227   6.167   3.532   2.796 -0.3072  0.2319  0.3049
 4088TIP3    H112228   6.158   3.568   2.708 -1.5189  1.8309  1.0405
 4088TIP3    H212229   6.201   3.604   2.849 -3.9657  0.8596  2.0720
 4089TIP3   OH212230   5.718   1.652   5.057  0.4446  0.4052 -0.5851
 4089TIP3    H112231   5.739   1.699   5.137 -0.2836  0.3284 -0.3358
 4089TIP3    H212232   5.720   1.718   4.988  1.3221  0.4233 -0.5500
 4090TIP3   OH212233   2.168   6.420   3.327 -0.1768  0.8196  0.1482
 4090TIP3    H112234   2.123   6.504   3.321 -0.6012  0.6415  0.8073
 4090TIP3    H212235   2.200   6.416   3.417  0.1995  0.4516  0.0017
 4091TIP3   OH212236   5.553   4.920   2.332 -0.0466 -0.6699  0.0145
 4091TIP3    H112237   5.610   4.997   2.332 -1.4337  0.3779  0.5812
 4091TIP3    H212238   5.500   4.929   2.253 -1.4175 -0.0960  0.9607
 4092TIP3   OH212239   0.872   5.887   5.504  0.0364 -0.4882  0.2573
 4092TIP3    H112240   0.836   5.835   5.577  0.5987  0.2467  1.0816
 4092TIP3    H212241   0.967   5.879   5.513  0.1554 -2.3799 -1.8869
 4093TIP3   OH212242   2.422   4.884   2.905  0.2521  0.2334 -0.6057
 4093TIP3    H112243   2.399   4.904   2.995  1.4168 -0.0213 -0.2388
 4093TIP3    H212244   2.489   4.949   2.883  1.3545 -0.8914 -0.6433
 4094TIP3   OH212245   3.530   1.262   4.418 -0.4256  0.2884 -0.0547
 4094TIP3    H112246   3.617   1.221   4.411 -0.5022  0.2981 -1.2193
 4094TIP3    H212247   3.539   1.345   4.371 -1.5364 -0.5181 -1.7627
 4095TIP3   OH212248   6.745   1.295   5.591  0.3443 -0.5024  0.0386
 4095TIP3    H112249   6.675   1.312   5.654  0.1261  0.1802 -0.3735
 4095TIP3    H212250   6.701   1.300   5.506  0.9008 -0.0415 -0.2240
 4096TIP3   OH212251   1.150   3.158   0.978 -0.3986 -0.0530  0.2015
 4096TIP3    H112252   1.123   3.157   0.886  0.3246  1.7701 -0.0711
 4096TIP3    H212253   1.075   3.123   1.025 -1.3398  0.3181 -0.9735
 4097TIP3   OH212254   6.350   2.782   1.578  0.3964 -0.0938  0.2678
 4097TIP3    H112255   6.406   2.713   1.542 -1.8404 -0.7071 -2.3970
 4097TIP3    H212256   6.354   2.852   1.513 -0.6412  0.5158  0.8437
 4098TIP3   OH212257   7.014   6.319   2.391 -0.2302 -0.2854 -0.0787
 4098TIP3    H112258   6.937   6.268   2.415 -0.3107 -0.5424 -0.8577
 4098TIP3    H212259   6.979   6.406   2.369 -0.2041 -0.1753  0.3040
 4099TIP3   OH212260   0.477   0.166   5.836 -0.2603 -0.4988 -0.2532
 4099TIP3    H112261   0.483   0.259   5.857 -1.0019 -0.7526  1.2626
 4099TIP3    H212262   0.556   0.128   5.876 -0.5431 -0.6761  0.1419
 4100TIP3   OH212263   2.543   3.429   2.026  0.1402 -0.1706 -0.5312
 4100TIP3    H112264   2.583   3.417   2.112 -1.3533 -1.3219  0.0651
 4100TIP3    H212265   2.590   3.369   1.968  0.3297 -0.3233 -0.2169
 4101TIP3   OH212266   1.968   3.549   4.712  0.5468  0.2820  0.4394
 4101TIP3    H112267   1.992   3.545   4.620  0.3357 -0.3194  0.4101
 4101TIP3    H212268   1.900   3.617   4.716 -1.1762 -1.3136 -0.2439
 4102TIP3   OH212269   2.788   4.578   4.515 -0.4149  0.2501 -0.0835
 4102TIP3    H112270   2.817   4.640   4.582  1.0651 -0.7079  0.2282
 4102TIP3    H212271   2.777   4.631   4.436 -1.3098  1.2454  0.6800
 4103TIP3   OH212272   5.161   2.755   3.144  0.1426  0.3113  0.0619
 4103TIP3    H112273   5.147   2.712   3.228  0.1159  1.6579  0.7901
 4103TIP3    H212274   5.074   2.785   3.117  0.0816 -0.5171 -0.6858
 4104TIP3   OH212275   4.828   1.075   1.871  0.5288 -0.2684  0.1935
 4104TIP3    H112276   4.823   1.165   1.902  0.1686  0.0495 -0.7814
 4104TIP3    H212277   4.742   1.055   1.836  0.7219 -0.8560  0.0256
 4105TIP3   OH212278   4.547   5.087   2.697 -0.2978  0.3612  0.0708
 4105TIP3    H112279   4.619   5.121   2.750 -0.6490  0.6610  0.3624
 4105TIP3    H212280   4.482   5.059   2.761 -0.1096 -0.6586 -0.1721
 4106TIP3   OH212281   0.747   6.063   5.368 -0.3501 -0.0107  0.4132
 4106TIP3    H112282   0.792   5.996   5.420 -0.0325  0.0745  0.2483
 4106TIP3    H212283   0.818   6.112   5.326 -0.5972 -1.6864 -2.2093
 4107TIP3   OH212284   5.672   5.565   2.192 -0.6785 -0.6071 -0.3635
 4107TIP3    H112285   5.642   5.609   2.272  0.6437 -1.1083  0.4364
 4107TIP3    H212286   5.632   5.478   2.197  0.4779 -1.1205  0.4801
 4108TIP3   OH212287   5.904   4.064   3.591  0.5301  0.1290 -0.1505
 4108TIP3    H112288   5.898   3.990   3.530  2.5494  0.2276 -0.5442
 4108TIP3    H212289   5.945   4.134   3.541  0.9677  0.6716  0.9263
 4109TIP3   OH212290   2.369   2.691   5.457  0.1881  0.4333  0.5134
 4109TIP3    H112291   2.358   2.745   5.535  0.6996  1.3833 -0.0577
 4109TIP3    H212292   2.463   2.678   5.450  0.1871  0.8175 -0.2566
 4110TIP3   OH212293   3.972   5.704   0.818  0.2456  0.3077 -0.4144
 4110TIP3    H112294   4.026   5.691   0.740  0.5839  0.9443 -0.2936
 4110TIP3    H212295   4.016   5.652   0.886  0.7739  0.9022 -0.2917
 4111TIP3   OH212296   4.385   4.817   4.486 -0.0260  0.0415 -0.0837
 4111TIP3    H112297   4.399   4.856   4.400 -0.5316 -0.1862 -0.2746
 4111TIP3    H212298   4.455   4.852   4.540  1.3817 -1.1869 -1.0420
 4112TIP3   OH212299   6.884   3.651   2.605 -0.6555  0.1191 -0.5776
 4112TIP3    H112300   6.941   3.637   2.529  0.7451  0.1251  0.4233
 4112TIP3    H212301   6.902   3.577   2.662 -0.1055  1.1750  0.6635
 4113TIP3   OH212302   6.856   5.451   0.940  0.1328  0.2979 -0.5896
 4113TIP3    H112303   6.775   5.477   0.983 -1.0211  1.0884 -3.0756
 4113TIP3    H212304   6.852   5.356   0.937  0.5251  0.1678  1.4354
 4114TIP3   OH212305   6.675   6.122   3.342  0.0872  0.1069  0.0616
 4114TIP3    H112306   6.692   6.202   3.391 -0.3245  2.1654 -2.8693
 4114TIP3    H212307   6.595   6.087   3.381 -0.5405  1.9459  0.5297
 4115TIP3   OH212308   6.034   1.722   5.037 -0.1225  0.2320 -0.1139
 4115TIP3    H112309   6.016   1.719   4.944 -0.6932 -1.3939  0.0154
 4115TIP3    H212310   5.957   1.683   5.078 -0.0232  1.1975  1.0753
 4116TIP3   OH212311   2.727   0.468   5.833 -0.4873 -0.0463 -0.1118
 4116TIP3    H112312   2.681   0.548   5.858  0.2481 -0.2103  2.0253
 4116TIP3    H212313   2.724   0.467   5.738 -2.9269  1.0791 -0.1169
 4117TIP3   OH212314   0.177   4.788   0.292  0.0593 -0.2967 -0.3507
 4117TIP3    H112315   0.137   4.702   0.308 -0.9005  0.1673 -0.1630
 4117TIP3    H212316   0.209   4.816   0.378  1.6537 -1.0670 -0.6617
 4118TIP3   OH212317   5.853   0.570   4.134 -0.0718  0.2005 -0.2769
 4118TIP3    H112318   5.886   0.481   4.149 -0.2043  0.1814 -0.0924
 4118TIP3    H212319   5.796   0.562   4.058 -0.1596  0.1085 -0.2017
 4119TIP3   OH212320   0.478   6.353   4.330 -0.3677 -0.1111 -0.2777
 4119TIP3    H112321   0.406   6.290   4.341  0.8282 -1.2420  1.4880
 4119TIP3    H212322   0.456   6.424   4.390  0.1330 -0.6205  0.5256
 4120TIP3   OH212323   2.957   0.145   2.183 -0.0922 -0.5850  0.0384
 4120TIP3    H112324   3.008   0.199   2.122  1.4668  0.0026  1.7941
 4120TIP3    H212325   3.001   0.060   2.181 -1.4069 -1.2857 -1.2874
 4121TIP3   OH212326   5.419   1.702   5.561 -0.4251  0.6339 -0.0072
 4121TIP3    H112327   5.406   1.797   5.562  0.0455  0.7235 -1.2888
 4121TIP3    H212328   5.331   1.666   5.563 -0.6622  1.1317 -0.9473
 4122TIP3   OH212329   6.548   5.053   1.776 -0.3085 -0.5725 -0.0312
 4122TIP3    H112330   6.572   4.997   1.702  0.5893  0.4842 -0.5650
 4122TIP3    H212331   6.579   5.140   1.751  0.4853 -0.2832  1.8022
 4123TIP3   OH212332   1.969   1.724   4.864 -0.5948  0.4477 -0.1145
 4123TIP3    H112333   1.937   1.741   4.953  0.9696 -0.2860  0.6315
 4123TIP3    H212334   1.914   1.653   4.832 -1.6065  1.1550 -0.0072
 4124TIP3   OH212335   6.536   3.855   0.245 -0.1521 -0.2316  0.2033
 4124TIP3    H112336   6.551   3.834   0.337  0.1852 -1.2508 -0.0679
 4124TIP3    H212337   6.589   3.791   0.197 -0.4090  0.2142 -0.7032
 4125TIP3   OH212338   5.810   1.126   0.375 -0.2219 -0.0399 -0.2633
 4125TIP3    H112339   5.801   1.032   0.391 -0.4915 -0.2761 -1.7437
 4125TIP3    H212340   5.889   1.150   0.425  0.0946 -1.1269 -0.2105
 4126TIP3   OH212341   1.987   2.261   3.063  0.3231  0.9238  0.2532
 4126TIP3    H112342   1.977   2.355   3.073  2.5749  1.0638  1.9511
 4126TIP3    H212343   2.051   2.251   2.992  0.8073  0.7330  0.7094
 4127TIP3   OH212344   1.635   6.808   5.252  0.4762 -0.5429  0.0131
 4127TIP3    H112345   1.563   6.775   5.199 -0.2693  0.3346  0.4382
 4127TIP3    H212346   1.629   6.758   5.334 -1.5259  1.4235  1.2232
 4128TIP3   OH212347   3.274   2.179   1.550 -0.0241 -0.0325 -0.3788
 4128TIP3    H112348   3.280   2.232   1.471  0.7912  0.9684  0.3304
 4128TIP3    H212349   3.221   2.104   1.525 -0.1676  0.5070 -1.7418
 4129TIP3   OH212350   2.388   4.902   4.512  0.4143 -0.0222 -0.1205
 4129TIP3    H112351   2.423   4.861   4.591 -0.5119 -1.2353 -0.3157
 4129TIP3    H212352   2.464   4.942   4.470  1.1656 -0.6404  0.6272
 4130TIP3   OH212353   3.735   5.857   5.093 -0.3199  0.2769 -0.2279
 4130TIP3    H112354   3.764   5.778   5.138 -1.1602 -0.5966 -1.1577
 4130TIP3    H212355   3.743   5.926   5.158  1.4228 -0.3557  0.3014
 4131TIP3   OH212356   4.496   1.664   2.581  0.3343 -0.4176  0.1687
 4131TIP3    H112357   4.452   1.719   2.516 -0.2138  0.9652  1.6408
 4131TIP3    H212358   4.425   1.636   2.639  0.9782 -0.6117  0.8653
 4132TIP3   OH212359   1.554   3.089   5.031  0.7062 -0.2366 -0.2542
 4132TIP3    H112360   1.595   3.043   5.105  1.0839  0.1852 -0.1942
 4132TIP3    H212361   1.540   3.021   4.966 -0.2969 -0.7500  0.4801
 4133TIP3   OH212362   4.066   5.200   2.449  0.3111  0.4556  0.1639
 4133TIP3    H112363   4.159   5.185   2.431  0.4252  0.0977  1.0197
 4133TIP3    H212364   4.021   5.133   2.397  0.6207 -0.3392  0.8775
 4134TIP3   OH212365   2.194   4.300   4.537 -0.1348 -0.3412 -0.4361
 4134TIP3    H112366   2.122   4.301   4.600 -0.1020 -0.2494 -0.4005
 4134TIP3    H212367   2.151   4.302   4.451 -0.1562  1.7285 -0.4266
 4135TIP3   OH212368   0.431   0.317   2.413  0.2944  0.1950  0.2198
 4135TIP3    H112369   0.340   0.342   2.431 -0.7361 -0.9451 -2.7621
 4135TIP3    H212370   0.459   0.377   2.344  1.2603 -0.4828  0.0043
 4136TIP3   OH212371   7.113   0.540   4.887  0.5050 -0.0932  0.4672
 4136TIP3    H112372   7.079   0.465   4.838 -1.9638  0.7545  0.7408
 4136TIP3    H212373   7.138   0.504   4.972  0.5149 -0.7930  0.1741
 4137TIP3   OH212374   2.108   5.175   2.488 -0.0120  0.1652  0.6279
 4137TIP3    H112375   2.123   5.205   2.398 -1.4279  0.3388  0.4238
 4137TIP3    H212376   2.185   5.122   2.508 -0.0803 -0.6614 -1.0403
 4138TIP3   OH212377   2.285   5.614   0.874 -0.4520  0.0144  0.0747
 4138TIP3    H112378   2.249   5.526   0.868 -1.9564  0.4479  1.8149
 4138TIP3    H212379   2.216   5.671   0.839 -0.5186  0.6666  1.2067
 4139TIP3   OH212380   3.889   4.576   2.558  0.1012  0.1121 -0.0370
 4139TIP3    H112381   3.896   4.655   2.505 -1.0196  0.5444  0.4299
 4139TIP3    H212382   3.951   4.590   2.630  0.2184  0.3671 -0.1856
 4140TIP3   OH212383   2.020   5.760   1.849 -0.1960  0.2846  0.0987
 4140TIP3    H112384   2.088   5.816   1.811 -1.6080  1.2655 -1.0837
 4140TIP3    H212385   2.009   5.794   1.938  0.5220  0.4165  0.1453
 4141TIP3   OH212386   5.419   4.756   5.011 -0.5999  0.0558  0.2911
 4141TIP3    H112387   5.418   4.737   5.105 -0.4073 -0.5552  0.1776
 4141TIP3    H212388   5.327   4.761   4.986 -0.6736 -1.2630  0.2368
 4142TIP3   OH212389   2.080   2.745   2.938 -0.1527  0.4030  0.0844
 4142TIP3    H112390   2.023   2.773   2.866  0.0737  1.8199  0.4194
 4142TIP3    H212391   2.030   2.677   2.983 -0.1442 -0.7844 -1.6137
 4143TIP3   OH212392   1.980   6.049   4.944 -0.0314  0.4286 -0.6305
 4143TIP3    H112393   2.004   5.965   4.905 -0.0335 -0.0459  0.3379
 4143TIP3    H212394   2.047   6.064   5.012 -0.2298  1.0375 -0.5611
 4144TIP3   OH212395   3.132   5.550   0.402 -0.1361  0.1625  0.2995
 4144TIP3    H112396   3.046   5.537   0.441 -0.2456 -1.3132 -0.3806
 4144TIP3    H212397   3.194   5.523   0.471 -0.3017 -1.4256 -0.1458
 4145TIP3   OH212398   7.110   5.735   4.314  0.0550  0.4282  0.0509
 4145TIP3    H112399   7.191   5.713   4.268  0.1348 -2.0224  1.2317
 4145TIP3    H212400   7.092   5.826   4.288  3.1750  1.0789 -0.2034
 4146TIP3   OH212401   3.310   1.532   0.450  0.2553  0.6126  0.0309
 4146TIP3    H112402   3.323   1.623   0.422 -0.4135  0.4527 -0.8299
 4146TIP3    H212403   3.222   1.531   0.487  0.8349  0.6448  1.4741
 4147TIP3   OH212404   1.854   4.541   2.290 -0.6430 -0.1148 -0.3254
 4147TIP3    H112405   1.825   4.618   2.240  0.2799  0.2911 -0.2446
 4147TIP3    H212406   1.781   4.523   2.349 -0.0344  2.0747  1.2434
 4148TIP3   OH212407   2.616   0.282   0.143 -0.3206 -0.5246 -0.1584
 4148TIP3    H112408   2.603   0.343   0.070 -0.6645  0.9567  1.0935
 4148TIP3    H212409   2.575   0.325   0.218  1.0426 -1.4620  1.1815
 4149TIP3   OH212410   4.869   3.563   5.796 -0.4007 -0.2608 -0.2577
 4149TIP3    H112411   4.891   3.549   5.887  0.1063 -0.9127 -0.4774
 4149TIP3    H212412   4.894   3.654   5.779  0.9380 -0.5957 -0.1608
 4150TIP3   OH212413   4.722   4.249   2.981  0.6312  0.3230 -0.1743
 4150TIP3    H112414   4.691   4.172   2.935  1.5921 -0.1407 -0.0725
 4150TIP3    H212415   4.651   4.313   2.972 -0.4715 -0.7922  0.3471
 4151TIP3   OH212416   6.638   3.511   5.702 -0.3059 -0.1083  0.0064
 4151TIP3    H112417   6.671   3.428   5.735  2.9169  0.9197 -0.1920
 4151TIP3    H212418   6.599   3.553   5.779  0.2530 -0.8294  0.7142
 4152TIP3   OH212419   0.238   3.726   0.387  0.0924 -0.5273  0.0655
 4152TIP3    H112420   0.253   3.635   0.415 -0.6721 -0.9792 -0.9331
 4152TIP3    H212421   0.308   3.776   0.428  1.6492 -1.8583 -0.8816
 4153TIP3   OH212422   2.573   4.555   2.666 -0.1153 -0.2577 -0.0610
 4153TIP3    H112423   2.625   4.628   2.701 -1.2705  0.2235  0.6867
 4153TIP3    H212424   2.566   4.573   2.572  0.1900  0.2178  0.0045
 4154TIP3   OH212425   5.392   1.180   1.318 -0.2112 -0.1249  0.2242
 4154TIP3    H112426   5.463   1.218   1.369  1.0932 -1.4736 -0.5127
 4154TIP3    H212427   5.334   1.253   1.299  1.7375  1.3413 -0.3929
 4155TIP3   OH212428   5.259   3.359   0.568 -0.1693  0.0693 -0.6090
 4155TIP3    H112429   5.252   3.359   0.664 -0.7376  0.0492 -0.6474
 4155TIP3    H212430   5.296   3.274   0.547  1.3822  0.6447 -0.3161
 4156TIP3   OH212431   5.581   5.354   2.676  0.4350  0.4509  0.4710
 4156TIP3    H112432   5.489   5.373   2.692  0.2962  0.1003  0.1040
 4156TIP3    H212433   5.611   5.307   2.753 -0.0189 -0.5277  0.0640
 4157TIP3   OH212434   6.739   2.930   4.181 -0.0801  0.0629 -0.2036
 4157TIP3    H112435   6.726   2.941   4.087  2.9971 -0.0312 -0.7340
 4157TIP3    H212436   6.734   2.835   4.194 -0.9515  0.1036 -0.1524
 4158TIP3   OH212437   2.268   3.273   3.012 -0.1340  0.1740  0.3245
 4158TIP3    H112438   2.353   3.272   3.056 -0.9076 -0.8447  1.9267
 4158TIP3    H212439   2.246   3.180   3.000 -0.2932  0.4226 -1.6219
 4159TIP3   OH212440   5.811   6.188   2.848 -0.4436 -0.4492  0.1204
 4159TIP3    H112441   5.874   6.180   2.776 -1.3981 -1.1172 -0.6552
 4159TIP3    H212442   5.865   6.179   2.927  0.2815 -2.3932 -0.5358
 4160TIP3   OH212443   6.947   4.945   0.252  0.8594  0.3138 -0.0360
 4160TIP3    H112444   7.037   4.964   0.229  0.7567  1.7035  0.6145
 4160TIP3    H212445   6.915   5.025   0.294 -0.3240 -0.5391  0.7711
 4161TIP3   OH212446   2.825   3.250   2.413 -0.6085 -0.2212 -0.4158
 4161TIP3    H112447   2.800   3.160   2.392 -0.7034 -0.0904 -0.8691
 4161TIP3    H212448   2.870   3.243   2.498 -1.1572 -0.6113 -0.1475
 4162TIP3   OH212449   6.384   0.916   2.660  0.0066  0.6815  0.0710
 4162TIP3    H112450   6.444   0.845   2.639  0.0684  1.2344 -1.7504
 4162TIP3    H212451   6.320   0.916   2.589 -1.0579  1.3081  0.9925
 4163TIP3   OH212452   2.184   0.065   0.350  0.2540 -0.5678  0.0976
 4163TIP3    H112453   2.142  -0.019   0.332  1.2864 -1.2476  0.7812
 4163TIP3    H212454   2.129   0.106   0.417  0.8610 -1.6266  1.2727
 4164TIP3   OH212455   1.126   0.989   5.471 -0.2845  0.7579  0.1407
 4164TIP3    H112456   1.178   0.910   5.458  0.2862  1.0445  0.6463
 4164TIP3    H212457   1.094   0.981   5.561 -0.5177  0.9360  0.0736
 4165TIP3   OH212458   0.439   5.284   2.687 -0.5544  0.5881 -0.4390
 4165TIP3    H112459   0.417   5.234   2.766  1.4716 -1.6706 -1.1976
 4165TIP3    H212460   0.374   5.255   2.622 -1.0329  1.0039 -0.1571
 4166TIP3   OH212461   3.652   1.282   1.623  0.2277  0.1372  0.2864
 4166TIP3    H112462   3.626   1.209   1.567 -0.6502  0.2081  0.5726
 4166TIP3    H212463   3.603   1.267   1.704  2.2553 -0.5405  1.4622
 4167TIP3   OH212464   0.571   5.381   3.493  0.1461 -0.0350  1.0081
 4167TIP3    H112465   0.649   5.398   3.547 -0.5899 -1.0153  2.4421
 4167TIP3    H212466   0.497   5.404   3.549 -0.6260  0.1254 -0.0498
 4168TIP3   OH212467   1.037   3.581   0.258 -0.1485  0.1832  0.3599
 4168TIP3    H112468   0.968   3.561   0.195  0.7027  2.2470 -1.3525
 4168TIP3    H212469   1.006   3.660   0.304 -0.1945 -0.5699  1.6634
 4169TIP3   OH212470   5.789   0.786   5.219  0.1912 -0.6594 -0.0385
 4169TIP3    H112471   5.726   0.745   5.161 -0.1436  0.2520 -0.3301
 4169TIP3    H212472   5.872   0.782   5.171  0.4481 -2.1676  0.4904
 4170TIP3   OH212473   6.778   1.929   4.231 -0.2604  0.3160  0.2490
 4170TIP3    H112474   6.804   1.845   4.191 -1.6838 -1.0500  2.0573
 4170TIP3    H212475   6.710   1.963   4.174  1.4680  1.1669 -1.4370
 4171TIP3   OH212476   1.132   5.374   3.945 -0.0358  0.2154  0.1715
 4171TIP3    H112477   1.151   5.296   3.997 -2.3030  0.3394  1.3269
 4171TIP3    H212478   1.110   5.340   3.858  2.0376 -0.1250 -0.2770
 4172TIP3   OH212479   0.465   6.587   4.182  0.3581 -0.7532 -0.1863
 4172TIP3    H112480   0.490   6.498   4.205 -2.2670 -1.9100 -1.3662
 4172TIP3    H212481   0.462   6.588   4.086  2.3116  1.2773 -0.3240
 4173TIP3   OH212482   2.018   1.332   2.839  0.9189 -0.1762  0.1977
 4173TIP3    H112483   2.009   1.332   2.744  0.0463  0.5189  0.2757
 4173TIP3    H212484   2.027   1.425   2.862  1.6777 -0.3757  0.7494
 4174TIP3   OH212485   0.726   3.417   3.047  0.0789 -0.2752 -0.3913
 4174TIP3    H112486   0.672   3.339   3.062  0.1755 -0.2899 -0.1217
 4174TIP3    H212487   0.700   3.447   2.960 -0.2045 -0.4123 -0.3563
 4175TIP3   OH212488   5.821   6.456   4.822 -0.2479 -0.5997 -0.2158
 4175TIP3    H112489   5.821   6.526   4.757  2.2288 -0.4708 -0.1754
 4175TIP3    H212490   5.834   6.500   4.905 -0.7786 -0.9705  0.0720
 4176TIP3   OH212491   3.159   5.309   2.681  0.0964  1.2950 -0.0889
 4176TIP3    H112492   3.190   5.379   2.624 -1.4426  1.8055 -0.3240
 4176TIP3    H212493   3.147   5.234   2.622  1.0307  1.0266  0.0397
 4177TIP3   OH212494   6.332   3.970   2.289  0.4608  0.3634 -0.2430
 4177TIP3    H112495   6.271   3.917   2.237 -1.9619  2.4074  0.3423
 4177TIP3    H212496   6.307   3.954   2.380  1.3922  0.6031  0.0707
 4178TIP3   OH212497   1.780   3.434   3.211  0.7658  0.4572  0.4861
 4178TIP3    H112498   1.839   3.508   3.199  0.4379  0.5864 -0.3429
 4178TIP3    H212499   1.825   3.360   3.170 -0.0506  0.7548 -0.9964
 4179TIP3   OH212500   4.381   4.426   3.901 -0.5215 -0.1357  0.2911
 4179TIP3    H112501   4.341   4.486   3.837 -0.2925 -0.6695 -0.3621
 4179TIP3    H212502   4.465   4.403   3.863  0.1345  0.4441  1.3433
 4180TIP3   OH212503   6.137   1.246   3.726  1.0608  0.5123  0.0959
 4180TIP3    H112504   6.175   1.198   3.652 -0.5907  0.2740 -0.6384
 4180TIP3    H212505   6.054   1.279   3.693  1.8675  3.5214  0.7186
 4181TIP3   OH212506   7.052   1.671   2.878 -0.3550  0.4650 -0.4328
 4181TIP3    H112507   6.959   1.684   2.895 -0.1801  1.1373  0.0630
 4181TIP3    H212508   7.059   1.672   2.782 -0.5872  2.6123 -0.4701
 4182TIP3   OH212509   4.464   0.704   1.554 -0.4534 -0.0603  0.2209
 4182TIP3    H112510   4.537   0.710   1.493 -0.1999  0.1173  0.5431
 4182TIP3    H212511   4.498   0.737   1.637 -1.7147  2.9751 -0.3328
 4183TIP3   OH212512   6.152   0.426   3.529 -0.3821  0.1313  0.0573
 4183TIP3    H112513   6.180   0.430   3.620 -0.2976  1.6196  0.0040
 4183TIP3    H212514   6.190   0.505   3.489  0.0202 -0.7472 -1.3946
 4184TIP3   OH212515   6.155   0.054   3.182  0.1608 -0.8753 -0.2553
 4184TIP3    H112516   6.062   0.040   3.167  0.0049  0.4969 -0.7938
 4184TIP3    H212517   6.161   0.088   3.271  0.1662 -1.1003 -0.1693
 4185TIP3   OH212518   5.322   6.175   1.471  0.4724 -0.3747  0.3088
 4185TIP3    H112519   5.389   6.231   1.509  1.5132  0.8670 -3.0123
 4185TIP3    H212520   5.297   6.115   1.542  3.3551  0.6615  2.3571
 4186TIP3   OH212521   1.910   3.110   5.651  0.1201 -0.6004 -0.5691
 4186TIP3    H112522   1.919   3.185   5.591  0.4422  1.2744  1.6758
 4186TIP3    H212523   1.819   3.113   5.679  0.1310 -1.0908 -0.4837
 4187TIP3   OH212524   3.647   3.520   4.536 -0.5979 -0.3003  0.5160
 4187TIP3    H112525   3.562   3.491   4.503 -0.1807  0.3938 -1.2194
 4187TIP3    H212526   3.636   3.521   4.631 -1.4691 -3.5195  0.5829
 4188TIP3   OH212527   1.614   4.558   5.478 -0.1756  0.9048  0.1167
 4188TIP3    H112528   1.704   4.525   5.480 -0.5112 -0.0398 -0.0927
 4188TIP3    H212529   1.572   4.511   5.406 -0.6243  1.9211 -0.3024
 4189TIP3   OH212530   5.406   2.976   2.906  0.3472 -0.5470  0.6437
 4189TIP3    H112531   5.420   2.950   2.815 -1.7140  0.8813 -0.1431
 4189TIP3    H212532   5.381   3.068   2.902 -2.5796 -1.1193  2.3007
 4190TIP3   OH212533   4.099   4.628   1.616  0.8076 -0.3318 -0.1942
 4190TIP3    H112534   4.008   4.657   1.624  0.1389 -2.7050  3.2560
 4190TIP3    H212535   4.103   4.583   1.532 -1.0125  0.4525 -0.7364
 4191TIP3   OH212536   7.121   2.010   1.186 -0.2052 -0.2312 -0.1610
 4191TIP3    H112537   7.193   1.947   1.183  0.7025  0.6860  1.1781
 4191TIP3    H212538   7.156   2.088   1.143 -0.2061  0.3712  0.8831
 4192TIP3   OH212539   2.354   2.415   1.152  0.3057 -0.6156  0.8980
 4192TIP3    H112540   2.439   2.405   1.194  0.4127 -0.1674  0.7958
 4192TIP3    H212541   2.373   2.412   1.058  0.3687  0.5880  0.8488
 4193TIP3   OH212542   5.719   4.671   2.804  0.2696 -0.1672  0.4665
 4193TIP3    H112543   5.661   4.708   2.737  0.4064  0.7607  0.8531
 4193TIP3    H212544   5.807   4.693   2.775  0.3650 -0.3784  0.5930
 4194TIP3   OH212545   0.539   2.525   0.545  0.4016  0.7285 -0.0271
 4194TIP3    H112546   0.589   2.443   0.553  1.3173  1.2930  0.1787
 4194TIP3    H212547   0.534   2.558   0.635 -0.5269  0.5818 -0.0181
 4195TIP3   OH212548   0.956   6.252   4.816  0.8430  0.3495 -1.1501
 4195TIP3    H112549   1.031   6.272   4.760  1.0247 -1.0180 -1.4401
 4195TIP3    H212550   0.880   6.274   4.763  1.0220  0.8529 -1.2068
 4196TIP3   OH212551   6.055   2.869   5.580 -0.1985 -0.5096  0.2557
 4196TIP3    H112552   6.066   2.827   5.666 -1.1499 -1.0930  0.1152
 4196TIP3    H212553   6.137   2.851   5.534 -0.3577 -1.7668  0.4072
 4197TIP3   OH212554   5.039   0.922   2.886  0.5779 -0.5912 -0.1344
 4197TIP3    H112555   4.947   0.895   2.892  0.4906 -0.0760  1.1503
 4197TIP3    H212556   5.062   0.907   2.794 -0.8596 -0.4925 -0.5395
 4198TIP3   OH212557   3.429   1.594   4.439 -0.3001 -0.6727  0.4668
 4198TIP3    H112558   3.338   1.586   4.470 -0.1358 -0.3503  1.0317
 4198TIP3    H212559   3.435   1.683   4.405 -0.2563 -0.7742  0.2002
 4199TIP3   OH212560   1.406   6.564   1.220  0.4117  0.4846 -0.2723
 4199TIP3    H112561   1.367   6.619   1.288  1.0147  0.3713  0.1683
 4199TIP3    H212562   1.399   6.617   1.140 -0.3984  0.5727 -0.1577
 4200TIP3   OH212563   3.265   4.133   1.680  0.0475 -0.7016  0.1857
 4200TIP3    H112564   3.292   4.046   1.650 -2.0486 -1.8539  1.3800
 4200TIP3    H212565   3.319   4.149   1.757  2.5341  0.4535 -1.6697
 4201TIP3   OH212566   1.339   1.656   5.312  0.2797 -0.6113 -0.4475
 4201TIP3    H112567   1.310   1.664   5.403  0.2213  0.5945 -0.5535
 4201TIP3    H212568   1.262   1.679   5.261  0.0880 -2.0236 -0.8433
 4202TIP3   OH212569   4.367   1.120   4.044  0.4012 -0.3218 -0.0938
 4202TIP3    H112570   4.318   1.196   4.073  2.2405  1.0490 -0.4338
 4202TIP3    H212571   4.359   1.057   4.115  1.3577  1.3566  1.5771
 4203TIP3   OH212572   5.297   3.288   4.893 -0.4133 -0.0410  0.2614
 4203TIP3    H112573   5.212   3.309   4.854  0.3866  1.7270 -0.6478
 4203TIP3    H212574   5.323   3.368   4.938  1.3603 -0.1112 -0.5854
 4204TIP3   OH212575   3.414   6.533   0.071 -0.2942 -0.0827 -0.1312
 4204TIP3    H112576   3.447   6.598   0.009  0.2410  1.0021  1.2360
 4204TIP3    H212577   3.491   6.507   0.122 -1.0214  0.3958  1.2509
 4205TIP3   OH212578   0.267   0.720   1.097  0.0788  0.0611 -0.2480
 4205TIP3    H112579   0.280   0.718   1.192 -1.4043  0.6604 -0.0082
 4205TIP3    H212580   0.335   0.661   1.063 -0.4182 -1.5074  1.3050
 4206TIP3   OH212581   0.956   0.080   1.034 -0.1161 -0.0074  0.0758
 4206TIP3    H112582   0.877   0.051   1.080  0.1987 -1.5217 -0.2846
 4206TIP3    H212583   1.010   0.121   1.101 -1.5670  1.8839  0.1596
 4207TIP3   OH212584   7.122   6.307   0.276 -0.0465  1.2218 -0.7227
 4207TIP3    H112585   7.170   6.233   0.241 -2.1440  0.3313 -1.9008
 4207TIP3    H212586   7.110   6.286   0.369 -0.1801  0.3168 -0.9354
 4208TIP3   OH212587   0.811   1.885   1.227  0.0761  0.1185 -0.3220
 4208TIP3    H112588   0.740   1.906   1.167 -0.4269 -2.0109 -0.5243
 4208TIP3    H212589   0.791   1.934   1.307 -2.1298 -1.0919 -0.0683
 4209TIP3   OH212590   1.179   3.218   5.126 -0.1241 -0.1398 -0.5740
 4209TIP3    H112591   1.143   3.129   5.118  0.4948 -0.3232 -1.4867
 4209TIP3    H212592   1.217   3.236   5.040  4.7941 -1.2251  1.0339
 4210TIP3   OH212593   6.734   1.836   2.241 -0.6465  0.2085  0.5141
 4210TIP3    H112594   6.693   1.901   2.298 -0.9868  0.1118  0.3832
 4210TIP3    H212595   6.687   1.754   2.261 -0.7854  0.1793  0.0814
 4211TIP3   OH212596   2.032   1.859   1.490 -0.5127  0.1034  0.2465
 4211TIP3    H112597   2.101   1.900   1.437  1.0392 -0.0983  2.0183
 4211TIP3    H212598   1.953   1.869   1.437  0.2548  3.1022 -0.5303
 4212TIP3   OH212599   3.416   1.019   1.312  0.0361 -0.1700  0.3178
 4212TIP3    H112600   3.438   0.927   1.296  0.6438  0.2000 -1.0859
 4212TIP3    H212601   3.428   1.062   1.228 -2.5416  0.7750  0.3218
 4213TIP3   OH212602   2.941   1.532   1.893  0.0037 -0.8036  0.4176
 4213TIP3    H112603   2.986   1.474   1.954 -0.3557  0.3302  1.8213
 4213TIP3    H212604   2.869   1.480   1.858 -0.9515 -0.9167  2.4543
 4214TIP3   OH212605   3.393   3.388   5.522 -0.7267 -0.4802 -0.3277
 4214TIP3    H112606   3.329   3.345   5.579 -1.7993  0.2069 -0.9714
 4214TIP3    H212607   3.358   3.376   5.434  1.0540 -1.7822 -0.9117
 4215TIP3   OH212608   1.484   2.618   5.663 -0.0361  0.3521 -0.3618
 4215TIP3    H112609   1.533   2.700   5.672 -0.8790  0.7434  0.8312
 4215TIP3    H212610   1.403   2.634   5.710 -0.8998 -0.6343 -1.4676
 4216TIP3   OH212611   6.763   4.080   5.369 -0.3429  0.3722 -0.5750
 4216TIP3    H112612   6.736   4.153   5.424  1.4653  1.1367 -0.6392
 4216TIP3    H212613   6.737   4.002   5.419 -2.4860  1.0133 -0.6041
 4217TIP3   OH212614   4.290   3.730   4.392 -0.1057  0.2504 -0.1937
 4217TIP3    H112615   4.369   3.782   4.377  0.9910 -1.7571 -1.9542
 4217TIP3    H212616   4.233   3.753   4.318 -0.2664  0.0929 -0.1191
 4218TIP3   OH212617   6.152   3.487   5.201  0.2261  0.4240  0.0996
 4218TIP3    H112618   6.127   3.549   5.132  0.4745  0.9622  0.4802
 4218TIP3    H212619   6.210   3.538   5.258 -0.0180 -0.0021  0.7336
 4219TIP3   OH212620   1.165   2.791   0.382  0.8925 -0.1948  0.2224
 4219TIP3    H112621   1.136   2.768   0.294  2.0838 -1.2388  0.0774
 4219TIP3    H212622   1.259   2.809   0.372  1.2393 -1.2045  1.4284
 4220TIP3   OH212623   2.177   2.794   1.879 -0.0011  0.2230  0.0374
 4220TIP3    H112624   2.117   2.723   1.856 -1.1587  1.5819 -1.3611
 4220TIP3    H212625   2.153   2.816   1.969 -0.1979 -0.6026  0.1946
 4221TIP3   OH212626   5.169   2.839   4.503 -0.5258  0.0303  0.6494
 4221TIP3    H112627   5.187   2.929   4.475 -0.0189  0.0261  0.9481
 4221TIP3    H212628   5.134   2.848   4.591  3.0576 -0.2082  2.3027
 4222TIP3   OH212629   4.496   3.612   2.724  0.1764 -0.1295  0.4791
 4222TIP3    H112630   4.504   3.679   2.656 -0.9893 -0.3430  0.1084
 4222TIP3    H212631   4.415   3.634   2.769  2.0926  1.4720  3.4701
 4223TIP3   OH212632   2.377   5.855   3.105  0.1524 -0.3364 -0.4432
 4223TIP3    H112633   2.394   5.868   3.198 -0.5602 -0.3926 -0.3044
 4223TIP3    H212634   2.296   5.902   3.088 -0.3508 -1.2861 -0.7812
 4224TIP3   OH212635   5.786   1.114   1.573 -0.3198  0.0718  0.5459
 4224TIP3    H112636   5.825   1.169   1.641 -0.5430  0.4326  0.3883
 4224TIP3    H212637   5.819   1.026   1.591 -1.2883 -0.0553  1.8178
 4225TIP3   OH212638   5.708   1.806   4.035  0.2188 -0.1518 -0.1758
 4225TIP3    H112639   5.651   1.882   4.034  0.3651 -0.0203 -1.8793
 4225TIP3    H212640   5.770   1.822   3.964  0.6086 -1.5846 -0.1913
 4226TIP3   OH212641   4.450   6.326   1.106 -0.7222  0.5657  0.8297
 4226TIP3    H112642   4.440   6.336   1.011 -1.4867 -1.5726  0.6233
 4226TIP3    H212643   4.536   6.363   1.126  0.6674 -1.3784 -1.1566
 4227TIP3   OH212644   3.326   5.310   3.799  0.0522 -0.4637 -0.0814
 4227TIP3    H112645   3.385   5.239   3.773 -0.0882 -0.5381 -0.1966
 4227TIP3    H212646   3.245   5.265   3.826  0.2726 -0.4044  0.6971
 4228TIP3   OH212647   2.984   2.297   4.557  0.6731  0.0264 -0.2283
 4228TIP3    H112648   2.927   2.374   4.564  0.0731 -0.4528  0.2797
 4228TIP3    H212649   3.013   2.280   4.646  0.5497 -0.5196 -0.2861
 4229TIP3   OH212650   2.775   4.695   5.712 -0.3749  0.1975  0.0651
 4229TIP3    H112651   2.771   4.601   5.692  0.3887 -0.0125  0.8443
 4229TIP3    H212652   2.691   4.729   5.682 -1.5730 -1.1329  1.7503
 4230TIP3   OH212653   2.074   6.549   5.612 -0.5821  0.0792  0.4241
 4230TIP3    H112654   2.155   6.542   5.562 -1.2570 -1.7022 -0.5173
 4230TIP3    H212655   2.035   6.632   5.585  0.4001  0.4394  0.0803
 4231TIP3   OH212656   6.951   4.373   0.411  0.2000 -0.1755 -1.5383
 4231TIP3    H112657   6.925   4.282   0.424  1.7879 -1.1308 -4.1034
 4231TIP3    H212658   6.875   4.425   0.436 -0.5178 -2.1363  0.6283
 4232TIP3   OH212659   6.853   1.875   4.659  0.0239 -0.7039 -0.0788
 4232TIP3    H112660   6.786   1.939   4.684  0.3963 -0.2897 -0.1134
 4232TIP3    H212661   6.931   1.928   4.642  0.5600 -1.2343  0.6566
 4233TIP3   OH212662   5.620   5.665   3.345  0.2458  0.0615 -0.2313
 4233TIP3    H112663   5.714   5.683   3.334  0.6125 -2.9889 -3.7391
 4233TIP3    H212664   5.580   5.700   3.265 -0.9981 -1.8575 -0.5000
 4234TIP3   OH212665   1.302   2.855   5.745 -0.7206  0.2704  0.0784
 4234TIP3    H112666   1.359   2.887   5.815 -2.2424  1.7256  0.7167
 4234TIP3    H212667   1.224   2.824   5.790 -1.0849 -0.2711 -0.8867
 4235TIP3   OH212668   6.077   1.197   4.954  0.4678  0.0518 -0.2166
 4235TIP3    H112669   5.996   1.164   4.916 -0.3659  1.2579  0.4575
 4235TIP3    H212670   6.121   1.242   4.882  0.3706 -0.2855 -0.4898
 4236TIP3   OH212671   1.728   2.985   1.557 -0.6003 -0.2750 -0.4966
 4236TIP3    H112672   1.778   3.007   1.636 -0.0064 -1.9553 -0.3641
 4236TIP3    H212673   1.641   2.964   1.589 -0.5664 -0.2475 -0.3836
 4237TIP3   OH212674   0.402   4.130   4.207  0.7282  0.6505  0.6791
 4237TIP3    H112675   0.489   4.165   4.224  0.1489  1.9050  1.1471
 4237TIP3    H212676   0.343   4.204   4.219 -0.3383  0.0335 -0.5010
 4238TIP3   OH212677   4.688   6.697   3.775 -0.2830 -0.0619 -0.1668
 4238TIP3    H112678   4.672   6.603   3.769  0.8614 -0.2170 -1.1306
 4238TIP3    H212679   4.641   6.734   3.700 -1.8536  0.3247  0.9605
 4239TIP3   OH212680   5.204   6.057   1.237 -0.0320  0.4716 -0.4266
 4239TIP3    H112681   5.257   6.001   1.293 -1.9236  0.2275  1.2262
 4239TIP3    H212682   5.208   6.143   1.279  0.0490  0.7559 -1.0039
 4240TIP3   OH212683   6.792   3.095   1.029  0.0397  0.4612 -0.0927
 4240TIP3    H112684   6.789   3.098   0.933  0.4890  0.2675 -0.1133
 4240TIP3    H212685   6.765   3.006   1.050  0.2351  0.4130 -0.0503
 4241TIP3   OH212686   3.433   4.826   1.518 -0.0945  0.1304 -0.4438
 4241TIP3    H112687   3.366   4.848   1.583 -0.1398  0.2675 -0.5366
 4241TIP3    H212688   3.499   4.895   1.527  0.2182 -0.2002 -0.1018
 4242TIP3   OH212689   0.165   6.308   4.618 -0.4571 -0.2629  0.6542
 4242TIP3    H112690   0.159   6.216   4.645 -0.6408 -0.4331  0.0490
 4242TIP3    H212691   0.122   6.356   4.689 -0.4098 -0.6471  0.9505
 4243TIP3   OH212692   1.355   3.909   5.191 -0.1593  0.1750 -0.1142
 4243TIP3    H112693   1.431   3.967   5.182  0.2773 -0.3912 -0.1278
 4243TIP3    H212694   1.313   3.936   5.272 -1.0406  1.7588 -1.0497
 4244TIP3   OH212695   1.249   1.209   5.192 -0.4680  0.4970  1.1630
 4244TIP3    H112696   1.304   1.232   5.267 -0.3513  0.0186  1.2250
 4244TIP3    H212697   1.244   1.113   5.194  0.0007  0.4407  0.2395
 4245TIP3   OH212698   6.526   0.047   4.177  0.0593 -0.2518  0.2895
 4245TIP3    H112699   6.473  -0.020   4.135 -0.4209 -0.5090  1.2739
 4245TIP3    H212700   6.586  -0.001   4.233  0.9079  0.0718 -0.3265
 4246TIP3   OH212701   0.877   0.536   5.391  0.7063 -0.2228 -0.3157
 4246TIP3    H112702   0.806   0.501   5.336  0.6404  0.6259 -0.7797
 4246TIP3    H212703   0.953   0.482   5.369  0.3945 -0.6423 -0.3814
 4247TIP3   OH212704   5.458   2.846   4.387  0.1389  0.7496 -0.2944
 4247TIP3    H112705   5.396   2.773   4.397  1.1341 -0.0169  0.4239
 4247TIP3    H212706   5.403   2.919   4.357 -1.1806  0.1926  0.6551
 4248TIP3   OH212707   3.756   1.618   2.785  0.1730  0.0202  0.3613
 4248TIP3    H112708   3.695   1.559   2.827 -0.7253  1.7105  1.5298
 4248TIP3    H212709   3.803   1.563   2.722 -1.9101 -1.5111  0.0405
 4249TIP3   OH212710   0.153   1.497   4.650 -0.0513  0.9907 -0.0634
 4249TIP3    H112711   0.174   1.486   4.743 -0.2050 -3.0271 -0.3310
 4249TIP3    H212712   0.238   1.507   4.607  0.2723 -0.2737  0.2532
 4250TIP3   OH212713   0.652   4.985   4.930  0.4683 -0.2142  0.1194
 4250TIP3    H112714   0.622   5.065   4.973 -2.1658  0.7561 -3.1262
 4250TIP3    H212715   0.615   4.914   4.984  1.2243  0.7198  1.9672
 4251TIP3   OH212716   7.109   0.849   0.023 -0.0055 -0.3210 -0.1445
 4251TIP3    H112717   7.135   0.939   0.004  0.3974 -0.1205  1.2547
 4251TIP3    H212718   7.171   0.819   0.089  0.9082 -2.2180 -1.7293
 4252TIP3   OH212719   2.492   5.499   0.369 -0.0239 -0.4428  0.5534
 4252TIP3    H112720   2.405   5.491   0.330  0.6046  0.8561 -1.2678
 4252TIP3    H212721   2.540   5.423   0.336  0.7887  1.1173 -2.2432
 4253TIP3   OH212722   5.104   2.749   1.535 -0.1494 -0.0266  0.2960
 4253TIP3    H112723   5.158   2.720   1.461  0.9567 -0.8739  1.4020
 4253TIP3    H212724   5.014   2.734   1.506  0.0704  2.0086 -1.8506
 4254TIP3   OH212725   6.400   0.339   1.604  0.6813 -0.7239  0.2200
 4254TIP3    H112726   6.327   0.284   1.575 -0.1120 -0.1385  1.0342
 4254TIP3    H212727   6.359   0.405   1.660  1.2111  2.1683 -2.5097
 4255TIP3   OH212728   0.827   2.373   4.569 -0.9278  0.2770 -1.1615
 4255TIP3    H112729   0.864   2.397   4.654  0.2716 -0.2414 -1.5160
 4255TIP3    H212730   0.902   2.374   4.509 -1.6064 -0.1793 -2.0415
 4256TIP3   OH212731   0.887   0.952   4.266 -0.5762  0.5079  0.3322
 4256TIP3    H112732   0.846   0.882   4.317 -1.6234  1.2913  0.6279
 4256TIP3    H212733   0.945   0.908   4.205 -1.4410 -0.6403  0.3042
 4257TIP3   OH212734  -0.026   2.407   3.276  0.1436 -0.0556 -0.1824
 4257TIP3    H112735   0.013   2.488   3.308  1.0149 -0.6429  0.2770
 4257TIP3    H212736   0.048   2.347   3.263 -0.4084 -0.5527 -1.2123
 4258TIP3   OH212737   4.699   5.516   0.538  0.6192  0.1728  0.5849
 4258TIP3    H112738   4.686   5.594   0.591  0.2121  1.1302 -0.8839
 4258TIP3    H212739   4.788   5.523   0.505  0.4720  0.1992  0.1810
 4259TIP3   OH212740   1.634   3.699   3.069 -0.0087 -0.3925 -0.0724
 4259TIP3    H112741   1.678   3.757   3.131  0.2370 -0.4613 -0.1844
 4259TIP3    H212742   1.675   3.613   3.083 -0.3823 -0.5473  0.1058
 4260TIP3   OH212743   6.864   5.057   3.182  0.1738 -0.5771  0.1858
 4260TIP3    H112744   6.829   5.032   3.097  1.7339 -1.9346 -0.1046
 4260TIP3    H212745   6.934   4.995   3.199  2.4787  1.9791  0.7078
 4261TIP3   OH212746   1.332   0.292   3.446 -0.0037 -0.4542 -0.4445
 4261TIP3    H112747   1.349   0.385   3.432  0.1690 -0.6087 -1.2870
 4261TIP3    H212748   1.325   0.283   3.541  0.1056  0.3958 -0.3530
 4262TIP3   OH212749   0.740   6.405   1.706  0.5445 -0.1517  0.4385
 4262TIP3    H112750   0.660   6.456   1.718  0.7297  0.1624  0.3840
 4262TIP3    H212751   0.789   6.417   1.787 -0.5611 -2.4142  1.5315
 4263TIP3   OH212752   3.434   1.887   3.050  0.9935 -0.0907  0.5776
 4263TIP3    H112753   3.431   1.834   3.130 -1.1978 -0.0986  0.5557
 4263TIP3    H212754   3.392   1.832   2.983 -0.4427  1.2291  0.3223
 4264TIP3   OH212755   1.025   1.704   2.899  0.1398 -0.5419 -0.3413
 4264TIP3    H112756   1.073   1.767   2.846 -1.0769  0.5138 -0.2209
 4264TIP3    H212757   0.973   1.655   2.836 -1.4880  0.8719 -0.1583
 4265TIP3   OH212758   1.065   1.838   1.561 -0.0860 -0.3873  0.7133
 4265TIP3    H112759   1.133   1.803   1.503  0.2828  0.8131  0.3871
 4265TIP3    H212760   1.006   1.886   1.503  0.4513  1.0907  1.3307
 4266TIP3   OH212761   1.057   1.466   0.717 -0.6595  0.0054  0.1555
 4266TIP3    H112762   1.088   1.430   0.635 -1.1011 -1.3248  0.5386
 4266TIP3    H212763   1.118   1.433   0.783 -2.3299 -1.9926  0.8059
 4267TIP3   OH212764   3.328   0.121   1.977  0.2729  0.0112  0.0118
 4267TIP3    H112765   3.250   0.175   1.990 -0.1781 -0.8597  1.1405
 4267TIP3    H212766   3.401   0.182   1.979 -0.2858  0.6769  0.3383
 4268TIP3   OH212767   6.604   3.715   4.215  0.2954  0.0462 -0.1136
 4268TIP3    H112768   6.552   3.635   4.205 -0.0124  0.3315 -0.8905
 4268TIP3    H212769   6.547   3.785   4.183  0.5698  0.5778  0.5368
 4269TIP3   OH212770   2.003   3.928   1.696 -0.1957  0.2742 -0.2933
 4269TIP3    H112771   1.940   3.964   1.634 -0.9669  1.4844  1.1459
 4269TIP3    H212772   1.961   3.848   1.729  0.0090 -0.1133 -0.9519
 4270TIP3   OH212773   6.909   4.166   1.938 -0.0427  0.5103  0.2629
 4270TIP3    H112774   6.874   4.077   1.944  0.1905  0.3184 -0.8876
 4270TIP3    H212775   6.930   4.190   2.028 -4.5624  1.2627  1.3437
 4271TIP3   OH212776   6.988   4.590   1.715  0.0963 -0.3550 -0.0248
 4271TIP3    H112777   6.921   4.539   1.671  1.0344  0.7424 -3.0232
 4271TIP3    H212778   7.026   4.531   1.779 -2.5850 -1.4966  0.6295
 4272TIP3   OH212779   1.459   3.628   2.893  0.0990 -0.0044 -0.0557
 4272TIP3    H112780   1.519   3.666   2.957 -1.1870  1.3224  0.4048
 4272TIP3    H212781   1.373   3.660   2.919 -0.9276 -2.3709 -0.3171
 4273TIP3   OH212782   7.079   3.281   4.286 -0.6209 -0.2029  0.3867
 4273TIP3    H112783   7.162   3.324   4.265  0.4106 -1.8150  0.9200
 4273TIP3    H212784   7.041   3.261   4.201  0.9050 -1.8805  0.0351
 4274TIP3   OH212785   5.994   6.225   2.378 -0.1953  0.4602  0.1067
 4274TIP3    H112786   6.076   6.208   2.331 -0.0601  0.2478  0.4133
 4274TIP3    H212787   5.993   6.319   2.392 -0.5164  0.5986 -0.8298
 4275TIP3   OH212788   4.629   0.045   3.801  0.4400 -0.3685 -0.6610
 4275TIP3    H112789   4.638   0.128   3.847 -0.6565 -0.4205 -0.3277
 4275TIP3    H212790   4.689   0.053   3.726  2.4419 -0.3914  0.8494
 4276TIP3   OH212791   3.718   1.407   4.195  0.2237 -0.1512  0.1389
 4276TIP3    H112792   3.798   1.434   4.150 -0.7417  0.2298 -1.4379
 4276TIP3    H212793   3.717   1.460   4.275  1.7975 -0.5636  0.4721
 4277TIP3   OH212794   4.501   0.979   1.756 -0.1648  0.2969  0.1350
 4277TIP3    H112795   4.571   0.916   1.774  0.5252  1.0661  0.1721
 4277TIP3    H212796   4.506   1.042   1.827  0.4778  1.5373 -0.9844
 4278TIP3   OH212797   1.926   1.311   3.453  0.3930  0.0348 -0.0602
 4278TIP3    H112798   2.014   1.327   3.419 -0.1578  0.1432 -1.4789
 4278TIP3    H212799   1.941   1.267   3.537  1.8042  1.0837  0.2728
 4279TIP3   OH212800   2.061   0.121   2.821  0.0370  0.2210 -0.0820
 4279TIP3    H112801   2.125   0.182   2.783  1.3161 -1.0560 -0.0602
 4279TIP3    H212802   1.985   0.175   2.839  1.4931  2.0801  0.9243
 4280TIP3   OH212803   2.819   6.395   2.797  0.4069  0.2876  0.5944
 4280TIP3    H112804   2.779   6.466   2.846  1.1890  1.3038 -0.1855
 4280TIP3    H212805   2.910   6.395   2.825  0.1193 -1.3346  1.6102
 4281TIP3   OH212806  -0.024   1.203   3.603  0.2056  0.5886  0.3787
 4281TIP3    H112807  -0.013   1.163   3.689 -0.7374 -1.9695 -0.5764
 4281TIP3    H212808   0.046   1.164   3.550  0.6203  1.9286 -0.0841
 4282TIP3   OH212809   0.878   2.537   4.292  0.4708  0.2231 -0.1935
 4282TIP3    H112810   0.871   2.608   4.355 -1.0020 -1.1320  1.2777
 4282TIP3    H212811   0.790   2.528   4.256  0.1410 -1.9423  0.9847
 4283TIP3   OH212812   2.332   4.124   5.445 -0.1894 -0.2560  0.1154
 4283TIP3    H112813   2.422   4.093   5.433  0.8990  2.2066  1.1373
 4283TIP3    H212814   2.311   4.104   5.536  0.3893  1.4835  0.6756
 4284TIP3   OH212815   3.056   6.318   1.170 -0.1372  0.0635 -0.6498
 4284TIP3    H112816   3.145   6.292   1.193 -0.7850 -1.1268  0.6747
 4284TIP3    H212817   3.051   6.411   1.192  0.2162 -0.3056  1.1770
 4285TIP3   OH212818   6.497   3.301   5.043 -0.0693  0.5892 -0.2637
 4285TIP3    H112819   6.427   3.274   5.103  1.6904 -0.8305  1.2366
 4285TIP3    H212820   6.551   3.360   5.094  2.1123 -1.5309  0.0156
 4286TIP3   OH212821   3.583   2.718   1.125  0.0419 -0.2843 -0.0235
 4286TIP3    H112822   3.547   2.807   1.128  0.9600  0.0927  0.0605
 4286TIP3    H212823   3.511   2.662   1.154 -1.0926  0.2441 -1.6244
 4287TIP3   OH212824   2.118   5.378   0.922  0.2212 -0.8933  0.6198
 4287TIP3    H112825   2.056   5.439   0.882  0.0860 -0.2451  1.7775
 4287TIP3    H212826   2.082   5.292   0.905 -0.9789 -0.5275  1.2077
 4288TIP3   OH212827   1.334   6.440   0.434  0.7389 -0.5591 -0.7356
 4288TIP3    H112828   1.244   6.471   0.430  0.3861 -1.2862  0.6754
 4288TIP3    H212829   1.381   6.490   0.368 -0.5140  0.4909 -0.8499
 4289TIP3   OH212830   6.248   5.700   2.235  0.4870  0.5365  0.4004
 4289TIP3    H112831   6.252   5.762   2.307 -1.0373 -0.3519  1.3248
 4289TIP3    H212832   6.165   5.653   2.249 -0.3195  0.9138 -2.4285
 4290TIP3   OH212833   6.847   6.645   0.279 -0.2302  0.0880  0.3123
 4290TIP3    H112834   6.851   6.570   0.339  1.9934  0.3891  0.6329
 4290TIP3    H212835   6.759   6.682   0.292 -0.1260 -0.3729  2.7894
 4291TIP3   OH212836   0.332   3.762   5.324 -0.4872 -0.1097  0.1377
 4291TIP3    H112837   0.353   3.836   5.267 -1.6826  0.2328  0.1019
 4291TIP3    H212838   0.292   3.697   5.266  1.1218 -1.0813  0.0533
 4292TIP3   OH212839   1.475   3.085   3.099 -0.1201  0.8803  0.2554
 4292TIP3    H112840   1.388   3.080   3.059  0.0365 -0.7491  0.0641
 4292TIP3    H212841   1.493   3.179   3.103 -1.1423  1.1896 -1.3307
 4293TIP3   OH212842   3.323   3.557   4.786  0.9365  0.6924 -0.5424
 4293TIP3    H112843   3.313   3.588   4.876 -0.4769  1.5377 -0.9608
 4293TIP3    H212844   3.416   3.567   4.767  1.3703 -0.1039  1.0264
 4294TIP3   OH212845   0.330   5.870   4.987  0.3264  0.5010 -0.1201
 4294TIP3    H112846   0.314   5.886   4.894 -1.3326 -0.0205  0.0418
 4294TIP3    H212847   0.357   5.778   4.991  1.1644  0.7371 -0.1492
 4295TIP3   OH212848   2.596   6.528   5.312  0.3942  0.9001  0.3386
 4295TIP3    H112849   2.605   6.514   5.218 -2.7297  0.6395 -0.0468
 4295TIP3    H212850   2.623   6.618   5.326  0.7975  0.9786 -0.8297
 4296TIP3   OH212851   3.656   0.039   0.421 -0.0062 -0.1530  0.1844
 4296TIP3    H112852   3.617  -0.038   0.462 -0.1113  0.1264  0.6155
 4296TIP3    H212853   3.599   0.057   0.346 -2.1975  1.6493  2.1078
 4297TIP3   OH212854   4.912   3.703   3.069  0.4604  0.1846  0.6515
 4297TIP3    H112855   4.887   3.718   2.978  0.5600  0.6379  0.6997
 4297TIP3    H212856   4.954   3.617   3.068  1.6320  0.7545  0.0436
 4298TIP3   OH212857   6.169   4.403   2.226  0.2715 -0.3844 -0.4981
 4298TIP3    H112858   6.161   4.346   2.303  0.0116 -1.4592 -1.2934
 4298TIP3    H212859   6.198   4.487   2.261 -0.0135 -0.8000  0.7929
 4299TIP3   OH212860   3.689   4.191   0.245 -0.5576 -0.0946  0.1814
 4299TIP3    H112861   3.706   4.285   0.242 -0.8254 -0.0101  1.0859
 4299TIP3    H212862   3.594   4.184   0.253 -0.9650 -0.5369 -3.3693
 4300TIP3   OH212863   5.245   3.801   3.022  0.3548 -0.0080 -0.7240
 4300TIP3    H112864   5.217   3.728   2.966 -0.0849  1.0902 -1.9819
 4300TIP3    H212865   5.238   3.878   2.966 -0.1172  1.1460  0.8589
 4301TIP3   OH212866   0.105   1.785   2.277  0.0802  0.2240  0.0728
 4301TIP3    H112867   0.161   1.781   2.199  1.9938  1.6224  1.2895
 4301TIP3    H212868   0.129   1.867   2.319 -2.5767  0.6222  0.9706
 4302TIP3   OH212869   3.785   4.942   5.398  0.0903 -0.8559 -0.4144
 4302TIP3    H112870   3.713   4.999   5.424 -0.7783 -1.2871 -1.7621
 4302TIP3    H212871   3.772   4.862   5.447 -1.4666 -1.6208 -1.9636
 4303TIP3   OH212872   4.351   3.260   3.493 -0.0617 -0.5396  0.4802
 4303TIP3    H112873   4.295   3.256   3.416  0.7433 -1.8154 -0.0661
 4303TIP3    H212874   4.336   3.178   3.539  0.8633 -0.6168  0.6710
 4304TIP3   OH212875   0.860   0.546   3.754  0.1549 -0.3797  0.4373
 4304TIP3    H112876   0.918   0.516   3.684 -0.7740 -1.7262  0.2132
 4304TIP3    H212877   0.904   0.521   3.835  1.0530  0.8509  0.3738
 4305TIP3   OH212878   6.506   1.679   2.399  0.3645 -0.2529 -0.5785
 4305TIP3    H112879   6.475   1.610   2.458  0.4423  0.4833  0.3255
 4305TIP3    H212880   6.545   1.631   2.326 -0.7555 -1.1898 -0.6077
 4306TIP3   OH212881   5.520   4.143   4.325 -0.0385  0.0712 -0.4593
 4306TIP3    H112882   5.606   4.184   4.335 -0.2227  0.5776 -0.9364
 4306TIP3    H212883   5.474   4.164   4.406  1.3913 -2.9938  1.3600
 4307TIP3   OH212884   3.358   1.786   0.414 -0.4673  0.0362 -0.4039
 4307TIP3    H112885   3.410   1.859   0.381 -0.8049 -0.0400 -1.1273
 4307TIP3    H212886   3.310   1.823   0.488 -0.9103  0.6615 -0.9846
 4308TIP3   OH212887   3.401   6.222   4.487  0.5559 -0.2790 -0.2337
 4308TIP3    H112888   3.433   6.177   4.409  0.2038 -0.2286 -0.4119
 4308TIP3    H212889   3.305   6.222   4.477  0.5119 -0.2456  0.1836
 4309TIP3   OH212890   0.335   0.184   5.588 -0.3921 -0.5841 -0.5089
 4309TIP3    H112891   0.400   0.177   5.657 -0.7225  0.3362 -0.0920
 4309TIP3    H212892   0.350   0.270   5.549  0.3752 -1.4357 -2.1992
 4310TIP3   OH212893   5.788   1.997   1.038 -0.1588 -0.1236  0.0518
 4310TIP3    H112894   5.849   1.983   1.110  0.2307  0.7110 -0.0952
 4310TIP3    H212895   5.809   2.085   1.006 -1.5849  0.2729  0.1256
 4311TIP3   OH212896   1.872   5.251   2.635 -0.3093  0.3320 -0.4285
 4311TIP3    H112897   1.854   5.314   2.565  0.4587 -0.4107 -1.3044
 4311TIP3    H212898   1.959   5.217   2.616 -1.6371 -2.8789 -1.4729
 4312TIP3   OH212899   3.027   4.721   1.120  0.6114 -0.3774  0.0223
 4312TIP3    H112900   3.081   4.756   1.049  2.3163 -2.9091 -0.0512
 4312TIP3    H212901   2.978   4.650   1.080 -0.9907  0.3214  0.6689
 4313TIP3   OH212902   6.368   5.059   2.612  0.2625  0.2302  0.2136
 4313TIP3    H112903   6.447   5.010   2.633 -0.0185  0.2896  1.4426
 4313TIP3    H212904   6.400   5.144   2.581  0.6834  0.1302  0.3767
 4314TIP3   OH212905   5.457   1.816   1.728  0.0225 -0.1129  0.3099
 4314TIP3    H112906   5.502   1.761   1.792  0.7138  1.1393  0.9544
 4314TIP3    H212907   5.397   1.870   1.781 -1.4936 -1.0171 -0.4246
 4315TIP3   OH212908   4.032   6.789   3.281  0.2150  0.5362  0.7606
 4315TIP3    H112909   4.023   6.771   3.375  0.9048  0.5698  0.8357
 4315TIP3    H212910   3.952   6.754   3.243 -0.1952  0.7609  1.3977
 4316TIP3   OH212911   4.919   2.016   4.541  0.1623  0.3558  0.2704
 4316TIP3    H112912   4.886   1.939   4.586  0.4358 -0.4056 -0.8095
 4316TIP3    H212913   4.871   2.020   4.459  1.5974  0.1225 -0.6225
 4317TIP3   OH212914   5.373   3.467   5.237  0.1348  0.6521  0.4078
 4317TIP3    H112915   5.458   3.423   5.240  0.7241  1.7491  0.4759
 4317TIP3    H212916   5.385   3.537   5.173 -1.0843  0.1197 -0.4349
 4318TIP3   OH212917   6.733   6.603   4.603 -0.0110 -0.6725  0.7274
 4318TIP3    H112918   6.758   6.511   4.593  2.0628 -0.0786  0.0803
 4318TIP3    H212919   6.681   6.622   4.525 -0.3601 -1.2514  0.8096
 4319TIP3   OH212920   6.298   4.949   1.013  0.2604  0.1050  0.4051
 4319TIP3    H112921   6.326   5.040   1.013 -1.3583  0.6314 -0.0190
 4319TIP3    H212922   6.303   4.922   1.105  0.5117  0.6903  0.5632
 4320TIP3   OH212923   1.337   0.258   1.307 -0.6835  0.0916 -0.2651
 4320TIP3    H112924   1.327   0.346   1.344 -0.9774  0.0158 -0.1579
 4320TIP3    H212925   1.431   0.241   1.312 -0.8496 -0.5371  1.9309
 4321TIP3   OH212926   0.940   1.696   0.806 -0.6310  0.6688  0.4424
 4321TIP3    H112927   0.946   1.756   0.731  0.0708  0.1199  0.0430
 4321TIP3    H212928   0.934   1.609   0.766 -1.4725  0.4514  1.0156
 4322TIP3   OH212929   6.931   2.992   3.846  0.4758 -0.5220  0.1659
 4322TIP3    H112930   6.949   3.013   3.937  0.6833 -2.0034  0.4866
 4322TIP3    H212931   6.930   2.896   3.842  0.5042 -0.4942 -1.3928
 4323TIP3   OH212932   1.383   3.146   3.953  0.4698  0.1487  0.7474
 4323TIP3    H112933   1.408   3.125   3.863 -1.8365  0.3286  0.0053
 4323TIP3    H212934   1.426   3.079   4.007  0.0619 -1.3593 -0.7236
 4324TIP3   OH212935   7.211   6.765   1.627 -0.2292  0.3303 -0.1883
 4324TIP3    H112936   7.226   6.693   1.689 -0.2801  0.2030 -0.3234
 4324TIP3    H212937   7.174   6.723   1.550 -0.6332  0.5513 -0.1192
 4325TIP3   OH212938   0.648   3.159   5.470 -0.2705  0.1873 -0.1781
 4325TIP3    H112939   0.670   3.174   5.378  0.5806  0.1802  0.0147
 4325TIP3    H212940   0.660   3.244   5.512  0.1280  0.0096  0.0731
 4326TIP3   OH212941   2.617   1.172   4.568  0.0127  0.4292 -0.1504
 4326TIP3    H112942   2.662   1.142   4.489  2.1622  0.0447  1.1322
 4326TIP3    H212943   2.594   1.091   4.614 -0.8694  0.6543 -0.1878
 4327TIP3   OH212944   1.873   6.671   1.380 -0.4955 -0.6726  0.3698
 4327TIP3    H112945   1.956   6.677   1.426  0.0797 -1.2584 -0.5703
 4327TIP3    H212946   1.817   6.736   1.423  0.3848 -0.3914  1.1188
 4328TIP3   OH212947   2.765   5.679   0.582  0.5730  0.1406  0.1449
 4328TIP3    H112948   2.675   5.645   0.590  1.0085 -0.8995  0.9142
 4328TIP3    H212949   2.794   5.651   0.496 -0.0660  1.0791 -0.3925
 4329TIP3   OH212950   2.287   3.197   1.710 -0.1639  0.2569 -0.1386
 4329TIP3    H112951   2.241   3.272   1.673  0.5361  0.9192  0.2981
 4329TIP3    H212952   2.217   3.138   1.740 -0.7211  0.3874 -1.1484
 4330TIP3   OH212953   6.042   4.112   4.427 -0.1370 -0.2699 -0.2691
 4330TIP3    H112954   6.099   4.188   4.440  0.5001 -0.9627  1.2856
 4330TIP3    H212955   6.045   4.095   4.333 -0.2677  1.5744 -0.6571
 4331TIP3   OH212956   0.303   3.787   4.760  0.7149  0.0445 -0.0062
 4331TIP3    H112957   0.337   3.770   4.673  0.2764 -1.0982  0.0397
 4331TIP3    H212958   0.324   3.709   4.811 -0.3998  0.0442  0.4988
 4332TIP3   OH212959   4.154   4.791   4.115  0.1832 -0.7288 -0.7300
 4332TIP3    H112960   4.122   4.731   4.183 -0.9908  1.0292  0.3356
 4332TIP3    H212961   4.249   4.775   4.113 -0.1846 -3.2467 -1.1638
 4333TIP3   OH212962   5.957   4.948   4.654 -0.2527  0.3205  0.0605
 4333TIP3    H112963   6.006   4.983   4.580  0.6182 -1.7729 -0.4204
 4333TIP3    H212964   6.013   4.964   4.730  0.0510  0.1556 -0.1260
 4334TIP3   OH212965   3.460   3.817   3.180 -0.4156 -0.1390  0.1801
 4334TIP3    H112966   3.505   3.884   3.128  0.0361 -1.6097 -1.4067
 4334TIP3    H212967   3.410   3.867   3.245  2.2712  1.6691  1.0925
 4335TIP3   OH212968   0.147   4.719   4.652 -0.0853  0.8465 -0.8041
 4335TIP3    H112969   0.122   4.631   4.622 -0.8856  0.1116  1.7572
 4335TIP3    H212970   0.104   4.778   4.591 -0.7525 -0.5209 -1.7177
 4336TIP3   OH212971   4.288   3.519   3.612 -0.3053 -0.4251 -0.1829
 4336TIP3    H112972   4.211   3.551   3.564 -0.5029  0.3007  0.5721
 4336TIP3    H212973   4.310   3.436   3.571 -1.6603 -0.7734 -0.2517
 4337TIP3   OH212974   3.696   1.825   3.548 -0.6080 -0.2371  0.4645
 4337TIP3    H112975   3.732   1.739   3.529 -0.8285 -0.8086  2.4299
 4337TIP3    H212976   3.618   1.808   3.600 -1.0549  1.1472  0.3054
 4338TIP3   OH212977   3.719   3.127   4.938 -0.5865  0.9196  0.0182
 4338TIP3    H112978   3.716   3.217   4.905  0.8766  1.2482  0.6974
 4338TIP3    H212979   3.811   3.114   4.963 -0.6963 -0.9015 -0.4285
 4339TIP3   OH212980   0.050   4.098   4.766 -0.0619  0.2097 -0.3506
 4339TIP3    H112981  -0.032   4.127   4.726 -0.9704 -0.8391  0.6976
 4339TIP3    H212982   0.033   4.008   4.795  1.4169  0.0172  0.0169
 4340TIP3   OH212983   6.485   1.358   3.308  0.6028  0.3068 -0.4196
 4340TIP3    H112984   6.547   1.352   3.235  1.1002 -0.4794  0.0479
 4340TIP3    H212985   6.444   1.444   3.297  0.1201 -0.0891 -2.0367
 4341TIP3   OH212986   1.462   4.433   4.011 -0.7863 -0.0246  0.8043
 4341TIP3    H112987   1.485   4.447   3.919  0.6822  0.1726  1.1772
 4341TIP3    H212988   1.546   4.425   4.056 -1.4646  0.3994  2.2122
 4342TIP3   OH212989   3.808   5.031   3.147 -0.8100  0.2830 -0.0782
 4342TIP3    H112990   3.878   5.092   3.168 -1.2726  0.6443  0.4370
 4342TIP3    H212991   3.852   4.961   3.098 -0.4592  1.5586 -1.6757
 4343TIP3   OH212992   5.437   3.362   5.527  0.1672  0.2040 -0.2619
 4343TIP3    H112993   5.495   3.294   5.562  1.4987  0.5786 -1.6070
 4343TIP3    H212994   5.396   3.322   5.451 -0.2918  0.3926 -0.1188
 4344TIP3   OH212995   4.154   6.523   3.134  0.6547  0.2856 -0.1040
 4344TIP3    H112996   4.167   6.610   3.095  0.6160  0.8190  1.0449
 4344TIP3    H212997   4.074   6.490   3.091  0.4608  0.9722 -0.2886
 4345TIP3   OH212998   1.051   4.626   5.715  0.0987  0.0687  0.3725
 4345TIP3    H112999   1.117   4.693   5.696 -0.6967  1.6061  2.5342
 4345TIP3    H213000   1.091   4.571   5.781  0.3492 -0.9774 -0.6250
 4346TIP3   OH213001   1.272   2.231   2.170  0.2343 -0.0802  0.1189
 4346TIP3    H113002   1.301   2.263   2.084 -1.4716  2.1592  0.2695
 4346TIP3    H213003   1.182   2.264   2.179 -0.1296 -1.4354  2.2005
 4347TIP3   OH213004   7.138   3.030   1.224 -0.3583  0.5444 -0.0021
 4347TIP3    H113005   7.092   3.066   1.299  1.1394  0.4190  1.0282
 4347TIP3    H213006   7.122   3.092   1.153 -2.0663  0.4927  0.3022
 4348TIP3   OH213007   6.741   3.618   3.851 -0.5641 -0.3577 -0.0757
 4348TIP3    H113008   6.767   3.534   3.814  0.6862  0.2293 -0.5927
 4348TIP3    H213009   6.816   3.644   3.906 -1.1180  0.2084  0.4338
 4349TIP3   OH213010   2.020   4.533   0.691 -1.0135 -0.3772  0.0586
 4349TIP3    H113011   1.940   4.565   0.733 -1.7648 -1.5748 -0.3955
 4349TIP3    H213012   2.028   4.587   0.612 -1.2689 -0.1273  0.1990
 4350TIP3   OH213013   5.155   1.626   5.521  0.6083  0.2638 -0.1068
 4350TIP3    H113014   5.088   1.564   5.547  1.0992 -0.0275  0.5123
 4350TIP3    H213015   5.115   1.712   5.534  0.8802  0.1392  1.8725
 4351TIP3   OH213016   0.580   3.990   3.996 -0.0531  0.1222 -0.1038
 4351TIP3    H113017   0.642   4.030   4.057 -1.1439  0.7995  0.5901
 4351TIP3    H213018   0.496   4.032   4.016 -0.4731  0.2795 -1.9901
 4352TIP3   OH213019   1.201   4.467   3.390 -0.4475 -0.1008  0.0930
 4352TIP3    H113020   1.235   4.486   3.302  0.0316  1.2884  0.5533
 4352TIP3    H213021   1.107   4.451   3.377 -0.7273  1.8192 -0.4728
 4353TIP3   OH213022   1.498   1.543   1.025 -0.2145 -0.7135  0.1299
 4353TIP3    H113023   1.492   1.511   0.935  0.1987 -3.9226  1.1252
 4353TIP3    H213024   1.590   1.570   1.034  0.2231 -2.1148  0.0796
 4354TIP3   OH213025   2.825   1.031   0.409  0.2410  0.0993  0.3406
 4354TIP3    H113026   2.764   1.105   0.416 -2.3692 -1.7239 -1.3322
 4354TIP3    H213027   2.874   1.049   0.329 -1.4971 -0.6429 -0.9505
 4355TIP3   OH213028   5.098   1.609   2.837  0.3436 -0.1424  0.0042
 4355TIP3    H113029   5.072   1.521   2.809 -0.2374 -0.2874  0.9789
 4355TIP3    H213030   5.113   1.656   2.755 -3.7531  0.1831 -0.7335
 4356TIP3   OH213031   6.511   0.137   5.907 -0.1761  0.3746  0.1821
 4356TIP3    H113032   6.591   0.085   5.914 -0.0743  0.7051  2.6077
 4356TIP3    H213033   6.504   0.159   5.815  1.9445 -0.5713 -0.2648
 4357TIP3   OH213034   4.666   0.831   5.795 -0.1934 -0.2595 -0.1827
 4357TIP3    H113035   4.725   0.779   5.741  1.6206  1.4790  0.0374
 4357TIP3    H213036   4.622   0.889   5.732  1.0627  0.9610  0.0322
 4358TIP3   OH213037   3.260   3.650   3.327  0.4948 -0.1226 -0.0881
 4358TIP3    H113038   3.308   3.634   3.408 -0.2618 -0.4775  0.2981
 4358TIP3    H213039   3.323   3.695   3.270  1.5615 -1.3526  0.0810
 4359TIP3   OH213040   6.866   0.516   2.460  0.3275  0.6735 -0.2591
 4359TIP3    H113041   6.885   0.524   2.553 -0.2332 -0.4563 -0.0311
 4359TIP3    H213042   6.854   0.606   2.430 -0.0499  1.0149  0.8722
 4360TIP3   OH213043   4.863   5.874   2.377 -0.4101  0.5637  0.6105
 4360TIP3    H113044   4.814   5.835   2.449 -0.1323 -1.4964 -0.2625
 4360TIP3    H213045   4.806   5.863   2.300  0.2895  0.5848  0.0819
 4361TIP3   OH213046   5.981   5.162   0.513 -0.4180 -0.5400 -0.0419
 4361TIP3    H113047   5.964   5.080   0.465  1.0584 -1.5910  1.1278
 4361TIP3    H213048   6.029   5.134   0.591  0.4370  1.4961  0.2105
 4362TIP3   OH213049   5.475   4.311   5.163 -0.1355 -0.1794 -1.0430
 4362TIP3    H113050   5.540   4.367   5.122  0.6150 -2.9059 -3.9817
 4362TIP3    H213051   5.524   4.235   5.194 -1.5219 -0.8976 -0.4979
 4363TIP3   OH213052   3.745   4.772   2.112  0.4586  0.3415 -0.1279
 4363TIP3    H113053   3.783   4.786   2.025 -0.8460  0.8113 -0.6532
 4363TIP3    H213054   3.808   4.811   2.172  2.5801 -2.0898 -0.6058
 4364TIP3   OH213055   0.565   5.687   5.863  0.5741 -0.1413  0.8230
 4364TIP3    H113056   0.577   5.604   5.818  0.8593 -0.4048  1.3815
 4364TIP3    H213057   0.473   5.710   5.846  0.8141  0.0475 -0.3473
 4365TIP3   OH213058   6.201   6.682   4.984  0.1914  0.8857 -0.3479
 4365TIP3    H113059   6.244   6.760   4.948 -0.4503  0.8527 -1.2071
 4365TIP3    H213060   6.237   6.674   5.072  1.4324  1.2592 -0.7939
 4366TIP3   OH213061   4.509   1.040   2.024 -0.6411  0.1123  0.4568
 4366TIP3    H113062   4.433   1.049   2.082 -2.3338 -0.4529 -1.5386
 4366TIP3    H213063   4.569   1.109   2.052 -2.4817  1.4793  1.2545
 4367TIP3   OH213064   6.733   1.639   1.506  0.1930 -0.1220 -0.4024
 4367TIP3    H113065   6.813   1.666   1.462  0.1373  0.0873 -0.3802
 4367TIP3    H213066   6.678   1.602   1.437  0.4988 -0.7028 -0.3326
 4368TIP3   OH213067   5.259   1.587   1.527 -0.1426 -0.4769  0.8401
 4368TIP3    H113068   5.351   1.563   1.542  0.0558  0.5733  1.4044
 4368TIP3    H213069   5.211   1.506   1.543  0.8120 -1.4889 -1.1108
 4369TIP3   OH213070   0.154   4.156   5.568  0.0260 -0.6644 -0.3839
 4369TIP3    H113071   0.155   4.088   5.500 -0.8676  0.8107 -1.9586
 4369TIP3    H213072   0.065   4.155   5.602 -0.6107  0.9638 -1.8310
 4370TIP3   OH213073   1.573   1.248   2.850 -0.0369  0.2962 -0.2069
 4370TIP3    H113074   1.641   1.187   2.878 -0.6729  0.1335  1.0121
 4370TIP3    H213075   1.581   1.249   2.754  0.6239 -0.9439 -0.1894
 4371TIP3   OH213076   1.024   6.644   4.793  0.2769 -0.1945  0.7487
 4371TIP3    H113077   0.936   6.668   4.821  0.4038  2.9672 -1.1642
 4371TIP3    H213078   1.080   6.670   4.865  0.0447  2.5701  0.0526
 4372TIP3   OH213079   4.836   4.081   5.878  0.2340  0.1781 -0.4819
 4372TIP3    H113080   4.777   4.059   5.950  0.0825 -0.8545 -0.8888
 4372TIP3    H213081   4.792   4.152   5.831 -1.0654 -1.0418 -1.1898
 4373TIP3   OH213082   0.209   5.600   3.105 -0.4892 -0.7024 -0.1889
 4373TIP3    H113083   0.232   5.548   3.028 -1.6037 -2.0446  0.3372
 4373TIP3    H213084   0.255   5.558   3.177 -0.7985 -0.4936  0.1321
 4374TIP3   OH213085   3.351   4.350   2.924 -0.0351 -0.3648  1.1070
 4374TIP3    H113086   3.342   4.435   2.880 -0.6632 -0.0183  1.8853
 4374TIP3    H213087   3.429   4.311   2.884  1.2305  1.2752  1.8374
 4375TIP3   OH213088   4.365   2.201   3.408  0.0807  0.3323 -0.3788
 4375TIP3    H113089   4.295   2.165   3.462  2.6052 -1.1044  2.2442
 4375TIP3    H213090   4.424   2.128   3.394  2.1292  1.9240 -0.5892
 4376TIP3   OH213091   6.033   3.231   1.200  0.1634 -0.4435  0.2928
 4376TIP3    H113092   6.101   3.292   1.232  0.4431 -0.7812  0.3479
 4376TIP3    H213093   6.018   3.172   1.273 -1.3600  0.5880  0.8775
 4377TIP3   OH213094   0.943   2.600   3.138  0.2095  0.2132 -0.1199
 4377TIP3    H113095   0.869   2.579   3.195 -0.4419  2.6971  0.0433
 4377TIP3    H213096   1.016   2.616   3.198  0.7642 -1.6311 -0.2535
 4378TIP3   OH213097   0.147   5.374   2.363  0.3724 -0.0458 -0.0166
 4378TIP3    H113098   0.233   5.396   2.401  1.5319 -2.2891 -1.1350
 4378TIP3    H213099   0.134   5.282   2.387 -2.6244  0.6775  1.6328
 4379TIP3   OH213100   6.871   1.182   1.211 -0.2100  0.8509 -0.3879
 4379TIP3    H113101   6.781   1.155   1.194 -0.4603  1.9148 -0.8105
 4379TIP3    H213102   6.916   1.171   1.128 -0.0289  0.6532 -0.2663
 4380TIP3   OH213103   1.779   0.419   5.210 -0.7200  0.9834 -0.1938
 4380TIP3    H113104   1.697   0.420   5.161 -0.2169  1.3532 -1.0427
 4380TIP3    H213105   1.847   0.431   5.143  0.0649  0.1115  0.4157
 4381TIP3   OH213106   3.172   5.101   1.959  0.0404  0.2832 -0.2018
 4381TIP3    H113107   3.140   5.187   1.935  1.8903  2.2620  3.5372
 4381TIP3    H213108   3.262   5.098   1.925  0.0627 -0.0937 -0.1219
 4382TIP3   OH213109   5.110   4.200   0.430 -0.7297  0.3532  0.0743
 4382TIP3    H113110   5.123   4.126   0.490 -0.7299 -0.6124 -1.0571
 4382TIP3    H213111   5.080   4.272   0.485 -2.4009 -0.9783  0.9991
 4383TIP3   OH213112   3.051   0.503   3.605 -0.4828  0.0623 -0.0585
 4383TIP3    H113113   3.096   0.444   3.544 -0.3346  1.2116 -1.0894
 4383TIP3    H213114   2.980   0.450   3.642  0.8939 -1.3816  0.6144
 4384TIP3   OH213115   1.806   5.373   0.860  0.0732  0.4926  0.0835
 4384TIP3    H113116   1.860   5.438   0.905  0.0310 -0.4040  1.4981
 4384TIP3    H213117   1.745   5.342   0.927  0.9344 -1.9402 -0.1372
 4385TIP3   OH213118   2.405   1.153   2.352  0.0114  0.3533 -0.4651
 4385TIP3    H113119   2.326   1.118   2.310 -0.8961 -0.2117  1.5935
 4385TIP3    H213120   2.453   1.196   2.281 -1.8770  0.2562 -1.8701
 4386TIP3   OH213121   4.689   1.032   3.014  0.5360  0.1658  0.5734
 4386TIP3    H113122   4.638   1.103   2.975  0.2895 -0.8818 -1.1338
 4386TIP3    H213123   4.762   1.076   3.058 -0.4353  1.5439  0.8596
 4387TIP3   OH213124   1.970   6.280   4.303 -0.4686  0.9327  0.6100
 4387TIP3    H113125   2.006   6.249   4.385 -1.3308 -1.0211  0.3112
 4387TIP3    H213126   1.876   6.264   4.310 -0.8067  2.4341 -0.0660
 4388TIP3   OH213127   0.438   0.850   0.370  0.3614 -0.7768 -0.5411
 4388TIP3    H113128   0.515   0.888   0.412  0.1871  1.8367 -2.4072
 4388TIP3    H213129   0.419   0.771   0.422  1.8725  0.6569  2.4017
 4389TIP3   OH213130   3.811   2.805   5.703  0.2352  0.2768 -0.3215
 4389TIP3    H113131   3.832   2.714   5.724  0.0506  0.7372  2.2473
 4389TIP3    H213132   3.895   2.846   5.684  1.0653  0.5640  3.2323
 4390TIP3   OH213133   0.350   6.578   0.983  0.1552 -0.3158 -0.5998
 4390TIP3    H113134   0.352   6.629   1.064 -2.1022  0.4025 -0.9286
 4390TIP3    H213135   0.269   6.604   0.940  1.1108 -0.9360 -2.9523
 4391TIP3   OH213136   4.815   0.511   5.320 -0.1611  0.3667 -0.1810
 4391TIP3    H113137   4.730   0.533   5.358 -0.2383 -0.0955 -0.0831
 4391TIP3    H213138   4.806   0.420   5.292  0.3726  0.2431  0.0362
 4392TIP3   OH213139   3.250   3.935   2.023  0.3215  0.1197 -0.2529
 4392TIP3    H113140   3.296   3.862   1.982 -1.0318  0.1288 -1.8834
 4392TIP3    H213141   3.302   4.012   1.999  1.0511 -0.1485  0.4093
 4393TIP3   OH213142   5.504   2.479   5.375  0.2063  0.0723 -0.0321
 4393TIP3    H113143   5.474   2.410   5.434 -0.5790  0.7609  0.4006
 4393TIP3    H213144   5.524   2.553   5.432 -1.7347  1.1626 -0.6752
 4394TIP3   OH213145   3.932   6.674   5.171  0.3260  0.3752  0.6318
 4394TIP3    H113146   3.848   6.632   5.191 -0.1299  1.5092  1.2167
 4394TIP3    H213147   3.991   6.602   5.149 -0.3392 -0.5965  1.9124
 4395TIP3   OH213148   1.624   1.005   3.385  0.0323  0.0645  0.2975
 4395TIP3    H113149   1.638   1.099   3.369  1.1873 -0.0475  0.5226
 4395TIP3    H213150   1.696   0.963   3.337 -1.1659 -0.8010 -0.7999
 4396TIP3   OH213151   5.730   2.564   0.552 -0.2462  0.0343 -0.1940
 4396TIP3    H113152   5.735   2.660   0.553  1.4891 -0.0018 -1.0379
 4396TIP3    H213153   5.762   2.538   0.639 -0.3052  0.2162 -0.1171
 4397TIP3   OH213154   1.656   5.595   2.229 -0.4082  0.2477  0.4095
 4397TIP3    H113155   1.736   5.613   2.179 -1.3580 -0.2734 -1.4071
 4397TIP3    H213156   1.634   5.678   2.270 -1.3366  1.7224 -2.7508
 4398TIP3   OH213157   6.812   6.162   0.432  0.4103  0.6110 -0.5904
 4398TIP3    H113158   6.739   6.143   0.373 -0.0071  0.9966 -0.2086
 4398TIP3    H213159   6.867   6.222   0.382 -1.1992  2.9584  0.2309
 4399TIP3   OH213160   3.235   1.323   1.043  0.2569  0.8083 -0.2848
 4399TIP3    H113161   3.215   1.384   0.972  0.8883  0.3712 -0.8611
 4399TIP3    H213162   3.300   1.368   1.096  0.4683  0.7785 -0.5150
 4400TIP3   OH213163   5.152   5.637   3.001  0.0677  0.1796  0.1550
 4400TIP3    H113164   5.247   5.641   3.008  0.0246  1.4966  0.3625
 4400TIP3    H213165   5.124   5.727   3.018 -1.2282 -0.2433  0.3226
 4401TIP3   OH213166   5.735   5.252   1.607 -0.2865 -0.0786 -0.1761
 4401TIP3    H113167   5.680   5.220   1.536  1.0045 -0.5647 -0.9943
 4401TIP3    H213168   5.809   5.192   1.609  0.9867  1.4278 -0.1284
 4402TIP3   OH213169   1.527   1.639   5.589 -0.3678 -0.0349 -0.2008
 4402TIP3    H113170   1.514   1.710   5.652  1.4732 -0.2216  0.4443
 4402TIP3    H213171   1.439   1.603   5.575 -1.0534  1.1307  0.9182
 4403TIP3   OH213172   6.660   3.805   2.556 -0.1423  0.3550  0.1161
 4403TIP3    H113173   6.590   3.762   2.605  0.1536 -1.0702 -0.6644
 4403TIP3    H213174   6.739   3.758   2.580  0.1967  0.4706 -0.7440
 4404TIP3   OH213175   2.795   3.399   0.951 -0.0980 -0.0961  0.0617
 4404TIP3    H113176   2.866   3.342   0.920  0.1055  1.8077 -3.4067
 4404TIP3    H213177   2.722   3.379   0.893 -1.3090  0.4715  1.3413
 4405TIP3   OH213178  -0.007   3.632   3.716  0.3204 -0.3101 -0.0973
 4405TIP3    H113179   0.066   3.665   3.665  0.9535  0.2346  1.1078
 4405TIP3    H213180  -0.038   3.708   3.765 -0.9782 -0.5599 -0.4793
 4406TIP3   OH213181   6.509   1.158   2.730  0.6562 -0.4120  0.1114
 4406TIP3    H113182   6.435   1.211   2.702 -0.7156 -1.7530  1.0168
 4406TIP3    H213183   6.477   1.067   2.724  1.6351 -0.9479  2.0871
 4407TIP3   OH213184   6.562   4.050   0.538  0.0811  0.6783  0.7161
 4407TIP3    H113185   6.506   3.974   0.523 -0.0546  0.5674  1.6856
 4407TIP3    H213186   6.650   4.019   0.518 -0.0203  0.3728  0.7307
 4408TIP3   OH213187   4.610   2.936   1.196  0.3661 -0.0067  0.5028
 4408TIP3    H113188   4.524   2.941   1.156  0.4306 -0.6814  0.2753
 4408TIP3    H213189   4.615   3.015   1.251  0.6395  1.4712 -1.5092
 4409TIP3   OH213190   1.560   3.697   0.894  0.4142  0.2853  0.4549
 4409TIP3    H113191   1.524   3.775   0.936  1.3911  1.2522 -0.4304
 4409TIP3    H213192   1.628   3.666   0.953  1.2295  1.1595 -0.0116
 4410TIP3   OH213193   1.763   5.933   1.880  0.0095  0.0473 -0.1413
 4410TIP3    H113194   1.682   5.955   1.834 -2.1269 -2.5290  2.0412
 4410TIP3    H213195   1.830   5.933   1.812 -1.7691  2.1967 -2.0751
 4411TIP3   OH213196   2.989   0.577   1.819 -0.1845  0.0852 -0.3256
 4411TIP3    H113197   3.073   0.575   1.775  1.6584  1.0708  2.8352
 4411TIP3    H213198   2.958   0.486   1.815  1.1221 -0.3432 -1.3804
 4412TIP3   OH213199   0.632   1.560   0.621 -0.2638 -0.0537 -0.0697
 4412TIP3    H113200   0.638   1.633   0.559  0.0706 -0.7634 -0.8755
 4412TIP3    H213201   0.541   1.561   0.650 -0.6374 -0.2594 -1.2284
 4413TIP3   OH213202   3.653   5.088   1.216 -0.0552 -0.1944  0.4939
 4413TIP3    H113203   3.628   5.174   1.250  0.6936  0.5305 -0.7323
 4413TIP3    H213204   3.574   5.054   1.175 -0.0100  0.5387 -0.2384
 4414TIP3   OH213205   3.626   3.098   0.044  0.2928  0.5335  0.4227
 4414TIP3    H113206   3.619   3.167  -0.022 -1.1295  1.2547  1.2745
 4414TIP3    H213207   3.580   3.023   0.006 -0.0342  0.7632  0.3625
 4415TIP3   OH213208   6.952   0.638   1.188  0.0244  0.6649  0.0251
 4415TIP3    H113209   7.000   0.695   1.129 -1.4431 -0.0295 -1.9720
 4415TIP3    H213210   6.934   0.560   1.136 -1.9217  0.2987  1.1524
 4416TIP3   OH213211   5.629   0.272   1.253  0.1411 -0.2749 -0.3321
 4416TIP3    H113212   5.710   0.221   1.246 -0.3007 -1.1935  0.8588
 4416TIP3    H213213   5.656   0.362   1.236  1.2577 -0.6723 -0.7828
 4417TIP3   OH213214   6.206   4.158   1.128 -0.0556  0.0190 -0.0100
 4417TIP3    H113215   6.170   4.071   1.114  1.0399 -0.5134  0.3604
 4417TIP3    H213216   6.148   4.199   1.191 -0.6976 -0.3636 -0.3454
 4418TIP3   OH213217   5.575   3.466   2.664  0.1981 -0.2371  0.0797
 4418TIP3    H113218   5.637   3.466   2.592  0.1285 -0.0034  0.0185
 4418TIP3    H213219   5.628   3.449   2.742  0.3650  0.1454  0.0503
 4419TIP3   OH213220   4.376   3.470   0.441 -0.7518 -0.1185  0.1115
 4419TIP3    H113221   4.352   3.555   0.478  0.2996 -0.4609  1.6825
 4419TIP3    H213222   4.422   3.425   0.512  1.0403 -0.9749 -1.5113
 4420TIP3   OH213223   6.198   1.177   0.517 -0.2056 -0.2325  0.3658
 4420TIP3    H113224   6.199   1.101   0.459 -1.7763  0.6134 -0.8442
 4420TIP3    H213225   6.248   1.243   0.471 -1.2211  0.3508  0.0588
 4421TIP3   OH213226   5.940   5.696   0.937 -0.5539 -0.5484  0.2989
 4421TIP3    H113227   5.976   5.781   0.909  0.5256 -1.6499 -1.9361
 4421TIP3    H213228   5.845   5.704   0.922 -0.2155 -0.4482 -2.1659
 4422TIP3   OH213229   1.047   3.390   0.778 -0.5437  0.3772 -0.3983
 4422TIP3    H113230   1.100   3.312   0.794  0.3552  0.7261 -1.5652
 4422TIP3    H213231   0.960   3.367   0.813  0.2708 -0.2809  1.3461
 4423TIP3   OH213232   5.015   1.489   2.305 -0.0106 -0.4249  0.1531
 4423TIP3    H113233   4.987   1.526   2.389  1.5712  1.2672  0.0011
 4423TIP3    H213234   4.947   1.516   2.243 -0.3970 -0.3571  0.5996
 4424TIP3   OH213235   5.186   4.410   2.781 -0.6463 -0.5063  0.0684
 4424TIP3    H113236   5.147   4.495   2.757 -0.0429  0.2843  1.7340
 4424TIP3    H213237   5.153   4.350   2.715 -2.1033  0.7786 -0.4566
 4425TIP3   OH213238   1.526   1.488   2.330 -0.1878 -0.0518 -0.0575
 4425TIP3    H113239   1.478   1.414   2.295 -0.5262  0.1317  0.0146
 4425TIP3    H213240   1.477   1.565   2.300  0.9076  0.2020 -1.2902
 4426TIP3   OH213241   1.774   6.767   0.068 -0.1360 -0.4667 -0.4352
 4426TIP3    H113242   1.810   6.681   0.091 -1.9674 -1.1236  0.1379
 4426TIP3    H213243   1.825   6.828   0.121 -0.0255 -1.3854  0.5730
 4427TIP3   OH213244   2.935   2.032   4.516 -0.2544 -0.1920  0.4534
 4427TIP3    H113245   2.951   2.126   4.507  1.0295 -0.5425 -1.6874
 4427TIP3    H213246   3.022   1.995   4.532 -0.5920 -1.1166  0.1601
 4428TIP3   OH213247   4.924   4.872   0.586  0.2540 -0.9492 -0.5011
 4428TIP3    H113248   4.862   4.908   0.523 -1.2596 -1.6700  0.5038
 4428TIP3    H213249   4.870   4.818   0.644  1.5467 -0.2842  1.4352
 4429TIP3   OH213250   6.425   5.875   5.459 -0.2657 -0.5301  0.1523
 4429TIP3    H113251   6.359   5.842   5.398  1.4084  0.1758 -2.2007
 4429TIP3    H213252   6.420   5.970   5.451 -0.4454 -0.3968  1.6489
 4430TIP3   OH213253   3.744   4.038   2.113 -0.1390 -0.2046 -0.1478
 4430TIP3    H113254   3.801   4.069   2.042  1.0523 -0.9177  0.4632
 4430TIP3    H213255   3.691   3.969   2.073  1.1796 -1.2508 -0.1559
 4431TIP3   OH213256   6.087   5.135   5.440  0.2525  0.2721  0.1172
 4431TIP3    H113257   6.089   5.230   5.456 -1.1870  0.3029  0.2791
 4431TIP3    H213258   5.994   5.113   5.440  0.2425 -0.4956 -3.8538
 4432TIP3   OH213259   0.200   4.706   3.889 -0.5924  0.6852 -0.4753
 4432TIP3    H113260   0.231   4.795   3.904 -1.6097  1.3373 -2.0283
 4432TIP3    H213261   0.278   4.657   3.863  0.3100  0.6404  2.0806
 4433TIP3   OH213262   3.689   0.386   5.507  0.4526 -0.1574 -0.7737
 4433TIP3    H113263   3.762   0.423   5.458 -0.4908  0.6095 -1.6564
 4433TIP3    H213264   3.619   0.377   5.443  0.1190 -1.9842 -0.2083
 4434TIP3   OH213265   2.839   0.451   1.530 -0.2942 -0.3665  0.1419
 4434TIP3    H113266   2.812   0.372   1.484  0.1286 -0.5777  0.2473
 4434TIP3    H213267   2.912   0.485   1.478  0.4628 -0.8381  0.8694
 4435TIP3   OH213268   2.031   4.883   5.546 -0.0008 -0.2552  0.0242
 4435TIP3    H113269   1.971   4.840   5.485  0.1997  1.2321 -1.2847
 4435TIP3    H213270   2.097   4.924   5.490 -0.7424  2.6084  1.0586
 4436TIP3   OH213271   1.961   6.026   2.900  0.1170  0.1167  0.0508
 4436TIP3    H113272   2.017   6.014   2.977  0.1432  0.5235  0.0991
 4436TIP3    H213273   2.006   6.092   2.847 -0.7107  1.0464  0.4752
 4437TIP3   OH213274   0.510   1.676   5.396 -0.1692  0.3279  0.4123
 4437TIP3    H113275   0.497   1.670   5.491  1.3084  2.1996  0.7854
 4437TIP3    H213276   0.597   1.714   5.386 -0.4448  0.5000 -1.7010
 4438TIP3   OH213277   5.177   0.074   4.367  0.4582 -0.1888  0.5582
 4438TIP3    H113278   5.137   0.151   4.408 -2.1429 -0.7053 -0.8008
 4438TIP3    H213279   5.220   0.108   4.289  1.1490  0.1208  1.0572
 4439TIP3   OH213280   3.387   2.468   2.155  0.0166  0.6056  0.0794
 4439TIP3    H113281   3.345   2.509   2.231  0.6721 -0.9733  1.3587
 4439TIP3    H213282   3.459   2.527   2.133 -0.6924  1.5185  0.0913
 4440TIP3   OH213283   2.437   3.365   0.567 -0.2655 -0.0573 -0.6363
 4440TIP3    H113284   2.382   3.309   0.622  0.0683  0.2953  0.0675
 4440TIP3    H213285   2.376   3.403   0.503 -1.0579  1.1405  0.7795
 4441TIP3   OH213286   5.051   2.760   4.976 -0.0487  0.5445  0.5277
 4441TIP3    H113287   5.045   2.747   4.881  0.8904 -0.6166  0.6069
 4441TIP3    H213288   4.961   2.748   5.007 -0.5818  2.0584 -0.3092
 4442TIP3   OH213289   4.059   2.015   4.828 -0.2132  0.2887  0.6441
 4442TIP3    H113290   4.048   1.956   4.903 -1.5990 -0.1269  0.1292
 4442TIP3    H213291   4.121   1.970   4.771 -0.6404 -0.2987  0.6390
 4443TIP3   OH213292   0.557   2.471   2.121 -0.2512  0.2017 -1.0642
 4443TIP3    H113293   0.651   2.475   2.140 -0.3203 -0.6745 -0.4995
 4443TIP3    H213294   0.536   2.378   2.118 -0.8649  0.3543 -2.4792
 4444TIP3   OH213295   2.763   0.853   4.570 -0.9327 -0.1136 -0.4207
 4444TIP3    H113296   2.771   0.764   4.536 -0.9605 -1.0139  1.7946
 4444TIP3    H213297   2.673   0.858   4.602 -0.7550  0.5084 -0.0036
 4445TIP3   OH213298   6.928   1.576   2.482  0.2795 -0.3637  0.1511
 4445TIP3    H113299   7.003   1.553   2.537  0.4244  0.3826  0.2776
 4445TIP3    H213300   6.966   1.593   2.395  0.4676  1.3438  0.5303
 4446TIP3   OH213301   4.562   4.313   2.075 -0.3108 -0.2929  0.5621
 4446TIP3    H113302   4.621   4.355   2.013 -0.2757  0.7236  1.2461
 4446TIP3    H213303   4.480   4.302   2.028 -0.4150  0.8606  0.4544
 4447TIP3   OH213304   6.565   6.357   0.667  0.0390  0.3014 -0.0395
 4447TIP3    H113305   6.619   6.278   0.668 -0.9622 -0.4071 -0.2091
 4447TIP3    H213306   6.551   6.377   0.760 -0.7379 -0.4700  0.0272
 4448TIP3   OH213307   1.270   0.670   1.754  0.1199 -0.1199  0.2118
 4448TIP3    H113308   1.364   0.653   1.743  0.2314  0.7652 -0.3025
 4448TIP3    H213309   1.267   0.750   1.806 -0.3232  0.6024 -0.8930
 4449TIP3   OH213310   3.686   1.411   0.832  0.5860 -0.3196 -0.0542
 4449TIP3    H113311   3.690   1.504   0.810  1.3921 -0.2596  0.3326
 4449TIP3    H213312   3.607   1.379   0.787  0.1854  0.5894 -0.0109
 4450TIP3   OH213313   0.738   6.251   4.308  0.4554  0.0102 -1.0347
 4450TIP3    H113314   0.644   6.266   4.298  0.4153 -0.0644 -0.7818
 4450TIP3    H213315   0.744   6.184   4.376  0.6842 -0.1491 -1.2105
 4451TIP3   OH213316   7.205   5.400   0.312 -0.0496  0.3465 -0.1000
 4451TIP3    H113317   7.142   5.351   0.259 -1.1484  2.3369 -0.7571
 4451TIP3    H213318   7.151   5.452   0.372  0.9330  1.9780 -0.5618
 4452TIP3   OH213319   4.912   4.515   5.337  0.1033  0.3101 -0.4623
 4452TIP3    H113320   4.871   4.442   5.384  0.0836 -0.5532 -1.7915
 4452TIP3    H213321   4.854   4.590   5.354 -0.9081 -0.4139 -0.6405
 4453TIP3   OH213322   3.727   0.499   3.732 -0.1651 -0.2959  0.4866
 4453TIP3    H113323   3.701   0.486   3.640 -1.1024 -1.3018  0.8726
 4453TIP3    H213324   3.812   0.543   3.727  0.2965 -1.2769 -0.8814
 4454TIP3   OH213325   5.823   2.310   4.570 -0.2791 -0.2186 -0.3866
 4454TIP3    H113326   5.757   2.317   4.501  1.4006 -0.8662 -2.1690
 4454TIP3    H213327   5.817   2.219   4.600 -0.4020 -0.1863 -0.3116
 4455TIP3   OH213328   5.706   4.767   0.848  0.0826 -1.0653  0.2876
 4455TIP3    H113329   5.664   4.745   0.931 -1.8199  0.1934 -0.2689
 4455TIP3    H213330   5.657   4.717   0.782  0.0691 -0.2850 -0.3063
 4456TIP3   OH213331   4.823   1.719   5.743 -0.0729 -0.2179 -0.0841
 4456TIP3    H113332   4.900   1.691   5.792  1.1374  0.2556 -1.6529
 4456TIP3    H213333   4.782   1.637   5.714  2.1548 -0.5739 -2.6742
 4457TIP3   OH213334   1.671   5.496   1.256 -0.6749  0.0719 -0.2905
 4457TIP3    H113335   1.647   5.474   1.345  1.1715 -0.4581  0.1346
 4457TIP3    H213336   1.721   5.578   1.264  0.2331 -0.4191 -0.6831
 4458TIP3   OH213337   1.173   0.838   3.799  0.1081  0.0976  0.4987
 4458TIP3    H113338   1.118   0.835   3.721 -1.0504 -0.7108  1.3026
 4458TIP3    H213339   1.110   0.845   3.871  1.0925 -0.4200  1.4264
 4459TIP3   OH213340   5.127   4.065   4.261 -0.7783 -0.3564 -0.3879
 4459TIP3    H113341   5.041   4.048   4.299 -0.1332  0.2398  1.4616
 4459TIP3    H213342   5.189   4.048   4.333  0.4347  1.7816 -0.8376
 4460TIP3   OH213343   0.359   3.611   1.622  0.5951 -0.1871 -0.7210
 4460TIP3    H113344   0.375   3.586   1.531 -0.5073  1.0917 -1.2958
 4460TIP3    H213345   0.381   3.704   1.625 -0.7670  0.1364 -0.0509
 4461TIP3   OH213346   0.758   5.093   1.486  0.1347 -0.6015 -0.1187
 4461TIP3    H113347   0.789   5.080   1.397 -0.1192  0.0494 -0.3055
 4461TIP3    H213348   0.663   5.102   1.478  0.2498  0.9878  0.0255
 4462TIP3   OH213349   5.618   1.703   3.331  0.0744  0.3841 -0.2390
 4462TIP3    H113350   5.558   1.777   3.324 -0.5100 -0.0163  0.3523
 4462TIP3    H213351   5.588   1.641   3.264  0.5335  0.6587 -0.7022
 4463TIP3   OH213352   4.266   1.680   0.500  0.3008  0.4617 -0.3307
 4463TIP3    H113353   4.294   1.746   0.564  2.0623 -0.4907 -0.0504
 4463TIP3    H213354   4.307   1.599   0.531  1.3652  0.0025 -2.7539
 4464TIP3   OH213355   5.877   2.418   1.471 -0.6112  0.1024  0.0349
 4464TIP3    H113356   5.789   2.386   1.491 -0.7538  0.3856 -0.1295
 4464TIP3    H213357   5.866   2.470   1.391 -0.2191 -0.2063 -0.2210
 4465TIP3   OH213358   0.590   6.737   4.359 -0.0569  0.3221 -0.1479
 4465TIP3    H113359   0.576   6.830   4.342 -3.8381  0.0534  0.4525
 4465TIP3    H213360   0.543   6.693   4.287  0.5724 -1.0921  0.2728
 4466TIP3   OH213361   0.403   3.739   0.891  0.0401  0.7493 -0.4787
 4466TIP3    H113362   0.434   3.717   0.803  1.5589  1.9953 -0.2981
 4466TIP3    H213363   0.350   3.818   0.879 -1.9546 -0.5064 -0.5663
 4467TIP3   OH213364   0.109   0.041   3.652  0.0745 -0.3700  0.3469
 4467TIP3    H113365   0.031   0.005   3.694 -0.5226  1.6184  1.0511
 4467TIP3    H213366   0.076   0.110   3.594  1.0614 -1.7296 -1.9946
 4468TIP3   OH213367   1.428   0.327   4.465 -0.1186 -0.2578  0.1029
 4468TIP3    H113368   1.389   0.405   4.425  1.5721  0.3184 -0.4974
 4468TIP3    H213369   1.399   0.331   4.556 -0.3740  0.8602 -0.0052
 4469TIP3   OH213370   1.665   6.283   0.283  0.4276  0.3337  0.0510
 4469TIP3    H113371   1.625   6.368   0.266 -1.0521 -0.3526 -0.0188
 4469TIP3    H213372   1.604   6.239   0.342  2.2463  0.1469  1.9168
 4470TIP3   OH213373   1.279   4.038   1.199 -0.2437 -0.0375  0.1626
 4470TIP3    H113374   1.189   4.052   1.168 -0.9341 -0.1646  1.9564
 4470TIP3    H213375   1.291   4.104   1.268  1.0387 -0.0404 -0.0436
 4471TIP3   OH213376   0.914   1.269   0.948 -0.4515  0.4202 -0.3281
 4471TIP3    H113377   0.841   1.287   0.889  0.1553  1.0614 -0.8991
 4471TIP3    H213378   0.984   1.239   0.891  0.0075  0.6219  0.1224
 4472TIP3   OH213379   6.566   2.687   2.011  0.8136 -0.0020 -0.6667
 4472TIP3    H113380   6.555   2.592   2.005 -1.8086  0.1549  0.5245
 4472TIP3    H213381   6.489   2.717   2.059  0.8759  2.8928 -2.1730
 4473TIP3   OH213382   1.454   3.017   3.706 -0.2466  0.6824 -0.1226
 4473TIP3    H113383   1.424   2.969   3.630 -0.9671  0.3650  0.3599
 4473TIP3    H213384   1.461   3.108   3.675 -0.9492  0.6294 -0.4443
 4474TIP3   OH213385   5.306   5.666   2.027  0.3550  0.5514  0.1510
 4474TIP3    H113386   5.326   5.643   2.118 -0.1441  0.7602  0.3176
 4474TIP3    H213387   5.376   5.625   1.976 -0.8035 -1.9148  0.3712
 4475TIP3   OH213388   4.697   3.506   5.557 -0.1305  0.3847  0.0821
 4475TIP3    H113389   4.760   3.506   5.630  1.0413 -0.2278 -0.8851
 4475TIP3    H213390   4.615   3.478   5.597  0.2537  0.9873  1.3456
 4476TIP3   OH213391   5.506   2.326   5.599 -0.2443 -0.0140  0.1979
 4476TIP3    H113392   5.546   2.399   5.645  1.4600  0.5283 -1.9769
 4476TIP3    H213393   5.545   2.248   5.639  1.9875  0.4694 -0.8955
 4477TIP3   OH213394   5.564   6.306   4.900 -0.4425 -0.4861 -0.3334
 4477TIP3    H113395   5.602   6.221   4.877  0.0699 -0.4931  0.4946
 4477TIP3    H213396   5.633   6.369   4.880 -0.0129 -0.4843  1.0304
 4478TIP3   OH213397   3.463   2.649   0.048  0.1571 -0.3904 -0.2400
 4478TIP3    H113398   3.438   2.668   0.138 -1.1127 -0.6994 -0.5006
 4478TIP3    H213399   3.518   2.571   0.054 -0.8215 -1.0633  0.1844
 4479TIP3   OH213400   4.450   5.235   4.890 -0.4352  0.4733  0.3209
 4479TIP3    H113401   4.396   5.161   4.860 -0.8624  0.3658  1.3142
 4479TIP3    H213402   4.469   5.284   4.810 -0.3875 -0.5447 -0.3239
 4480TIP3   OH213403   3.987   4.727   3.903  0.3013 -0.4879  0.2310
 4480TIP3    H113404   4.026   4.791   3.842 -1.0991  0.2976  0.1079
 4480TIP3    H213405   4.033   4.742   3.986  0.8746 -0.2114 -0.1279
 4481TIP3   OH213406   5.837   1.805   5.259  0.3525 -0.6048  0.4825
 4481TIP3    H113407   5.780   1.805   5.335 -0.3840 -2.0098 -0.0298
 4481TIP3    H213408   5.835   1.894   5.226  0.6129  0.0019  2.0355
 4482TIP3   OH213409   2.677   1.537   3.382 -0.1963  0.7003  0.3986
 4482TIP3    H113410   2.659   1.502   3.295  2.1815  3.1393 -1.2319
 4482TIP3    H213411   2.724   1.467   3.427 -0.1247 -0.0614 -0.8253
 4483TIP3   OH213412   2.808   6.388   4.448  0.9556  0.2899 -0.7723
 4483TIP3    H113413   2.822   6.332   4.371  1.3289  1.0727 -1.2875
 4483TIP3    H213414   2.872   6.357   4.512 -0.5169 -1.5330 -0.0843
 4484TIP3   OH213415   0.003   2.285   4.253 -0.0429  0.0391  0.5815
 4484TIP3    H113416  -0.049   2.216   4.295 -1.0926 -1.0353 -2.1866
 4484TIP3    H213417   0.071   2.237   4.205  1.3737  1.2204  1.3199
 4485TIP3   OH213418   6.259   2.476   1.177  1.0827  0.0898 -0.0425
 4485TIP3    H113419   6.293   2.407   1.120  0.5168  0.3841 -0.7438
 4485TIP3    H213420   6.296   2.557   1.141 -1.0283  0.5261 -1.3875
 4486TIP3   OH213421   5.544   1.722   0.130  0.3582  0.0594  0.1747
 4486TIP3    H113422   5.640   1.714   0.123  0.5511  1.3746  0.9146
 4486TIP3    H213423   5.529   1.752   0.220 -0.9637 -2.4880  0.9007
 4487TIP3   OH213424   6.357   4.924   0.751 -0.0578  0.1472  0.4810
 4487TIP3    H113425   6.360   4.938   0.846  0.0412  0.0410  0.4939
 4487TIP3    H213426   6.374   4.830   0.741  0.7218  0.3028  0.3083
 4488TIP3   OH213427   1.346   1.420   4.078  0.1600  0.3256  0.4231
 4488TIP3    H113428   1.370   1.449   3.990 -0.0949  0.1230  0.2867
 4488TIP3    H213429   1.340   1.501   4.129  0.4133  0.4342  0.2810
 4489TIP3   OH213430   0.318   2.769   5.653  0.1080  0.0658  0.0452
 4489TIP3    H113431   0.355   2.848   5.613 -1.3713  0.7200 -0.0921
 4489TIP3    H213432   0.320   2.787   5.747 -2.5654  1.4257 -0.0717
 4490TIP3   OH213433   6.598   1.705   0.934 -0.0629 -0.3748 -0.5286
 4490TIP3    H113434   6.605   1.735   0.844 -1.0007  0.9801 -0.1797
 4490TIP3    H213435   6.622   1.781   0.987  0.4593 -1.1451  0.3735
 4491TIP3   OH213436   2.546   3.813   5.625 -0.6160  0.5421  0.5149
 4491TIP3    H113437   2.468   3.861   5.654 -0.7652  0.6681 -0.0664
 4491TIP3    H213438   2.512   3.728   5.595 -0.5477  0.6425  0.1500
 4492TIP3   OH213439   5.669   6.692   5.182  0.1579 -0.4514  0.3002
 4492TIP3    H113440   5.628   6.637   5.116 -1.2211  0.1869  0.5781
 4492TIP3    H213441   5.607   6.765   5.194  1.4259  0.5953  0.6978
 4493TIP3   OH213442   1.509   4.195   5.211  0.0083 -0.3029 -0.0541
 4493TIP3    H113443   1.503   4.192   5.306  2.4428 -2.1700  0.1273
 4493TIP3    H213444   1.541   4.282   5.191 -0.2942  0.0233  0.8372
 4494TIP3   OH213445   1.296   6.493   2.127  0.3778 -0.0313  0.4276
 4494TIP3    H113446   1.233   6.506   2.056  0.4341 -1.2852  0.1277
 4494TIP3    H213447   1.376   6.534   2.095 -0.1349  1.1230  0.5957
 4495TIP3   OH213448   3.961   1.366   4.581  0.2313  0.3133 -0.2359
 4495TIP3    H113449   3.998   1.381   4.668 -0.8272 -0.4495  0.3631
 4495TIP3    H213450   4.036   1.377   4.522  0.8387  1.5064  0.6859
 4496TIP3   OH213451   1.180   6.311   2.971 -0.4258  0.3250 -0.3175
 4496TIP3    H113452   1.144   6.223   2.986 -0.3114  0.3365  0.0441
 4496TIP3    H213453   1.272   6.303   2.995 -0.4869  0.6200  0.0257
 4497TIP3   OH213454   1.866   5.391   2.863  0.3282  0.1525 -0.4027
 4497TIP3    H113455   1.779   5.429   2.870  0.2628 -0.2169  1.0129
 4497TIP3    H213456   1.859   5.326   2.793 -0.4052  0.4430 -0.6004
 4498TIP3   OH213457   3.000   1.046   4.450  0.7381 -0.4758  0.4910
 4498TIP3    H113458   2.914   1.007   4.438  1.0354 -0.8775 -0.4757
 4498TIP3    H213459   2.984   1.139   4.466  0.0903 -0.7234  1.3360
 4499TIP3   OH213460   6.012   6.605   3.092  0.4171  0.4153 -0.2492
 4499TIP3    H113461   6.024   6.538   3.159  2.3405  1.3318  0.4016
 4499TIP3    H213462   5.940   6.659   3.125  0.2089 -0.1378  0.2229
 4500TIP3   OH213463   0.485   0.973   5.006  0.2058  0.3577  0.3605
 4500TIP3    H113464   0.518   0.920   4.933  1.8011 -0.3883  1.5509
 4500TIP3    H213465   0.393   0.949   5.013  0.3803 -0.6597 -0.4794
 4501TIP3   OH213466   0.379   3.247   0.040  0.4344  0.0213  0.3524
 4501TIP3    H113467   0.379   3.198  -0.042  0.0356  0.5715  0.0160
 4501TIP3    H213468   0.417   3.187   0.104 -1.7275 -1.4415  0.3592
 4502TIP3   OH213469   0.454   4.905   2.723 -0.2671 -0.2214  0.1596
 4502TIP3    H113470   0.481   4.997   2.723 -0.1451 -0.2507  0.6448
 4502TIP3    H213471   0.519   4.862   2.778 -0.0835 -0.6735 -0.4150
 4503TIP3   OH213472   0.846   3.790   4.646 -0.2915 -0.0731  0.2028
 4503TIP3    H113473   0.792   3.808   4.569  0.4722  0.8781 -0.1278
 4503TIP3    H213474   0.934   3.777   4.611  0.0257  0.1740  0.8983
 4504TIP3   OH213475   2.731   6.436   4.768 -0.2736  0.4578 -0.1576
 4504TIP3    H113476   2.720   6.342   4.755  1.6834  0.2709 -0.9042
 4504TIP3    H213477   2.748   6.445   4.862  2.2696 -0.3444 -0.4563
 4505TIP3   OH213478   4.561   4.681   2.772  0.8245 -0.1324  0.4776
 4505TIP3    H113479   4.600   4.598   2.745  1.2014 -0.4512  1.9107
 4505TIP3    H213480   4.530   4.721   2.690  1.4951 -1.2326 -0.3431
 4506TIP3   OH213481   4.665   0.640   1.354  0.8626 -0.2863 -0.4513
 4506TIP3    H113482   4.625   0.572   1.299  0.5646  0.5324 -1.2730
 4506TIP3    H213483   4.718   0.591   1.417  1.1413 -1.2681 -1.4092
 4507TIP3   OH213484   0.390   5.165   2.183  0.3982 -0.2258  0.5960
 4507TIP3    H113485   0.364   5.129   2.099 -1.9459  0.8782  0.7757
 4507TIP3    H213486   0.437   5.245   2.162 -0.6959  0.3543  0.3313
 4508TIP3   OH213487   4.500   2.519   0.997  0.2730 -0.1844  0.1110
 4508TIP3    H113488   4.413   2.535   0.962 -0.1129 -0.4727  0.9222
 4508TIP3    H213489   4.501   2.566   1.081  1.0471  0.1791 -0.0926
 4509TIP3   OH213490   0.387   4.964   3.578 -0.2392 -0.4643  0.4311
 4509TIP3    H113491   0.480   4.989   3.573 -0.5358  0.4898 -1.0417
 4509TIP3    H213492   0.386   4.872   3.551  0.2478 -0.3376 -0.0523
 4510TIP3   OH213493  -0.003   2.693   0.312 -0.3605 -0.1219  0.4484
 4510TIP3    H113494   0.045   2.672   0.392  0.0088  0.0810  0.2812
 4510TIP3    H213495   0.063   2.729   0.253 -0.2719 -1.8463 -0.5762
 4511TIP3   OH213496   2.010   4.694   3.952  0.0684 -0.1091 -0.2425
 4511TIP3    H113497   1.971   4.611   3.980  0.3125 -0.1252  0.0546
 4511TIP3    H213498   1.962   4.717   3.872 -0.7213 -0.0018  0.2440
 4512TIP3   OH213499   6.946   5.134   2.521 -0.5540  0.8137 -0.3201
 4512TIP3    H113500   6.880   5.073   2.486  1.0886 -1.7564  0.7131
 4512TIP3    H213501   6.920   5.220   2.488 -2.5962 -0.5299 -2.5313
 4513TIP3   OH213502   6.809   4.755   5.686 -0.0673  0.2439  0.1427
 4513TIP3    H113503   6.892   4.708   5.699 -0.5304 -0.5814  0.1800
 4513TIP3    H213504   6.835   4.842   5.654  0.7536 -0.6549 -1.8110
 4514TIP3   OH213505   2.629   3.068   5.368  0.5414 -0.2575  0.1615
 4514TIP3    H113506   2.544   3.036   5.339 -0.3673  1.0340  1.2729
 4514TIP3    H213507   2.624   3.067   5.464  1.0013  1.7167  0.2535
 4515TIP3   OH213508   2.519   3.729   2.671 -0.5837 -0.4826 -0.0307
 4515TIP3    H113509   2.598   3.679   2.649  0.1096  0.9249 -0.8938
 4515TIP3    H213510   2.447   3.667   2.657  0.3417 -1.7459  0.6305
 4516TIP3   OH213511   2.288   6.395   1.608 -0.3394  0.4870  0.5107
 4516TIP3    H113512   2.378   6.415   1.635 -0.6724  1.0378  1.2503
 4516TIP3    H213513   2.290   6.301   1.588  0.4536  0.5429  0.2721
 4517TIP3   OH213514   4.409   2.794   3.152  0.1802 -0.4921  0.2517
 4517TIP3    H113515   4.485   2.736   3.149  2.3808  2.1985  0.0896
 4517TIP3    H213516   4.413   2.842   3.070 -1.3128  0.2135  0.5666
 4518TIP3   OH213517   3.377   0.534   0.466  0.0213 -0.5160 -0.4892
 4518TIP3    H113518   3.368   0.586   0.386 -0.0855  1.4870  0.7486
 4518TIP3    H213519   3.312   0.465   0.457 -1.2622  0.7381 -1.3607
 4519TIP3   OH213520   1.581   2.894   2.304 -0.3902  0.2294 -0.9007
 4519TIP3    H113521   1.532   2.858   2.230  0.5496  1.0738 -1.9909
 4519TIP3    H213522   1.522   2.960   2.342 -0.3862  0.7547 -1.7696
 4520TIP3   OH213523   0.410   4.249   5.574 -0.1240  0.1165  0.4789
 4520TIP3    H113524   0.438   4.264   5.484 -1.1329  0.1562  0.1550
 4520TIP3    H213525   0.318   4.222   5.566 -0.5874  1.2778  1.5475
 4521TIP3   OH213526   6.667   6.355   0.010  0.5307 -0.0552 -0.1348
 4521TIP3    H113527   6.750   6.391   0.040  0.6673 -1.9199  1.9523
 4521TIP3    H213528   6.602   6.422   0.033  1.2071  0.5716 -0.0293
 4522TIP3   OH213529   3.265   1.064   4.103 -0.3124 -0.5357  0.5271
 4522TIP3    H113530   3.255   1.045   4.196 -1.6750  2.1534  1.0094
 4522TIP3    H213531   3.181   1.098   4.076  0.9559  1.6661 -0.9287
 4523TIP3   OH213532   1.575   5.424   5.710  0.3868  0.7039  0.7062
 4523TIP3    H113533   1.602   5.494   5.651  1.7012 -1.8808 -2.0133
 4523TIP3    H213534   1.481   5.434   5.719  0.1247  1.1855 -1.9620
 4524TIP3   OH213535   0.977   4.443   0.281 -0.1246  0.0145 -0.3306
 4524TIP3    H113536   0.924   4.521   0.265 -1.1278 -0.8161 -1.1167
 4524TIP3    H213537   1.002   4.450   0.373 -2.1768  0.0696  0.2540
 4525TIP3   OH213538   7.195   2.890   4.797 -0.0835  0.6361  0.4238
 4525TIP3    H113539   7.102   2.905   4.814 -0.1052  1.2318 -0.1669
 4525TIP3    H213540   7.231   2.861   4.881 -0.5939  1.4175  0.9245
 4526TIP3   OH213541   2.595   4.652   1.739  0.5212 -0.8165 -0.2612
 4526TIP3    H113542   2.604   4.745   1.718 -0.2609 -0.9446 -1.2380
 4526TIP3    H213543   2.504   4.642   1.766  0.4538 -1.3858 -0.6763
 4527TIP3   OH213544   1.996   5.403   1.867 -0.2205 -0.6322 -0.3941
 4527TIP3    H113545   2.035   5.478   1.823 -0.9706  0.5688  0.9185
 4527TIP3    H213546   2.054   5.387   1.942 -0.2472 -1.1737 -0.4857
 4528TIP3   OH213547   2.561   1.126   0.079  0.1234 -0.2183  0.0301
 4528TIP3    H113548   2.601   1.208   0.050 -1.2254  0.7181  0.6799
 4528TIP3    H213549   2.474   1.152   0.109  0.2038 -1.6676  1.6718
 4529TIP3   OH213550   4.404   6.431   3.193  0.1754  0.1714  0.6921
 4529TIP3    H113551   4.450   6.505   3.153 -1.0170 -0.1782 -1.5324
 4529TIP3    H213552   4.312   6.458   3.193 -0.3963 -1.5745 -0.9795
 4530TIP3   OH213553   0.059   4.657   2.706 -0.5568 -0.1008 -0.5092
 4530TIP3    H113554   0.014   4.603   2.771 -0.1635 -0.9835 -0.9471
 4530TIP3    H213555  -0.002   4.728   2.687 -2.1396 -1.6671 -1.6431
 4531TIP3   OH213556   4.280   0.290   0.652 -0.2822 -0.0957  0.1828
 4531TIP3    H113557   4.316   0.307   0.739 -1.5396  0.0950  0.6833
 4531TIP3    H213558   4.191   0.325   0.656  0.0201  1.0053 -1.5512
 4532TIP3   OH213559   0.950   4.855   2.900 -0.3123 -0.1813 -0.1010
 4532TIP3    H113560   1.013   4.784   2.902 -0.0348  0.0784  1.0999
 4532TIP3    H213561   0.940   4.876   2.807  2.0808  0.4022 -0.2850
 4533TIP3   OH213562   4.094   6.366   4.922  0.3476 -0.4434  0.2116
 4533TIP3    H113563   4.113   6.422   4.997 -0.6631 -1.5365  1.3315
 4533TIP3    H213564   4.044   6.293   4.959 -1.2366 -0.4063 -1.7087
 4534TIP3   OH213565   1.566   2.182   4.387  0.4489 -0.6544  0.1156
 4534TIP3    H113566   1.588   2.089   4.375  1.7433 -0.5294  1.3021
 4534TIP3    H213567   1.619   2.228   4.322  1.9061 -0.5653  1.3003
 4535TIP3   OH213568   5.715   6.531   0.838 -0.3280  0.4618 -0.4173
 4535TIP3    H113569   5.726   6.586   0.915  0.1782 -1.3242  0.8649
 4535TIP3    H213570   5.620   6.520   0.829 -0.4005  0.9483 -0.2495
 4536TIP3   OH213571   1.648   2.238   1.876 -0.2656  0.8085  0.1750
 4536TIP3    H113572   1.611   2.217   1.961 -1.7583 -0.5905 -0.7694
 4536TIP3    H213573   1.655   2.153   1.831 -0.3129  1.5987 -1.3908
 4537TIP3   OH213574   1.027   3.202   0.271  0.1312  0.0614 -0.1418
 4537TIP3    H113575   1.117   3.171   0.267 -0.0003 -0.7071  1.7265
 4537TIP3    H213576   1.026   3.260   0.347 -0.9702 -0.0457 -0.0640
 4538TIP3   OH213577   4.660   1.144   2.524 -0.2588 -0.0513 -0.2097
 4538TIP3    H113578   4.662   1.084   2.598 -0.0043  1.3972  0.9923
 4538TIP3    H213579   4.566   1.155   2.505 -0.3020 -0.8940 -0.5066
 4539TIP3   OH213580   4.923   5.779   3.140  0.4258 -0.2583 -0.6492
 4539TIP3    H113581   4.876   5.862   3.137  1.4753  0.3827 -0.0576
 4539TIP3    H213582   4.856   5.713   3.160 -0.0505  0.7715  1.3546
 4540TIP3   OH213583   5.163   3.962   0.936 -0.0236  0.7006  0.1593
 4540TIP3    H113584   5.136   3.871   0.923 -0.2306  0.5838  1.2835
 4540TIP3    H213585   5.240   3.957   0.993  0.8758  1.1639 -0.9877
 4541TIP3   OH213586   4.626   4.050   3.821  0.2768  0.6185 -0.0490
 4541TIP3    H113587   4.591   4.081   3.737  0.8035 -0.2529 -0.6079
 4541TIP3    H213588   4.606   3.956   3.822  2.4258  0.1162 -0.3278
 4542TIP3   OH213589   5.769   5.758   1.372  0.3297  0.2097  0.3364
 4542TIP3    H113590   5.720   5.797   1.444  0.1587 -1.3214  1.0803
 4542TIP3    H213591   5.855   5.740   1.409  0.2803 -0.4638  0.1384
 4543TIP3   OH213592   0.137   4.656   1.640  0.2494  0.4720 -0.1449
 4543TIP3    H113593   0.215   4.601   1.628 -0.5855 -0.9888  0.7858
 4543TIP3    H213594   0.109   4.639   1.730 -0.1004  2.4002  0.1504
 4544TIP3   OH213595   7.092   5.711   5.861 -0.1559 -0.2951 -0.2199
 4544TIP3    H113596   7.177   5.755   5.870 -0.0293  0.3039 -3.3869
 4544TIP3    H213597   7.034   5.761   5.919  1.4991 -0.4956  1.7379
 4545TIP3   OH213598   3.157   3.911   5.218 -0.0864  0.4468  0.1753
 4545TIP3    H113599   3.217   3.849   5.176  1.7170  2.0737  0.2003
 4545TIP3    H213600   3.089   3.927   5.152  0.6473  0.1301 -0.6738
 4546TIP3   OH213601   2.965   2.232   2.482 -0.5732  0.2020 -0.1088
 4546TIP3    H113602   2.910   2.292   2.532 -1.4820  0.1491 -0.9967
 4546TIP3    H213603   3.054   2.262   2.496 -0.9634  1.3600 -0.0231
 4547TIP3   OH213604   1.161   5.340   0.244  0.7892 -0.5270 -0.1455
 4547TIP3    H113605   1.115   5.422   0.225 -0.1118 -0.5570  1.6929
 4547TIP3    H213606   1.166   5.295   0.160 -1.8919 -0.1680 -0.5643
 4548TIP3   OH213607   6.867   1.285   5.850 -0.3406  0.4239  0.7570
 4548TIP3    H113608   6.957   1.266   5.823 -1.0763 -1.2487 -0.7416
 4548TIP3    H213609   6.875   1.359   5.910  2.2321 -0.9221  2.2608
 4549TIP3   OH213610   4.013   5.576   1.656 -0.2525 -0.9336  0.2003
 4549TIP3    H113611   4.028   5.629   1.578 -2.4428  0.0950  0.4165
 4549TIP3    H213612   4.051   5.491   1.634  1.0294 -0.0624 -1.1533
 4550TIP3   OH213613   3.559   0.581   2.898 -0.0853 -0.2027  0.5782
 4550TIP3    H113614   3.486   0.638   2.921  0.1637  0.2963  0.1423
 4550TIP3    H213615   3.536   0.546   2.811 -1.5523 -2.9390  1.9204
 4551TIP3   OH213616   6.559   1.407   3.041 -0.7093  0.5335 -0.3454
 4551TIP3    H113617   6.491   1.342   3.029 -2.4325  1.6688  2.2439
 4551TIP3    H213618   6.535   1.479   2.984 -0.5883  0.1797 -0.8466
 4552TIP3   OH213619   3.709   4.132   1.756  0.1421 -0.4858 -0.2819
 4552TIP3    H113620   3.781   4.194   1.751  0.6509 -0.9470  0.8302
 4552TIP3    H213621   3.634   4.183   1.786 -0.0251  0.0062 -1.4958
 4553TIP3   OH213622   6.881   2.202   0.312 -0.6986 -0.2230 -0.0430
 4553TIP3    H113623   6.969   2.240   0.321 -0.4278 -0.8834  0.1820
 4553TIP3    H213624   6.859   2.215   0.220 -1.5041  2.3408  0.4386
 4554TIP3   OH213625   3.843   3.028   2.528  0.2719  0.4235  0.0971
 4554TIP3    H113626   3.861   3.099   2.466  3.3832 -0.4113 -0.1206
 4554TIP3    H213627   3.781   3.065   2.590 -1.2534  2.0044 -2.2111
 4555TIP3   OH213628   3.204   4.646   0.128 -0.3797 -0.0447 -0.0162
 4555TIP3    H113629   3.243   4.702   0.061 -1.1365 -0.2363 -0.6255
 4555TIP3    H213630   3.120   4.687   0.148 -0.6343 -0.5784  0.0320
 4556TIP3   OH213631   7.065   3.300   5.280 -0.0474  0.7058  0.0283
 4556TIP3    H113632   7.092   3.370   5.221  2.1965  0.3469  0.5533
 4556TIP3    H213633   7.091   3.219   5.235 -1.1439  0.2671  0.1511
 4557TIP3   OH213634   1.884   5.879   3.887  0.0151 -0.0975  0.5731
 4557TIP3    H113635   1.811   5.834   3.844 -0.3690  0.3027  0.7855
 4557TIP3    H213636   1.910   5.820   3.958 -2.0105  0.9450  2.3395
 4558TIP3   OH213637   6.331   0.138   5.593  0.2716  0.1141  0.0296
 4558TIP3    H113638   6.388   0.204   5.633  2.5949 -1.7114 -0.0552
 4558TIP3    H213639   6.365   0.130   5.503  0.1406 -1.2715  0.0893
 4559TIP3   OH213640   0.999   0.392   4.825  0.2184 -0.0717 -0.2034
 4559TIP3    H113641   0.905   0.401   4.844  0.5426  1.8702  0.7219
 4559TIP3    H213642   1.023   0.307   4.863 -0.9574 -0.1236  0.4641
 4560TIP3   OH213643   4.155   1.063   4.712 -0.0353 -0.0851  0.5097
 4560TIP3    H113644   4.209   1.119   4.657 -0.4318 -0.3054 -0.1068
 4560TIP3    H213645   4.204   1.056   4.794  0.3789  0.5455  0.3254
 4561TIP3   OH213646   6.987   6.324   5.328  0.1905 -0.1168 -0.1343
 4561TIP3    H113647   6.970   6.337   5.422 -0.8392 -1.4318 -0.1007
 4561TIP3    H213648   6.920   6.377   5.285  0.1146 -0.1873 -0.1039
 4562TIP3   OH213649   1.240   3.376   3.907  0.5131 -0.4459  0.6229
 4562TIP3    H113650   1.297   3.302   3.926  0.7351 -0.4231  0.0570
 4562TIP3    H213651   1.162   3.337   3.867  0.3009 -0.4433  1.0354
 4563TIP3   OH213652   2.676   4.727   4.317  0.3252  0.3589  0.2259
 4563TIP3    H113653   2.642   4.815   4.301  0.2168  0.1105 -0.9714
 4563TIP3    H213654   2.598   4.671   4.314  0.6943 -0.1191 -1.8136
 4564TIP3   OH213655   0.143   6.516   1.270  0.6951  0.2308  0.3301
 4564TIP3    H113656   0.157   6.512   1.365 -0.3984  0.3867  0.5020
 4564TIP3    H213657   0.168   6.605   1.246  3.2321 -0.4632  0.0694
 4565TIP3   OH213658   2.764   6.794   0.019 -0.2624  0.4610 -0.3505
 4565TIP3    H113659   2.771   6.699   0.027 -1.1109  0.5122  1.4650
 4565TIP3    H213660   2.842   6.820  -0.031  1.2914 -0.9581  1.2157
 4566TIP3   OH213661   5.503   4.844   4.103 -0.0288 -0.2080 -0.0896
 4566TIP3    H113662   5.473   4.791   4.177 -1.3087  0.0759 -0.3941
 4566TIP3    H213663   5.595   4.862   4.123 -0.4526  0.2225  1.6481
 4567TIP3   OH213664   2.390   4.226   1.694  0.5637  0.3564  0.2782
 4567TIP3    H113665   2.433   4.172   1.761  3.9780 -0.4193 -2.2837
 4567TIP3    H213666   2.336   4.164   1.644  1.3860  0.0782 -0.2714
 4568TIP3   OH213667   2.996   2.327   3.831 -0.2864  0.4908 -0.0772
 4568TIP3    H113668   3.089   2.306   3.817 -0.8171 -1.2631 -1.3672
 4568TIP3    H213669   2.980   2.306   3.923  0.6819  1.2418  0.2812
 4569TIP3   OH213670   1.877   6.532   3.824 -0.0210 -0.3330 -0.2209
 4569TIP3    H113671   1.887   6.502   3.914  0.6807 -0.8864 -0.4761
 4569TIP3    H213672   1.847   6.623   3.832  1.4087  0.1025  0.5950
 4570TIP3   OH213673   0.616   1.610   3.032  0.3570 -0.0796 -0.2702
 4570TIP3    H113674   0.527   1.626   3.065  0.7277  1.2512  0.1427
 4570TIP3    H213675   0.673   1.657   3.093  1.3926 -1.2255 -0.3075
 4571TIP3   OH213676   6.341   6.060   3.677 -0.2707 -0.7617 -0.3779
 4571TIP3    H113677   6.251   6.028   3.676 -0.5487  0.0134 -0.3811
 4571TIP3    H213678   6.342   6.133   3.615  0.4007 -0.8684 -0.5070
 4572TIP3   OH213679   6.310   4.546   4.522 -0.3064 -1.0032  0.4929
 4572TIP3    H113680   6.376   4.514   4.584  0.2092  1.1857  1.1671
 4572TIP3    H213681   6.356   4.553   4.439 -0.0153 -0.6218  0.6841
 4573TIP3   OH213682   3.402   0.104   3.333 -0.1537  0.7138 -0.7265
 4573TIP3    H113683   3.318   0.098   3.287 -0.4521 -0.1358 -0.0951
 4573TIP3    H213684   3.407   0.023   3.385  0.7360  1.0792 -0.2203
 4574TIP3   OH213685   4.199   0.945   5.406  0.2861 -0.5670  0.9689
 4574TIP3    H113686   4.135   0.980   5.344  1.1400 -0.0791  0.3326
 4574TIP3    H213687   4.179   0.989   5.489  0.4022  0.3411  0.5353
 4575TIP3   OH213688   7.220   5.545   5.273 -0.1824 -0.1938 -0.4277
 4575TIP3    H113689   7.132   5.522   5.243 -0.0674 -1.3748  0.1044
 4575TIP3    H213690   7.264   5.461   5.286  0.9755  0.3749 -0.5116
 4576TIP3   OH213691   0.377   5.737   2.053 -0.3193  0.3835  0.1197
 4576TIP3    H113692   0.330   5.803   2.003 -0.0208 -0.6941 -1.6627
 4576TIP3    H213693   0.308   5.681   2.089 -0.5309 -0.9209 -2.1077
 4577TIP3   OH213694   3.639   6.783   1.433 -0.2907 -0.0806 -0.2962
 4577TIP3    H113695   3.649   6.724   1.508 -0.1333 -1.3325 -1.2733
 4577TIP3    H213696   3.700   6.854   1.450 -2.8959  1.7421  2.6566
 4578TIP3   OH213697   3.615   6.337   4.610 -0.0861  0.0097  0.4806
 4578TIP3    H113698   3.535   6.313   4.563  0.0287 -0.2913  0.4338
 4578TIP3    H213699   3.612   6.284   4.690  1.4108 -2.1250 -0.7713
 4579TIP3   OH213700   1.437   3.106   2.444  0.1236  0.6192  0.1828
 4579TIP3    H113701   1.474   3.046   2.510 -1.9276 -0.4187  0.4582
 4579TIP3    H213702   1.394   3.174   2.495  0.4361  1.0544 -0.1253
 4580TIP3   OH213703   0.481   6.568   0.458 -0.8473 -0.3461  0.2389
 4580TIP3    H113704   0.520   6.655   0.470 -0.5219 -0.4422 -0.1146
 4580TIP3    H213705   0.409   6.582   0.396  1.7202 -0.9654 -3.1429
 4581TIP3   OH213706   2.025   0.085   4.729 -0.0610 -0.5335 -0.3042
 4581TIP3    H113707   2.082   0.065   4.803 -0.1779  0.9814  0.2336
 4581TIP3    H213708   2.009   0.001   4.687  2.0505 -1.0896 -0.0976
 4582TIP3   OH213709   4.091   2.591   2.330 -0.4326 -0.1170  0.0269
 4582TIP3    H113710   4.038   2.644   2.389 -0.0163  0.7958 -0.3975
 4582TIP3    H213711   4.033   2.572   2.256 -0.3280  0.4826 -0.2171
 4583TIP3   OH213712   4.394   5.954   3.010 -0.0009  0.3889 -0.3063
 4583TIP3    H113713   4.384   6.047   2.990  0.0672  0.3507 -0.5271
 4583TIP3    H213714   4.308   5.916   2.992 -0.0589  0.4269 -0.1115
 4584TIP3   OH213715   5.135   0.712   4.263  0.0769  0.1150  0.2725
 4584TIP3    H113716   5.191   0.635   4.260 -0.8357 -0.5874  0.5703
 4584TIP3    H213717   5.159   0.757   4.343 -0.6240 -0.8627  1.0583
 4585TIP3   OH213718   0.461   0.415   5.515  0.0401 -0.2142  0.1969
 4585TIP3    H113719   0.522   0.427   5.588  1.1071 -1.6464 -0.3960
 4585TIP3    H213720   0.518   0.405   5.439 -1.0646  1.9031 -0.9688
 4586TIP3   OH213721   2.911   3.805   0.066 -0.1860 -0.2001  0.5190
 4586TIP3    H113722   2.871   3.835   0.148  0.6904 -0.2653  0.9845
 4586TIP3    H213723   2.982   3.867   0.049  0.4672 -0.9308  0.5097
 4587TIP3   OH213724   1.157   0.509   1.053 -0.3768 -0.2588  0.0972
 4587TIP3    H113725   1.081   0.480   1.102  0.5963  1.2318  2.7074
 4587TIP3    H213726   1.131   0.594   1.017  0.1572  0.4673  1.3798
 4588TIP3   OH213727   4.882   0.567   4.239  0.0241 -0.3130 -0.5476
 4588TIP3    H113728   4.955   0.621   4.267  0.5595 -0.6237 -1.3155
 4588TIP3    H213729   4.808   0.595   4.294  0.9954 -0.8081  1.0713
 4589TIP3   OH213730   6.094   6.238   2.735 -0.1022 -0.5638 -0.6919
 4589TIP3    H113731   6.054   6.324   2.743 -0.8735 -0.9315 -0.4768
 4589TIP3    H213732   6.161   6.236   2.803  0.2897  0.0581 -1.0490
 4590TIP3   OH213733   3.871   4.441   3.800 -0.4529  0.8141 -0.8686
 4590TIP3    H113734   3.950   4.487   3.772  1.5610 -1.0966  1.2248
 4590TIP3    H213735   3.878   4.354   3.761 -0.7940  0.1846  0.4155
 4591TIP3   OH213736   6.065   3.696   5.858 -0.5285  0.4752  0.4996
 4591TIP3    H113737   5.975   3.665   5.874 -0.5872  0.3768 -0.0004
 4591TIP3    H213738   6.079   3.680   5.765 -0.3185  1.3557  0.3750
 4592TIP3   OH213739   4.714   2.020   0.987  0.1279  0.1252 -0.6048
 4592TIP3    H113740   4.692   1.963   1.061 -0.9320 -0.1032 -1.0667
 4592TIP3    H213741   4.756   2.096   1.027 -1.3699  0.4929  0.3659
 4593TIP3   OH213742   1.110   3.166   1.365 -0.3460  0.1317  0.0355
 4593TIP3    H113743   1.198   3.127   1.365 -0.3212  0.1223  1.6118
 4593TIP3    H213744   1.051   3.093   1.349 -0.1367 -0.0411  0.0538
 4594TIP3   OH213745   4.216   1.321   4.492 -0.2987 -0.2254  0.1628
 4594TIP3    H113746   4.246   1.389   4.553 -2.0734  2.6384 -1.9179
 4594TIP3    H213747   4.295   1.272   4.470  1.1496  1.3781  1.4826
 4595TIP3   OH213748   6.329   4.932   1.844  0.1234  0.5646 -0.1959
 4595TIP3    H113749   6.357   4.855   1.895  0.2819  0.1623 -0.8699
 4595TIP3    H213750   6.411   4.973   1.817  0.0560  0.3108 -0.8039
 4596TIP3   OH213751   2.157   4.617   2.301 -0.4535 -0.0371  0.1559
 4596TIP3    H113752   2.154   4.635   2.395 -1.6027  1.1139 -0.0697
 4596TIP3    H213753   2.065   4.599   2.279 -0.2396  0.0508 -0.8060
 4597TIP3   OH213754   4.524   3.951   4.482 -0.5431 -0.2471 -0.4961
 4597TIP3    H113755   4.536   4.042   4.507 -1.2325 -0.0142 -0.9817
 4597TIP3    H213756   4.502   3.954   4.389  1.8144 -1.0645 -1.1829
 4598TIP3   OH213757   6.730   2.304   1.514  0.4099 -0.0729 -0.2827
 4598TIP3    H113758   6.744   2.392   1.548 -0.3993  0.0640 -0.2756
 4598TIP3    H213759   6.817   2.274   1.488  0.5553  1.1799 -1.3856
 4599TIP3   OH213760   0.883   0.344   5.179  0.1274 -0.0780 -0.5144
 4599TIP3    H113761   0.894   0.256   5.215  1.0312 -0.2881 -1.2816
 4599TIP3    H213762   0.971   0.381   5.177 -0.0232  0.2675 -1.6375
 4600TIP3   OH213763   6.057   3.242   2.701  0.3282  0.2898  0.6394
 4600TIP3    H113764   6.004   3.321   2.714  0.3083  0.5351 -0.8172
 4600TIP3    H213765   6.013   3.175   2.753 -0.7514  0.7794  0.3823
 4601TIP3   OH213766   0.365   0.952   4.641  0.2206  0.1013  0.1169
 4601TIP3    H113767   0.393   0.868   4.677  0.5440  0.4443  0.6749
 4601TIP3    H213768   0.405   0.956   4.554 -0.8864 -0.9123 -0.4902
 4602TIP3   OH213769   4.454   6.774   4.152 -0.5065 -0.2003  0.0129
 4602TIP3    H113770   4.536   6.809   4.118 -0.6895  0.6633  0.4437
 4602TIP3    H213771   4.448   6.686   4.114 -0.7949  0.7577 -2.3000
 4603TIP3   OH213772   0.383   6.076   2.099 -0.1867 -0.5731 -0.5244
 4603TIP3    H113773   0.357   6.165   2.122  0.5924 -0.6887  0.9159
 4603TIP3    H213774   0.382   6.075   2.003 -1.8206  0.4745 -0.5497
 4604TIP3   OH213775   5.268   5.684   0.787 -0.1257  0.0471  0.2145
 4604TIP3    H113776   5.194   5.661   0.843  0.3873  0.1711  0.9597
 4604TIP3    H213777   5.320   5.604   0.782 -0.4885 -0.1473 -0.6084
 4605TIP3   OH213778   6.371   0.940   2.946  0.6137  0.6394  0.5239
 4605TIP3    H113779   6.461   0.912   2.930  0.3812  0.9212 -1.5753
 4605TIP3    H213780   6.324   0.919   2.865 -0.7886  2.1830  0.8672
 4606TIP3   OH213781   1.345   4.618   4.981 -0.7014 -0.2635 -0.3336
 4606TIP3    H113782   1.267   4.566   5.001 -1.2160  0.7285  0.2805
 4606TIP3    H213783   1.396   4.562   4.923 -1.8644 -0.9335 -0.7450
 4607TIP3   OH213784   5.679   6.536   4.374 -0.3806 -0.2978 -0.3962
 4607TIP3    H113785   5.621   6.553   4.299  0.7215 -0.0259 -1.2133
 4607TIP3    H213786   5.743   6.473   4.341  0.2277 -0.0459  0.2731
 4608TIP3   OH213787   2.483   3.138   3.159  0.2629  0.3196  0.3688
 4608TIP3    H113788   2.483   3.127   3.064  1.5095  1.0407  0.2705
 4608TIP3    H213789   2.495   3.050   3.194  1.3692  0.2356 -0.1911
 4609TIP3   OH213790   1.982   6.370   1.694 -0.2337 -0.2567 -0.1062
 4609TIP3    H113791   1.998   6.324   1.612  0.0509  0.5374 -0.5132
 4609TIP3    H213792   1.900   6.416   1.679  0.0515  0.2613 -0.1335
 4610TIP3   OH213793   5.389   5.343   2.320  0.5244 -0.6155  0.3781
 4610TIP3    H113794   5.388   5.286   2.397 -2.7006 -3.4138 -1.4360
 4610TIP3    H213795   5.453   5.302   2.261  0.6042 -0.3763  0.2954
 4611TIP3   OH213796   5.681   2.807   1.110  0.3316 -0.1462  0.4558
 4611TIP3    H113797   5.743   2.735   1.096  1.2720  0.9151 -1.0190
 4611TIP3    H213798   5.696   2.867   1.038  1.4064  2.8779  2.9566
 4612TIP3   OH213799   4.017   2.947   0.997  0.1957 -0.0083 -0.1470
 4612TIP3    H113800   4.043   2.912   0.912 -0.7988 -2.8351  0.5637
 4612TIP3    H213801   3.933   2.990   0.980  0.4398  0.2554 -0.7273
 4613TIP3   OH213802   2.183   0.926   3.011  0.2735 -0.3975  0.1034
 4613TIP3    H113803   2.167   0.938   3.105  5.1778  1.4249  0.9641
 4613TIP3    H213804   2.098   0.899   2.976 -2.1959  0.3474  4.7461
 4614TIP3   OH213805   2.944   1.768   0.222  0.6106 -0.1632  0.0195
 4614TIP3    H113806   2.906   1.808   0.144  1.7776 -0.2750 -0.6321
 4614TIP3    H213807   2.924   1.828   0.293 -0.7807 -0.2321 -0.2857
 4615TIP3   OH213808   6.882   4.350   0.826  0.0933 -0.1928 -0.2031
 4615TIP3    H113809   6.918   4.273   0.783 -0.1268 -0.2037 -0.3721
 4615TIP3    H213810   6.799   4.320   0.863  0.2436 -0.1638  0.1620
 4616TIP3   OH213811   2.259   0.176   4.089 -0.0936 -0.1678  0.5288
 4616TIP3    H113812   2.351   0.157   4.106 -0.5239 -1.9639  1.0497
 4616TIP3    H213813   2.238   0.248   4.149  0.8105 -0.1351  0.8215
 4617TIP3   OH213814   4.865   2.989   4.121 -0.1637 -0.1441  0.2758
 4617TIP3    H113815   4.902   2.902   4.136  0.6015 -0.1241 -1.3239
 4617TIP3    H213816   4.895   3.013   4.033 -1.4007  1.2073  0.1865
 4618TIP3   OH213817   0.511   2.997   3.480  0.1438 -0.0179 -0.1794
 4618TIP3    H113818   0.453   2.974   3.409  0.3991 -0.8274 -0.1326
 4618TIP3    H213819   0.453   3.025   3.551 -0.2681 -1.8909  0.2629
 4619TIP3   OH213820   1.683   4.037   3.437  0.1831  0.1318  0.2258
 4619TIP3    H113821   1.652   4.035   3.528  0.9858  1.1963  0.5476
 4619TIP3    H213822   1.628   4.103   3.395  1.5296  1.6278  0.6626
 4620TIP3   OH213823   2.783   4.999   2.054 -0.7317  0.0711  0.3213
 4620TIP3    H113824   2.820   5.086   2.038 -0.6693 -0.0579 -0.2931
 4620TIP3    H213825   2.822   4.944   1.985 -0.4347 -0.5421  0.9675
 4621TIP3   OH213826   1.151   1.591   2.450 -0.0415 -0.3835 -0.0517
 4621TIP3    H113827   1.238   1.631   2.460 -0.5375  0.8319 -0.3562
 4621TIP3    H213828   1.103   1.620   2.528 -0.8884  0.9684 -1.0199
 4622TIP3   OH213829   1.306   1.281   4.911 -0.6204  0.1070 -0.4699
 4622TIP3    H113830   1.302   1.376   4.923 -2.1789  0.0053 -0.0111
 4622TIP3    H213831   1.272   1.246   4.994  1.0210 -0.8868 -0.1836
 4623TIP3   OH213832   7.052   5.778   3.205  0.2029 -0.4572 -0.0567
 4623TIP3    H113833   6.958   5.771   3.221  0.2731 -0.9637  0.1487
 4623TIP3    H213834   7.064   5.869   3.175 -0.3409 -0.3768 -0.0522
 4624TIP3   OH213835   3.506   3.614   2.989  0.1229 -0.2044 -0.1050
 4624TIP3    H113836   3.488   3.524   3.016 -0.1209 -0.6083 -1.5131
 4624TIP3    H213837   3.520   3.662   3.070 -1.1212 -1.2267  0.7408
 4625TIP3   OH213838   0.548   1.699   1.050  0.1931  0.3337 -0.2050
 4625TIP3    H113839   0.601   1.672   1.126  1.3308  3.1033  0.0905
 4625TIP3    H213840   0.508   1.618   1.020  0.8810 -1.1238  2.4475
 4626TIP3   OH213841   0.610   2.748   2.354 -0.5732  0.1252  0.1534
 4626TIP3    H113842   0.533   2.744   2.410  1.2854 -0.4563  2.8468
 4626TIP3    H213843   0.610   2.837   2.319 -2.8868 -0.1241 -0.6953
 4627TIP3   OH213844   0.107   1.463   0.780 -0.1901 -0.0008 -0.0833
 4627TIP3    H113845   0.203   1.462   0.785  0.0990  0.0153 -3.4939
 4627TIP3    H213846   0.087   1.532   0.717 -2.5666  0.5325  1.1160
 4628TIP3   OH213847   5.151   2.825   0.550  0.0704 -0.4088 -0.0532
 4628TIP3    H113848   5.073   2.798   0.598  0.4038 -1.2474  0.0383
 4628TIP3    H213849   5.119   2.883   0.481 -0.3738  1.2068  1.4354
 4629TIP3   OH213850   3.350   3.979   1.073  0.1756 -0.1271  0.1209
 4629TIP3    H113851   3.440   3.974   1.105  0.2444 -0.3741 -0.1066
 4629TIP3    H213852   3.318   4.064   1.103 -0.3125 -1.0123  2.3020
 4630TIP3   OH213853   5.828   1.080   2.627 -0.0794  0.7333  0.4042
 4630TIP3    H113854   5.744   1.034   2.621 -0.5450  1.3221  1.8013
 4630TIP3    H213855   5.809   1.169   2.595  0.2582  0.5872 -0.2028
 4631TIP3   OH213856   7.057   1.429   0.922  0.3777  0.6186  0.2259
 4631TIP3    H113857   7.153   1.431   0.918  0.4542 -0.8539  0.6201
 4631TIP3    H213858   7.036   1.338   0.943 -1.0799  1.1079  1.0196
 4632TIP3   OH213859   5.681   2.126   2.921 -0.9195  0.4789  0.1016
 4632TIP3    H113860   5.735   2.180   2.863 -0.2116 -0.6209 -0.3018
 4632TIP3    H213861   5.597   2.118   2.875 -0.5781  0.1454 -0.4763
 4633TIP3   OH213862   0.106   0.815   0.257  0.2278 -0.4149 -0.0143
 4633TIP3    H113863   0.025   0.827   0.306  0.7459  1.0596  0.5465
 4633TIP3    H213864   0.126   0.722   0.266 -1.7856 -0.9655 -0.8224
 4634TIP3   OH213865   7.035   5.577   4.001 -0.1752  0.1840  0.4634
 4634TIP3    H113866   7.080   5.662   4.005 -1.7886  1.0899 -0.0536
 4634TIP3    H213867   6.996   5.575   3.914 -0.8566 -0.7267  0.7814
 4635TIP3   OH213868   4.809   0.491   3.980  0.1310  0.5907  0.3125
 4635TIP3    H113869   4.877   0.494   3.913 -0.8657  1.2907 -0.6892
 4635TIP3    H213870   4.853   0.522   4.060  0.5959  2.6321 -0.6774
 4636TIP3   OH213871   1.958   3.224   3.166 -0.1465 -0.6730 -0.2838
 4636TIP3    H113872   2.020   3.188   3.102  0.3837 -1.5594  0.6980
 4636TIP3    H213873   1.940   3.151   3.225 -0.2177  0.2766  0.8966
 4637TIP3   OH213874   2.469   1.131   1.270  0.2763  0.2129  0.0279
 4637TIP3    H113875   2.387   1.119   1.222  0.5989 -0.0095 -0.4731
 4637TIP3    H213876   2.524   1.183   1.211  0.4452  0.4781  0.4186
 4638TIP3   OH213877   7.008   4.518   4.537  0.5138 -0.3887 -0.4874
 4638TIP3    H113878   7.098   4.494   4.557  0.6785  0.0068 -0.7391
 4638TIP3    H213879   6.967   4.531   4.622  0.6147 -0.8578 -0.3650
 4639TIP3   OH213880   0.320   4.360   3.992  0.4903 -0.0421  0.5895
 4639TIP3    H113881   0.267   4.299   3.940  0.5234 -1.0210  1.6706
 4639TIP3    H213882   0.256   4.419   4.031  0.5134  1.2013 -1.1228
 4640TIP3   OH213883   0.962   5.226   3.600  0.2191  0.0897  0.2163
 4640TIP3    H113884   0.953   5.140   3.558 -0.2251  0.7356 -1.0754
 4640TIP3    H213885   1.056   5.240   3.607  0.3028 -0.1002 -0.4489
 4641TIP3   OH213886   6.391   3.913   4.478 -0.2665 -0.8290 -0.0759
 4641TIP3    H113887   6.477   3.879   4.503 -0.3251 -0.7529  0.2239
 4641TIP3    H213888   6.409   4.001   4.444 -0.2848 -0.6158  0.4568
 4642TIP3   OH213889   4.377   4.681   5.092 -0.5299  0.6599 -0.1146
 4642TIP3    H113890   4.454   4.653   5.043 -1.8138 -1.4817 -1.0712
 4642TIP3    H213891   4.387   4.641   5.178 -0.1566  1.1645  0.0838
 4643TIP3   OH213892   1.457   2.571   4.273  0.3330 -0.1249  0.1204
 4643TIP3    H113893   1.548   2.601   4.265  0.6543 -1.1960 -0.3370
 4643TIP3    H213894   1.445   2.558   4.367  0.7183 -0.1583  0.1679
 4644TIP3   OH213895   0.348   0.437   1.013 -0.0794  0.8902 -0.6315
 4644TIP3    H113896   0.253   0.448   1.008 -0.4825 -2.0534 -0.7078
 4644TIP3    H213897   0.376   0.434   0.921  0.1724  1.9597 -0.6114
 4645TIP3   OH213898   3.863   4.472   4.317  0.1687  0.4044 -0.0786
 4645TIP3    H113899   3.825   4.522   4.245 -1.7051  0.4447  0.8672
 4645TIP3    H213900   3.821   4.386   4.311  0.5934  0.1469  0.5057
 4646TIP3   OH213901   5.426   5.024   0.184  0.0619  0.1916  0.8394
 4646TIP3    H113902   5.455   5.115   0.190  0.8039 -0.0112  0.4582
 4646TIP3    H213903   5.399   5.013   0.093  1.2676 -0.3284  0.5230
 4647TIP3   OH213904   6.996   1.325   0.630 -0.3052  0.0100  0.0588
 4647TIP3    H113905   6.964   1.366   0.710 -1.2369  0.8623 -0.7273
 4647TIP3    H213906   7.009   1.233   0.654 -0.5979  0.2419  1.1757
 4648TIP3   OH213907   1.546   6.625   1.836 -0.4971 -0.4004 -0.2684
 4648TIP3    H113908   1.470   6.680   1.816  0.4198  0.3482 -1.9279
 4648TIP3    H213909   1.591   6.671   1.907 -1.4132 -0.6978  0.5286
 4649TIP3   OH213910   5.078   6.183   4.261 -0.0531 -0.4787 -0.1394
 4649TIP3    H113911   5.076   6.130   4.341 -0.7424  2.9800  2.3600
 4649TIP3    H213912   4.987   6.186   4.232 -0.1898  0.2031  0.3547
 4650TIP3   OH213913   1.309   3.152   0.520  0.0420 -0.3430  0.3084
 4650TIP3    H113914   1.357   3.215   0.573  1.0246 -0.7990 -0.0119
 4650TIP3    H213915   1.354   3.068   0.534  1.6109 -0.1552 -2.6480
 4651TIP3   OH213916   6.470   4.453   2.393  0.1173 -0.3460  0.1678
 4651TIP3    H113917   6.394   4.501   2.359  1.1840  1.6557  0.4448
 4651TIP3    H213918   6.493   4.392   2.323 -0.5193  0.4680 -0.7737
 4652TIP3   OH213919   6.488   2.955   5.504 -0.5433 -0.1268 -0.4302
 4652TIP3    H113920   6.571   2.909   5.492 -1.2921 -1.4690 -0.6306
 4652TIP3    H213921   6.509   3.047   5.488  0.9775 -0.3855 -0.1022
 4653TIP3   OH213922   5.696   2.813   3.268  0.2854  0.4518 -0.2047
 4653TIP3    H113923   5.760   2.876   3.236  0.4125  0.4229 -0.0057
 4653TIP3    H213924   5.620   2.825   3.210  0.6045  0.2268 -0.6709
 4654TIP3   OH213925   1.260   4.088   2.466  0.3128  0.2878 -0.0638
 4654TIP3    H113926   1.170   4.115   2.481  0.8516  2.5058 -0.4848
 4654TIP3    H213927   1.295   4.071   2.554 -1.0058 -2.6768  0.0274
 4655TIP3   OH213928   4.337   5.554   3.159 -0.8836 -0.7211  0.3756
 4655TIP3    H113929   4.319   5.632   3.106 -0.2081 -1.6602 -1.3008
 4655TIP3    H213930   4.424   5.526   3.131 -1.5376 -2.6743  0.1434
 4656TIP3   OH213931   3.704   4.021   5.190  0.7226 -0.1204  0.2104
 4656TIP3    H113932   3.618   4.057   5.169 -0.2140 -2.0994  0.4311
 4656TIP3    H213933   3.762   4.056   5.122 -0.8805 -1.1208 -1.7909
 4657TIP3   OH213934   1.156   4.187   5.319  0.0842  0.1023  0.0344
 4657TIP3    H113935   1.214   4.256   5.351 -0.0922  0.6565 -0.8071
 4657TIP3    H213936   1.069   4.227   5.317  0.0556  0.0271 -0.9096
 4658TIP3   OH213937   5.330   4.182   4.897 -0.3135 -0.1140  0.2160
 4658TIP3    H113938   5.310   4.272   4.925 -1.9507 -0.4243  0.1573
 4658TIP3    H213939   5.419   4.188   4.861 -1.0938  1.9508 -1.6646
 4659TIP3   OH213940   6.616   2.730   5.709  0.3065 -0.3056 -0.0706
 4659TIP3    H113941   6.670   2.759   5.783 -0.3524 -2.3408  1.2869
 4659TIP3    H213942   6.649   2.780   5.634  0.4626  2.4885  1.7008
 4660TIP3   OH213943   6.039   6.138   4.257 -0.0563 -0.2589  0.4854
 4660TIP3    H113944   6.037   6.231   4.236  1.2036  0.5529  3.4021
 4660TIP3    H213945   6.105   6.101   4.198  0.8497  1.1131  0.6009
 4661TIP3   OH213946   3.021   4.197   5.429  0.3387 -0.3234  0.2308
 4661TIP3    H113947   3.016   4.223   5.521  1.0372 -1.2815  0.5482
 4661TIP3    H213948   3.022   4.280   5.381 -2.2340  0.1840  0.9297
 4662TIP3   OH213949   3.273   3.985   2.572 -0.0437 -0.1504 -0.0078
 4662TIP3    H113950   3.304   4.075   2.576  0.1945 -0.2460  0.4095
 4662TIP3    H213951   3.285   3.959   2.481  1.0014 -0.1463  0.1163
 4663TIP3   OH213952   1.246   1.193   4.625 -0.3184 -0.2336 -0.0395
 4663TIP3    H113953   1.205   1.234   4.701 -1.8504 -0.4011 -0.7564
 4663TIP3    H213954   1.252   1.100   4.648  1.2863  0.0139  0.7465
 4664TIP3   OH213955   4.801   3.554   1.797  0.0363 -0.2217 -0.0571
 4664TIP3    H113956   4.826   3.479   1.742  1.4412 -0.7177  1.1928
 4664TIP3    H213957   4.720   3.526   1.840  1.9157 -2.2301  2.4654
 4665TIP3   OH213958   1.341   0.363   2.439 -0.0389  0.1932 -0.4026
 4665TIP3    H113959   1.434   0.371   2.422  0.1313  0.9841  0.7555
 4665TIP3    H213960   1.299   0.406   2.365  0.5692  1.0167 -0.2872
 4666TIP3   OH213961   5.085   0.184   1.853 -0.2083  0.8937  0.0006
 4666TIP3    H113962   5.030   0.178   1.775  0.7986 -0.7775 -0.6511
 4666TIP3    H213963   5.023   0.180   1.926 -1.0839  1.1395 -0.7110
 4667TIP3   OH213964   3.051   1.088   2.399  0.0488  0.2732 -0.0406
 4667TIP3    H113965   3.014   1.043   2.322 -0.0979 -1.4649  0.9886
 4667TIP3    H213966   3.132   1.039   2.417 -0.4473 -0.0246  1.5121
 4668TIP3   OH213967   5.969   6.138   1.294  0.1062 -0.0231 -0.4859
 4668TIP3    H113968   6.022   6.059   1.290  2.0052  1.1619  0.0545
 4668TIP3    H213969   5.947   6.157   1.202 -0.1929 -1.0339 -0.6354
 4669TIP3   OH213970   4.723   0.412   4.767 -0.1430  0.1136 -0.1761
 4669TIP3    H113971   4.713   0.506   4.778  2.2499  0.3806  0.2687
 4669TIP3    H213972   4.698   0.395   4.676 -2.2260  0.8615  0.2068
 4670TIP3   OH213973   5.144   6.298   0.745  0.7066 -0.3933  0.4133
 4670TIP3    H113974   5.165   6.389   0.767  0.6745 -0.1110 -0.6543
 4670TIP3    H213975   5.181   6.246   0.817  2.3517  0.3154  0.1124
 4671TIP3   OH213976   1.151   3.708   1.175  0.2645 -0.4952  0.2499
 4671TIP3    H113977   1.154   3.613   1.178 -1.3647 -0.5629  0.9153
 4671TIP3    H213978   1.105   3.733   1.256  0.2942  0.8266 -0.1185
 4672TIP3   OH213979   0.403   3.937   5.522 -0.0995  0.1423  0.2761
 4672TIP3    H113980   0.368   3.882   5.451  1.0441  0.2409 -0.3764
 4672TIP3    H213981   0.470   3.991   5.480 -0.5415  1.3788  1.1096
 4673TIP3   OH213982   1.626   5.950   5.818  0.2755 -0.0523  0.2089
 4673TIP3    H113983   1.556   6.013   5.836  0.1947  0.3336 -1.3339
 4673TIP3    H213984   1.704   5.988   5.859  0.5404  1.7952 -1.8696
 4674TIP3   OH213985   2.701   4.394   1.082  0.2994 -0.0587 -0.6314
 4674TIP3    H113986   2.721   4.478   1.042  1.8283 -0.7070 -1.3399
 4674TIP3    H213987   2.741   4.398   1.169 -0.2963  0.2091 -0.3636
 4675TIP3   OH213988   6.606   4.010   2.258  0.2345 -0.1885  0.3630
 4675TIP3    H113989   6.643   4.006   2.346  0.0276 -0.6173  0.4341
 4675TIP3    H213990   6.511   4.007   2.272  0.1929  0.0958  0.1460
 4676TIP3   OH213991   4.993   4.095   3.377  0.3259  0.3385 -0.3852
 4676TIP3    H113992   5.013   4.017   3.324  0.4879  0.4577 -0.4995
 4676TIP3    H213993   4.917   4.069   3.430  0.3074  0.1411 -0.5070
 4677TIP3   OH213994   6.873   4.154   2.898  0.2707  0.5717 -0.0304
 4677TIP3    H113995   6.784   4.136   2.929  0.2963  0.5900  0.0553
 4677TIP3    H213996   6.873   4.124   2.807 -0.0599  1.2990 -0.2802
 4678TIP3   OH213997   3.325   0.701   1.865  0.3626 -0.2853  0.3404
 4678TIP3    H113998   3.288   0.789   1.854  0.8117 -0.1225  0.1344
 4678TIP3    H213999   3.300   0.654   1.785 -0.5222 -0.5823  0.7758
 4679TIP3   OH214000   4.739   3.964   0.444  0.7488 -0.0801  0.2373
 4679TIP3    H114001   4.785   3.882   0.426  0.8587  0.1493 -0.5975
 4679TIP3    H214002   4.663   3.962   0.386  0.2454 -0.0031  0.8859
 4680TIP3   OH214003   5.424   5.808   3.223 -0.2353 -0.0606  0.2460
 4680TIP3    H114004   5.336   5.846   3.221  0.8229  2.5792 -0.7815
 4680TIP3    H214005   5.466   5.848   3.300  0.0156 -1.5182  0.8972
 4681TIP3   OH214006   3.873   0.229   1.955  0.6159 -0.0204  0.3208
 4681TIP3    H114007   3.904   0.213   2.045  1.1622  0.4028  0.2166
 4681TIP3    H214008   3.857   0.323   1.952 -0.3853 -0.1794  0.2665
 4682TIP3   OH214009   3.616   3.727   4.308  0.3254  0.2265 -0.1258
 4682TIP3    H114010   3.700   3.739   4.353  1.0205 -1.3716 -0.9026
 4682TIP3    H214011   3.590   3.637   4.329 -0.6562  0.3456 -0.7745
 4683TIP3   OH214012   2.378   2.830   1.629  0.1925 -0.2864 -0.5768
 4683TIP3    H114013   2.394   2.744   1.592  1.6574  0.0680 -0.8148
 4683TIP3    H214014   2.351   2.813   1.719  0.2098 -0.9954 -0.7012
 4684TIP3   OH214015   4.716   2.960   0.496  0.1244  0.3037 -0.1551
 4684TIP3    H114016   4.635   2.946   0.544  1.3293 -0.5280  1.7822
 4684TIP3    H214017   4.748   3.045   0.525  0.6968 -0.0567  0.3076
 4685TIP3   OH214018   5.142   0.262   3.190  0.0695  0.0054 -0.5241
 4685TIP3    H114019   5.212   0.227   3.244  0.5459  0.8736 -0.5583
 4685TIP3    H214020   5.105   0.186   3.144 -1.7006 -1.1481  2.5049
 4686TIP3   OH214021   2.525   4.660   1.315 -0.0857  0.2258 -0.4140
 4686TIP3    H114022   2.474   4.711   1.378 -1.2220  0.6261 -1.6016
 4686TIP3    H214023   2.544   4.721   1.244  0.1970 -0.4878 -0.9671
 4687TIP3   OH214024   2.618   6.117   0.656 -0.5055 -0.0087  0.1889
 4687TIP3    H114025   2.604   6.140   0.564 -0.9596  1.5525  0.6301
 4687TIP3    H214026   2.661   6.193   0.694 -0.4318 -0.5895  1.3171
 4688TIP3   OH214027   2.073   6.202   3.989 -0.4744  0.0574  0.1050
 4688TIP3    H114028   1.980   6.193   3.970 -0.2043  0.4780 -1.5961
 4688TIP3    H214029   2.077   6.261   4.064 -1.5494  1.0085 -0.5501
 4689TIP3   OH214030   5.362   4.480   0.242  0.2864  0.0910  0.5722
 4689TIP3    H114031   5.388   4.454   0.331 -1.4983 -2.6956  0.4144
 4689TIP3    H214032   5.442   4.469   0.190  0.3181 -2.9136  1.0618
 4690TIP3   OH214033   2.074   2.769   5.103 -0.2530 -0.3575  0.1499
 4690TIP3    H114034   2.161   2.756   5.138  0.1240  0.2886 -0.5105
 4690TIP3    H214035   2.087   2.784   5.009 -0.9171  1.1753  0.2555
 4691TIP3   OH214036   0.556   1.581   3.665 -0.7646  0.0277 -0.4934
 4691TIP3    H114037   0.564   1.489   3.640 -1.5591 -0.1952  0.0548
 4691TIP3    H214038   0.479   1.584   3.722  1.5588  0.3010  2.9167
 4692TIP3   OH214039   6.043   3.490   2.329  0.3072 -0.1997 -0.2377
 4692TIP3    H114040   6.139   3.488   2.331  0.2790 -0.5985  0.6597
 4692TIP3    H214041   6.016   3.400   2.347 -0.2089 -1.6336 -5.9533
 4693TIP3   OH214042   0.518   4.084   1.772 -0.8757 -0.1908 -0.1556
 4693TIP3    H114043   0.611   4.079   1.751 -0.7563 -1.9323  0.6287
 4693TIP3    H214044   0.489   4.167   1.735  0.2888 -1.0304 -3.2474
 4694TIP3   OH214045   6.952   6.372   0.094 -0.0159 -0.7157  0.5089
 4694TIP3    H114046   6.952   6.466   0.112  0.7332  0.0322 -2.7358
 4694TIP3    H214047   7.005   6.334   0.165  1.0832  1.5247  0.9851
 4695TIP3   OH214048   2.767   3.767   5.249  0.1783 -0.2971 -0.5104
 4695TIP3    H114049   2.828   3.829   5.209  0.5391  0.2579  0.8256
 4695TIP3    H214050   2.690   3.819   5.270 -0.1830 -0.6768 -0.8743
 4696TIP3   OH214051   5.167   1.023   0.158 -0.6195 -0.2196 -0.5003
 4696TIP3    H114052   5.079   1.056   0.177  0.0387  1.6758 -0.4888
 4696TIP3    H214053   5.166   0.933   0.190 -2.1140  0.2189  0.8705
 4697TIP3   OH214054   5.806   4.422   3.674  0.2316 -0.1777  0.1005
 4697TIP3    H114055   5.836   4.369   3.748  1.7645  2.6844  1.7361
 4697TIP3    H214056   5.887   4.449   3.630 -0.4951  0.4768 -0.8642
 4698TIP3   OH214057   0.061   3.092   1.567  0.1635 -0.5603 -0.2912
 4698TIP3    H114058   0.042   3.185   1.551  1.1292 -0.3769 -0.4628
 4698TIP3    H214059  -0.025   3.052   1.581 -0.2012  0.6001  1.1026
 4699TIP3   OH214060   6.096   2.968   0.308 -0.5050 -0.1023  0.0714
 4699TIP3    H114061   6.002   2.982   0.297 -0.4662 -0.4658 -0.7772
 4699TIP3    H214062   6.135   3.053   0.289 -0.6420 -0.0155  0.1751
 4700TIP3   OH214063   3.078   0.895   3.106 -0.7111  0.3318 -0.0440
 4700TIP3    H114064   3.111   0.815   3.066  0.1103  1.6743 -2.2373
 4700TIP3    H214065   2.998   0.916   3.057 -1.4155  0.4118  1.1016
 4701TIP3   OH214066   3.654   5.803   4.409 -0.3720  0.3324 -0.2899
 4701TIP3    H114067   3.721   5.811   4.476  0.2057 -0.3519 -0.7727
 4701TIP3    H214068   3.699   5.822   4.327 -0.9348  0.5889 -0.5453
 4702TIP3   OH214069   0.564   1.989   3.116 -0.1673 -0.0163  0.2342
 4702TIP3    H114070   0.489   1.943   3.077  0.3798  0.4086 -1.4119
 4702TIP3    H214071   0.619   1.920   3.152 -0.5641 -0.4546  0.0181
 4703TIP3   OH214072   0.850   2.455   0.160  0.0383  0.0777 -0.2839
 4703TIP3    H114073   0.797   2.477   0.084 -1.1385 -2.3015 -0.2443
 4703TIP3    H214074   0.887   2.369   0.139  1.3886  0.3143  0.9842
 4704TIP3   OH214075   4.798   4.125   4.012 -0.2715 -0.1278  0.6070
 4704TIP3    H114076   4.730   4.095   3.952 -0.4182 -1.3879  1.3595
 4704TIP3    H214077   4.866   4.160   3.956 -1.0334  0.0631 -0.2177
 4705TIP3   OH214078   2.713   3.931   0.231 -0.0079  0.2446  0.1585
 4705TIP3    H114079   2.664   3.923   0.150  1.6396  0.5764 -0.9282
 4705TIP3    H214080   2.686   3.856   0.284 -0.9312 -0.1119 -0.8007
 4706TIP3   OH214081   4.245   5.292   3.160  0.0504 -0.3446  0.0583
 4706TIP3    H114082   4.234   5.387   3.159 -0.6972 -0.4270 -1.1075
 4706TIP3    H214083   4.326   5.278   3.208 -0.8479  0.7576  2.0264
 4707TIP3   OH214084   0.828   3.019   2.926  0.5749  0.3935 -0.4911
 4707TIP3    H114085   0.837   3.099   2.874  1.0849 -0.5988 -2.0001
 4707TIP3    H214086   0.771   2.962   2.874 -2.1862  0.7819  1.8751
 4708TIP3   OH214087   3.950   4.980   4.602  0.2762  0.3626 -0.3592
 4708TIP3    H114088   3.999   4.901   4.579 -0.0401  0.0215  0.1127
 4708TIP3    H214089   3.896   4.999   4.525 -0.0732 -0.2160 -0.2661
 4709TIP3   OH214090   1.672   6.603   3.293 -0.2634  0.2668  0.0142
 4709TIP3    H114091   1.694   6.586   3.202  1.1545  2.0333 -0.0442
 4709TIP3    H214092   1.631   6.689   3.293  0.6583  0.7471  1.1141
 4710TIP3   OH214093   2.758   4.700   3.666 -0.2567 -0.3338  0.0639
 4710TIP3    H114094   2.664   4.697   3.650 -0.3465 -2.5597  0.5930
 4710TIP3    H214095   2.786   4.608   3.660  1.9566  0.3106 -0.4744
 4711TIP3   OH214096   0.830   4.389   4.416 -0.0784  0.6688  0.1243
 4711TIP3    H114097   0.797   4.442   4.488 -0.4203  1.4036 -0.5636
 4711TIP3    H214098   0.904   4.439   4.381 -0.4550  0.7502 -0.5795
 4712TIP3   OH214099   5.797   2.196   4.081  0.3515  0.9470  0.1578
 4712TIP3    H114100   5.741   2.262   4.040 -1.3147 -0.5372 -0.1055
 4712TIP3    H214101   5.863   2.176   4.014  0.0153  1.3244 -0.2948
 4713TIP3   OH214102   0.747   6.229   5.009  0.0721  0.3298 -0.3214
 4713TIP3    H114103   0.792   6.242   5.093 -0.2763  2.0121 -0.3487
 4713TIP3    H214104   0.817   6.223   4.945  0.3176  0.4490 -0.0664
 4714TIP3   OH214105   4.525   2.706   3.593 -0.2888 -0.2105  0.8522
 4714TIP3    H114106   4.558   2.773   3.652  0.6523  0.5790 -0.5261
 4714TIP3    H214107   4.448   2.745   3.552 -0.1819 -0.2625  0.5997
 4715TIP3   OH214108   4.516   5.421   3.659 -0.2861  0.3473 -0.1488
 4715TIP3    H114109   4.468   5.435   3.740 -1.3582  0.4814 -0.7880
 4715TIP3    H214110   4.551   5.332   3.667  2.2785  1.3824  1.7552
 4716TIP3   OH214111   4.182   0.780   4.278 -0.0482 -0.1719  0.0216
 4716TIP3    H114112   4.133   0.782   4.360  2.1877  0.1649  1.4449
 4716TIP3    H214113   4.242   0.854   4.284  2.1055 -1.7541 -0.6150
 4717TIP3   OH214114   4.578   5.169   1.281 -0.6462  0.1714 -0.5629
 4717TIP3    H114115   4.527   5.207   1.353 -0.7982  1.0958 -1.1427
 4717TIP3    H214116   4.527   5.093   1.253 -1.1177  0.4163 -0.3775
 4718TIP3   OH214117   6.405   6.475   5.425  0.2095  0.3261 -0.0059
 4718TIP3    H114118   6.435   6.432   5.505  1.4409 -0.5350 -0.8918
 4718TIP3    H214119   6.316   6.442   5.411  0.1141  0.2180  0.8091
 4719TIP3   OH214120   3.298   2.531   1.106  0.1987  0.0005  0.1989
 4719TIP3    H114121   3.312   2.437   1.112  1.7079  0.1861  0.0782
 4719TIP3    H214122   3.279   2.547   1.014  3.5887  0.1808 -0.5863
 4720TIP3   OH214123   2.523   4.843   5.305  0.3420 -0.0012 -0.3997
 4720TIP3    H114124   2.505   4.933   5.278 -3.5055 -0.7972 -1.0646
 4720TIP3    H214125   2.503   4.790   5.227  2.3267 -1.5459  0.0256
 4721TIP3   OH214126   1.032   3.901   1.667 -0.5796 -0.2627  0.9486
 4721TIP3    H114127   1.116   3.933   1.701 -0.2933  1.6868 -1.3159
 4721TIP3    H214128   1.052   3.815   1.631 -0.7309 -2.0672  4.6274
 4722TIP3   OH214129   3.946   6.165   2.622  0.3016  0.3866 -0.4584
 4722TIP3    H114130   3.881   6.174   2.692 -0.5057 -0.4446 -1.0800
 4722TIP3    H214131   3.897   6.182   2.542  1.2930  1.6474 -0.8242
 4723TIP3   OH214132   0.378  -0.009   0.952 -0.0154 -0.3645  0.0869
 4723TIP3    H114133   0.450   0.050   0.931  0.1105 -1.1941 -2.0791
 4723TIP3    H214134   0.303   0.050   0.967  1.0787  0.5142  2.5920
 4724TIP3   OH214135   4.816   3.688   0.448 -0.1388  0.1954 -0.1481
 4724TIP3    H114136   4.876   3.660   0.517  1.0102  0.5817 -0.9652
 4724TIP3    H214137   4.848   3.644   0.369 -1.3596 -0.1494 -0.4721
 4725TIP3   OH214138   7.168   0.754   0.626  0.0392 -0.3170  0.9006
 4725TIP3    H114139   7.139   0.845   0.639 -0.3874 -0.0019 -1.6646
 4725TIP3    H214140   7.234   0.740   0.694 -1.3502  1.1833  2.6782
 4726TIP3   OH214141   3.346   3.674   2.005 -0.6333 -0.2309 -0.1221
 4726TIP3    H114142   3.270   3.690   2.060  0.8260 -1.0683  2.2858
 4726TIP3    H214143   3.350   3.579   1.995  0.2248 -0.2164 -0.0254
 4727TIP3   OH214144   5.098   5.543   4.464  0.3540  0.5615  0.8513
 4727TIP3    H114145   5.032   5.610   4.451 -1.3509 -1.4336 -1.8679
 4727TIP3    H214146   5.181   5.586   4.441 -0.7071  1.7352 -1.0023
 4728TIP3   OH214147   1.339   3.044   4.699 -0.8497 -0.0225 -0.4188
 4728TIP3    H114148   1.314   3.118   4.644 -0.4511  0.5843  0.1910
 4728TIP3    H214149   1.428   3.022   4.670 -0.4847  0.5556  0.2314
 4729TIP3   OH214150   2.359   6.815   3.040 -0.3075  0.2723 -0.2603
 4729TIP3    H114151   2.339   6.727   3.006  0.3315 -0.3121  0.8456
 4729TIP3    H214152   2.450   6.830   3.017 -0.3930  0.6261 -0.3781
 4730TIP3   OH214153   5.861   2.287   2.336  0.2783 -0.2423 -0.2731
 4730TIP3    H114154   5.920   2.325   2.271  2.0468  2.4073  2.5873
 4730TIP3    H214155   5.866   2.346   2.411 -2.2059 -2.6511  2.0558
 4731TIP3   OH214156   0.893   3.903   5.256  0.3122 -0.1418 -0.3124
 4731TIP3    H114157   0.801   3.879   5.249 -0.4097  2.0991  0.6109
 4731TIP3    H214158   0.929   3.842   5.320 -0.1132 -1.9888 -1.7508
 4732TIP3   OH214159   0.939   6.558   5.149  0.1528  0.0695  0.5257
 4732TIP3    H114160   0.856   6.515   5.169  1.3253 -2.7301 -0.1120
 4732TIP3    H214161   0.914   6.648   5.126 -2.6195 -0.5125  0.8226
 4733TIP3   OH214162   1.843   3.977   4.619  0.7783  0.1627  0.1617
 4733TIP3    H114163   1.822   3.958   4.711  0.6457 -0.2427  0.0454
 4733TIP3    H214164   1.761   4.011   4.583  0.8140  0.2649  0.1765
 4734TIP3   OH214165   3.379   2.653   4.098 -0.1822  0.7278 -0.2282
 4734TIP3    H114166   3.302   2.635   4.153  0.4231  0.8905  0.6970
 4734TIP3    H214167   3.365   2.742   4.067  0.6560  1.6225  1.7540
 4735TIP3   OH214168   7.180   3.110   2.233 -0.2772 -0.5284  0.2099
 4735TIP3    H114169   7.087   3.118   2.210 -0.0052 -1.0626 -1.1708
 4735TIP3    H214170   7.219   3.190   2.198  0.0256 -1.0130 -0.5745
 4736TIP3   OH214171   4.463   0.518   0.878  0.0929 -0.3670  0.0006
 4736TIP3    H114172   4.457   0.588   0.942 -2.2103  0.8023 -1.3657
 4736TIP3    H214173   4.556   0.516   0.853  0.6228  0.5656  1.7501
 4737TIP3   OH214174   1.875   1.139   5.012  0.5004 -0.2435 -0.3376
 4737TIP3    H114175   1.967   1.113   5.019  0.1763 -1.1047  1.0638
 4737TIP3    H214176   1.877   1.222   4.964  1.9076 -0.7944 -1.2915
 4738TIP3   OH214177   4.935   5.118   3.820  0.0118  0.6009 -0.1880
 4738TIP3    H114178   4.988   5.141   3.744 -0.4278 -2.9161 -1.7853
 4738TIP3    H214179   4.993   5.130   3.895  1.6622  0.8446 -1.4640
 4739TIP3   OH214180   2.942   2.735   1.119 -0.1841  0.0733  0.1748
 4739TIP3    H114181   2.912   2.784   1.042  3.3950  2.2082 -0.0732
 4739TIP3    H214182   2.979   2.655   1.084  1.1345  0.8899 -0.3547
 4740TIP3   OH214183   3.334   6.498   4.501  0.4940  0.7051 -0.5643
 4740TIP3    H114184   3.284   6.417   4.510  2.1334 -0.3277 -0.4352
 4740TIP3    H214185   3.379   6.489   4.417  1.2092  1.1769 -0.2387
 4741TIP3   OH214186   5.904   0.176   0.165 -0.0679  0.5865  0.4861
 4741TIP3    H114187   5.911   0.271   0.175  0.0370  0.6185  0.1249
 4741TIP3    H214188   5.888   0.163   0.072  2.2925  0.1219  0.0898
 4742TIP3   OH214189   4.413   1.442   5.063 -0.6492 -0.2150  0.0877
 4742TIP3    H114190   4.360   1.379   5.111 -3.8045  0.7232 -1.8419
 4742TIP3    H214191   4.370   1.526   5.077  0.2854  0.6218 -1.6358
 4743TIP3   OH214192   6.993   1.499   1.333  0.2470  0.3234  0.6513
 4743TIP3    H114193   6.908   1.484   1.291  1.3588 -0.3537 -1.5270
 4743TIP3    H214194   7.017   1.413   1.369 -0.8557  0.9760  3.1505
 4744TIP3   OH214195   2.054   5.813   0.661  0.2606 -0.3734  0.2363
 4744TIP3    H114196   2.028   5.867   0.586 -1.5971 -0.1448  1.0141
 4744TIP3    H214197   2.113   5.748   0.623 -0.9036 -0.4768 -1.5148
 4745TIP3   OH214198   2.190   0.048   1.796  0.0241 -0.0229  0.0358
 4745TIP3    H114199   2.179  -0.044   1.820  0.3565  0.6982  3.5559
 4745TIP3    H214200   2.270   0.049   1.743 -0.5388 -1.8251 -0.9331
 4746TIP3   OH214201   0.676   5.591   1.153 -0.3835 -0.1048  0.5123
 4746TIP3    H114202   0.641   5.631   1.232  0.6575  0.1877  0.8441
 4746TIP3    H214203   0.633   5.638   1.081 -0.7314  0.1749  0.8980
 4747TIP3   OH214204   4.574   6.279   0.300  0.4684  0.5673 -0.1075
 4747TIP3    H114205   4.630   6.352   0.325  1.5180 -0.5631  1.0006
 4747TIP3    H214206   4.601   6.207   0.358 -1.4938 -0.2909 -0.1762
 4748TIP3   OH214207   1.429   2.446   3.692 -0.1132  0.2028  0.3119
 4748TIP3    H114208   1.492   2.375   3.678 -1.2910 -0.7931 -0.1846
 4748TIP3    H214209   1.432   2.462   3.786  2.6732  1.9453  0.0340
 4749TIP3   OH214210   4.802   3.770   2.432  0.3326 -0.6912  0.6765
 4749TIP3    H114211   4.825   3.732   2.348  0.7324 -1.5410  1.1658
 4749TIP3    H214212   4.879   3.759   2.487  0.5237  0.9518  0.8089
 4750TIP3   OH214213   3.162   2.871   4.668 -0.3533  0.1963 -0.1310
 4750TIP3    H114214   3.198   2.794   4.713 -0.5126 -1.1010 -2.1170
 4750TIP3    H214215   3.068   2.852   4.660 -0.4310  0.7007 -0.4336
 4751TIP3   OH214216   5.375   5.911   1.960 -0.4591  0.2261 -0.0427
 4751TIP3    H114217   5.373   5.971   2.035  2.5865 -0.9613  1.1649
 4751TIP3    H214218   5.348   5.827   1.996  0.2253 -0.1713 -0.4400
 4752TIP3   OH214219   1.597   6.462   5.518 -0.2875  0.4603  0.0231
 4752TIP3    H114220   1.537   6.482   5.589  0.6052  1.1028  0.6222
 4752TIP3    H214221   1.646   6.543   5.505  2.2117 -0.7350  1.2838
 4753TIP3   OH214222   0.633   1.335   2.426  0.8193 -0.0489 -0.2846
 4753TIP3    H114223   0.710   1.279   2.427  0.1589 -1.1096 -2.3383
 4753TIP3    H214224   0.559   1.275   2.417 -0.3090  0.9372  1.7797
 4754TIP3   OH214225   2.705   2.633   4.370 -0.2404  0.3393 -0.9897
 4754TIP3    H114226   2.670   2.705   4.423 -0.2288 -0.5709  0.3046
 4754TIP3    H214227   2.679   2.554   4.417  0.2333 -0.4899 -2.0858
 4755TIP3   OH214228   5.293   4.589   5.808  0.2952  0.0089  0.1899
 4755TIP3    H114229   5.359   4.652   5.780 -0.9179  1.4134  0.3408
 4755TIP3    H214230   5.245   4.633   5.878 -0.2428 -1.3093  0.6936
 4756TIP3   OH214231   3.494   5.561   3.785 -0.2178 -0.3980 -0.6055
 4756TIP3    H114232   3.478   5.539   3.877  0.7463 -0.3482 -0.4199
 4756TIP3    H214233   3.472   5.654   3.778 -0.0480 -0.3397 -0.3653
 4757TIP3   OH214234   5.659   2.712   5.479 -0.0300  0.6340 -0.2142
 4757TIP3    H114235   5.690   2.788   5.430  1.0935  0.1277 -0.3052
 4757TIP3    H214236   5.724   2.698   5.547 -0.9285  0.5582  0.6612
 4758TIP3   OH214237   5.664   5.773   3.622  0.1514  0.2390 -0.4555
 4758TIP3    H114238   5.754   5.774   3.591 -0.2271 -1.7474 -1.8069
 4758TIP3    H214239   5.672   5.759   3.717  1.2392  1.1607 -0.3789
 4759TIP3   OH214240   0.622   4.096   5.058  0.4282  0.5827  0.5214
 4759TIP3    H114241   0.701   4.050   5.030  1.1479  2.7475 -1.2725
 4759TIP3    H214242   0.568   4.101   4.979 -0.5706  1.0170  1.2002
 4760TIP3   OH214243   2.035   0.946   4.139 -0.2885 -0.4897  0.1657
 4760TIP3    H114244   2.064   1.026   4.184 -1.0533 -0.5532  0.7836
 4760TIP3    H214245   2.078   0.951   4.053 -0.0943  0.4408  0.2994
 4761TIP3   OH214246   4.471   3.029   5.536 -0.0544  0.0640 -0.1186
 4761TIP3    H114247   4.380   3.057   5.550 -0.0507 -0.6698  1.7348
 4761TIP3    H214248   4.522   3.110   5.539 -0.5887  0.4213 -0.5272
 4762TIP3   OH214249   3.236   3.461   0.630  0.0594 -0.2697 -0.0450
 4762TIP3    H114250   3.313   3.416   0.664 -0.5810 -0.7805  0.7562
 4762TIP3    H214251   3.238   3.548   0.671 -0.5421 -0.7760  1.1023
 4763TIP3   OH214252   5.959   3.429   0.994 -0.2048  0.4744  0.2895
 4763TIP3    H114253   5.973   3.359   1.058 -0.9338  0.6081  0.6033
 4763TIP3    H214254   5.879   3.473   1.023  1.0138  2.4016  0.9770
 4764TIP3   OH214255   5.551   3.383   2.275  0.6794 -0.3024 -0.4744
 4764TIP3    H114256   5.514   3.470   2.285 -0.6152 -0.7778 -0.8982
 4764TIP3    H214257   5.481   3.332   2.235  1.1949 -1.6931  0.3300
 4765TIP3   OH214258   6.451   6.403   2.313  0.5270 -0.1680 -0.5741
 4765TIP3    H114259   6.522   6.351   2.350  1.5583  1.5506 -0.0233
 4765TIP3    H214260   6.401   6.431   2.390 -0.4639 -0.9162 -0.9224
 4766TIP3   OH214261   3.194   5.181   3.243  0.2677 -0.1240 -0.3019
 4766TIP3    H114262   3.186   5.274   3.268 -0.0707 -0.6999  1.9866
 4766TIP3    H214263   3.268   5.178   3.183  1.2060  1.4593  0.7022
 4767TIP3   OH214264   6.815   3.234   0.790  0.0148  0.1101 -0.2738
 4767TIP3    H114265   6.893   3.273   0.751  0.2553  1.5516  1.4928
 4767TIP3    H214266   6.777   3.305   0.842 -1.8494 -0.8962 -0.1851
 4768TIP3   OH214267   4.336   6.743   3.752 -0.1496  0.0252  0.2268
 4768TIP3    H114268   4.374   6.804   3.689  1.1415 -0.6756  0.2865
 4768TIP3    H214269   4.273   6.692   3.701  2.2493 -1.8700 -1.0903
 4769TIP3   OH214270   5.704   2.730   3.524 -0.2537 -0.5554 -0.5231
 4769TIP3    H114271   5.670   2.808   3.567 -0.5886  0.1011 -1.9177
 4769TIP3    H214272   5.741   2.762   3.442 -1.3585 -1.9930 -1.6223
 4770TIP3   OH214273   0.605   1.837   4.425 -0.3701  0.0540  0.5249
 4770TIP3    H114274   0.670   1.811   4.360 -2.1464  0.7515 -1.6591
 4770TIP3    H214275   0.653   1.838   4.508  2.2660  0.1294 -0.8980
 4771TIP3   OH214276   2.017   4.254   0.649 -0.1927 -0.1193  0.0659
 4771TIP3    H114277   1.980   4.181   0.698 -0.5209 -0.9761 -1.4147
 4771TIP3    H214278   2.040   4.318   0.717  1.3516 -2.0850  1.5380
 4772TIP3   OH214279   5.696   0.202   1.555  0.4290  0.1342 -0.7237
 4772TIP3    H114280   5.756   0.146   1.604  0.6116 -0.0248 -1.1254
 4772TIP3    H214281   5.680   0.155   1.473  0.3926  0.5555 -0.9615
 4773TIP3   OH214282   2.260   3.412   5.214 -0.2511  0.3245  0.7665
 4773TIP3    H114283   2.331   3.377   5.268  0.0512 -0.1151  0.0980
 4773TIP3    H214284   2.210   3.334   5.187 -0.0890  0.4751 -0.0048
 4774TIP3   OH214285   1.006   2.314   4.800  0.0665 -0.2664 -0.2234
 4774TIP3    H114286   1.092   2.331   4.838  1.9975 -1.6077 -3.4827
 4774TIP3    H214287   1.009   2.220   4.777 -2.2568 -0.3331 -0.4738
 4775TIP3   OH214288   3.022   6.605   0.724  0.1783  0.3459  0.1056
 4775TIP3    H114289   2.933   6.599   0.690  0.8625 -0.2693 -1.6975
 4775TIP3    H214290   3.053   6.514   0.725  1.5419  0.7322 -1.5739
 4776TIP3   OH214291   1.622   4.101   4.337  0.6097  0.2403  0.4165
 4776TIP3    H114292   1.545   4.140   4.295  1.4547  1.1063 -0.3793
 4776TIP3    H214293   1.629   4.013   4.300  1.2465  0.9298 -1.1931
 4777TIP3   OH214294   2.730   2.877   2.991 -0.4275 -0.2672 -0.7159
 4777TIP3    H114295   2.741   2.850   3.082  0.4454  0.4842 -0.5825
 4777TIP3    H214296   2.808   2.930   2.972 -1.5784  1.3109 -1.2483
 4778TIP3   OH214297   4.196   5.767   3.938 -0.4534  0.1772 -0.3210
 4778TIP3    H114298   4.225   5.676   3.931 -0.5166  0.2292 -1.5115
 4778TIP3    H214299   4.187   5.783   4.032  1.5226 -0.4322  0.0187
 4779TIP3   OH214300   6.879   2.439   1.743  0.3631 -0.0445 -0.4142
 4779TIP3    H114301   6.798   2.454   1.793  0.7041  0.8963 -0.1264
 4779TIP3    H214302   6.902   2.525   1.708  2.4179  0.1899  1.3264
 4780TIP3   OH214303   3.469   0.076   5.215 -0.8468 -0.0329  0.9432
 4780TIP3    H114304   3.529   0.141   5.177 -0.2613 -0.7266  0.6714
 4780TIP3    H214305   3.497   0.069   5.306 -0.1604 -0.7489  0.6843
 4781TIP3   OH214306   6.754   0.816   4.228  0.3453  0.2250 -0.4654
 4781TIP3    H114307   6.821   0.855   4.284 -1.3369  0.9753  1.1472
 4781TIP3    H214308   6.778   0.841   4.139  1.0312  2.3015  0.2639
 4782TIP3   OH214309   2.037   5.110   0.892  0.0748  0.3556 -0.2576
 4782TIP3    H114310   2.037   5.054   0.814  1.2298  0.6863 -0.5070
 4782TIP3    H214311   1.953   5.091   0.934  0.3562 -1.4469 -0.4206
 4783TIP3   OH214312   2.885   1.713   2.096  0.2178  0.5516  0.4610
 4783TIP3    H114313   2.854   1.679   2.012  0.0681  1.4092  0.1576
 4783TIP3    H214314   2.980   1.721   2.084  0.5615 -1.6693  1.2444
 4784TIP3   OH214315   5.020   4.192   4.597  0.2932 -0.3795  0.0197
 4784TIP3    H114316   5.011   4.136   4.674  0.7661 -0.4589  0.0223
 4784TIP3    H214317   5.102   4.163   4.557 -1.0643 -1.9589 -1.8279
 4785TIP3   OH214318   4.450   6.063   2.313  0.0474 -0.3779  0.1603
 4785TIP3    H114319   4.502   6.114   2.376  0.0930 -1.5091  1.0698
 4785TIP3    H214320   4.465   5.972   2.338 -1.0403 -0.7897 -0.6343
 4786TIP3   OH214321   5.450   1.264   2.575  0.0395 -0.4205 -0.1965
 4786TIP3    H114322   5.533   1.302   2.545 -0.9799  1.8646 -0.3073
 4786TIP3    H214323   5.444   1.290   2.667 -1.1799  0.6725 -0.5577
 4787TIP3   OH214324   4.969   3.310   5.050  0.6890 -0.4568 -0.0550
 4787TIP3    H114325   5.009   3.316   5.137  2.2822 -0.4706 -0.7415
 4787TIP3    H214326   4.976   3.218   5.026  1.1186 -0.3086 -0.5490
 4788TIP3   OH214327   1.349   0.277   3.740 -0.0923  0.2788  0.2657
 4788TIP3    H114328   1.331   0.371   3.734  0.8728  0.5022  0.6119
 4788TIP3    H214329   1.350   0.258   3.834 -2.3625 -0.5360  0.1836
 4789TIP3   OH214330   2.013   1.797   5.233  0.1805  0.0740  0.1164
 4789TIP3    H114331   1.932   1.770   5.190  0.3570 -1.8450  0.9171
 4789TIP3    H214332   2.082   1.776   5.171  0.2031  0.2739  0.0704
 4790TIP3   OH214333   2.052   2.593   1.620 -0.0957 -0.8857 -0.0661
 4790TIP3    H114334   1.998   2.647   1.562  0.6251 -0.9910 -0.8684
 4790TIP3    H214335   2.029   2.621   1.708 -0.7719 -0.2764 -0.4260
 4791TIP3   OH214336   1.108   2.854   0.640 -0.3910 -0.4286  0.1592
 4791TIP3    H114337   1.186   2.815   0.680  0.3879  0.3520 -0.5551
 4791TIP3    H214338   1.114   2.830   0.548 -0.7696 -0.0132  0.0222
 4792TIP3   OH214339   3.432   2.710   5.501  0.0268 -0.7697  0.4540
 4792TIP3    H114340   3.407   2.650   5.431 -0.9823 -0.5016  0.5629
 4792TIP3    H214341   3.357   2.709   5.561 -0.0319  0.6008  0.4376
 4793TIP3   OH214342   0.391   6.691   5.069  0.1095  0.1600  0.3091
 4793TIP3    H114343   0.329   6.620   5.052  1.6303 -0.9205 -1.0162
 4793TIP3    H214344   0.356   6.766   5.019  1.1624 -1.1856 -2.6698
 4794TIP3   OH214345   4.213   3.170   5.569 -0.6134  0.1756 -0.2267
 4794TIP3    H114346   4.252   3.222   5.499  1.4751 -0.4614  0.3925
 4794TIP3    H214347   4.168   3.098   5.524 -1.8484  1.3864 -0.9919
 4795TIP3   OH214348   3.680   5.301   5.114  0.5832  0.4302 -0.1264
 4795TIP3    H114349   3.703   5.321   5.023  0.3499  0.1305 -0.2531
 4795TIP3    H214350   3.584   5.302   5.115  0.5593 -0.7764 -0.1648
 4796TIP3   OH214351   5.627   3.505   3.805  0.5812  0.3653 -0.3789
 4796TIP3    H114352   5.636   3.596   3.777  0.9377  0.4877  0.1166
 4796TIP3    H214353   5.552   3.472   3.756  1.0398  0.6442 -1.2901
 4797TIP3   OH214354   0.931   5.319   5.615 -0.2079 -0.0571 -0.0258
 4797TIP3    H114355   0.997   5.289   5.552  1.3834  0.5003  1.2855
 4797TIP3    H214356   0.981   5.372   5.677 -1.9761  0.6218  0.8720
 4798TIP3   OH214357   0.729   1.945   1.490  0.4363  0.7354 -0.3231
 4798TIP3    H114358   0.792   1.994   1.543 -0.7147  1.3053  0.5841
 4798TIP3    H214359   0.644   1.986   1.510 -0.7186 -2.0027  1.0036
 4799TIP3   OH214360   1.550   6.525   1.452 -0.5787  0.1617 -0.3901
 4799TIP3    H114361   1.483   6.566   1.507 -1.0416 -0.1907 -0.6931
 4799TIP3    H214362   1.527   6.550   1.363  0.0979  0.6177 -0.4439
 4800TIP3   OH214363   4.607   5.103   1.880 -0.4566  0.0228 -0.4592
 4800TIP3    H114364   4.588   5.025   1.828  1.1967 -1.1107  0.5242
 4800TIP3    H214365   4.590   5.076   1.971  0.2663  0.7547 -0.0879
 4801TIP3   OH214366   3.061   2.307   5.738 -0.1863 -0.1055 -0.3797
 4801TIP3    H114367   3.065   2.394   5.698 -0.8156 -0.6020 -1.5597
 4801TIP3    H214368   2.972   2.277   5.721  0.1421 -1.1449 -0.3315
 4802TIP3   OH214369   5.684   2.450   3.915 -0.6144  0.3354 -0.1325
 4802TIP3    H114370   5.650   2.459   3.826  0.1214 -1.7377 -0.6763
 4802TIP3    H214371   5.745   2.523   3.925  0.3150 -0.1663 -1.8575
 4803TIP3   OH214372   7.073   6.560   4.764 -0.2569  0.4292  0.1945
 4803TIP3    H114373   6.990   6.531   4.803 -0.1028  0.6101  0.6619
 4803TIP3    H214374   7.054   6.569   4.671 -0.3201 -1.1851  0.0211
 4804TIP3   OH214375   2.061   2.311   1.576  0.3466  0.0960  0.3127
 4804TIP3    H114376   2.142   2.298   1.527 -2.1162  0.2780 -4.2652
 4804TIP3    H214377   2.038   2.402   1.560 -0.5606  0.2028  2.0198
 4805TIP3   OH214378   1.823   4.567   1.343 -0.3952  0.5419 -0.4594
 4805TIP3    H114379   1.760   4.494   1.334 -0.3223  0.1810  1.4527
 4805TIP3    H214380   1.768   4.645   1.350 -0.6260  0.2929  0.6228
 4806TIP3   OH214381   6.386   2.982   1.269  0.4399 -0.0553  0.2451
 4806TIP3    H114382   6.452   3.012   1.331  0.3364 -2.1766  1.4731
 4806TIP3    H214383   6.304   3.021   1.300  0.7915  1.0555 -0.1753
 4807TIP3   OH214384   3.484   0.716   1.573 -0.1963 -0.8776  0.2305
 4807TIP3    H114385   3.565   0.666   1.567  1.2957  1.3856  0.1038
 4807TIP3    H214386   3.498   0.775   1.647 -0.9128  0.8936 -0.9782
 4808TIP3   OH214387   6.124   2.230   0.948 -0.6382 -0.2302 -0.0944
 4808TIP3    H114388   6.133   2.323   0.925  0.5042 -0.4853 -0.7699
 4808TIP3    H214389   6.041   2.225   0.995 -0.5162  1.2043  0.3294
 4809TIP3   OH214390   1.397   5.587   1.273 -0.5073  0.1781 -0.1684
 4809TIP3    H114391   1.487   5.555   1.269  0.2558  2.2538 -0.8977
 4809TIP3    H214392   1.380   5.622   1.185 -1.8183  0.3706  0.1431
 4810TIP3   OH214393   4.707   4.173   4.797 -0.2098  0.0593  0.1307
 4810TIP3    H114394   4.791   4.168   4.751 -0.8090 -1.2448 -0.9030
 4810TIP3    H214395   4.668   4.255   4.766 -0.6789 -0.8648 -1.9342
 4811TIP3   OH214396   5.602   1.679   4.249  0.6211 -0.8579  0.0835
 4811TIP3    H114397   5.652   1.707   4.172  0.6538 -0.2817  0.3077
 4811TIP3    H214398   5.511   1.701   4.229  0.8275  0.9039  0.8879
 4812TIP3   OH214399   4.017   0.028   0.807  0.1552  0.1062 -0.2048
 4812TIP3    H114400   4.104   0.016   0.770  0.8907  1.6627  0.8905
 4812TIP3    H214401   4.008  -0.042   0.872  0.8391  0.2976  0.1004
 4813TIP3   OH214402   0.460   4.081   4.830  0.0276  0.0532 -0.0223
 4813TIP3    H114403   0.390   4.115   4.775  0.8298  0.4088 -0.8583
 4813TIP3    H214404   0.519   4.037   4.768  1.8438  1.9376  0.2630
 4814TIP3   OH214405   0.792   5.664   3.370 -0.7022  0.1407 -0.3374
 4814TIP3    H114406   0.833   5.750   3.378 -1.2202  0.3323  0.2999
 4814TIP3    H214407   0.792   5.629   3.459  0.9907 -1.2286 -0.8261
 4815TIP3   OH214408   1.564   4.820   5.533 -0.4174 -1.0109 -0.2911
 4815TIP3    H114409   1.511   4.790   5.607  0.5305 -1.3617  0.2536
 4815TIP3    H214410   1.575   4.743   5.478 -1.3243 -0.6951 -0.9428
 4816TIP3   OH214411   0.189   5.327   1.427  0.1988 -0.0282 -0.1762
 4816TIP3    H114412   0.135   5.327   1.507  1.6137  0.1670  0.8120
 4816TIP3    H214413   0.268   5.375   1.451  1.6302 -1.8465 -0.9996
 4817TIP3   OH214414   6.411   0.652   3.095  0.1375 -0.0184  0.5861
 4817TIP3    H114415   6.397   0.651   3.000  0.0281 -2.0715  0.5717
 4817TIP3    H214416   6.460   0.732   3.111  0.4056  0.2328 -1.2430
 4818TIP3   OH214417   5.033   1.640   4.153  0.3873  0.3790  0.1292
 4818TIP3    H114418   4.944   1.644   4.188  0.5150 -1.0094  0.7071
 4818TIP3    H214419   5.084   1.597   4.222  0.6857 -2.3063 -1.5794
 4819TIP3   OH214420   0.298   1.352   0.114 -0.2652 -0.2233 -0.2356
 4819TIP3    H114421   0.303   1.257   0.121  0.2312 -0.1120  1.1705
 4819TIP3    H214422   0.337   1.372   0.029  3.8907 -0.9858  1.2429
 4820TIP3   OH214423   4.292   1.046   5.026 -0.0755  0.2224 -0.3028
 4820TIP3    H114424   4.312   0.968   5.076 -0.0195  0.2759 -0.2421
 4820TIP3    H214425   4.251   1.106   5.088 -1.6912 -0.4003 -0.7191
 4821TIP3   OH214426   3.656   1.082   1.427  0.7814 -0.7635  0.4558
 4821TIP3    H114427   3.576   1.071   1.375  0.3715 -0.1921  0.9406
 4821TIP3    H214428   3.727   1.081   1.363  0.3227 -0.5127 -0.0665
 4822TIP3   OH214429   1.913   5.035   5.165 -0.1114  0.0146  0.1475
 4822TIP3    H114430   1.855   4.964   5.135  1.0234 -1.6253  1.6071
 4822TIP3    H214431   1.877   5.060   5.251 -0.7432  1.5541 -0.5323
 4823TIP3   OH214432   0.045   4.914   5.020 -0.1215  0.6283  0.0286
 4823TIP3    H114433  -0.049   4.935   5.023  0.2607  2.5247  0.2497
 4823TIP3    H214434   0.084   4.988   4.973  1.2339 -0.3071 -0.3758
 4824TIP3   OH214435   0.136   2.594   5.496 -0.0212  0.2896 -0.2150
 4824TIP3    H114436   0.042   2.608   5.484 -0.0876 -0.0355 -0.0861
 4824TIP3    H214437   0.167   2.674   5.538 -0.1785  0.5378 -0.5623
 4825TIP3   OH214438   0.388   6.172   5.036 -0.2174 -0.5025  0.0492
 4825TIP3    H114439   0.323   6.145   4.970  0.7600 -2.6927 -0.0931
 4825TIP3    H214440   0.381   6.267   5.038 -2.5097 -0.5822 -0.9080
 4826TIP3   OH214441   4.798   4.058   0.865 -0.2327  0.2468 -0.0238
 4826TIP3    H114442   4.858   3.998   0.820 -1.2183 -0.7610 -0.0234
 4826TIP3    H214443   4.789   4.132   0.804  0.2075 -0.0581 -0.4690
 4827TIP3   OH214444   4.474   3.810   3.180  0.1258 -0.2013  0.1097
 4827TIP3    H114445   4.410   3.739   3.175 -2.0016  1.6077 -0.1643
 4827TIP3    H214446   4.472   3.850   3.092  0.8849  0.4939  0.3963
 4828TIP3   OH214447   4.572   1.951   2.321 -0.4090 -0.2525  0.0581
 4828TIP3    H114448   4.493   1.906   2.351  0.1100 -2.0147 -1.0769
 4828TIP3    H214449   4.542   2.006   2.249 -0.8484  0.2847  0.6448
 4829TIP3   OH214450   5.109   2.076   1.700  0.2494  0.1922  0.5273
 4829TIP3    H114451   5.018   2.103   1.717  0.3147  0.3447  0.6400
 4829TIP3    H214452   5.109   1.982   1.715  0.4584  0.4167  2.0792
 4830TIP3   OH214453   3.453   2.604   3.324  0.2452 -0.2221  0.5183
 4830TIP3    H114454   3.416   2.690   3.341  0.4306 -0.0269 -0.0365
 4830TIP3    H214455   3.417   2.548   3.392 -0.9550 -0.0009  0.0809
 4831TIP3   OH214456   0.475   2.360   4.667  0.4018  0.2226  0.2952
 4831TIP3    H114457   0.509   2.410   4.741  0.0091 -0.7068  1.1287
 4831TIP3    H214458   0.387   2.334   4.694  0.3957 -0.4602 -0.3483
 4832TIP3   OH214459   3.557   3.131   1.828 -0.1146 -0.0201  0.3060
 4832TIP3    H114460   3.624   3.198   1.814 -0.8997  0.8856  0.7276
 4832TIP3    H214461   3.492   3.174   1.883 -1.4327 -0.6017 -0.7446
 4833TIP3   OH214462   5.010   3.323   0.430 -0.0984 -0.4910  0.2498
 4833TIP3    H114463   5.016   3.387   0.360 -1.6321 -0.7644 -0.1569
 4833TIP3    H214464   5.101   3.309   0.458  0.3032  1.5676  0.1140
 4834TIP3   OH214465   2.193   1.608   2.821 -0.0869 -0.1084 -0.0826
 4834TIP3    H114466   2.221   1.685   2.772  1.2563 -1.2589 -1.2451
 4834TIP3    H214467   2.265   1.545   2.809  0.8959 -0.1496  4.3196
 4835TIP3   OH214468   0.824   5.142   3.307  0.6166  0.2490  0.7244
 4835TIP3    H114469   0.751   5.188   3.263 -0.3959 -0.2513  1.8381
 4835TIP3    H214470   0.857   5.082   3.240  0.2136  0.6987  0.1016
 4836TIP3   OH214471   6.117   5.010   1.666 -0.1149  0.2696 -0.0526
 4836TIP3    H114472   6.185   4.992   1.601 -0.4300 -0.0090 -0.3111
 4836TIP3    H214473   6.163   5.016   1.749  0.3431  1.0255 -0.3598
 4837TIP3   OH214474   1.987   1.571   1.505 -0.5210 -0.3221  0.4915
 4837TIP3    H114475   2.054   1.509   1.532 -0.1127 -0.9720 -1.7914
 4837TIP3    H214476   2.034   1.653   1.491 -0.6731 -0.0801  1.3423
 4838TIP3   OH214477   4.690   1.484   3.281  0.0874  0.2288  0.0663
 4838TIP3    H114478   4.783   1.500   3.267  0.0223  1.0224  0.4739
 4838TIP3    H214479   4.652   1.486   3.193  0.2698  1.1712  0.0031
 4839TIP3   OH214480   6.303   1.950   0.574 -0.3039  0.1974  0.8909
 4839TIP3    H114481   6.228   1.964   0.633  0.2595  2.4330  1.1457
 4839TIP3    H214482   6.273   1.981   0.489 -0.4370 -1.1498  0.4287
 4840TIP3   OH214483   4.991   3.815   5.233  0.4797 -0.4552 -0.1808
 4840TIP3    H114484   4.901   3.847   5.235  0.7079  0.5875 -2.7522
 4840TIP3    H214485   4.983   3.720   5.243 -0.9098 -0.3883 -0.4456
 4841TIP3   OH214486   6.346   3.421   3.752 -0.3245  0.0361 -0.5252
 4841TIP3    H114487   6.418   3.446   3.695 -0.7697  2.1548 -0.2504
 4841TIP3    H214488   6.387   3.372   3.823  0.7872  0.7542 -0.6503
 4842TIP3   OH214489   1.431   6.076   1.037  0.3003  0.0189  0.4236
 4842TIP3    H114490   1.354   6.131   1.052 -0.4573 -0.5070 -1.2708
 4842TIP3    H214491   1.501   6.118   1.087 -0.9017  0.9477  1.3710
 4843TIP3   OH214492   1.699   3.046   3.984  0.0693 -0.8351  0.1056
 4843TIP3    H114493   1.645   2.996   4.045  0.1785 -1.1931 -0.0913
 4843TIP3    H214494   1.766   3.087   4.039 -0.8818  0.2881  0.4768
 4844TIP3   OH214495   5.631   1.946   5.409  0.0576 -0.6366  0.0139
 4844TIP3    H114496   5.629   2.027   5.358 -0.5327  0.2999  1.4705
 4844TIP3    H214497   5.557   1.954   5.470  1.5165 -1.0762  1.9413
 4845TIP3   OH214498   3.270   5.114   1.607  0.1705 -0.8045 -0.3534
 4845TIP3    H114499   3.313   5.068   1.680 -1.7944  0.0603  1.4729
 4845TIP3    H214500   3.342   5.157   1.561  1.5229 -1.4215  1.0620
 4846TIP3   OH214501   5.693   6.042   5.174 -0.2260  0.3011  0.0430
 4846TIP3    H114502   5.600   6.018   5.178 -0.2153 -0.1378 -1.7348
 4846TIP3    H214503   5.718   6.054   5.266 -1.6389 -1.1147  0.6681
 4847TIP3   OH214504   1.991   5.604   4.322  0.0660  0.0903 -0.0678
 4847TIP3    H114505   1.960   5.514   4.325  0.2329 -0.0039 -0.9059
 4847TIP3    H214506   2.061   5.603   4.257 -0.6148  1.0193 -0.8368
 4848TIP3   OH214507   3.217   0.863   2.487  0.3070 -0.3153 -0.3249
 4848TIP3    H114508   3.251   0.773   2.487  0.0788 -0.4213  0.7531
 4848TIP3    H214509   3.260   0.905   2.561 -1.0819 -0.1396  0.4277
 4849TIP3   OH214510   0.285   4.966   3.934  0.0181 -0.3087 -0.0776
 4849TIP3    H114511   0.280   5.034   3.867 -0.3540 -0.5322 -0.2764
 4849TIP3    H214512   0.376   4.935   3.930 -0.3802 -1.4117 -1.5659
 4850TIP3   OH214513   2.898   1.484   2.856 -0.1709 -0.1140 -0.6067
 4850TIP3    H114514   2.937   1.469   2.943  0.0581 -0.6254 -0.7933
 4850TIP3    H214515   2.899   1.398   2.815 -1.6532 -0.1736 -0.5603
 4851TIP3   OH214516   1.456   1.501   4.519 -0.4538  0.0358 -0.0492
 4851TIP3    H114517   1.514   1.432   4.551 -0.0986  1.3750  2.4347
 4851TIP3    H214518   1.507   1.545   4.451  0.6739 -0.0556  0.7101
 4852TIP3   OH214519   0.107   0.896   1.626  0.5177  0.4049  0.1939
 4852TIP3    H114520   0.106   0.963   1.558 -2.1906 -0.8083 -1.0890
 4852TIP3    H214521   0.057   0.823   1.590  0.7537 -1.1424  2.7110
 4853TIP3   OH214522   7.054   6.450   2.997  0.0880 -0.2469  0.2756
 4853TIP3    H114523   7.056   6.517   2.928 -0.6213  0.5660  1.0213
 4853TIP3    H214524   6.966   6.412   2.991  0.2608 -0.6527  0.2885
 4854TIP3   OH214525   0.641   0.366   5.323  0.0747  0.4677  0.1671
 4854TIP3    H114526   0.611   0.275   5.334 -1.5730  0.7545 -1.4604
 4854TIP3    H214527   0.712   0.360   5.258 -0.9388  0.4385 -0.9773
 4855TIP3   OH214528   0.489   4.147   0.297  0.1974  0.1124  0.6707
 4855TIP3    H114529   0.518   4.188   0.379  1.0509  2.4891 -0.7290
 4855TIP3    H214530   0.443   4.217   0.250  0.1525 -1.0398 -1.0838
 4856TIP3   OH214531   4.288   5.865   1.788 -0.0043  0.5452  0.3002
 4856TIP3    H114532   4.349   5.935   1.812 -1.3494  2.2639 -0.9217
 4856TIP3    H214533   4.222   5.910   1.734 -0.7099 -1.7782 -0.8960
 4857TIP3   OH214534   5.194   1.978   0.220 -0.4031  0.0158 -0.2685
 4857TIP3    H114535   5.102   2.001   0.207 -0.3730  1.8311  1.9990
 4857TIP3    H214536   5.192   1.899   0.273 -0.6609  0.1575 -0.0671
 4858TIP3   OH214537   5.820   4.581   1.248  0.2002 -0.3182  0.4173
 4858TIP3    H114538   5.866   4.665   1.243  0.0218 -0.2136  0.4905
 4858TIP3    H214539   5.767   4.588   1.328 -1.3983  0.3214 -0.6433
 4859TIP3   OH214540   3.832   1.853   0.996  0.3007 -0.2848  0.0460
 4859TIP3    H114541   3.877   1.841   0.912 -0.1742  1.1000 -0.4327
 4859TIP3    H214542   3.836   1.767   1.037 -0.1568 -1.2250 -1.7447
 4860TIP3   OH214543   1.942   5.352   2.195 -0.7754  0.0900 -0.1348
 4860TIP3    H114544   1.980   5.265   2.182  0.7669  0.8547 -0.9833
 4860TIP3    H214545   1.880   5.362   2.123 -0.9726 -0.2972 -0.0239
 4861TIP3   OH214546   6.026   1.814   4.436 -0.3968  0.9189 -0.3989
 4861TIP3    H114547   6.038   1.905   4.464  2.4121  0.3597  0.6152
 4861TIP3    H214548   6.096   1.799   4.372 -1.0521 -0.4217 -0.8481
 4862TIP3   OH214549   2.724   4.473   0.687 -0.3481 -0.3017  0.2552
 4862TIP3    H114550   2.669   4.394   0.683 -0.9187 -0.0079  1.8799
 4862TIP3    H214551   2.814   4.439   0.680 -0.6305 -0.9834 -0.2290
 4863TIP3   OH214552   4.140   1.250   3.377 -0.0878  0.2533  0.5266
 4863TIP3    H114553   4.180   1.210   3.454 -0.5151  0.5890  0.9277
 4863TIP3    H214554   4.202   1.317   3.350 -0.5117  0.9889  1.3382
 4864TIP3   OH214555   6.149   5.069   5.828  0.1127  0.2108  0.0478
 4864TIP3    H114556   6.131   4.981   5.794 -0.0225  0.3874 -0.3409
 4864TIP3    H214557   6.199   5.112   5.759  1.5563 -0.0715  0.8635
 4865TIP3   OH214558   5.176   2.318   5.438  0.1406 -0.9347 -0.0729
 4865TIP3    H114559   5.168   2.295   5.531  0.2330  0.4322  0.2979
 4865TIP3    H214560   5.227   2.247   5.400 -0.2590 -1.7307  0.8281
 4866TIP3   OH214561   2.478   4.622   2.417  0.6973 -0.1966 -0.1210
 4866TIP3    H114562   2.403   4.640   2.473 -0.0167 -0.1715 -1.0564
 4866TIP3    H214563   2.539   4.693   2.435  0.8559 -0.6487  1.2280
 4867TIP3   OH214564   2.918   0.034   1.745 -0.8623 -0.2111  0.0857
 4867TIP3    H114565   2.838   0.068   1.784 -0.7184  0.1413  0.0750
 4867TIP3    H214566   2.972   0.008   1.819  0.0483  1.8677  0.2253
 4868TIP3   OH214567   4.897   2.158   4.270 -0.8503 -0.0894 -0.0766
 4868TIP3    H114568   4.810   2.196   4.257 -0.9316 -1.2708 -5.1744
 4868TIP3    H214569   4.888   2.068   4.239  1.9713 -0.5960  0.3455
 4869TIP3   OH214570   6.653   2.906   0.520 -0.5194 -0.0208 -0.3511
 4869TIP3    H114571   6.644   2.995   0.554 -1.8849  0.0482 -0.8037
 4869TIP3    H214572   6.732   2.908   0.467  0.5419  0.3896  1.1953
 4870TIP3   OH214573   0.952   6.213   5.188  0.1278 -0.1871  0.5022
 4870TIP3    H114574   0.948   6.277   5.259  1.2992 -0.4026  0.7931
 4870TIP3    H214575   1.032   6.163   5.206 -0.0815 -0.8831 -0.4331
 4871TIP3   OH214576   4.899   2.486   0.035  0.3019  0.2063  0.3130
 4871TIP3    H114577   4.880   2.523   0.121  0.0538  0.3256  0.2076
 4871TIP3    H214578   4.890   2.560  -0.025 -0.4778 -0.0855  0.0671
 4872TIP3   OH214579   2.055   3.529   5.401 -0.0103 -0.3963 -0.5275
 4872TIP3    H114580   2.112   3.509   5.327  1.7645  1.8468  0.1166
 4872TIP3    H214581   2.025   3.619   5.385 -0.3043 -0.1900  1.0029
 4873TIP3   OH214582   5.376   2.519   2.622 -0.3811 -0.0740  0.5706
 4873TIP3    H114583   5.337   2.586   2.565 -0.8789  0.4657  1.5283
 4873TIP3    H214584   5.314   2.509   2.693  0.9766  0.4623  1.8905
 4874TIP3   OH214585   1.700   4.014   5.408 -0.0369 -0.7672  0.0239
 4874TIP3    H114586   1.645   4.083   5.444 -0.9517 -0.2769 -2.1603
 4874TIP3    H214587   1.715   3.955   5.481 -0.7938  0.7637  1.4790
 4875TIP3   OH214588   6.065   4.474   3.914  0.4782  0.0196 -0.5464
 4875TIP3    H114589   6.152   4.476   3.873  1.4005 -3.6313  0.8492
 4875TIP3    H214590   6.027   4.391   3.886 -1.8018  0.6629  0.4189
 4876TIP3   OH214591   1.983   5.349   4.223 -0.2376  0.0251 -0.0204
 4876TIP3    H114592   2.036   5.270   4.218  3.7353  2.2849  1.5328
 4876TIP3    H214593   2.000   5.395   4.141  1.0265  1.1745  0.8506
 4877TIP3   OH214594   4.151   4.183   5.678  0.5166  0.0397  0.2075
 4877TIP3    H114595   4.200   4.228   5.747  1.3145  0.0667 -0.3718
 4877TIP3    H214596   4.188   4.095   5.675  0.6170  0.0969 -0.3168
 4878TIP3   OH214597   4.965   0.379   0.081  0.2267 -0.0552 -0.1468
 4878TIP3    H114598   5.004   0.431   0.012  0.5606  0.4202  0.3939
 4878TIP3    H214599   4.993   0.421   0.162  0.0464 -0.7493  0.2865
 4879TIP3   OH214600   2.269   3.248   2.697 -0.2485 -0.4716  0.3646
 4879TIP3    H114601   2.320   3.219   2.621 -0.0353 -1.0989  0.7475
 4879TIP3    H214602   2.180   3.220   2.678 -0.3202 -0.0371  0.0416
 4880TIP3   OH214603   2.985   1.101   0.222  0.2963 -0.1220 -0.5104
 4880TIP3    H114604   2.966   1.129   0.132  0.5021  0.0734 -0.4931
 4880TIP3    H214605   3.024   1.178   0.263 -1.6432  0.4806  0.3438
 4881TIP3   OH214606   4.242   3.270   2.334  0.0707 -0.1855  0.0618
 4881TIP3    H114607   4.281   3.233   2.255 -0.7760  0.6908 -0.7902
 4881TIP3    H214608   4.217   3.194   2.387 -1.0453 -0.8367 -1.3493
 4882TIP3   OH214609   6.343   5.006   5.333  1.0241  0.4325 -0.2651
 4882TIP3    H114610   6.326   5.099   5.319  0.5797  0.4437  0.2990
 4882TIP3    H214611   6.315   4.964   5.251 -0.0630  0.6547 -0.0250
 4883TIP3   OH214612   3.893   5.890   2.871 -0.0135  0.0361  0.4255
 4883TIP3    H114613   3.860   5.817   2.923 -0.0102 -0.4511 -0.2481
 4883TIP3    H214614   3.824   5.907   2.807  0.8195 -0.6745 -0.6812
 4884TIP3   OH214615   2.760   5.534   5.312 -0.6218 -0.0757  0.2033
 4884TIP3    H114616   2.835   5.478   5.294  0.3295  0.6338  1.8266
 4884TIP3    H214617   2.785   5.620   5.278 -0.7273  0.1472  0.6872
 4885TIP3   OH214618   6.074   5.417   5.546 -0.0245  0.6066 -0.1630
 4885TIP3    H114619   6.058   5.487   5.609 -0.4036  0.5353 -0.1755
 4885TIP3    H214620   6.168   5.400   5.552 -0.1527  0.1859  0.8179
 4886TIP3   OH214621   5.203   1.720   3.074 -0.0328  0.6167  0.0047
 4886TIP3    H114622   5.171   1.703   2.985  1.4464 -1.3104 -0.2217
 4886TIP3    H214623   5.180   1.812   3.090 -2.4462  0.3565 -1.4249
 4887TIP3   OH214624   0.537   2.659   3.790 -0.1774 -0.1264 -0.8691
 4887TIP3    H114625   0.593   2.680   3.716 -0.6162  1.4884 -0.7793
 4887TIP3    H214626   0.591   2.676   3.867 -0.0740 -0.7645 -0.7919
 4888TIP3   OH214627   0.799   1.499   0.342  0.2251 -0.1897 -0.1001
 4888TIP3    H114628   0.788   1.407   0.317 -0.0917  0.4887 -2.7982
 4888TIP3    H214629   0.712   1.528   0.368 -0.1051 -0.2023 -1.1322
 4889TIP3   OH214630   2.725   6.524   4.053  0.1561 -0.0877  0.5629
 4889TIP3    H114631   2.675   6.599   4.020 -0.1534 -0.3388  0.4584
 4889TIP3    H214632   2.810   6.561   4.077  0.0549  0.2715  0.3787
 4890TIP3   OH214633   6.174   2.342   5.026 -0.1315 -0.2345 -0.5443
 4890TIP3    H114634   6.102   2.343   5.088 -1.2495  1.7036 -1.7511
 4890TIP3    H214635   6.239   2.403   5.062 -0.2122 -0.0985 -0.6248
 4891TIP3   OH214636   4.114   4.071   3.295 -0.3345  0.3529  0.2026
 4891TIP3    H114637   4.111   3.997   3.234  0.1973  1.6931 -1.5361
 4891TIP3    H214638   4.028   4.112   3.287 -0.4316  0.2561  0.7277
 4892TIP3   OH214639   0.813   5.865   3.002 -0.5024 -0.4180  0.2477
 4892TIP3    H114640   0.862   5.792   2.963 -0.7983  0.1010 -1.1491
 4892TIP3    H214641   0.870   5.896   3.073 -0.1154 -1.6315  0.4958
 4893TIP3   OH214642   4.350   5.700   1.527  0.1629  0.2254 -0.3379
 4893TIP3    H114643   4.280   5.720   1.465 -1.1538  0.0152  1.0335
 4893TIP3    H214644   4.365   5.782   1.574  0.9651  0.3133 -0.7285
 4894TIP3   OH214645   6.679   1.375   4.035 -0.1803  0.4387  0.3417
 4894TIP3    H114646   6.619   1.304   4.011 -1.4404  1.7368 -0.4934
 4894TIP3    H214647   6.749   1.331   4.084 -0.6683 -1.4428 -0.5404
 4895TIP3   OH214648   2.634   1.089   3.167 -0.4555 -0.2368 -0.5995
 4895TIP3    H114649   2.627   1.030   3.242  1.8158  0.3204  0.1266
 4895TIP3    H214650   2.545   1.124   3.156 -1.4539 -2.3548  0.0873
 4896TIP3   OH214651   6.045   6.233   4.584 -0.1056  0.1216 -0.2085
 4896TIP3    H114652   6.081   6.319   4.563 -0.8188  0.4193 -0.2559
 4896TIP3    H214653   6.030   6.235   4.679  0.0337 -0.0134 -0.1824
 4897TIP3   OH214654   2.003   6.556  -0.005  0.0002 -0.4402  0.2920
 4897TIP3    H114655   2.076   6.607   0.030 -0.5456  0.4225  0.1821
 4897TIP3    H214656   1.941   6.550   0.068  0.2459 -1.3164  0.4386
 4898TIP3   OH214657   0.646   3.492   4.023  0.3374 -0.2218  0.1317
 4898TIP3    H114658   0.672   3.578   3.991  1.4696 -0.2390  0.9272
 4898TIP3    H214659   0.616   3.446   3.945 -0.3297  0.8994 -0.2910
 4899TIP3   OH214660   5.274   4.087   3.891 -0.2884 -0.1397  0.1520
 4899TIP3    H114661   5.234   4.008   3.926 -1.8663  0.1886 -0.8445
 4899TIP3    H214662   5.241   4.094   3.802  2.7154 -0.3228 -1.1074
 4900TIP3   OH214663   4.607   6.018   3.998 -0.0748  0.5714 -0.2104
 4900TIP3    H114664   4.691   6.044   3.960 -0.7213  1.7174 -0.9177
 4900TIP3    H214665   4.574   5.952   3.937 -0.6344  1.6637 -1.1452
 4901TIP3   OH214666   3.710   4.628   4.140 -0.6622 -0.3516  0.4418
 4901TIP3    H114667   3.630   4.681   4.137 -1.6970 -1.8880 -0.8548
 4901TIP3    H214668   3.739   4.625   4.049 -2.0452 -3.9329 -0.0430
 4902TIP3   OH214669   2.329   0.886   5.867  0.5709 -0.3735  0.0052
 4902TIP3    H114670   2.249   0.899   5.919  0.1522 -1.9859 -0.1764
 4902TIP3    H214671   2.297   0.859   5.781  1.3035  0.5766 -0.5930
 4903TIP3   OH214672   3.624   3.444   5.086  0.3934 -0.2140 -0.1169
 4903TIP3    H114673   3.551   3.402   5.132  1.7028 -0.8364  1.5047
 4903TIP3    H214674   3.658   3.508   5.148  0.1724  1.3100 -1.5212
 4904TIP3   OH214675   5.216   1.868   3.808 -0.3078  0.3854 -0.5213
 4904TIP3    H114676   5.218   1.913   3.893 -0.1134  0.8176 -0.7495
 4904TIP3    H214677   5.185   1.935   3.747 -2.4974 -0.4685 -0.4648
 4905TIP3   OH214678   4.090   1.728   4.092 -0.1646 -0.0294  0.4504
 4905TIP3    H114679   4.183   1.729   4.070 -0.4585 -1.8909 -1.0743
 4905TIP3    H214680   4.050   1.670   4.027 -2.5889  1.5845  0.3832
 4906TIP3   OH214681   2.742   1.517   4.764 -0.1276  0.0601  0.4915
 4906TIP3    H114682   2.705   1.533   4.677  0.2011  0.5612  0.4402
 4906TIP3    H214683   2.701   1.435   4.792  0.6507 -0.7505 -0.6305
 4907TIP3   OH214684   3.712   0.350   4.497 -0.0990  0.2639 -0.0705
 4907TIP3    H114685   3.653   0.283   4.462 -0.3774  0.7380 -0.5151
 4907TIP3    H214686   3.657   0.427   4.510  0.0743  0.1993  1.1004
 4908TIP3   OH214687   2.283   3.965   2.504  0.4677  0.0124  0.0602
 4908TIP3    H114688   2.350   4.033   2.503  0.6664 -0.1846  0.0332
 4908TIP3    H214689   2.277   3.935   2.413 -0.3692  0.7284 -0.1350
 4909TIP3   OH214690   1.928   6.438   4.059 -0.2097 -0.1599 -0.2308
 4909TIP3    H114691   1.895   6.349   4.051  2.3758 -1.2614  0.1152
 4909TIP3    H214692   1.912   6.462   4.150  0.5478 -0.9680  0.1316
 4910TIP3   OH214693   0.988   0.172   5.543  0.2960  0.2573  0.3738
 4910TIP3    H114694   0.954   0.095   5.587  1.4884 -0.6236 -0.1842
 4910TIP3    H214695   0.967   0.245   5.602 -0.3249 -0.5622  1.1880
 4911TIP3   OH214696   6.360   1.233   2.484 -0.4267  0.1740 -0.1386
 4911TIP3    H114697   6.279   1.194   2.517  0.1022  0.7376  1.9351
 4911TIP3    H214698   6.414   1.158   2.459  0.0266 -0.4763  2.4739
 4912TIP3   OH214699   0.669   0.599   2.264 -0.3270  0.0020 -0.6366
 4912TIP3    H114700   0.601   0.615   2.330  0.3670  0.2426  0.0254
 4912TIP3    H214701   0.629   0.535   2.205 -0.2815 -1.7263  1.0987
 4913TIP3   OH214702   5.088   4.418   4.771 -0.1150  0.1880  0.2647
 4913TIP3    H114703   5.035   4.402   4.850  1.1149  0.4998  1.1734
 4913TIP3    H214704   5.071   4.341   4.716  1.7393 -1.9203  2.3839
 4914TIP3   OH214705   5.979   3.241   2.406  0.0361 -0.5346 -0.1789
 4914TIP3    H114706   5.912   3.193   2.357 -1.0024  0.3807  0.3138
 4914TIP3    H214707   5.980   3.200   2.492  0.4657 -0.8666 -0.3397
 4915TIP3   OH214708   4.231   1.597   2.635 -0.3445  0.5097  0.7551
 4915TIP3    H114709   4.164   1.666   2.630 -0.7475  0.1160  0.6906
 4915TIP3    H214710   4.205   1.534   2.568  0.5086  0.7140  0.2149
 4916TIP3   OH214711   4.392   6.058   1.577  0.2397  0.2433  0.4028
 4916TIP3    H114712   4.475   6.014   1.595  0.5431  1.0369  1.0169
 4916TIP3    H214713   4.397   6.140   1.627 -0.8270  0.3963  0.2802
 4917TIP3   OH214714   6.717   1.037   4.510  0.0274 -0.5306 -0.5362
 4917TIP3    H114715   6.711   1.118   4.459 -0.0197  0.7761  1.4146
 4917TIP3    H214716   6.794   0.992   4.475 -0.7161 -0.3250 -2.5444
 4918TIP3   OH214717   4.006   1.783   3.663 -0.3818 -0.1900 -0.0440
 4918TIP3    H114718   3.928   1.740   3.629 -0.0459 -0.9443  0.1078
 4918TIP3    H214719   3.974   1.859   3.711 -1.1405 -1.2315  1.1712
 4919TIP3   OH214720   3.219   2.272   2.062 -0.3371 -0.6089 -0.3060
 4919TIP3    H114721   3.273   2.327   2.118 -0.6074  1.3484 -1.8587
 4919TIP3    H214722   3.149   2.241   2.120 -0.6285  1.3673  0.5002
 4920TIP3   OH214723   2.412   1.642   2.073  0.5087  0.1023 -0.0014
 4920TIP3    H114724   2.455   1.558   2.086 -0.9045 -0.6569 -0.0559
 4920TIP3    H214725   2.383   1.641   1.982  1.0059  0.9179 -0.1831
 4921TIP3   OH214726   6.584   2.958   2.060  0.5001  0.0388 -0.3934
 4921TIP3    H114727   6.511   2.966   1.998 -0.4065  0.2516  0.6713
 4921TIP3    H214728   6.569   2.874   2.103  0.7380  0.2051  0.0139
 4922TIP3   OH214729   5.656   2.901   2.695 -0.0965 -0.0649  0.4077
 4922TIP3    H114730   5.629   2.990   2.670  0.7936 -0.0363 -0.5102
 4922TIP3    H214731   5.579   2.847   2.680  0.1097  0.1225 -1.5634
 4923TIP3   OH214732   7.076   2.036   2.669  0.6478 -0.0663 -0.1078
 4923TIP3    H114733   7.063   2.002   2.757  0.3684 -0.0048 -0.1234
 4923TIP3    H214734   7.039   1.970   2.611  2.4019 -0.9497 -0.2944
 4924TIP3   OH214735   5.977   4.711   2.768 -0.5897 -0.2771 -0.6187
 4924TIP3    H114736   6.068   4.704   2.798 -0.6869  0.8555  0.0059
 4924TIP3    H214737   5.977   4.671   2.681  0.7295  0.5752 -1.0399
 4925TIP3   OH214738   1.173   5.797   2.788  0.1287 -0.7550 -0.1184
 4925TIP3    H114739   1.268   5.792   2.803 -0.0742  1.0522  2.2827
 4925TIP3    H214740   1.163   5.861   2.717  0.6832  2.3120  2.3368
 4926TIP3   OH214741   1.915   4.278   2.144  0.0328  0.8589 -0.0210
 4926TIP3    H114742   1.884   4.356   2.190  0.1195 -0.6220  2.7238
 4926TIP3    H214743   1.946   4.312   2.059  0.9573  3.9579  1.3939
 4927TIP3   OH214744   5.872   2.686   4.003  0.2255  0.4490 -0.0546
 4927TIP3    H114745   5.843   2.701   4.093  0.7159  0.6076  0.0804
 4927TIP3    H214746   5.816   2.743   3.950  0.2802  0.7454  0.2042
 4928TIP3   OH214747   1.511   3.295   3.645  0.0161 -0.0919 -0.0177
 4928TIP3    H114748   1.540   3.342   3.567  0.0731  0.4778  0.3352
 4928TIP3    H214749   1.564   3.331   3.716  0.5955 -1.2363  0.1507
 4929TIP3   OH214750   0.903   6.408   0.174  0.6567  0.3076  0.1473
 4929TIP3    H114751   0.838   6.408   0.244  2.1053  1.4113  1.5925
 4929TIP3    H214752   0.888   6.326   0.126 -1.8962  0.6358  0.2479
 4930TIP3   OH214753   6.481   3.134   0.248  0.1806 -0.1880  0.0204
 4930TIP3    H114754   6.498   3.195   0.320  1.4637  0.3042 -0.6647
 4930TIP3    H214755   6.390   3.150   0.223  0.5722  1.7017 -0.3493
 4931TIP3   OH214756   6.567   4.137   3.563  0.0882 -0.2880 -0.1519
 4931TIP3    H114757   6.569   4.229   3.590  1.6664  0.2150 -1.7542
 4931TIP3    H214758   6.656   4.105   3.579 -0.1779 -1.2551 -0.4973
 4932TIP3   OH214759   6.142   3.753   2.201  0.8173 -0.1960  0.0265
 4932TIP3    H114760   6.108   3.739   2.113 -0.0125 -1.8733  0.5692
 4932TIP3    H214761   6.229   3.714   2.200  0.4195 -1.1108  0.2000
 4933TIP3   OH214762   0.952   4.539   0.920  0.5779 -0.2922  0.5285
 4933TIP3    H114763   0.885   4.508   0.982  2.1663 -0.9267  2.0233
 4933TIP3    H214764   1.005   4.462   0.901  0.7607  0.1449 -0.8023
 4934TIP3   OH214765   3.849   6.562   5.477 -0.8584  0.0183  0.7843
 4934TIP3    H114766   3.807   6.556   5.563  0.1797  1.2038  1.4132
 4934TIP3    H214767   3.805   6.636   5.434 -0.0757  0.6796  1.0883
 4935TIP3   OH214768   2.081   6.006   3.552  0.4096  0.0871 -0.0220
 4935TIP3    H114769   2.000   5.986   3.505 -0.0235 -0.0341  0.7620
 4935TIP3    H214770   2.130   6.062   3.491  0.3504 -0.9503 -1.0488
 4936TIP3   OH214771   5.539   3.548   1.402 -0.3347 -0.6646  0.6771
 4936TIP3    H114772   5.523   3.499   1.483  0.6709  0.4315  1.5813
 4936TIP3    H214773   5.621   3.595   1.419 -1.8838  2.3781  0.3910
 4937TIP3   OH214774   3.115   3.225   2.307 -0.3030  0.0198  0.3240
 4937TIP3    H114775   3.054   3.159   2.275  1.2188 -1.0117 -0.5616
 4937TIP3    H214776   3.188   3.174   2.343  0.9329  1.1923 -0.4333
 4938TIP3   OH214777   3.705   0.814   2.002  0.4147  0.1851 -0.1508
 4938TIP3    H114778   3.700   0.889   2.061 -0.2356  0.4774 -0.5682
 4938TIP3    H214779   3.630   0.759   2.027  0.1524  0.2950 -0.6794
 4939TIP3   OH214780   6.082   0.088   4.705  0.2871 -0.4149 -0.2268
 4939TIP3    H114781   6.016   0.023   4.681 -0.2480 -0.5915  1.6273
 4939TIP3    H214782   6.121   0.055   4.786  0.9932  0.8785 -0.0113
 4940TIP3   OH214783   2.860   2.552   4.668 -0.0476  0.2009 -0.1868
 4940TIP3    H114784   2.770   2.576   4.645  0.3160  0.2446 -1.7103
 4940TIP3    H214785   2.908   2.635   4.665  0.6044 -0.1684 -2.4356
 4941TIP3   OH214786   3.849   4.631   3.051  0.3307 -0.4362  0.2993
 4941TIP3    H114787   3.826   4.656   3.140 -1.6078 -0.3911 -0.1566
 4941TIP3    H214788   3.836   4.711   3.000 -2.9443 -1.4026 -0.6751
 4942TIP3   OH214789   0.416   0.576   0.484  0.1759 -0.2388 -0.3208
 4942TIP3    H114790   0.507   0.574   0.512  0.1938  0.3790 -0.3252
 4942TIP3    H214791   0.368   0.530   0.553  0.4438 -0.2667 -0.1530
 4943TIP3   OH214792   1.775   1.293   0.902  0.0818 -0.1955  0.9822
 4943TIP3    H114793   1.684   1.265   0.912 -0.5885  1.1313 -0.9262
 4943TIP3    H214794   1.777   1.342   0.820  2.2511  0.9206  1.6113
 4944TIP3   OH214795   4.562   0.067   2.824 -0.1217 -0.3123 -0.5707
 4944TIP3    H114796   4.560   0.141   2.763  0.4232 -3.0111 -4.2037
 4944TIP3    H214797   4.651   0.067   2.859 -0.2720  0.9879 -0.1503
 4945TIP3   OH214798   5.621   1.649   2.276  0.1252  0.0941  0.0159
 4945TIP3    H114799   5.572   1.731   2.276 -0.8949 -0.4830 -0.5928
 4945TIP3    H214800   5.622   1.621   2.368 -0.4644  0.2589  0.0768
 4946TIP3   OH214801   1.825   2.542   3.287  0.3810 -0.0360 -0.0567
 4946TIP3    H114802   1.741   2.526   3.330  0.2431 -1.0496 -0.6697
 4946TIP3    H214803   1.824   2.635   3.266  0.0857  0.2892  1.3485
 4947TIP3   OH214804   5.220   0.831   4.519 -0.0595  0.1215  1.1652
 4947TIP3    H114805   5.234   0.904   4.458  1.9352 -1.1444  0.0013
 4947TIP3    H214806   5.288   0.844   4.586 -0.0935 -0.3373  1.2879
 4948TIP3   OH214807   1.964   3.426   1.838 -0.2004  0.2220 -0.6547
 4948TIP3    H114808   1.956   3.517   1.809  0.3824  0.2911 -0.5981
 4948TIP3    H214809   2.043   3.424   1.891  0.3667 -0.5384 -1.5049
 4949TIP3   OH214810   1.770   3.595   2.515  0.3560 -0.0766 -0.1793
 4949TIP3    H114811   1.846   3.536   2.512  1.7456  1.1738  3.7276
 4949TIP3    H214812   1.699   3.541   2.550  0.4444 -0.4317 -0.5490
 4950TIP3   OH214813   5.465   4.794   5.678  0.8449  0.0189  0.2374
 4950TIP3    H114814   5.533   4.837   5.627 -0.1452  1.3199 -0.0364
 4950TIP3    H214815   5.462   4.842   5.761 -2.1081  2.4778 -1.0652
 4951TIP3   OH214816   7.169   5.756   0.451  0.2021 -0.5415  0.3701
 4951TIP3    H114817   7.120   5.790   0.526 -1.0885  1.5469 -1.3195
 4951TIP3    H214818   7.260   5.765   0.476 -0.1928  0.7308  1.4493
 4952TIP3   OH214819   1.074   0.400   1.763 -0.5959  0.6438  0.3353
 4952TIP3    H114820   0.982   0.378   1.781 -0.3263  0.1578  1.1739
 4952TIP3    H214821   1.070   0.486   1.720 -1.3942  1.1155  1.3012
 4953TIP3   OH214822   2.009   3.576   5.654 -0.4214  0.1108  0.2462
 4953TIP3    H114823   2.084   3.585   5.713 -0.6440  1.0951  0.3896
 4953TIP3    H214824   2.048   3.554   5.569 -0.0430 -0.4221  0.5519
 4954TIP3   OH214825   7.234   4.521   1.159 -0.1452 -0.2639  0.4436
 4954TIP3    H114826   7.197   4.465   1.227  0.0670  0.2552  0.9896
 4954TIP3    H214827   7.173   4.513   1.086 -0.9393 -0.0189  1.0641
 4955TIP3   OH214828   0.380   3.523   1.365 -0.2139 -0.1813 -0.4077
 4955TIP3    H114829   0.438   3.559   1.298  0.6059 -1.5502 -0.4578
 4955TIP3    H214830   0.292   3.530   1.327  0.0527  0.6148 -0.9097
 4956TIP3   OH214831   0.933   5.812   2.348  0.3885 -0.1074  0.1002
 4956TIP3    H114832   0.897   5.765   2.273  0.5268  0.3058 -0.2307
 4956TIP3    H214833   0.941   5.746   2.416 -2.5559  0.0678  0.7554
 4957TIP3   OH214834   2.282   5.517   5.705  0.4152 -0.0360  0.0554
 4957TIP3    H114835   2.289   5.584   5.772 -2.0929 -0.4780  0.8647
 4957TIP3    H214836   2.339   5.446   5.735 -1.5619 -0.7391  2.4748
 4958TIP3   OH214837   0.051   1.453   1.728  0.2882 -0.4622  0.2916
 4958TIP3    H114838   0.098   1.415   1.803 -0.3895  1.3441  1.7222
 4958TIP3    H214839  -0.001   1.524   1.766  0.0548  0.6535 -1.9360
 4959TIP3   OH214840   3.741   5.067   0.747  0.2583  0.3055 -0.1172
 4959TIP3    H114841   3.794   5.076   0.826  1.3652  1.7847 -0.9670
 4959TIP3    H214842   3.695   5.150   0.740 -1.1426 -0.4545 -0.1381
 4960TIP3   OH214843   5.576   4.695   3.284  0.1154 -0.3416  0.1499
 4960TIP3    H114844   5.660   4.694   3.330 -0.3907 -0.9049  1.1176
 4960TIP3    H214845   5.590   4.640   3.207  1.5287  2.1350 -1.4720
 4961TIP3   OH214846   2.836   2.258   2.224  0.8777 -0.5704 -0.4386
 4961TIP3    H114847   2.742   2.261   2.207  1.0603 -0.7971 -1.5718
 4961TIP3    H214848   2.844   2.217   2.310 -0.0565 -0.6159 -0.3681
 4962TIP3   OH214849   4.935   3.243   5.872  0.0314 -0.0218  0.1922
 4962TIP3    H114850   4.889   3.232   5.955  0.7947 -1.3805  0.4510
 4962TIP3    H214851   4.880   3.197   5.808 -0.9676  1.6728 -0.2574
 4963TIP3   OH214852   5.658   0.501   0.497  0.0925 -0.4178  0.0771
 4963TIP3    H114853   5.627   0.562   0.564  0.4210 -1.7354  1.4725
 4963TIP3    H214854   5.675   0.556   0.420 -1.3763  0.9702  0.6967
 4964TIP3   OH214855   7.125   3.378   3.688  0.0426  0.3180 -1.1150
 4964TIP3    H114856   7.135   3.472   3.702 -1.3664  0.5877 -1.7249
 4964TIP3    H214857   7.129   3.368   3.593  0.8851 -0.3453 -1.0199
 4965TIP3   OH214858   2.353   5.867   1.923 -0.1092  0.7706 -0.4020
 4965TIP3    H114859   2.300   5.896   1.850 -2.0791  1.5496  1.2414
 4965TIP3    H214860   2.294   5.870   1.999  1.9142  0.3769  1.2908
 4966TIP3   OH214861   1.879   0.029   3.654 -0.0264 -0.0865  0.1059
 4966TIP3    H114862   1.871   0.079   3.573 -2.8482 -0.3790  0.1036
 4966TIP3    H214863   1.973   0.020   3.668  0.5516  0.1000 -3.0286
 4967TIP3   OH214864   4.914   2.793   3.048  0.1142 -0.0326  0.5128
 4967TIP3    H114865   4.893   2.702   3.030  0.6815 -0.6307  2.5387
 4967TIP3    H214866   4.897   2.839   2.966  0.5601 -2.0739 -0.8000
 4968TIP3   OH214867   1.332   2.321   4.173  0.2785 -0.5046 -0.1435
 4968TIP3    H114868   1.347   2.286   4.260 -0.5661  3.8053  1.9864
 4968TIP3    H214869   1.401   2.386   4.161 -2.0674  2.0248 -0.7432
 4969TIP3   OH214870   0.689   4.152   1.055 -0.0510 -0.1377  0.1801
 4969TIP3    H114871   0.699   4.094   1.131  0.8136 -0.0548  0.1392
 4969TIP3    H214872   0.728   4.235   1.082 -1.5763  0.5560  0.3520
 4970TIP3   OH214873   6.259   2.279   5.319  0.6268 -0.1470 -0.6704
 4970TIP3    H114874   6.167   2.257   5.329  0.4008  0.3244 -1.6394
 4970TIP3    H214875   6.261   2.374   5.311  1.2831 -0.0756  0.1565
 4971TIP3   OH214876   1.036   2.678   2.261  0.3949  0.1806  0.0740
 4971TIP3    H114877   1.007   2.769   2.254  1.3302  0.3635 -2.0059
 4971TIP3    H214878   1.104   2.680   2.329 -0.1463  0.8716  0.6098
 4972TIP3   OH214879   4.760   4.998   3.342  0.0660  0.3097 -0.3824
 4972TIP3    H114880   4.768   4.918   3.289 -1.0879 -0.2256  0.2063
 4972TIP3    H214881   4.848   5.014   3.374  0.7713  0.5551 -2.3046
 4973TIP3   OH214882   1.148   4.538   0.066 -0.2771  0.4029  0.0274
 4973TIP3    H114883   1.171   4.585   0.146  0.8799  0.0850 -0.0891
 4973TIP3    H214884   1.091   4.467   0.094  1.6651 -0.9130  0.9148
 4974TIP3   OH214885   5.380   4.567   1.250 -0.1124 -0.0670 -0.3220
 4974TIP3    H114886   5.320   4.634   1.217 -0.4123 -0.1704  0.0014
 4974TIP3    H214887   5.370   4.494   1.189 -0.7122 -0.2825  0.0259
 4975TIP3   OH214888   1.903   3.890   3.404  0.8026 -0.1055  0.0093
 4975TIP3    H114889   1.855   3.823   3.355  1.6928 -0.8178  0.0718
 4975TIP3    H214890   1.837   3.953   3.432  0.0699 -0.5197 -0.7812
 4976TIP3   OH214891   0.526  -0.010   0.471 -0.0882  0.4785 -0.2867
 4976TIP3    H114892   0.458  -0.006   0.538  1.4135 -0.1836  1.3417
 4976TIP3    H214893   0.505   0.062   0.411 -2.8059 -0.3513 -0.4801
 4977TIP3   OH214894   2.345   5.747   2.801 -0.0943  0.0110  0.2755
 4977TIP3    H114895   2.391   5.811   2.857 -1.0890  0.5109  0.5313
 4977TIP3    H214896   2.408   5.675   2.792  1.1629  1.1226 -0.2534
 4978TIP3   OH214897   6.814   5.765   0.670 -1.0539  0.4451 -0.7034
 4978TIP3    H114898   6.730   5.806   0.692 -0.0637  1.7182  0.8917
 4978TIP3    H214899   6.869   5.837   0.640  1.0825  0.6979  3.1802
 4979TIP3   OH214900   3.594   4.720   5.142 -0.2270 -0.0212  0.2028
 4979TIP3    H114901   3.684   4.689   5.154  0.2195  0.0240 -2.4073
 4979TIP3    H214902   3.542   4.641   5.130 -0.4471 -0.0170  1.0561
 4980TIP3   OH214903   2.462   4.654   3.664  0.4926 -0.3365  0.3011
 4980TIP3    H114904   2.477   4.747   3.678  2.2901 -0.6848  0.9214
 4980TIP3    H214905   2.382   4.635   3.713  0.7067  0.6620  1.0669
 4981TIP3   OH214906   5.658   4.605   0.342 -0.2251  0.0928  0.6357
 4981TIP3    H114907   5.628   4.526   0.387 -0.6531 -0.2160 -0.1640
 4981TIP3    H214908   5.734   4.634   0.392 -0.7233 -0.2018  1.5836
 4982TIP3   OH214909   1.236   3.279   3.567 -0.4995 -0.3341  0.1389
 4982TIP3    H114910   1.195   3.365   3.579 -0.8241 -0.3271 -0.9216
 4982TIP3    H214911   1.309   3.279   3.628  0.9307  1.6204 -1.4327
 4983TIP3   OH214912   1.048   4.751   0.300 -0.6047  0.0259 -0.0582
 4983TIP3    H114913   1.037   4.733   0.393  0.4032 -0.1670  0.0264
 4983TIP3    H214914   0.973   4.807   0.278 -1.8367 -1.3402  0.4636
 4984TIP3   OH214915   6.873   6.258   2.865 -0.1940 -0.0038  0.3971
 4984TIP3    H114916   6.926   6.196   2.814 -0.7122 -0.1959  0.0782
 4984TIP3    H214917   6.844   6.208   2.941 -1.6527 -0.5638 -0.4896
 4985TIP3   OH214918   2.453   0.615   0.555 -0.2675 -0.3430 -0.3897
 4985TIP3    H114919   2.521   0.650   0.613 -2.1574  1.9484  0.6359
 4985TIP3    H214920   2.470   0.657   0.471  0.3983 -0.9156 -0.5532
 4986TIP3   OH214921   4.307   6.565   5.390 -0.3044 -0.5429 -0.1634
 4986TIP3    H114922   4.339   6.654   5.379  0.5127 -0.8086 -0.0013
 4986TIP3    H214923   4.265   6.564   5.476  0.2370 -0.4760  0.1027
 4987TIP3   OH214924   2.849   2.538   4.154  0.5256  0.0026 -0.1362
 4987TIP3    H114925   2.892   2.618   4.124  0.5541  0.2127  0.4361
 4987TIP3    H214926   2.811   2.562   4.239 -0.2245 -0.3441 -0.3648
 4988TIP3   OH214927   1.764   3.058   0.453 -0.2748 -0.0806 -0.4985
 4988TIP3    H114928   1.740   3.047   0.361 -2.3505 -1.6326  0.1646
 4988TIP3    H214929   1.730   2.980   0.496  2.0703 -0.1885  1.3634
 4989TIP3   OH214930   1.127   4.630   1.791 -0.2272 -0.6827  0.1177
 4989TIP3    H114931   1.106   4.563   1.726 -0.5939 -1.3791  0.9290
 4989TIP3    H214932   1.106   4.713   1.748 -0.6106 -1.1411 -0.5952
 4990TIP3   OH214933   3.022   5.768   1.237 -0.0133  0.5088  0.5595
 4990TIP3    H114934   2.962   5.812   1.177 -0.9594  1.6742  2.2850
 4990TIP3    H214935   2.966   5.709   1.288  0.6363  0.1496  0.8719
 4991TIP3   OH214936   4.479   1.520   4.756 -0.0569  0.4688 -0.4272
 4991TIP3    H114937   4.525   1.477   4.828 -0.7953  1.0616  0.4189
 4991TIP3    H214938   4.388   1.527   4.785 -0.7999 -0.9827 -2.2120
 4992TIP3   OH214939   7.076   3.998   0.912 -0.7768 -0.5739  0.2132
 4992TIP3    H114940   7.116   3.970   0.829 -0.1949  0.4522  0.1373
 4992TIP3    H214941   7.103   4.089   0.923 -2.2199 -0.1780  0.7127
 4993TIP3   OH214942   1.937   0.707   2.979 -0.2716  0.2420 -0.0014
 4993TIP3    H114943   1.918   0.681   2.889  0.4112  0.6431 -0.2680
 4993TIP3    H214944   1.857   0.747   3.011 -0.0792  1.3805 -0.9051
 4994TIP3   OH214945   3.345   1.076   4.896 -0.0220 -0.6935  0.4708
 4994TIP3    H114946   3.398   1.155   4.909  1.5374 -1.4429 -0.9534
 4994TIP3    H214947   3.332   1.072   4.801 -2.1142 -0.9168  0.7190
 4995TIP3   OH214948   5.716   5.090   4.538  0.0083 -0.5984 -0.1448
 4995TIP3    H114949   5.775   5.142   4.484  1.9906 -0.9078  1.6050
 4995TIP3    H214950   5.773   5.045   4.600 -2.0107 -1.5690  1.1277
 4996TIP3   OH214951   1.744   4.098   2.707  0.7800  0.3697  0.2132
 4996TIP3    H114952   1.708   4.019   2.748  0.4976 -0.8205 -2.1498
 4996TIP3    H214953   1.837   4.077   2.693  0.9220  0.8535  0.3959
 4997TIP3   OH214954   0.144   0.036   5.463 -0.5250  0.5890 -0.0314
 4997TIP3    H114955   0.217   0.077   5.510 -0.0087  1.9744 -1.8876
 4997TIP3    H214956   0.070   0.042   5.524  0.4774  0.7803  1.2167
 4998TIP3   OH214957   5.625   0.678   1.852  0.1398 -0.3676 -0.1553
 4998TIP3    H114958   5.698   0.648   1.799  0.7357 -1.7230  1.3186
 4998TIP3    H214959   5.665   0.731   1.921 -0.6591  1.7477 -1.2536
 4999TIP3   OH214960   2.530   1.088   4.057 -1.1693  0.3031  0.0283
 4999TIP3    H114961   2.470   1.122   3.991 -2.6869 -1.7629  0.2460
 4999TIP3    H214962   2.474   1.068   4.132 -0.2267 -1.5320  0.2948
 5000TIP3   OH214963   2.999   1.233   3.885 -0.0213  0.0220  0.1018
 5000TIP3    H114964   3.015   1.237   3.980  0.7413  1.3067 -0.0460
 5000TIP3    H214965   2.910   1.198   3.877 -0.1873  0.1098  1.3013
 5001TIP3   OH214966   5.422   2.243   0.447 -0.2608  0.1132 -0.2361
 5001TIP3    H114967   5.453   2.282   0.529 -1.2763  0.2592  0.0848
 5001TIP3    H214968   5.370   2.167   0.474 -0.6325  0.1832 -0.7465
 5002TIP3   OH214969   5.041   6.485   3.093  0.1409  0.1301  0.0580
 5002TIP3    H114970   5.097   6.517   3.022  0.6718 -1.2295 -0.1592
 5002TIP3    H214971   4.989   6.415   3.053  0.1571 -0.3770  0.9190
 5003TIP3   OH214972   3.260   2.179   5.606 -0.3408 -0.5937 -0.7330
 5003TIP3    H114973   3.185   2.207   5.658 -0.7369 -0.4970 -1.3499
 5003TIP3    H214974   3.284   2.094   5.643  1.4216  0.8478  1.7449
 5004TIP3   OH214975   4.954   2.107   0.092  0.0771 -0.6407 -0.0674
 5004TIP3    H114976   5.010   2.067   0.025  0.3055 -0.0461 -0.2394
 5004TIP3    H214977   4.865   2.090   0.062  0.1621 -1.4763  0.1356
 5005TIP3   OH214978   1.058   1.407   0.434 -0.2867  0.0401  0.1719
 5005TIP3    H114979   0.965   1.413   0.410 -0.4649  0.1558  0.8680
 5005TIP3    H214980   1.102   1.468   0.374 -0.8384  0.9885  0.7043
 5006TIP3   OH214981   1.891   6.045   2.073  0.1474 -0.2790  0.3423
 5006TIP3    H114982   1.813   6.008   2.032  0.9387 -0.5511 -0.9800
 5006TIP3    H214983   1.860   6.122   2.120 -0.6775  0.6376 -1.6060
 5007TIP3   OH214984   6.511   1.028   2.386  0.0809  0.1863 -0.2050
 5007TIP3    H114985   6.459   0.965   2.337  0.8710  0.8491 -2.0120
 5007TIP3    H214986   6.555   0.977   2.454 -2.0822 -0.5375  0.7355
 5008TIP3   OH214987   6.648   5.891   2.544  0.0962  0.3956  0.1757
 5008TIP3    H114988   6.622   5.974   2.585  0.4192  0.8958 -0.6096
 5008TIP3    H214989   6.682   5.838   2.617  0.7630  1.3051  0.5410
 5009TIP3   OH214990   3.963   4.858   5.066  1.1319 -0.0939  0.4661
 5009TIP3    H114991   3.934   4.775   5.103  0.4968 -1.5671 -2.8860
 5009TIP3    H214992   3.916   4.925   5.116 -0.5862 -1.9242  1.4469
 5010TIP3   OH214993   1.361   1.232   1.975 -0.1227 -0.4631 -0.1987
 5010TIP3    H114994   1.439   1.275   1.939 -0.3452 -0.0342 -0.1757
 5010TIP3    H214995   1.289   1.267   1.923 -0.1643 -2.0323 -1.2908
 5011TIP3   OH214996   0.404   0.824   0.665  0.1127 -0.1657 -0.3199
 5011TIP3    H114997   0.324   0.773   0.680  0.8476 -1.8292 -1.6504
 5011TIP3    H214998   0.419   0.870   0.747 -1.9902 -0.0990  0.0935
 5012TIP3   OH214999   2.230   0.728   0.223 -0.1202  0.5582  0.0072
 5012TIP3    H115000   2.238   0.633   0.232 -0.5495  0.5468  0.3138
 5012TIP3    H215001   2.145   0.748   0.263 -0.3643  0.9800 -0.7121
 5013TIP3   OH215002   2.402   0.202   2.149  0.4352 -0.1634 -0.0243
 5013TIP3    H115003   2.411   0.149   2.229  0.9100  0.3501  0.2690
 5013TIP3    H215004   2.321   0.171   2.109  0.4774 -0.8091  0.3722
 5014TIP3   OH215005   4.544   4.496   2.387  0.4636  0.5123 -0.1390
 5014TIP3    H115006   4.501   4.570   2.344  0.9468  0.8307 -0.0907
 5014TIP3    H215007   4.509   4.419   2.344  0.8577  0.8218 -1.0448
 5015TIP3   OH215008   6.455   6.732   2.073  0.0870 -0.2601 -0.3184
 5015TIP3    H115009   6.373   6.750   2.028  1.3283 -0.3968 -2.8609
 5015TIP3    H215010   6.507   6.812   2.062  0.6279 -0.4876  0.4669
 5016TIP3   OH215011   3.120   0.746   3.733 -0.3249 -0.4514  0.2055
 5016TIP3    H115012   3.183   0.796   3.682  2.5525 -3.2767  0.6541
 5016TIP3    H215013   3.106   0.666   3.683 -0.6431 -1.4813  1.8388
 5017TIP3   OH215014   2.577   5.582   4.216  0.3095  0.9672  0.1621
 5017TIP3    H115015   2.492   5.585   4.173  0.6121 -1.0589 -0.6988
 5017TIP3    H215016   2.640   5.606   4.148  0.5955  0.1173  0.1116
 5018TIP3   OH215017   2.575   3.067   0.031 -0.1594 -0.0360 -0.7437
 5018TIP3    H115018   2.535   2.986   0.060 -1.6761  1.1557  0.6900
 5018TIP3    H215019   2.664   3.064   0.066  0.0292 -1.3574 -1.2949
 5019TIP3   OH215020   6.164   3.782   4.724 -0.2522  0.1445 -0.1185
 5019TIP3    H115021   6.087   3.790   4.780 -0.7899  0.3970 -0.8693
 5019TIP3    H215022   6.193   3.692   4.735 -0.4207  0.1557  0.4669
 5020TIP3   OH215023   5.099   3.594   1.908 -0.0158 -0.8519 -0.3075
 5020TIP3    H115024   5.102   3.555   1.821  0.0021  0.6583 -1.0335
 5020TIP3    H215025   5.006   3.598   1.930 -0.1102 -0.2011 -0.7824
 5021TIP3   OH215026   3.653   3.161   1.491 -0.6017 -0.4333  0.7733
 5021TIP3    H115027   3.712   3.126   1.558  0.3947 -0.1340  0.0799
 5021TIP3    H215028   3.663   3.256   1.498  1.0140 -0.4254 -1.0683
 5022TIP3   OH215029   1.923   1.907   1.169 -0.3696  0.8076 -0.4044
 5022TIP3    H115030   1.956   1.973   1.230  1.6110 -0.6034  0.1638
 5022TIP3    H215031   1.992   1.899   1.103 -0.5232 -0.7285 -0.4143
 5023TIP3   OH215032   2.614   2.195   1.562 -0.1194  0.3302 -0.2933
 5023TIP3    H115033   2.552   2.171   1.630 -0.7043 -0.8451 -1.2081
 5023TIP3    H215034   2.683   2.243   1.608 -1.5086  1.3617  0.7863
 5024TIP3   OH215035   6.115   4.383   0.661 -0.3842  0.4417 -0.3878
 5024TIP3    H115036   6.146   4.428   0.739 -2.1039  0.6468  0.2171
 5024TIP3    H215037   6.165   4.302   0.657 -1.3627 -0.3590  1.8706
 5025TIP3   OH215038   4.721   3.843   1.942  0.0213  0.1842  0.4762
 5025TIP3    H115039   4.754   3.819   1.855 -1.7589  1.8887 -0.7730
 5025TIP3    H215040   4.766   3.925   1.963  0.6990 -0.4007  1.3289
 5026TIP3   OH215041   4.392   5.095   0.494 -0.1301  0.1645 -0.3358
 5026TIP3    H115042   4.390   5.074   0.587  2.2502 -0.1455 -0.2871
 5026TIP3    H215043   4.407   5.189   0.491  1.6976 -0.0904 -0.3236
 5027TIP3   OH215044   4.020   5.445   5.516  0.1232 -0.2291 -0.5546
 5027TIP3    H115045   3.971   5.429   5.435 -0.1846  1.0196 -0.6250
 5027TIP3    H215046   4.107   5.410   5.498 -0.5039 -1.8245 -0.6799
 5028TIP3   OH215047   1.505   4.888   0.110  0.1806  0.2445  1.0886
 5028TIP3    H115048   1.426   4.871   0.058  0.4522 -0.4730  0.8921
 5028TIP3    H215049   1.478   4.871   0.201 -0.0004  0.4081  1.0653
 5029TIP3   OH215050   6.702   2.899   3.238  0.2896 -0.5499 -0.2572
 5029TIP3    H115051   6.702   2.804   3.244 -0.1428 -0.5085  0.4263
 5029TIP3    H215052   6.788   2.925   3.271  0.5407 -0.7151 -0.7680
 5030TIP3   OH215053   1.175   2.401   3.877  0.1301  0.7918  0.2556
 5030TIP3    H115054   1.103   2.451   3.916 -0.4061  0.4171 -0.2418
 5030TIP3    H215055   1.244   2.403   3.944 -0.8500 -0.0277  1.3401
 5031TIP3   OH215056   0.164   0.397   2.393  0.3759 -0.0522 -0.0025
 5031TIP3    H115057   0.151   0.392   2.298  0.2721  0.4192 -0.0121
 5031TIP3    H215058   0.084   0.361   2.431  0.7317 -0.9848 -0.0918
 5032TIP3   OH215059   3.449   1.221   3.548 -0.1262 -0.3705  0.2234
 5032TIP3    H115060   3.406   1.178   3.473 -0.7070  0.0549  0.3117
 5032TIP3    H215061   3.390   1.207   3.621  0.2497 -0.4294  0.5200
 5033TIP3   OH215062   1.388   1.442   3.456  0.1381  0.3626 -0.2066
 5033TIP3    H115063   1.400   1.350   3.434 -1.7866 -0.6042  2.2984
 5033TIP3    H215064   1.464   1.464   3.510  1.6300  0.9132 -2.4166
 5034TIP3   OH215065   3.806   2.781   1.297 -0.0055 -0.6685  0.2950
 5034TIP3    H115066   3.815   2.709   1.360 -1.7700 -1.6218 -0.4699
 5034TIP3    H215067   3.727   2.760   1.248 -0.2341  1.5044 -0.3693
 5035TIP3   OH215068   2.527   6.013   4.041  0.9322  0.2644  0.5082
 5035TIP3    H115069   2.533   6.050   4.129 -1.4087  3.2158 -0.3694
 5035TIP3    H215070   2.433   6.004   4.026  1.2764 -0.2889 -1.6488
 5036TIP3   OH215071   1.897   3.711   1.800  0.6619  0.2274 -0.3940
 5036TIP3    H115072   1.839   3.655   1.748  0.6907 -0.3885  0.2243
 5036TIP3    H215073   1.869   3.697   1.890  0.7131  1.1708 -0.2259
 5037TIP3   OH215074   1.523   5.118   4.729  0.9188  0.3306 -0.6315
 5037TIP3    H115075   1.591   5.167   4.682  0.6812 -0.6551 -2.0638
 5037TIP3    H215076   1.547   5.026   4.717  0.0181  0.0125 -0.0646
 5038TIP3   OH215077   6.952   6.327   5.590  0.2241  0.0213  0.4755
 5038TIP3    H115078   6.887   6.302   5.656 -1.3185  2.5542  0.0418
 5038TIP3    H215079   6.979   6.415   5.614  1.5123  0.0499 -0.8959
 5039TIP3   OH215080   2.801   5.069   2.367  0.2953 -0.3319  0.5306
 5039TIP3    H115081   2.797   5.033   2.278  0.1867 -1.0977  0.8380
 5039TIP3    H215082   2.776   5.161   2.356  1.0379 -0.2152 -0.3372
 5040TIP3   OH215083   5.682   6.221   0.578 -0.3526 -0.7027 -0.5272
 5040TIP3    H115084   5.648   6.201   0.665 -0.6148  2.0245  0.0745
 5040TIP3    H215085   5.776   6.202   0.583 -0.6896 -2.4289 -0.3037
 5041TIP3   OH215086   2.264   5.304   0.422  0.1666  0.1998 -0.3120
 5041TIP3    H115087   2.183   5.256   0.439 -0.9189  1.6838 -1.0390
 5041TIP3    H215088   2.288   5.281   0.332 -1.9025  2.9581 -1.7374
 5042TIP3   OH215089   2.661   3.086   5.646 -0.4811  0.0433 -0.8117
 5042TIP3    H115090   2.617   3.170   5.660 -0.0432 -0.0677  1.7152
 5042TIP3    H215091   2.664   3.046   5.733  0.8719 -1.8245 -1.6500
 5043TIP3   OH215092   4.118   2.025   0.565  0.0888 -0.7619  0.7041
 5043TIP3    H115093   4.181   1.956   0.546  0.1683 -0.7703  0.9946
 5043TIP3    H215094   4.130   2.044   0.658 -0.1950 -0.6219  0.7139
 5044TIP3   OH215095   0.973   6.600   2.612 -0.2132 -0.7297 -0.8802
 5044TIP3    H115096   1.009   6.550   2.685  0.0400  0.5628 -0.0844
 5044TIP3    H215097   0.885   6.624   2.640  0.0654  0.2023 -0.7730
 5045TIP3   OH215098   6.981   1.280   2.764  0.3318  0.0110  0.1008
 5045TIP3    H115099   6.891   1.283   2.798 -0.3109 -0.6913 -1.4493
 5045TIP3    H215100   7.033   1.322   2.832 -1.3434  1.7088  0.4163
 5046TIP3   OH215101   6.839   1.462   1.709 -0.7015 -0.4367  0.5927
 5046TIP3    H115102   6.838   1.372   1.675 -2.5079 -0.4599  0.6572
 5046TIP3    H215103   6.797   1.514   1.640 -1.5848  0.0138  1.4630
 5047TIP3   OH215104   6.515   6.443   2.042 -0.0709 -0.2479  0.1104
 5047TIP3    H115105   6.494   6.534   2.059  0.1059 -0.2041  0.1003
 5047TIP3    H215106   6.512   6.400   2.127  1.9236  0.1977  0.4494
 5048TIP3   OH215107   2.102   0.228   3.843 -0.2529  0.3170 -0.1979
 5048TIP3    H115108   2.155   0.232   3.923 -0.1575 -0.4685 -0.2114
 5048TIP3    H215109   2.165   0.242   3.772 -0.2183  0.3392 -0.1623
 5049TIP3   OH215110   4.973   2.479   4.233 -0.1251  0.3493  0.0666
 5049TIP3    H115111   4.883   2.502   4.214 -1.1114 -0.9239  2.7051
 5049TIP3    H215112   4.993   2.522   4.316  1.2807 -0.3411  0.1323
 5050TIP3   OH215113   4.164   3.569   1.773  0.1371  0.3680 -0.0355
 5050TIP3    H115114   4.211   3.650   1.752 -0.0122  0.6199  0.5812
 5050TIP3    H215115   4.111   3.551   1.695  0.7976  0.4056 -0.5042
 5051TIP3   OH215116   0.675   0.867   3.043 -0.4775  0.2145  0.1631
 5051TIP3    H115117   0.686   0.939   2.981  0.1308  1.2229  1.3954
 5051TIP3    H215118   0.757   0.817   3.036 -1.1663 -0.7787 -1.1711
 5052TIP3   OH215119   4.808   6.135   1.662  0.3160  0.2585 -0.1692
 5052TIP3    H115120   4.847   6.222   1.668 -0.0472  0.4627 -0.7258
 5052TIP3    H215121   4.764   6.122   1.746  0.9658  0.3190  0.1862
 5053TIP3   OH215122   6.913   4.033   0.053 -0.3885 -0.1774 -0.1021
 5053TIP3    H115123   6.957   3.959   0.011 -0.8410 -0.3194 -0.3266
 5053TIP3    H215124   6.976   4.105   0.045  0.0222 -0.5138  0.0526
 5054TIP3   OH215125   6.852   5.872   3.420 -0.5438  0.0130  0.2947
 5054TIP3    H115126   6.827   5.944   3.363 -1.8206 -0.3985  0.3020
 5054TIP3    H215127   6.799   5.885   3.499 -0.7756 -0.9100  0.2998
 5055TIP3   OH215128   5.305   2.898   1.698  0.7310  0.6156 -0.1148
 5055TIP3    H115129   5.286   2.809   1.726  0.7127  1.5366  3.3045
 5055TIP3    H215130   5.269   2.904   1.610  1.0972 -2.8140 -0.6130
 5056TIP3   OH215131   2.164   0.072   3.146 -0.2883  0.0197 -0.2535
 5056TIP3    H115132   2.131   0.111   3.064 -1.4034  1.5555  0.8565
 5056TIP3    H215133   2.110   0.113   3.214  0.5656 -1.2836  1.2489
 5057TIP3   OH215134   5.804   0.724   2.994  0.3819  0.1497  0.4087
 5057TIP3    H115135   5.806   0.724   2.898 -1.2362  0.7031  0.3288
 5057TIP3    H215136   5.710   0.722   3.015  0.6330  1.8881  1.9364
 5058TIP3   OH215137   4.166   6.519   5.151 -0.0261 -0.1197  0.6451
 5058TIP3    H115138   4.240   6.561   5.106  1.1323 -0.2902  2.3097
 5058TIP3    H215139   4.187   6.527   5.244 -2.2841  0.1070  1.1773
 5059TIP3   OH215140   5.672   6.803   2.956 -0.2850 -0.2177  0.5459
 5059TIP3    H115141   5.598   6.743   2.968 -1.2309  0.1862 -2.4038
 5059TIP3    H215142   5.699   6.827   3.045 -2.8044 -1.4582  1.7368
 5060TIP3   OH215143   5.921   3.875   0.235  0.2901 -0.0057 -0.0894
 5060TIP3    H115144   5.827   3.862   0.237  0.2461 -0.1127 -1.7350
 5060TIP3    H215145   5.951   3.828   0.157  1.4210  1.5662 -0.6810
 5061TIP3   OH215146   6.140   3.380   0.045  0.1567 -0.2793  0.4421
 5061TIP3    H115147   6.049   3.405   0.030 -0.3344 -1.0150  2.0224
 5061TIP3    H215148   6.187   3.414  -0.032 -1.3012  0.8407  0.0002
 5062TIP3   OH215149   4.823   5.134   3.101  0.1282 -0.2255 -0.4728
 5062TIP3    H115150   4.795   5.087   3.180  0.4571 -0.8930 -0.7494
 5062TIP3    H215151   4.893   5.192   3.131 -1.4292  1.4185  0.2173
 5063TIP3   OH215152   2.697   1.820   1.037  0.1616  0.2465 -0.7028
 5063TIP3    H115153   2.605   1.830   1.061  0.3510 -1.0992  0.7612
 5063TIP3    H215154   2.696   1.771   0.955 -0.4226  0.6623 -0.9491
 5064TIP3   OH215155   6.443   2.172   4.612  0.4408  0.0008  0.0093
 5064TIP3    H115156   6.374   2.225   4.651  0.5144 -0.0102  0.1564
 5064TIP3    H215157   6.397   2.101   4.567  0.1809  1.6255 -2.4671
 5065TIP3   OH215158   0.888   0.448   2.502  0.3480  0.3203  0.1583
 5065TIP3    H115159   0.827   0.375   2.502  1.4463 -0.6715 -1.3353
 5065TIP3    H215160   0.859   0.504   2.430  1.0208 -0.0218 -0.3898
 5066TIP3   OH215161   6.811   4.047   5.796 -0.1267 -0.1138  0.0956
 5066TIP3    H115162   6.815   3.991   5.718  1.1724  0.8956 -0.6029
 5066TIP3    H215163   6.790   4.134   5.762  0.5246  0.3530  0.8678
 5067TIP3   OH215164   3.883   3.107   3.515 -0.2334  0.3429  0.2480
 5067TIP3    H115165   3.880   3.117   3.420 -1.2365 -1.4047  0.0576
 5067TIP3    H215166   3.803   3.060   3.536 -0.1159  0.8701  2.0015
 5068TIP3   OH215167   4.608   0.602   3.812 -0.0091 -0.7628  0.3484
 5068TIP3    H115168   4.626   0.529   3.753  0.6693  1.2953 -2.1678
 5068TIP3    H215169   4.670   0.591   3.884  0.3704 -2.4005 -0.1982
 5069TIP3   OH215170   3.580   3.562   5.603  0.2834 -0.0630 -0.5751
 5069TIP3    H115171   3.514   3.499   5.575  0.0681  0.7488 -1.9983
 5069TIP3    H215172   3.548   3.647   5.572  1.4726  0.4910 -0.3727
 5070TIP3   OH215173   3.096   6.180   5.146 -0.1636  0.4580  0.3496
 5070TIP3    H115174   3.062   6.176   5.235  0.8308 -0.0433  0.7279
 5070TIP3    H215175   3.031   6.135   5.092 -0.2345 -0.2401  1.0067
 5071TIP3   OH215176   5.368   4.651   5.286 -0.7629  0.5930 -0.6685
 5071TIP3    H115177   5.286   4.675   5.243 -0.4145  1.3431 -0.9276
 5071TIP3    H215178   5.346   4.574   5.338 -1.8559  1.3276 -0.0046
 5072TIP3   OH215179   6.851   5.877   4.040 -0.0848 -0.0780  0.1452
 5072TIP3    H115180   6.802   5.953   4.009 -1.0797 -1.1012 -0.8777
 5072TIP3    H215181   6.810   5.853   4.123 -0.1868  0.0985  0.1455
 5073TIP3   OH215182   6.879   0.461   2.982 -0.1038 -0.2658 -0.0026
 5073TIP3    H115183   6.806   0.448   3.042  0.6460 -0.8102  0.8252
 5073TIP3    H215184   6.889   0.556   2.977 -0.2168 -0.2135  0.6970
 5074TIP3   OH215185   5.377   5.834   1.320  0.1118 -0.0504 -0.1844
 5074TIP3    H115186   5.366   5.781   1.241 -1.2409 -1.4118  0.8490
 5074TIP3    H215187   5.424   5.912   1.291  0.3963 -0.9054 -2.1528
 5075TIP3   OH215188   0.612   5.983   4.999  0.2301  0.4631  0.2457
 5075TIP3    H115189   0.672   6.055   5.022 -1.0846  1.3755  0.9561
 5075TIP3    H215190   0.526   6.025   4.990 -0.3571 -0.8378 -0.5785
 5076TIP3   OH215191   1.859   2.817   2.769 -0.4953 -0.0393  0.1518
 5076TIP3    H115192   1.813   2.840   2.689 -1.3740  2.2815  1.2137
 5076TIP3    H215193   1.791   2.812   2.836  0.3973 -0.1230  1.0915
 5077TIP3   OH215194   1.612   5.063   4.244  0.3856 -0.1160 -0.7819
 5077TIP3    H115195   1.645   4.991   4.190  0.7543 -1.7286  1.4541
 5077TIP3    H215196   1.517   5.059   4.233  0.4509 -0.4552 -1.2612
 5078TIP3   OH215197   3.169   0.393   0.818  0.0244 -0.0008  0.2286
 5078TIP3    H115198   3.091   0.438   0.850  0.2263  0.2871  0.3136
 5078TIP3    H215199   3.240   0.455   0.830 -0.1650  0.8722 -2.4652
 5079TIP3   OH215200   4.931   3.393   0.770  0.5709 -0.0350 -0.2636
 5079TIP3    H115201   4.962   3.467   0.717  0.4679 -0.5584 -1.0671
 5079TIP3    H215202   4.856   3.429   0.819  0.8175  0.5222 -0.2844
 5080TIP3   OH215203   3.181   0.105   4.005  0.3844 -1.1309  0.0569
 5080TIP3    H115204   3.095   0.077   3.975  0.3092 -0.0633 -0.7371
 5080TIP3    H215205   3.229   0.023   4.019  0.0092 -1.7012 -1.7643
 5081TIP3   OH215206   2.334   4.021   4.507  0.4127  0.5444  0.2667
 5081TIP3    H115207   2.328   3.964   4.430  0.0643  0.1426  0.5881
 5081TIP3    H215208   2.264   3.991   4.564 -1.1864  2.6429 -0.4611
 5082TIP3   OH215209   1.961   6.607   4.703 -0.1442  0.2061  0.1359
 5082TIP3    H115210   2.032   6.600   4.639  0.5906  1.1765  0.8257
 5082TIP3    H215211   1.883   6.579   4.654  0.4801  0.4465 -1.0451
 5083TIP3   OH215212   2.691   5.597   0.013 -1.1992 -0.2520  0.3118
 5083TIP3    H115213   2.634   5.672  -0.006  0.2250  0.5860 -0.8791
 5083TIP3    H215214   2.777   5.636   0.028 -0.4671 -1.6398 -0.0910
 5084TIP3   OH215215   1.074   2.264   1.784  0.5289  0.5026  0.1462
 5084TIP3    H115216   1.129   2.235   1.857 -0.5341 -0.1466  0.7087
 5084TIP3    H215217   1.110   2.218   1.708  1.6689  1.2095  0.2316
 5085TIP3   OH215218   3.652   1.297   5.622  0.0741 -0.1425 -0.1289
 5085TIP3    H115219   3.711   1.342   5.562  1.4559 -0.8791  0.6184
 5085TIP3    H215220   3.668   1.204   5.607  1.3741 -0.3659  2.1503
 5086TIP3   OH215221   4.659   5.348   4.496 -0.5705  0.0100  0.5110
 5086TIP3    H115222   4.692   5.410   4.430 -0.6112 -0.5423 -0.0342
 5086TIP3    H215223   4.738   5.317   4.541 -0.5337  0.3198  0.6595
 5087TIP3   OH215224   3.549   2.335   4.024 -0.6053 -0.4687 -0.2177
 5087TIP3    H115225   3.463   2.311   3.990 -0.7461 -0.1872 -0.0684
 5087TIP3    H215226   3.611   2.303   3.959 -0.7739 -1.3948  0.0672
 5088TIP3   OH215227   5.201   4.162   2.564 -0.2353  0.3446  0.0667
 5088TIP3    H115228   5.261   4.170   2.491 -0.2011 -1.2531 -0.1192
 5088TIP3    H215229   5.197   4.068   2.582  1.7700  0.7747  3.7766
 5089TIP3   OH215230   2.664   6.134   3.805  0.0515 -0.2458 -0.5658
 5089TIP3    H115231   2.634   6.224   3.814  1.7709  0.3362 -0.3604
 5089TIP3    H215232   2.614   6.086   3.872 -0.3845  0.6725 -0.2132
 5090TIP3   OH215233   1.806   5.197   4.381 -0.3545 -0.0216 -0.1603
 5090TIP3    H115234   1.849   5.243   4.308 -1.0858  0.5756 -0.2287
 5090TIP3    H215235   1.739   5.142   4.339 -0.0959 -0.4567 -0.0087
 5091TIP3   OH215236   6.527   2.478   5.411 -0.0525 -0.4317 -0.0622
 5091TIP3    H115237   6.586   2.403   5.408 -0.3365 -0.6769  0.3660
 5091TIP3    H215238   6.547   2.527   5.332  1.9610  0.4381  0.9202
 5092TIP3   OH215239   6.228   3.038   2.198  0.3103  0.3151  0.3118
 5092TIP3    H115240   6.264   3.127   2.199  1.3166 -0.0741  0.4499
 5092TIP3    H215241   6.154   3.043   2.139  0.0170  1.3702  0.7383
 5093TIP3   OH215242   6.709   5.076   0.036  0.4545  0.3441  0.4277
 5093TIP3    H115243   6.622   5.061   0.075  0.4062  0.1571  0.2468
 5093TIP3    H215244   6.756   5.127   0.103 -0.6587  2.7611 -0.5017
 5094TIP3   OH215245   4.134   6.205   0.008  0.6136 -0.6221  0.1039
 5094TIP3    H115246   4.222   6.243   0.015 -0.2363  1.2825  1.2153
 5094TIP3    H215247   4.137   6.127   0.063  0.5651  1.6655  3.7045
 5095TIP3   OH215248   4.658   1.896   0.548 -0.0321 -0.3405  0.5511
 5095TIP3    H115249   4.743   1.938   0.558 -0.5331  0.6690  0.8374
 5095TIP3    H215250   4.677   1.804   0.532  1.1608  0.1451 -1.0976
 5096TIP3   OH215251   1.118   4.072   3.878 -0.3181 -0.0230  0.1900
 5096TIP3    H115252   1.183   4.018   3.923 -0.5325  0.3098  0.9074
 5096TIP3    H215253   1.095   4.139   3.942 -0.3742  0.6584 -0.5391
 5097TIP3   OH215254   1.554   5.238   3.957  0.4739 -0.4094  0.4966
 5097TIP3    H115255   1.613   5.166   3.978 -0.1410 -0.8152  0.8856
 5097TIP3    H215256   1.494   5.202   3.892 -0.1990 -0.4498  1.1182
 5098TIP3   OH215257   5.419   3.400   3.674  0.2454 -0.1724  0.1109
 5098TIP3    H115258   5.375   3.462   3.615  1.0073  2.5992  2.2338
 5098TIP3    H215259   5.348   3.359   3.723 -0.2849 -1.2203 -1.4677
 5099TIP3   OH215260   2.567   6.558   0.058  0.5454  0.1356  0.6294
 5099TIP3    H115261   2.546   6.651   0.067 -2.0007 -0.2147 -0.7380
 5099TIP3    H215262   2.591   6.548  -0.035 -0.0712 -0.6896  0.5495
 5100TIP3   OH215263   0.265   4.235   0.802 -0.6112  0.0407  0.1334
 5100TIP3    H115264   0.351   4.195   0.786 -1.7263 -2.5192  0.0687
 5100TIP3    H215265   0.285   4.319   0.843  1.9403  0.0335 -0.9124
 5101TIP3   OH215266   5.128   5.727   5.580  0.0041 -0.6073 -0.2043
 5101TIP3    H115267   5.065   5.754   5.514 -0.9193  0.4693  1.0687
 5101TIP3    H215268   5.210   5.715   5.532 -0.7130 -0.1439 -1.5804
 5102TIP3   OH215269   4.657   1.187   3.372 -0.3167  0.0300 -1.1517
 5102TIP3    H115270   4.650   1.269   3.420  0.7968 -1.8364  2.5986
 5102TIP3    H215271   4.569   1.149   3.377 -0.8562  0.9309 -2.9688
 5103TIP3   OH215272   3.296   1.689   5.053  0.6220  0.1630 -0.0510
 5103TIP3    H115273   3.374   1.635   5.064  1.7942  1.2814 -2.1273
 5103TIP3    H215274   3.325   1.778   5.076 -0.3877  0.4003  0.3314
 5104TIP3   OH215275   4.402   6.166   4.359 -0.5165 -0.1599  0.3336
 5104TIP3    H115276   4.454   6.223   4.303  1.6084 -0.8886  1.4479
 5104TIP3    H215277   4.408   6.080   4.319 -1.6963 -0.1035 -0.0220
 5105TIP3   OH215278   4.141   5.281   5.740  0.1298 -0.2335  0.1387
 5105TIP3    H115279   4.213   5.331   5.701  0.5858 -0.5020  0.6275
 5105TIP3    H215280   4.134   5.313   5.830 -0.5653  0.0044  0.0092
 5106TIP3   OH215281   0.823   4.738   3.244  0.0847  0.1536  0.4324
 5106TIP3    H115282   0.857   4.758   3.331  1.5470 -1.1818  0.2293
 5106TIP3    H215283   0.872   4.795   3.185 -0.2473  0.4010  0.3906
 5107TIP3   OH215284   6.137   1.368   4.741  0.7145 -0.3356  0.4186
 5107TIP3    H115285   6.167   1.459   4.750 -0.5959 -0.0322  2.1747
 5107TIP3    H215286   6.061   1.373   4.683  0.2554 -0.2044  1.0224
 5108TIP3   OH215287   4.263   2.125   2.281 -0.1835  0.0830 -0.3122
 5108TIP3    H115288   4.177   2.166   2.273 -0.5694 -0.4742  0.7611
 5108TIP3    H215289   4.271   2.071   2.203 -1.0692 -0.3061 -0.1433
 5109TIP3   OH215290   3.463   3.374   3.127 -0.1853  0.3703 -0.1350
 5109TIP3    H115291   3.489   3.284   3.108 -0.2485  0.3684 -0.2120
 5109TIP3    H215292   3.367   3.370   3.134 -0.2080  0.4814 -0.3986
 5110TIP3   OH215293   3.484   3.345   0.963  0.5785  0.1199  0.0974
 5110TIP3    H115294   3.443   3.258   0.959  0.0830  0.3828 -1.7667
 5110TIP3    H215295   3.577   3.329   0.949  0.3381 -0.0680 -1.5479
 5111TIP3   OH215296   6.166   4.062   1.919 -0.1116  0.3234  0.0082
 5111TIP3    H115297   6.130   4.009   1.991 -2.1202  0.4828 -0.7934
 5111TIP3    H215298   6.238   4.009   1.884 -0.6402 -0.8563  0.6384
 5112TIP3   OH215299   1.485   5.947   4.290  0.5304 -0.6786  0.5154
 5112TIP3    H115300   1.403   5.907   4.318  1.1886 -0.4834  2.9897
 5112TIP3    H215301   1.548   5.924   4.358  1.8682  1.3948  0.0938
 5113TIP3   OH215302   1.767   4.821   4.158 -0.0028 -0.0325 -0.0923
 5113TIP3    H115303   1.840   4.819   4.221 -2.3604 -1.4348  2.8689
 5113TIP3    H215304   1.764   4.733   4.122 -1.1686 -0.5214  1.1058
 5114TIP3   OH215305   4.739   5.532   4.272 -0.3555 -0.2234 -0.2799
 5114TIP3    H115306   4.696   5.559   4.192  0.3781  2.3034  0.0906
 5114TIP3    H215307   4.810   5.475   4.243  1.2943  2.3771 -1.7406
 5115TIP3   OH215308   0.975   1.435   1.693 -0.1636  0.0790 -0.3319
 5115TIP3    H115309   1.057   1.463   1.651  0.1333 -2.2329 -1.4580
 5115TIP3    H215310   1.003   1.370   1.757 -0.9250  1.2230  1.1989
 5116TIP3   OH215311   6.280   2.736   3.093  0.1915 -0.1935  0.7870
 5116TIP3    H115312   6.311   2.648   3.073 -0.5130 -0.3008  0.1422
 5116TIP3    H215313   6.198   2.723   3.141 -0.1427  0.1082  0.3088
 5117TIP3   OH215314   3.571   4.220   2.786 -0.1501  0.3585 -0.2103
 5117TIP3    H115315   3.614   4.138   2.813 -0.6540 -0.0086 -0.4908
 5117TIP3    H215316   3.630   4.289   2.815  0.5670 -0.1281 -0.4788
 5118TIP3   OH215317   0.240   1.073   0.190 -0.3533 -0.1081 -0.3374
 5118TIP3    H115318   0.269   1.026   0.269  1.2225  1.0525 -0.1718
 5118TIP3    H215319   0.198   1.005   0.136  0.6791 -1.4340  0.4454
 5119TIP3   OH215320   4.193   0.751   5.763  0.0122  0.7904 -0.2318
 5119TIP3    H115321   4.229   0.840   5.759  0.8954  0.4299 -0.5994
 5119TIP3    H215322   4.248   0.706   5.827  0.3371  0.1826 -0.9229
 5120TIP3   OH215323   2.858   1.051   1.383  0.2799  0.1368 -0.4664
 5120TIP3    H115324   2.946   1.058   1.418  0.1229  0.4088 -0.1229
 5120TIP3    H215325   2.870   1.016   1.294  0.5335 -2.7820  0.6208
 5121TIP3   OH215326   3.013   4.903   3.427  0.1594  0.0428 -0.4891
 5121TIP3    H115327   2.992   4.988   3.464 -1.0513  0.2286 -1.5336
 5121TIP3    H215328   3.092   4.918   3.375  0.5772  0.2651  0.1899
 5122TIP3   OH215329   1.792   5.128   1.590  0.1111 -0.1810 -0.3789
 5122TIP3    H115330   1.798   5.197   1.656  1.1865  0.2284 -0.8715
 5122TIP3    H215331   1.875   5.080   1.597 -0.4776 -1.2129 -0.2823
 5123TIP3   OH215332   6.383   0.745   1.856 -0.3640 -0.1672 -0.2156
 5123TIP3    H115333   6.403   0.824   1.906 -3.2521  0.2738  0.4209
 5123TIP3    H215334   6.353   0.778   1.771 -1.1629 -0.5860 -0.1037
 5124TIP3   OH215335   4.000   4.403   1.946  0.0885  0.7665 -0.3427
 5124TIP3    H115336   3.946   4.403   2.024  1.5265 -1.9400  0.8178
 5124TIP3    H215337   3.938   4.393   1.874 -1.0769 -1.3090  0.8507
 5125TIP3   OH215338   3.778   1.111   4.234 -0.2541  0.4161  0.4843
 5125TIP3    H115339   3.783   1.139   4.325 -2.1538  1.8526  0.2133
 5125TIP3    H215340   3.772   1.193   4.184  1.6448 -0.2870 -1.0521
 5126TIP3   OH215341   0.550   3.308   2.198  0.0767 -0.0159 -0.3869
 5126TIP3    H115342   0.488   3.305   2.125 -0.0790 -1.4465 -0.2329
 5126TIP3    H215343   0.503   3.354   2.267 -0.7540 -0.8622 -0.3566
 5127TIP3   OH215344   6.405   1.544   1.077 -0.0404  0.8780  0.1795
 5127TIP3    H115345   6.463   1.602   1.027  1.3256 -1.0925 -0.6631
 5127TIP3    H215346   6.444   1.541   1.165  2.1225 -1.4621 -0.7091
 5128TIP3   OH215347   1.911   2.793   3.221 -0.2824 -0.5733  0.3480
 5128TIP3    H115348   1.873   2.850   3.154 -2.8356 -0.8799  1.4028
 5128TIP3    H215349   1.976   2.848   3.265 -1.0794  0.7901 -0.1188
 5129TIP3   OH215350   2.475   3.254   0.321  0.5670  0.2190  0.5450
 5129TIP3    H115351   2.492   3.321   0.386 -0.3247  0.9923 -0.0042
 5129TIP3    H215352   2.494   3.171   0.366 -3.4980  0.4036  3.0669
 5130TIP3   OH215353   6.665   1.512   0.132 -0.2682  0.2937  0.2380
 5130TIP3    H115354   6.657   1.511   0.036  2.8954 -2.7558 -0.2194
 5130TIP3    H215355   6.751   1.550   0.148 -0.1385 -0.5651  1.7585
 5131TIP3   OH215356   0.743   1.751   4.643 -0.7213 -0.1440  0.2102
 5131TIP3    H115357   0.742   1.667   4.688 -1.4876 -0.3016 -0.0864
 5131TIP3    H215358   0.828   1.754   4.598 -0.7708 -0.8447  0.0708
 5132TIP3   OH215359   1.836   5.251   0.605  0.0108 -0.0751 -0.2621
 5132TIP3    H115360   1.837   5.309   0.682  4.6776  0.8451 -0.7202
 5132TIP3    H215361   1.865   5.166   0.639 -0.6531 -0.4453 -0.6009
 5133TIP3   OH215362   6.963   0.942   2.510 -0.3723 -0.6699  0.0523
 5133TIP3    H115363   6.994   1.029   2.486 -0.0450 -0.8185 -0.0608
 5133TIP3    H215364   7.029   0.908   2.570  0.1942 -1.3780 -0.9467
 5134TIP3   OH215365   7.031   4.374   3.765 -0.3534 -0.7582 -0.0091
 5134TIP3    H115366   7.039   4.300   3.704 -0.1277 -0.8489  0.1322
 5134TIP3    H215367   7.108   4.428   3.747 -0.6326 -0.4402 -0.2681
 5135TIP3   OH215368   6.089   6.047   5.412  0.0274 -0.0290 -0.0512
 5135TIP3    H115369   6.111   6.010   5.327 -1.8421 -0.0500 -0.5661
 5135TIP3    H215370   5.995   6.032   5.421  0.1990 -0.1352  2.0746
 5136TIP3   OH215371   0.101   4.713   2.184  0.1889  0.3608  0.2866
 5136TIP3    H115372   0.161   4.773   2.227  0.7449 -0.6091  0.8845
 5136TIP3    H215373   0.044   4.681   2.254  0.5295 -0.5556  0.1557
 5137TIP3   OH215374   5.811   1.425   4.937  0.1438 -0.7675  0.6708
 5137TIP3    H115375   5.790   1.504   4.987 -0.7475 -1.2062  1.0008
 5137TIP3    H215376   5.904   1.436   4.913  0.0848  0.2854  0.8693
 5138TIP3   OH215377   1.299   6.125   0.038 -0.2606  0.0765  0.0445
 5138TIP3    H115378   1.241   6.082   0.100  0.1058 -0.6534 -0.0995
 5138TIP3    H215379   1.382   6.134   0.085 -1.0840  3.3086  1.1204
 5139TIP3   OH215380   0.532   3.065   0.833 -0.7288  0.0719 -0.0221
 5139TIP3    H115381   0.552   3.096   0.921 -0.8055  1.5335 -0.4937
 5139TIP3    H215382   0.610   3.086   0.782 -0.4915 -1.2040 -0.2179
 5140TIP3   OH215383   1.924   1.480   4.426  0.2503  0.1761  0.7281
 5140TIP3    H115384   1.988   1.432   4.478  1.1426  1.1193  0.5133
 5140TIP3    H215385   1.973   1.550   4.385 -0.9654  1.0847  0.7592
 5141TIP3   OH215386   1.621   5.586   0.475  0.0772 -0.0597 -0.2818
 5141TIP3    H115387   1.595   5.675   0.454 -0.2771 -0.0422  0.2125
 5141TIP3    H215388   1.539   5.538   0.484  0.2712 -0.7216 -1.6836
 5142TIP3   OH215389   2.015   1.088   1.684  0.3562  0.4198  0.4033
 5142TIP3    H115390   2.084   1.037   1.640  0.1616  0.3590  0.1706
 5142TIP3    H215391   2.051   1.176   1.690 -0.5348  1.0214 -1.9969
 5143TIP3   OH215392   0.102   6.549   5.887  0.0147 -0.1508 -0.3922
 5143TIP3    H115393   0.023   6.587   5.924  1.1516  1.6822  0.3058
 5143TIP3    H215394   0.086   6.546   5.793 -1.5008 -1.4260 -0.1344
 5144TIP3   OH215395   5.208   2.903   0.899 -0.4123  0.1622  0.0830
 5144TIP3    H115396   5.276   2.949   0.948 -1.0405  0.3915  0.7602
 5144TIP3    H215397   5.184   2.964   0.829 -0.5079  0.4343  0.3494
 5145TIP3   OH215398   1.142   2.313   3.019 -0.5460 -0.4210  0.4917
 5145TIP3    H115399   1.231   2.306   3.054 -0.9287  0.5646  1.7312
 5145TIP3    H215400   1.148   2.385   2.956 -0.4876 -0.2999  0.6355
 5146TIP3   OH215401   6.214   3.939   2.824  0.4063 -0.3248  0.5081
 5146TIP3    H115402   6.121   3.954   2.840  0.0568 -2.1390  0.2925
 5146TIP3    H215403   6.254   4.025   2.841 -1.2430  0.4250  0.8813
 5147TIP3   OH215404   1.445   5.381   4.830 -0.3964  0.2897  0.0065
 5147TIP3    H115405   1.528   5.379   4.879 -0.1183  1.9072 -0.3298
 5147TIP3    H215406   1.447   5.302   4.777  0.5606 -0.1137  0.6151
 5148TIP3   OH215407   6.107   4.798   3.345 -0.2078  0.0093  0.0893
 5148TIP3    H115408   6.027   4.851   3.343 -0.4376 -0.3516 -0.6124
 5148TIP3    H215409   6.173   4.852   3.301  0.2298  0.7419  1.5691
 5149TIP3   OH215410   6.512   4.986   0.200  0.0513 -0.5680  0.1000
 5149TIP3    H115411   6.533   5.012   0.290 -1.5853  2.4163 -0.2468
 5149TIP3    H215412   6.416   4.981   0.199 -0.0492  0.9385 -1.8019
 5150TIP3   OH215413   3.427   1.504   5.428  0.6048  0.1566  0.0303
 5150TIP3    H115414   3.427   1.567   5.500  2.1092  0.0237  0.1817
 5150TIP3    H215415   3.336   1.502   5.398  0.2130  1.1991  1.0573
 5151TIP3   OH215416   2.648   5.047   2.848 -0.2563 -0.2815 -0.5618
 5151TIP3    H115417   2.738   5.069   2.825 -0.9327  2.7660 -0.6713
 5151TIP3    H215418   2.600   5.129   2.840 -2.5220 -1.1726  2.1688
 5152TIP3   OH215419   0.163   3.244   4.861  0.1248  0.1410  0.6232
 5152TIP3    H115420   0.250   3.277   4.841  0.2419 -0.7841 -0.4779
 5152TIP3    H215421   0.178   3.173   4.924  0.1001  0.4309  0.9592
 5153TIP3   OH215422   1.809   6.511   2.033 -0.4171  0.2937  0.0333
 5153TIP3    H115423   1.883   6.573   2.033  0.4214 -0.6339  1.8092
 5153TIP3    H215424   1.786   6.502   1.941  1.0545  1.3632 -0.4828
 5154TIP3   OH215425   4.375   5.809   4.461 -0.5845  0.2378 -0.1205
 5154TIP3    H115426   4.302   5.748   4.470  0.1242 -0.6120  0.0335
 5154TIP3    H215427   4.411   5.791   4.374  2.1520 -2.5217  1.3933
 5155TIP3   OH215428   6.220   6.410   3.179  0.7788  0.1686 -0.1082
 5155TIP3    H115429   6.275   6.488   3.190  1.7383 -0.5811  0.5434
 5155TIP3    H215430   6.278   6.337   3.198 -0.4030 -0.6637  0.4141
 5156TIP3   OH215431   7.000   1.952   4.011 -0.2300 -0.0397 -1.0869
 5156TIP3    H115432   7.080   1.996   4.040 -1.5116  0.2166  2.5515
 5156TIP3    H215433   7.031   1.875   3.963  2.4769 -1.8012  2.9465
 5157TIP3   OH215434   2.892   1.910   1.503 -0.0931 -0.0891 -0.1713
 5157TIP3    H115435   2.956   1.968   1.544 -0.2513  0.4323 -0.6609
 5157TIP3    H215436   2.890   1.833   1.561  0.8153 -0.0258 -0.0373
 5158TIP3   OH215437   5.976   4.711   1.614 -0.3575  0.9390  0.2538
 5158TIP3    H115438   6.011   4.638   1.665 -1.8278  1.6016  2.3236
 5158TIP3    H215439   6.053   4.750   1.572  0.3861 -2.3065 -1.7852
 5159TIP3   OH215440   5.709   1.793   0.895  0.1819 -0.1229 -0.6566
 5159TIP3    H115441   5.775   1.726   0.913  1.6678  1.0796 -1.4141
 5159TIP3    H215442   5.736   1.868   0.948 -0.5800  0.3781 -0.9671
 5160TIP3   OH215443   1.840   5.987   2.448 -0.1098 -0.1789 -0.0325
 5160TIP3    H115444   1.902   5.929   2.492 -1.1470  0.3832  2.3884
 5160TIP3    H215445   1.782   5.928   2.399  1.7341 -0.7599 -1.6255
 5161TIP3   OH215446   3.873   1.994   0.408  0.5371  0.4094  0.7049
 5161TIP3    H115447   3.820   1.951   0.475  0.8343  0.1560  0.7809
 5161TIP3    H215448   3.956   2.014   0.452  0.1903  1.6140  0.8477
 5162TIP3   OH215449   6.178   1.758   1.922 -0.4768 -0.8224  0.0808
 5162TIP3    H115450   6.150   1.807   1.845 -1.3439 -0.6313  0.5116
 5162TIP3    H215451   6.266   1.727   1.899  0.3625  1.4019 -0.0044
 5163TIP3   OH215452   3.871   4.961   1.111 -0.4230  0.1444 -0.1043
 5163TIP3    H115453   3.829   5.036   1.154  0.1123  1.1534 -1.2955
 5163TIP3    H215454   3.963   4.985   1.108 -0.3140 -0.3777 -0.8740
 5164TIP3   OH215455   2.228   5.608   1.164 -0.5673 -0.4017  0.0826
 5164TIP3    H115456   2.171   5.683   1.146 -0.5539 -0.5110 -0.4181
 5164TIP3    H215457   2.310   5.629   1.120 -0.6928 -0.8848 -0.4017
 5165TIP3   OH215458   5.658   4.235   2.158 -0.0387  0.2348 -0.2428
 5165TIP3    H115459   5.569   4.210   2.134 -0.7111  1.4548  0.8623
 5165TIP3    H215460   5.667   4.325   2.128  0.4949  0.4213  0.4326
 5166TIP3   OH215461   6.012   4.693   4.543 -0.0873  0.4285 -0.4632
 5166TIP3    H115462   6.011   4.774   4.592 -0.8792 -0.5035  1.1541
 5166TIP3    H215463   6.104   4.677   4.522  0.0993  1.5517 -0.5176
 5167TIP3   OH215464   1.148   4.134   4.391  0.6121 -0.2965 -0.4336
 5167TIP3    H115465   1.082   4.170   4.451  1.1723  0.8172 -0.4705
 5167TIP3    H215466   1.222   4.112   4.447  0.7226 -0.2888 -0.5780
 5168TIP3   OH215467   4.317   5.067   2.854  0.3005 -0.0835  0.0274
 5168TIP3    H115468   4.248   5.004   2.837  1.7605 -1.8201  0.2636
 5168TIP3    H215469   4.286   5.148   2.813  0.2439 -1.9787 -4.1333
 5169TIP3   OH215470   3.916   2.779   4.596 -0.2299  0.4274 -0.6944
 5169TIP3    H115471   3.883   2.843   4.533  0.2722 -0.0349 -1.4427
 5169TIP3    H215472   3.967   2.717   4.544  0.3627  0.1407  0.1864
 5170TIP3   OH215473   0.140   0.964   2.443  0.4640 -0.0351  0.0816
 5170TIP3    H115474   0.219   0.914   2.425 -0.2733 -1.0971 -0.3046
 5170TIP3    H215475   0.091   0.961   2.361  0.0515  0.6801  0.2925
 5171TIP3   OH215476   6.943   2.932   4.925  0.5451  0.6302  0.3651
 5171TIP3    H115477   6.856   2.973   4.928  0.7146  1.1580 -0.9956
 5171TIP3    H215478   6.926   2.839   4.933 -0.1134  0.7593  0.5471
 5172TIP3   OH215479   3.390   2.161   2.339  0.7940 -0.2875 -0.2698
 5172TIP3    H115480   3.314   2.142   2.285  0.1174 -1.0706  0.9006
 5172TIP3    H215481   3.457   2.099   2.310  1.0906  0.5519 -1.4533
 5173TIP3   OH215482   1.551   3.466   2.681  0.4299  0.1597  0.0619
 5173TIP3    H115483   1.527   3.545   2.729  0.3812 -0.5983  1.3239
 5173TIP3    H215484   1.473   3.444   2.631  0.1986  0.5160  0.2599
 5174TIP3   OH215485   5.832   3.885   3.860  0.0025  0.7856 -0.6263
 5174TIP3    H115486   5.902   3.822   3.875 -0.4328  0.6270  0.8893
 5174TIP3    H215487   5.828   3.937   3.940 -0.9199  1.4815 -1.0962
 5175TIP3   OH215488   1.999   3.044   3.386  0.3346 -0.1053  0.4405
 5175TIP3    H115489   2.070   3.038   3.450  0.3514 -0.2702  0.4085
 5175TIP3    H215490   1.919   3.031   3.437  0.2935  0.5719  0.5534
 5176TIP3   OH215491   1.364   5.130   1.857  0.7310 -0.2960  0.5499
 5176TIP3    H115492   1.296   5.197   1.859  0.4919 -0.5414  0.5814
 5176TIP3    H215493   1.332   5.061   1.914  0.1802 -1.2020 -0.7881
 5177TIP3   OH215494   5.887   3.458   2.736 -0.5477  0.0058 -0.2405
 5177TIP3    H115495   5.833   3.463   2.657  0.1307  1.1777 -0.6658
 5177TIP3    H215496   5.919   3.548   2.748  0.3227 -0.4117  0.6864
 5178TIP3   OH215497   6.879   3.630   5.606  0.8170 -0.4166 -0.2813
 5178TIP3    H115498   6.804   3.614   5.663  0.5094  0.5732 -0.3940
 5178TIP3    H215499   6.867   3.568   5.533  0.4281 -0.6674 -0.0083
 5179TIP3   OH215500   2.664   0.144   3.850 -0.0085 -0.0832  0.0401
 5179TIP3    H115501   2.664   0.176   3.759  2.0191 -0.0602  0.0079
 5179TIP3    H215502   2.664   0.049   3.841  2.3262 -0.1384 -0.1100
 5180TIP3   OH215503   4.068   1.545   3.091  0.3682 -0.2656 -0.7229
 5180TIP3    H115504   4.115   1.488   3.030 -0.6990 -1.6542 -0.2982
 5180TIP3    H215505   4.079   1.633   3.054  2.2987 -0.6750 -1.2397
 5181TIP3   OH215506   5.937   1.373   4.554  0.3585  0.5755  0.9808
 5181TIP3    H115507   5.884   1.443   4.515  0.6026 -0.3615 -1.1524
 5181TIP3    H215508   5.892   1.292   4.531  3.5339 -0.4513 -2.7316
 5182TIP3   OH215509   2.646   6.671   2.832 -0.1902  0.2695 -0.2845
 5182TIP3    H115510   2.564   6.644   2.874 -0.8370  1.8871 -0.4213
 5182TIP3    H215511   2.644   6.629   2.746 -0.8880  0.3012 -0.2908
 5183TIP3   OH215512   5.315   2.417   5.129  0.0706  0.4419 -0.1313
 5183TIP3    H115513   5.306   2.324   5.150  1.7367  0.6231  1.6411
 5183TIP3    H215514   5.225   2.451   5.132 -0.4111 -0.8290  0.6771
 5184TIP3   OH215515   7.234   0.459   0.848  0.3642  0.2717  0.6676
 5184TIP3    H115516   7.232   0.409   0.930 -0.0562 -0.8929 -0.0234
 5184TIP3    H215517   7.142   0.466   0.823  0.4959  0.6055  0.2798
 5185TIP3   OH215518   4.800   6.122   0.977 -0.0106 -0.1777 -0.4385
 5185TIP3    H115519   4.778   6.092   1.065  0.7018  0.8455  0.1162
 5185TIP3    H215520   4.867   6.061   0.947 -0.0290 -0.3463 -0.1428
 5186TIP3   OH215521   4.073   6.625   3.694 -0.6158  0.0825 -0.3841
 5186TIP3    H115522   3.984   6.648   3.669 -1.1074  0.2702  1.3995
 5186TIP3    H215523   4.105   6.571   3.621 -2.3323 -0.3740 -0.8481
 5187TIP3   OH215524   4.119   5.855   2.487 -0.0923 -0.1243  0.4852
 5187TIP3    H115525   4.065   5.782   2.517 -2.9123  1.3968 -0.5835
 5187TIP3    H215526   4.102   5.925   2.548  0.2213  0.5873 -0.2228
 5188TIP3   OH215527   6.087   0.822   5.603  0.0278 -0.5422  0.2981
 5188TIP3    H115528   6.088   0.883   5.676 -0.6153 -1.6279  1.2514
 5188TIP3    H215529   6.065   0.876   5.527  0.6839  0.5973  0.8975
 5189TIP3   OH215530   0.148   2.456   5.032  0.0504  0.5847 -0.0600
 5189TIP3    H115531   0.238   2.442   5.005  0.3193  1.7502  0.1825
 5189TIP3    H215532   0.136   2.398   5.108  0.7094  0.7132  0.1412
 5190TIP3   OH215533   5.168   5.845   2.756  0.3936  0.7066 -0.5868
 5190TIP3    H115534   5.131   5.891   2.680  1.5550  2.4128 -0.1705
 5190TIP3    H215535   5.219   5.912   2.802  0.5352 -0.5426  1.1601
 5191TIP3   OH215536   1.832   1.214   4.304 -0.4727 -0.0781  0.3899
 5191TIP3    H115537   1.820   1.301   4.265 -0.9281 -0.1312  0.3994
 5191TIP3    H215538   1.926   1.198   4.301 -0.3339  0.6109  0.7949
 5192TIP3   OH215539   0.217   6.369   0.431 -0.2454  0.1723  0.5166
 5192TIP3    H115540   0.242   6.277   0.418  1.7355  0.4525  2.0651
 5192TIP3    H215541   0.209   6.404   0.342  0.5166 -1.1038 -0.0783
 5193TIP3   OH215542   6.302   2.134   1.836  0.1904  0.1528 -0.5493
 5193TIP3    H115543   6.300   2.228   1.854 -1.2343  0.4138 -1.8510
 5193TIP3    H215544   6.228   2.099   1.886 -0.1464 -0.0502 -1.1925
 5194TIP3   OH215545   4.073   2.314   2.299 -0.2706  0.1225  0.2632
 5194TIP3    H115546   4.063   2.409   2.299 -2.3307 -0.0344  1.0699
 5194TIP3    H215547   4.007   2.283   2.236 -0.0418 -0.8037  0.4581
 5195TIP3   OH215548   2.217   0.371   1.750  0.1974 -0.6405 -0.3667
 5195TIP3    H115549   2.236   0.302   1.813  1.6109 -1.9024 -2.0718
 5195TIP3    H215550   2.237   0.332   1.665 -1.5306  1.0209 -1.6243
 5196TIP3   OH215551   2.889   6.049   0.750  0.1384  0.3302  0.2928
 5196TIP3    H115552   2.846   6.092   0.825 -0.0370  0.0766  0.3384
 5196TIP3    H215553   2.820   6.043   0.684 -0.2271 -1.0756  0.7576
 5197TIP3   OH215554   1.097   4.571   1.267  0.1956  0.6374 -0.2059
 5197TIP3    H115555   1.050   4.654   1.274  0.2065  0.6258  0.0030
 5197TIP3    H215556   1.031   4.509   1.237  0.2197  0.7511 -0.4952
 5198TIP3   OH215557   2.655   1.539   3.730 -0.4799 -0.4160  0.1580
 5198TIP3    H115558   2.733   1.497   3.694 -0.1678  0.1393  0.1657
 5198TIP3    H215559   2.670   1.632   3.716 -1.1831 -0.3106  0.0956
 5199TIP3   OH215560   2.922   5.788   1.568 -0.5214  0.2155  0.0531
 5199TIP3    H115561   2.872   5.730   1.624 -1.1025 -0.3812 -1.0555
 5199TIP3    H215562   2.863   5.809   1.495  0.4465  0.3790 -0.7095
 5200TIP3   OH215563   4.833   1.902   1.373  0.2503 -0.1251 -0.2751
 5200TIP3    H115564   4.870   1.817   1.349  0.1466 -0.0766 -0.6122
 5200TIP3    H215565   4.782   1.928   1.297 -0.0569  0.0498 -0.0109
 5201TIP3   OH215566   5.102   0.703   0.755 -0.6614 -0.0611 -0.3236
 5201TIP3    H115567   5.126   0.648   0.680 -2.7436 -0.0588 -1.0500
 5201TIP3    H215568   5.093   0.791   0.718  1.0020  0.4929  0.5089
 5202TIP3   OH215569   1.385   1.483   1.274 -0.0433  0.4155 -0.2769
 5202TIP3    H115570   1.410   1.505   1.184  2.0093  0.1242  0.1710
 5202TIP3    H215571   1.290   1.490   1.275  0.0306  3.4861 -1.6958
 5203TIP3   OH215572   0.879   6.662   4.039 -0.0441  0.4561 -0.2211
 5203TIP3    H115573   0.838   6.578   4.060 -0.3897  0.8035  0.5419
 5203TIP3    H215574   0.963   6.659   4.084  0.8723 -0.3040 -1.8813
 5204TIP3   OH215575   5.912   2.838   0.574 -0.1190  0.3026  0.0104
 5204TIP3    H115576   5.980   2.784   0.534 -0.0930  0.8798 -0.7344
 5204TIP3    H215577   5.835   2.828   0.518  0.1080  1.6146 -0.5760
 5205TIP3   OH215578   3.484   5.241   1.519 -0.0252  0.0631 -0.7068
 5205TIP3    H115579   3.510   5.300   1.449  2.5782 -0.4317 -0.2319
 5205TIP3    H215580   3.498   5.291   1.599 -2.3705  0.3945 -0.4099
 5206TIP3   OH215581   2.146   4.740   3.185  0.7603 -0.2438  0.0287
 5206TIP3    H115582   2.094   4.761   3.263 -1.3829  0.6676 -1.5402
 5206TIP3    H215583   2.237   4.751   3.213  0.1142 -0.7169  2.5780
 5207TIP3   OH215584   5.131   4.334   1.616  0.0163  0.3102  0.2098
 5207TIP3    H115585   5.115   4.282   1.537 -0.1550 -0.6153  0.8346
 5207TIP3    H215586   5.070   4.299   1.680 -0.4402  1.6290  0.5112
 5208TIP3   OH215587   3.261   4.357   2.345 -0.2684  0.0561 -0.2018
 5208TIP3    H115588   3.317   4.305   2.402  0.2248  0.3718 -0.3945
 5208TIP3    H215589   3.320   4.421   2.304 -0.7411  0.3061 -0.5075
 5209TIP3   OH215590   4.679   0.780   1.825 -0.3392  0.6492  0.3623
 5209TIP3    H115591   4.660   0.749   1.914 -0.8649 -0.0139  0.0199
 5209TIP3    H215592   4.767   0.747   1.807 -0.6754 -0.1871  0.2099
 5210TIP3   OH215593   3.476   2.307   4.740  0.5259  0.5488  0.4339
 5210TIP3    H115594   3.465   2.368   4.813 -0.5549 -0.5667  1.2484
 5210TIP3    H215595   3.479   2.363   4.663 -2.0417  1.6163  0.9929
 5211TIP3   OH215596   0.221   5.968   5.496 -0.2631 -0.0234 -0.1667
 5211TIP3    H115597   0.282   5.959   5.568  0.2545 -1.3413 -0.7505
 5211TIP3    H215598   0.276   5.986   5.419 -0.7230  0.2618 -0.4388
 5212TIP3   OH215599   2.850   3.000   1.682 -0.3391  0.1206  0.2077
 5212TIP3    H115600   2.918   2.933   1.692  1.0724  1.2631 -1.2070
 5212TIP3    H215601   2.829   2.999   1.588  0.0269  1.9206  0.0797
 5213TIP3   OH215602   6.896   1.703   3.868  0.5104 -0.1985 -0.6612
 5213TIP3    H115603   6.831   1.730   3.803  0.0736  0.1678 -0.0780
 5213TIP3    H215604   6.854   1.718   3.952  2.0041  1.8113 -0.2005
 5214TIP3   OH215605   0.601   1.311   3.959 -0.2379  0.3343  0.1125
 5214TIP3    H115606   0.678   1.267   3.996  0.1850  1.3090  0.4195
 5214TIP3    H215607   0.594   1.276   3.870 -0.3640 -0.8995  0.5763
 5215TIP3   OH215608   4.629   6.558   2.199 -0.3137 -0.6498 -0.9010
 5215TIP3    H115609   4.600   6.480   2.152  0.0652 -0.9908 -0.5749
 5215TIP3    H215610   4.665   6.524   2.281  0.2100 -0.1621 -0.9248
 5216TIP3   OH215611   5.376   6.554   0.099  0.0366 -0.0741 -0.0866
 5216TIP3    H115612   5.422   6.596   0.172 -0.4358 -0.3247  0.3626
 5216TIP3    H215613   5.336   6.626   0.051  0.7508  0.1315 -0.3835
 5217TIP3   OH215614   2.093   1.835   2.078 -0.3182  0.3655 -0.1042
 5217TIP3    H115615   2.119   1.799   2.163 -1.7138 -0.2564  0.0950
 5217TIP3    H215616   2.159   1.901   2.058  0.2878  0.1956  1.2450
 5218TIP3   OH215617   0.242   5.945   2.622 -0.1339 -0.3442  0.4506
 5218TIP3    H115618   0.305   5.912   2.686  0.0298 -0.6627  0.1238
 5218TIP3    H215619   0.203   5.867   2.584  0.8214 -0.2104 -0.8989
 5219TIP3   OH215620   0.067   2.720   5.054  0.8401  0.5180  0.1791
 5219TIP3    H115621   0.098   2.634   5.028 -1.1836 -0.2566  0.1336
 5219TIP3    H215622   0.122   2.744   5.129  0.7563 -1.3090  0.8882
 5220TIP3   OH215623   0.713   1.214   5.208  0.0263 -0.0626 -0.6216
 5220TIP3    H115624   0.722   1.292   5.263 -1.2423 -0.3579  0.0500
 5220TIP3    H215625   0.635   1.231   5.155 -0.6535 -1.1327 -0.0011
 5221TIP3   OH215626   6.658   2.616   1.554 -0.3635 -0.4285  0.3298
 5221TIP3    H115627   6.583   2.569   1.518  0.3557 -1.4263  0.1012
 5221TIP3    H215628   6.620   2.682   1.612 -1.5030  0.4377 -1.3191
 5222TIP3   OH215629   4.614   0.418   5.773  0.4020  0.3126  0.6039
 5222TIP3    H115630   4.677   0.376   5.832  0.5772  0.2338  0.3623
 5222TIP3    H215631   4.616   0.364   5.694  3.2736  2.6711 -1.1687
 5223TIP3   OH215632   1.482   2.235   5.092  0.1912 -0.9371  0.3465
 5223TIP3    H115633   1.536   2.160   5.116  0.9750  0.2552  2.6275
 5223TIP3    H215634   1.397   2.217   5.132 -0.6148 -1.9446 -1.6746
 5224TIP3   OH215635   3.169   4.302   0.889  0.0832 -0.4716  0.4850
 5224TIP3    H115636   3.172   4.397   0.903  1.0006 -0.2780 -0.8291
 5224TIP3    H215637   3.220   4.266   0.961  0.5784  0.1184  0.4429
 5225TIP3   OH215638   4.077   4.273   5.423  0.1838 -0.2288  0.8703
 5225TIP3    H115639   4.090   4.244   5.513 -0.2827 -1.0747  0.6791
 5225TIP3    H215640   3.998   4.228   5.395  1.8452 -2.2558 -0.8886
 5226TIP3   OH215641   3.647   4.185   5.751  0.2808 -0.4431  0.1790
 5226TIP3    H115642   3.618   4.275   5.762  0.0648 -0.7134  2.3209
 5226TIP3    H215643   3.706   4.170   5.825  0.5099 -1.9816 -0.2787
 5227TIP3   OH215644   6.384   2.855   4.019 -0.3552 -0.2456 -0.0474
 5227TIP3    H115645   6.358   2.770   3.982 -0.6333  0.3540 -1.2887
 5227TIP3    H215646   6.479   2.859   4.004 -0.3241 -0.3857  0.1130
 5228TIP3   OH215647   3.198   5.778   2.038 -0.6179 -0.4491 -0.1406
 5228TIP3    H115648   3.189   5.843   2.107 -0.1565 -0.0473 -0.4460
 5228TIP3    H215649   3.109   5.758   2.011 -0.9975 -2.4474  2.2179
 5229TIP3   OH215650   5.269   0.931   2.368 -0.1493 -0.3411  0.2703
 5229TIP3    H115651   5.214   0.870   2.417  0.3625  0.8591  2.5134
 5229TIP3    H215652   5.336   0.876   2.327  0.4939 -1.3168  2.4759
 5230TIP3   OH215653   0.440   3.715   5.673  0.4064  0.8641 -0.7073
 5230TIP3    H115654   0.454   3.780   5.604  1.7851  0.7994 -0.5096
 5230TIP3    H215655   0.527   3.682   5.693 -0.2789 -1.1749 -0.9144
 5231TIP3   OH215656   2.830   2.955   0.612 -0.1084  0.2300  0.5109
 5231TIP3    H115657   2.914   2.931   0.574  0.8147  0.2144  2.4288
 5231TIP3    H215658   2.777   2.876   0.605 -0.0469  0.2906 -0.8630
 5232TIP3   OH215659   6.121   5.102   0.744  0.5746 -0.4762  0.0748
 5232TIP3    H115660   6.191   5.038   0.762 -0.7643 -2.4595 -1.3780
 5232TIP3    H215661   6.042   5.062   0.780 -0.3372  0.3188 -0.9823
 5233TIP3   OH215662   2.871   1.997   4.058 -0.3699  0.0652 -0.1970
 5233TIP3    H115663   2.893   2.090   4.067 -0.3334 -0.0939  1.7522
 5233TIP3    H215664   2.952   1.957   4.026  0.2972  0.4054  1.0100
 5234TIP3   OH215665   2.687   4.785   2.791 -0.0672 -0.0446  0.0977
 5234TIP3    H115666   2.694   4.747   2.879 -0.8972  1.4850  0.8668
 5234TIP3    H215667   2.642   4.868   2.805 -2.0997 -0.6730 -2.0208
 5235TIP3   OH215668   3.335   2.745   0.628  0.2718 -0.1635  0.2013
 5235TIP3    H115669   3.428   2.751   0.650  0.0543  0.2347  1.0618
 5235TIP3    H215670   3.306   2.836   0.620 -0.1086 -0.2808  0.2133
 5236TIP3   OH215671   3.987   5.714   1.177 -0.2703  0.1507  0.0047
 5236TIP3    H115672   3.895   5.712   1.150 -0.0197 -0.8614 -0.8228
 5236TIP3    H215673   4.016   5.803   1.157 -0.4530 -0.1814 -1.9017
 5237TIP3   OH215674   1.643   0.560   3.082  0.3259  0.4002 -0.1197
 5237TIP3    H115675   1.731   0.557   3.119  1.6761  2.5121 -2.7596
 5237TIP3    H215676   1.624   0.654   3.073 -2.1226 -0.0031  0.1135
 5238TIP3   OH215677   3.917   5.051   2.261 -0.2257 -0.4853 -0.0003
 5238TIP3    H115678   3.918   5.111   2.187 -0.2450  0.3069  0.6310
 5238TIP3    H215679   3.842   5.079   2.314  0.8110  0.0693  1.2142
 5239TIP3   OH215680   6.626   4.464   3.128 -0.2550  0.6785 -0.0720
 5239TIP3    H115681   6.551   4.500   3.080  0.5314  0.8660 -1.2002
 5239TIP3    H215682   6.700   4.476   3.068  0.8672  1.3961  1.4135
 5240TIP3   OH215683   2.080   4.493   5.861  0.1800  0.2890 -0.2441
 5240TIP3    H115684   2.004   4.546   5.836  0.6168  0.1769 -1.9302
 5240TIP3    H215685   2.118   4.465   5.778  0.3236 -2.1766  0.5767
 5241TIP3   OH215686   3.147   6.090   0.784  0.2849 -0.1220 -0.1527
 5241TIP3    H115687   3.190   6.036   0.851 -0.1418 -0.2202  0.0454
 5241TIP3    H215688   3.059   6.054   0.779 -0.0448  0.6525  0.0754
 5242TIP3   OH215689   6.400   4.193   0.909  0.0549 -0.7773  0.2797
 5242TIP3    H115690   6.343   4.176   0.984  0.9191 -0.7696  0.9700
 5242TIP3    H215691   6.341   4.203   0.835 -0.7728 -1.9132  0.7536
 5243TIP3   OH215692   2.631   4.450   5.378  0.2637  0.4041  1.0208
 5243TIP3    H115693   2.603   4.365   5.344  1.2711  0.0793  0.9699
 5243TIP3    H215694   2.674   4.492   5.303 -0.4748  1.0981  0.9594
 5244TIP3   OH215695   5.713   4.864   5.495 -0.3815  0.3435 -0.0828
 5244TIP3    H115696   5.634   4.857   5.440  0.6076  1.0873 -1.6674
 5244TIP3    H215697   5.766   4.931   5.452  2.8662 -2.6891 -1.3323
 5245TIP3   OH215698   1.373   5.265   5.456  0.0728 -0.2473  0.2394
 5245TIP3    H115699   1.375   5.338   5.393  0.6760 -0.5508 -0.0977
 5245TIP3    H215700   1.346   5.306   5.538  1.6311  0.6016  0.3631
 5246TIP3   OH215701   7.102   2.961   5.244  0.3931  0.0914  0.9247
 5246TIP3    H115702   7.083   2.911   5.164 -1.7810 -0.6047  1.7976
 5246TIP3    H215703   7.176   3.017   5.220  1.4381 -1.8875 -0.7826
 5247TIP3   OH215704   4.890   3.516   4.268  0.1051  0.2165  0.2772
 5247TIP3    H115705   4.870   3.464   4.346 -0.4441 -0.8936 -0.5814
 5247TIP3    H215706   4.848   3.600   4.285 -3.0040 -1.1157 -0.2385
 5248TIP3   OH215707   3.354   2.674   5.813 -0.5665  0.1458 -0.7193
 5248TIP3    H115708   3.355   2.619   5.891  0.3166 -0.0912 -0.8852
 5248TIP3    H215709   3.415   2.631   5.753 -1.2026  0.3431 -1.5296
 5249TIP3   OH215710   7.133   4.620  -0.011 -0.3352 -0.2432  0.5827
 5249TIP3    H115711   7.088   4.564   0.053  1.0404 -1.3486  0.6400
 5249TIP3    H215712   7.218   4.579  -0.022  0.3186  1.2597 -0.2229
 5250TIP3   OH215713   6.480   0.882   3.309  0.0380 -0.0558  0.3021
 5250TIP3    H115714   6.403   0.928   3.276 -0.0356 -0.1297  0.3709
 5250TIP3    H215715   6.531   0.950   3.354  0.5887  0.2408 -0.7330
 5251TIP3   OH215716   4.813   4.764   5.066  0.2858  0.4165 -0.1023
 5251TIP3    H115717   4.773   4.778   5.152 -1.1896 -0.5145 -0.6054
 5251TIP3    H215718   4.840   4.851   5.037  0.8886  0.7292  1.3239
 5252TIP3   OH215719   3.592   1.470   2.137  0.1938  0.2246  0.0348
 5252TIP3    H115720   3.602   1.507   2.049  0.6688 -0.6036 -0.2639
 5252TIP3    H215721   3.523   1.523   2.177 -1.0141 -0.2643 -1.3212
 5253TIP3   OH215722   2.242   1.055   1.119 -0.3453 -0.3419  0.3165
 5253TIP3    H115723   2.264   1.003   1.042  0.4166  0.0198  0.2846
 5253TIP3    H215724   2.146   1.055   1.121 -0.4286  0.8570 -1.4591
 5254TIP3   OH215725   2.589   1.035   0.776 -0.6509  0.2138 -0.6677
 5254TIP3    H115726   2.683   1.042   0.761 -0.6624 -0.4578 -1.1166
 5254TIP3    H215727   2.573   1.091   0.852  0.1009  0.3776 -0.6158
 5255TIP3   OH215728   5.489   1.462   1.059 -0.0607  0.4935 -0.1639
 5255TIP3    H115729   5.396   1.474   1.039 -0.2529 -1.6277 -0.7686
 5255TIP3    H215730   5.500   1.500   1.146 -1.8152 -0.4718  0.5200
 5256TIP3   OH215731   3.446   0.063   0.897  0.1443 -0.4238 -0.0977
 5256TIP3    H115732   3.535   0.082   0.868 -0.1582  2.1413  0.4191
 5256TIP3    H215733   3.390   0.096   0.826 -0.4345 -0.1916  0.4555
 5257TIP3   OH215734   2.935   3.084   3.020 -0.0503  0.5909 -0.3075
 5257TIP3    H115735   2.905   3.163   2.974 -0.9389  0.2849 -0.2736
 5257TIP3    H215736   2.898   3.093   3.108  0.7856  0.6775  0.0403
 5258TIP3   OH215737   2.512   2.170   0.036  0.4243  0.3295 -0.0518
 5258TIP3    H115738   2.579   2.233   0.012  0.8553 -0.6134 -1.4358
 5258TIP3    H215739   2.496   2.120  -0.044 -0.7550 -0.5356  0.6872
 5259TIP3   OH215740   6.590   0.420   3.144 -0.3478  0.0617  0.0297
 5259TIP3    H115741   6.572   0.393   3.234 -0.2920  0.2771  0.1056
 5259TIP3    H215742   6.531   0.494   3.128  0.0901  0.4281  0.1028
 5260TIP3   OH215743   1.078   1.603   3.827 -0.2583 -0.3506 -0.1656
 5260TIP3    H115744   1.094   1.697   3.838  3.3889 -0.7369 -0.8225
 5260TIP3    H215745   1.024   1.596   3.748 -1.3170  1.1876  0.3927
 5261TIP3   OH215746   3.300   1.250   4.566  0.0914 -0.2554  0.1224
 5261TIP3    H115747   3.384   1.259   4.521 -0.4868  1.1594 -0.7276
 5261TIP3    H215748   3.235   1.275   4.501 -0.9476 -0.5923  1.0094
 5262TIP3   OH215749   7.164   1.612   3.754  0.0226 -0.1044 -0.3770
 5262TIP3    H115750   7.225   1.617   3.827  1.2474  3.5151 -1.4123
 5262TIP3    H215751   7.077   1.620   3.794  0.6044  0.5015  0.7994
 5263TIP3   OH215752   3.306   3.955   1.454  0.7318  0.6252  0.2867
 5263TIP3    H115753   3.342   3.995   1.375 -1.1579  0.5931 -0.6369
 5263TIP3    H215754   3.211   3.958   1.442  0.3901  0.4281  2.4675
 5264TIP3   OH215755   5.827   3.385   3.946 -0.1272 -0.0825  0.2666
 5264TIP3    H115756   5.757   3.422   3.893  0.8417  0.4766 -0.6538
 5264TIP3    H215757   5.829   3.292   3.923 -0.2737 -0.0101 -0.0350
 5265TIP3   OH215758   2.972   4.891   5.701 -0.3570  0.1298 -0.2037
 5265TIP3    H115759   2.983   4.890   5.606 -1.4284  1.4673 -0.3605
 5265TIP3    H215760   2.911   4.819   5.719  0.2063 -0.4254 -0.4557
 5266TIP3   OH215761   3.494   3.089   3.032  0.1423  0.4108 -0.3114
 5266TIP3    H115762   3.443   3.009   3.046 -0.5426  0.9276  0.2097
 5266TIP3    H215763   3.561   3.063   2.968 -0.5127 -0.3903 -0.7017
 5267TIP3   OH215764   5.027   1.085   4.288  0.5705 -0.3863 -0.0065
 5267TIP3    H115765   5.049   1.122   4.202 -0.8186  2.5609  0.7714
 5267TIP3    H215766   5.106   1.097   4.340  1.4223 -2.1941 -0.7823
 5268TIP3   OH215767   4.982   4.327   5.749  0.1747 -0.5800  0.0534
 5268TIP3    H115768   4.985   4.390   5.821  0.3683 -1.0447  0.4633
 5268TIP3    H215769   4.906   4.352   5.698 -0.4381 -0.7074  0.8716
 5269TIP3   OH215770   4.452   6.451   3.521  0.3592  0.2405 -0.0169
 5269TIP3    H115771   4.397   6.401   3.461 -0.0572 -0.4388  0.9133
 5269TIP3    H215772   4.438   6.542   3.496  0.0175 -0.0165 -0.7975
 5270TIP3   OH215773   6.939   2.629   4.223 -0.2912 -0.0883  0.8925
 5270TIP3    H115774   6.953   2.611   4.316 -1.2242 -1.3016  0.8213
 5270TIP3    H215775   6.995   2.705   4.204  0.7498 -0.5041  2.1783
 5271TIP3   OH215776   2.492   0.350   0.390 -0.1738  0.5195  0.2430
 5271TIP3    H115777   2.470   0.301   0.470 -0.5767 -0.2156 -0.3062
 5271TIP3    H215778   2.578   0.388   0.408  0.2962 -0.6578  0.5698
 5272TIP3   OH215779   6.350   3.903   5.025 -0.0235  0.0205  0.2631
 5272TIP3    H115780   6.383   3.965   4.959  0.5440 -0.4871  0.0656
 5272TIP3    H215781   6.350   3.953   5.107  2.2431 -0.2624  0.4793
 5273TIP3   OH215782   4.716   0.742   1.093 -0.7940  0.3827 -0.0746
 5273TIP3    H115783   4.780   0.700   1.036 -0.8750 -1.7720  1.2992
 5273TIP3    H215784   4.734   0.707   1.180 -0.9410  3.2382  1.2179
 5274TIP3   OH215785   6.375   0.373   1.988  0.2151 -0.5869  0.0483
 5274TIP3    H115786   6.309   0.395   1.922  1.5533  1.0865 -0.8008
 5274TIP3    H215787   6.416   0.293   1.956 -1.0472 -1.4031  0.3659
 5275TIP3   OH215788   7.120   6.299   0.545  0.4000 -0.3582 -0.3736
 5275TIP3    H115789   7.213   6.278   0.552  0.2802 -1.3055 -1.3011
 5275TIP3    H215790   7.098   6.343   0.627  1.8799  0.7537 -0.5532
 5276TIP3   OH215791   2.721   1.789   3.969  0.0660  0.1595 -0.0505
 5276TIP3    H115792   2.764   1.858   4.020 -1.9712  1.7614 -0.3763
 5276TIP3    H215793   2.778   1.775   3.894  0.7962  1.0912  0.3112
 5277TIP3   OH215794   2.242   3.465  -0.018  0.0958  0.0602 -0.4802
 5277TIP3    H115795   2.323   3.471   0.032  0.5366 -2.1528 -0.8538
 5277TIP3    H215796   2.175   3.502   0.041  0.8554 -1.0497  1.1530
 5278TIP3   OH215797   0.746   6.635   3.793 -0.4767  0.0637  0.4436
 5278TIP3    H115798   0.809   6.693   3.750 -0.4009  1.9966  2.8961
 5278TIP3    H215799   0.791   6.608   3.874 -1.8208 -0.6757  0.9636
 5279TIP3   OH215800   4.763   6.324   4.884 -0.5731 -0.0825  0.1514
 5279TIP3    H115801   4.839   6.286   4.841 -0.9488 -0.6889  0.0165
 5279TIP3    H215802   4.780   6.313   4.977  0.3246  1.3891  0.2012
 5280TIP3   OH215803   1.783   0.305   0.017  0.1251 -0.4792  0.6894
 5280TIP3    H115804   1.835   0.243  -0.033  0.0712  0.1537 -0.1845
 5280TIP3    H215805   1.847   0.365   0.055  0.1207 -0.5100  0.7450
 5281TIP3   OH215806   4.125   2.276   1.178  0.4187 -0.1615  0.2084
 5281TIP3    H115807   4.107   2.265   1.271 -1.1363 -0.3690 -0.0871
 5281TIP3    H215808   4.083   2.200   1.136  1.9078 -0.5731 -0.5854
 5282TIP3   OH215809   1.748   2.031   4.073  0.3075  0.5985  0.3791
 5282TIP3    H115810   1.653   2.027   4.084  0.3884  0.4770  1.1127
 5282TIP3    H215811   1.772   2.120   4.101  0.3319  0.8603 -0.4682
 5283TIP3   OH215812   1.578   6.555   3.544 -0.0278  0.5642  0.2241
 5283TIP3    H115813   1.596   6.562   3.450 -1.8821  0.2891 -0.1878
 5283TIP3    H215814   1.636   6.485   3.574 -1.8537 -1.8206 -1.4615
 5284TIP3   OH215815   3.575   3.833   2.018  0.2903 -0.8848  0.0606
 5284TIP3    H115816   3.499   3.776   2.011  0.6691 -1.2869 -1.2155
 5284TIP3    H215817   3.629   3.810   1.942  0.4805  1.1327 -0.4841
 5285TIP3   OH215818   2.263   2.060   4.629 -0.4180 -0.4310 -0.3727
 5285TIP3    H115819   2.213   1.982   4.605  2.3452 -1.9112 -1.8786
 5285TIP3    H215820   2.326   2.029   4.694 -0.4091  0.9691  0.3069
 5286TIP3   OH215821   2.919   0.084   4.004  0.0812  0.2129  0.4981
 5286TIP3    H115822   2.843   0.027   3.990  0.3566  0.2228 -1.2499
 5286TIP3    H215823   2.897   0.133   4.083 -2.6181  1.5494 -0.9197
 5287TIP3   OH215824   3.727   3.625   3.258 -0.3763  0.2814 -0.1278
 5287TIP3    H115825   3.735   3.641   3.164 -1.4195  1.2944 -0.0744
 5287TIP3    H215826   3.715   3.531   3.266  0.0682  0.1431 -0.9729
 5288TIP3   OH215827   7.057   4.053   5.044 -0.3738  0.1692 -0.2165
 5288TIP3    H115828   7.120   3.982   5.033  0.6363  1.1479 -1.0400
 5288TIP3    H215829   7.081   4.094   5.127 -0.0877  0.3648 -0.3920
 5289TIP3   OH215830   5.635   5.824   1.992  0.3718  0.0331 -0.1612
 5289TIP3    H115831   5.618   5.798   2.083 -1.1332 -1.1300 -0.7393
 5289TIP3    H215832   5.556   5.870   1.965  0.9667  0.7171 -0.7975
 5290TIP3   OH215833   2.363   2.019   0.589  0.2125 -0.3435 -0.2005
 5290TIP3    H115834   2.414   2.090   0.628  0.3967  0.0197 -1.0776
 5290TIP3    H215835   2.428   1.951   0.569  0.0803 -0.6400  0.3553
 5291TIP3   OH215836   6.293   5.669   1.309  0.0471  0.2009  0.3867
 5291TIP3    H115837   6.286   5.605   1.238 -0.3383 -1.9087  2.1929
 5291TIP3    H215838   6.336   5.745   1.270 -1.1500 -0.4092 -2.3362
 5292TIP3   OH215839   1.991   2.295   5.878  0.1598 -0.6590  0.2819
 5292TIP3    H115840   1.952   2.274   5.963  0.5421 -2.8194 -0.0432
 5292TIP3    H215841   1.959   2.227   5.819  1.1133 -0.0542 -0.9714
 5293TIP3   OH215842   3.186   1.315   2.243  0.2648  0.2202  0.5259
 5293TIP3    H115843   3.098   1.278   2.255  0.2417  0.8245  2.5780
 5293TIP3    H215844   3.243   1.258   2.294  1.3675 -0.9614 -1.8499
 5294TIP3   OH215845   5.453   1.715   2.723 -0.2507 -0.2515  0.0478
 5294TIP3    H115846   5.459   1.787   2.786  1.1320  1.3460 -1.8214
 5294TIP3    H215847   5.476   1.637   2.774  0.0704  0.8604  1.6852
 5295TIP3   OH215848   1.148   6.321   4.608 -0.6622  0.4815 -0.1108
 5295TIP3    H115849   1.147   6.259   4.536 -1.0753  1.6481 -1.1546
 5295TIP3    H215850   1.097   6.396   4.576  0.4253  1.6600  0.8063
 5296TIP3   OH215851   4.429   5.863   3.780  0.0206  0.2581  0.2272
 5296TIP3    H115852   4.425   5.793   3.714  0.4046  1.9832 -1.7558
 5296TIP3    H215853   4.344   5.859   3.824 -0.8979 -0.0087 -1.4712
 5297TIP3   OH215854   7.052   4.605   4.233  0.2859 -0.0892  0.3492
 5297TIP3    H115855   7.106   4.652   4.297  1.1356  0.9693 -1.1093
 5297TIP3    H215856   6.970   4.586   4.281  1.1997 -0.0831  2.0002
 5298TIP3   OH215857   0.055   2.389   0.847 -0.4914  0.6405  0.0243
 5298TIP3    H115858   0.074   2.416   0.937 -0.7224  3.1419 -0.6219
 5298TIP3    H215859  -0.038   2.405   0.836 -0.4455  0.4502 -0.7109
 5299TIP3   OH215860   0.957   1.297   2.933 -1.1180 -0.0184  0.0037
 5299TIP3    H115861   0.942   1.293   2.839 -0.7135 -0.9806 -0.0419
 5299TIP3    H215862   0.876   1.264   2.972 -1.2098  0.1844 -0.0156
 5300TIP3   OH215863   1.734   3.572   1.640  0.3059 -0.2786 -0.3062
 5300TIP3    H115864   1.747   3.480   1.616  1.3056 -0.5508  1.1004
 5300TIP3    H215865   1.643   3.577   1.667  0.7961 -1.4850  1.8833
 5301TIP3   OH215866   5.137   3.103   3.004 -0.0632 -0.5632 -0.0665
 5301TIP3    H115867   5.199   3.171   3.032 -1.3057  1.1575 -1.2264
 5301TIP3    H215868   5.069   3.104   3.071 -1.3377  1.1814 -1.2911
 5302TIP3   OH215869   0.869   4.818   5.390 -0.4332  0.4746  0.0333
 5302TIP3    H115870   0.783   4.827   5.348 -1.2807 -0.9293  1.3758
 5302TIP3    H215871   0.888   4.905   5.424 -2.2659  0.4034  1.3994
 5303TIP3   OH215872   6.036   2.363   2.126  0.2054 -0.3171 -0.1955
 5303TIP3    H115873   6.042   2.453   2.096 -2.1447  0.5070  1.5438
 5303TIP3    H215874   6.063   2.311   2.051 -0.5199  1.7625 -1.9814
 5304TIP3   OH215875   1.388   1.871   4.926 -0.0298  0.6635 -0.3140
 5304TIP3    H115876   1.370   1.820   4.847 -2.1671 -1.6333  1.5210
 5304TIP3    H215877   1.314   1.852   4.984  0.8839  3.1644  1.8471
 5305TIP3   OH215878   3.892   3.288   5.273 -0.0985  0.0905 -0.3368
 5305TIP3    H115879   3.879   3.224   5.343 -2.2060 -1.5953 -2.1155
 5305TIP3    H215880   3.820   3.350   5.283  0.6088  0.8745  0.0010
 5306TIP3   OH215881   2.010   1.693   4.255  0.9906 -0.0472 -0.8108
 5306TIP3    H115882   2.017   1.662   4.165 -0.0849  2.2414 -1.7336
 5306TIP3    H215883   2.028   1.787   4.250  0.6440  0.1786  1.3200
 5307TIP3   OH215884   3.706   5.688   1.151  0.0330 -0.4954  0.6240
 5307TIP3    H115885   3.675   5.695   1.241 -0.0205 -1.2106  0.6610
 5307TIP3    H215886   3.705   5.595   1.132 -4.4607 -0.2512 -1.6784
 5308TIP3   OH215887   6.985   3.428   1.631 -0.4935  0.0205 -0.5132
 5308TIP3    H115888   6.957   3.420   1.540 -0.0915  1.0704 -0.7442
 5308TIP3    H215889   6.976   3.522   1.650  0.3676 -0.0408  0.2246
 5309TIP3   OH215890   1.926   0.322   5.646  0.2619  0.0209  0.2056
 5309TIP3    H115891   1.982   0.284   5.714 -0.0736 -0.0256  0.4585
 5309TIP3    H215892   1.865   0.378   5.694 -1.6237 -1.9419  0.2510
 5310TIP3   OH215893   1.233   1.799   4.508 -0.2634  0.0139  0.8606
 5310TIP3    H115894   1.139   1.816   4.520 -0.3917 -1.3240  1.9484
 5310TIP3    H215895   1.260   1.755   4.588  1.0337 -0.7093  0.0564
 5311TIP3   OH215896   6.979   0.479   0.725 -0.6904 -0.1618  0.2681
 5311TIP3    H115897   6.904   0.419   0.726 -0.0552 -0.9643  0.7751
 5311TIP3    H215898   6.940   0.566   0.732 -1.6321 -0.5051 -0.4711
 5312TIP3   OH215899   5.654   3.711   0.366 -0.7779 -0.4839  0.4872
 5312TIP3    H115900   5.633   3.669   0.283  0.7645 -2.8640  1.1833
 5312TIP3    H215901   5.611   3.656   0.432 -0.4627  0.2674  1.3466
 5313TIP3   OH215902   0.505   0.408   2.143 -0.1797 -0.4736  0.1046
 5313TIP3    H115903   0.522   0.337   2.081 -0.4984  0.0134 -0.5466
 5313TIP3    H215904   0.424   0.448   2.113 -1.1031 -1.1001  1.6596
 5314TIP3   OH215905   6.377   0.620   2.099 -0.2612 -0.6832 -0.3840
 5314TIP3    H115906   6.370   0.670   2.017  1.3194  0.4103  0.1054
 5314TIP3    H215907   6.384   0.529   2.071  0.1349 -0.3324 -1.4691
 5315TIP3   OH215908   2.849   6.308   3.173 -0.5386  0.4818  0.0860
 5315TIP3    H115909   2.771   6.363   3.181 -0.2951  0.8423  0.0219
 5315TIP3    H215910   2.821   6.234   3.120 -0.7363  0.8044 -0.2621
 5316TIP3   OH215911   5.684   3.771   3.261 -0.2455  0.5018  0.2944
 5316TIP3    H115912   5.670   3.713   3.336  2.2587  0.2825  0.6896
 5316TIP3    H215913   5.693   3.711   3.186  1.6806  0.3363  0.5979
 5317TIP3   OH215914   2.350   3.966   3.566 -0.1047 -0.1868 -0.1152
 5317TIP3    H115915   2.442   3.976   3.543 -0.7258  0.0978 -2.7993
 5317TIP3    H215916   2.334   3.872   3.563 -0.2027 -0.1453 -1.0308
 5318TIP3   OH215917   2.237   1.500   4.840  0.1764 -0.0342 -0.4077
 5318TIP3    H115918   2.283   1.418   4.824 -1.0477 -0.5031 -1.6758
 5318TIP3    H215919   2.171   1.479   4.906  1.6952  0.6462  1.4337
 5319TIP3   OH215920   6.956   2.126   5.680  0.2260  0.0842 -0.3271
 5319TIP3    H115921   6.982   2.213   5.652  0.6152  0.2765  0.6154
 5319TIP3    H215922   6.861   2.124   5.667 -0.0526  1.2672  1.2773
 5320TIP3   OH215923   3.405   5.268   4.987 -0.3323  0.0388 -0.3397
 5320TIP3    H115924   3.351   5.341   5.018  1.1199  0.1774  2.1572
 5320TIP3    H215925   3.356   5.189   5.012 -0.5410  0.1544 -0.3863
 5321TIP3   OH215926   6.650   0.476   2.062  0.4689  0.3961 -0.4204
 5321TIP3    H115927   6.657   0.444   2.152 -0.1272 -0.8872 -0.7974
 5321TIP3    H215928   6.576   0.427   2.025  0.8865  0.6838 -1.6927
 5322TIP3   OH215929   4.941   2.527   0.531 -0.4004 -0.6061 -0.2155
 5322TIP3    H115930   4.926   2.498   0.622  0.0353 -0.5487 -0.1222
 5322TIP3    H215931   4.943   2.622   0.536 -1.9432 -0.5274 -0.5412
 5323TIP3   OH215932   6.952   4.440   3.426 -0.5461  0.5650  0.3822
 5323TIP3    H115933   7.044   4.416   3.412 -0.3157  0.1953  2.2972
 5323TIP3    H215934   6.903   4.364   3.396 -0.1454  0.1964  0.6515
 5324TIP3   OH215935   4.067   6.224   1.515 -0.2454  0.2280  0.6071
 5324TIP3    H115936   4.124   6.271   1.576  2.1676 -0.4496 -0.9697
 5324TIP3    H215937   3.984   6.272   1.518  0.2946  1.1756  3.1505
 5325TIP3   OH215938   0.749   3.900   2.454 -0.1597  0.0601 -0.3314
 5325TIP3    H115939   0.750   3.821   2.507 -1.5581  1.1532  1.4495
 5325TIP3    H215940   0.656   3.917   2.438  0.1614  0.7816 -1.5835
 5326TIP3   OH215941   0.049   2.100   1.755 -0.2294  0.3294  0.1368
 5326TIP3    H115942  -0.041   2.133   1.760 -0.6549 -0.9451  1.5536
 5326TIP3    H215943   0.042   2.022   1.700  0.3223  1.1051 -1.0755
 5327TIP3   OH215944   2.329   3.231   4.858 -0.9719 -0.4203  0.2785
 5327TIP3    H115945   2.407   3.285   4.869 -0.7321 -0.0202 -2.5652
 5327TIP3    H215946   2.256   3.288   4.885 -0.4847  0.1427  0.4214
 5328TIP3   OH215947   2.600   3.268   1.153 -0.3945 -0.1325  0.2096
 5328TIP3    H115948   2.655   3.346   1.154 -0.2214 -0.2559  0.3713
 5328TIP3    H215949   2.516   3.298   1.117 -0.6343  0.3464  1.1218
 5329TIP3   OH215950   0.933   0.348   5.805  0.0650 -0.4786 -0.6007
 5329TIP3    H115951   0.898   0.388   5.884  1.0907  2.1704 -1.3879
 5329TIP3    H215952   0.874   0.374   5.735  0.6213 -0.5516 -1.1117
 5330TIP3   OH215953   1.745   5.351   1.747  0.1567  1.1601 -0.2368
 5330TIP3    H115954   1.665   5.321   1.790  0.9686 -2.0544 -0.6861
 5330TIP3    H215955   1.811   5.351   1.816  0.5777 -0.0884 -0.6050
 5331TIP3   OH215956   3.277   3.149   4.602 -0.7598  0.5248 -0.7158
 5331TIP3    H115957   3.354   3.184   4.557 -0.3408 -0.9963 -1.2666
 5331TIP3    H215958   3.207   3.156   4.537 -0.8436  0.9757 -0.5773
 5332TIP3   OH215959   2.807   5.310   2.667 -0.4353  0.0126 -0.2298
 5332TIP3    H115960   2.833   5.219   2.685 -4.8431 -1.4456 -0.0465
 5332TIP3    H215961   2.837   5.359   2.744  0.8134 -1.5356  0.3356
 5333TIP3   OH215962   5.462   5.026   4.433 -0.1144  0.5417 -0.7746
 5333TIP3    H115963   5.452   4.932   4.420 -0.0071  0.1491  1.5705
 5333TIP3    H215964   5.556   5.039   4.447 -0.0481  1.1113 -1.6419
 5334TIP3   OH215965   4.026   1.009   0.363  0.3228  0.3360  0.0116
 5334TIP3    H115966   4.070   0.998   0.447 -1.3484 -2.2411  0.6785
 5334TIP3    H215967   3.933   1.014   0.385 -0.0465  1.3923 -1.6020
 5335TIP3   OH215968   4.235   3.235   1.096 -0.1628  0.2432 -0.0596
 5335TIP3    H115969   4.282   3.314   1.072  2.2907 -0.9946  0.3625
 5335TIP3    H215970   4.160   3.232   1.036  1.4552  1.2471 -2.2561
 5336TIP3   OH215971   7.040   6.699   0.960 -0.2418  0.0013 -0.0466
 5336TIP3    H115972   6.955   6.736   0.983 -0.5878 -0.9602  0.2692
 5336TIP3    H215973   7.056   6.633   1.026 -0.1857 -1.2229 -1.2315
 5337TIP3   OH215974   4.207   4.373   1.709  0.3694  0.1001 -0.0615
 5337TIP3    H115975   4.154   4.453   1.701 -1.6494 -1.1124  0.2664
 5337TIP3    H215976   4.210   4.337   1.621 -0.4294 -0.4508  0.1247
 5338TIP3   OH215977   5.908   6.501   3.364 -0.4164  0.6068 -0.3341
 5338TIP3    H115978   5.975   6.439   3.393  0.7652  1.3327 -1.3792
 5338TIP3    H215979   5.839   6.446   3.327 -0.7290 -0.1898  1.3476
 5339TIP3   OH215980   0.508   6.729   2.531  0.0621 -0.0773 -0.3788
 5339TIP3    H115981   0.575   6.676   2.573  0.7968  1.4861  0.5046
 5339TIP3    H215982   0.483   6.794   2.597 -1.5612  0.0363 -1.0530
 5340TIP3   OH215983   4.816   1.519   5.327 -0.2292 -0.1952  0.0007
 5340TIP3    H115984   4.726   1.509   5.358 -0.0904 -1.9045 -0.0393
 5340TIP3    H215985   4.870   1.497   5.403  0.1225 -1.0571 -0.4746
 5341TIP3   OH215986   4.933   3.119   1.592 -0.1294 -0.4077  0.0836
 5341TIP3    H115987   5.028   3.113   1.588 -0.2272 -2.4657 -1.4524
 5341TIP3    H215988   4.909   3.079   1.676  0.3560  0.8555  0.8447
 5342TIP3   OH215989   0.307   6.094   0.428 -0.1126 -0.1484  0.2329
 5342TIP3    H115990   0.230   6.053   0.469 -1.2532  1.9132  0.2934
 5342TIP3    H215991   0.372   6.098   0.498 -0.6328 -0.2310  0.7281
 5343TIP3   OH215992   0.917   3.871   1.044 -0.0435 -0.0384 -0.0820
 5343TIP3    H115993   0.992   3.838   1.093  0.2558 -0.8575 -1.0547
 5343TIP3    H215994   0.941   3.961   1.020  1.1506 -0.6539 -1.3448
 5344TIP3   OH215995   1.572   0.820   1.603  0.4649  0.2961  0.2591
 5344TIP3    H115996   1.626   0.899   1.600  1.4635 -0.3967 -0.8765
 5344TIP3    H215997   1.550   0.809   1.695  1.1905  1.3099  0.5711
 5345TIP3   OH215998   6.248   1.617   4.715  0.0425  0.0724 -0.4286
 5345TIP3    H115999   6.338   1.646   4.703 -0.0791 -0.2070 -2.4183
 5345TIP3    H216000   6.196   1.678   4.663 -0.4881 -1.9444 -2.4116
 5346TIP3   OH216001   3.998   3.101   1.942 -0.1894 -0.0535  0.0534
 5346TIP3    H116002   3.997   3.008   1.966 -2.2067 -0.1105 -0.0836
 5346TIP3    H216003   4.042   3.103   1.858 -0.3320 -0.9258 -0.0554
 5347TIP3   OH216004   1.068   3.160   1.654  0.2267 -0.1487  0.1139
 5347TIP3    H116005   1.067   3.135   1.562 -0.9606 -0.5583  0.2156
 5347TIP3    H216006   1.086   3.254   1.653  0.9373 -0.2876 -0.4933
 5348TIP3   OH216007   2.222   0.034   4.906 -0.1559  0.3823 -0.6515
 5348TIP3    H116008   2.243  -0.056   4.883 -0.2966  0.1969 -0.0724
 5348TIP3    H216009   2.288   0.058   4.971 -0.8414  0.2861  0.0954
 5349TIP3   OH216010   7.087   1.985   4.571 -0.1324 -0.5147  0.5745
 5349TIP3    H116011   7.086   2.077   4.597 -0.4232  0.3608 -2.2425
 5349TIP3    H216012   7.169   1.951   4.606 -0.3266  0.6136  2.2110
 5350TIP3   OH216013   4.124   6.216   3.652  0.2759 -0.3696 -0.0993
 5350TIP3    H116014   4.119   6.276   3.577 -0.7324 -0.3765 -0.0570
 5350TIP3    H216015   4.137   6.129   3.612 -0.3435 -0.3847 -0.2867
 5351TIP3   OH216016   6.504   5.355   0.403 -0.0939  0.3917  0.0708
 5351TIP3    H116017   6.443   5.302   0.352 -0.3962  2.1646 -1.5337
 5351TIP3    H216018   6.590   5.322   0.380 -0.3135  0.0625 -0.2796
 5352TIP3   OH216019   6.818   5.207   0.257 -0.4799 -0.5250  0.5423
 5352TIP3    H116020   6.903   5.212   0.214 -1.0073 -0.9179 -0.5897
 5352TIP3    H216021   6.837   5.226   0.349  0.6843  0.3283  0.1583
 5353TIP3   OH216022   6.207   1.877   2.640 -0.1617  0.4938  0.2642
 5353TIP3    H116023   6.217   1.784   2.618 -1.2449 -0.0304  1.8114
 5353TIP3    H216024   6.283   1.897   2.695  0.3935  0.7120 -0.5605
 5354TIP3   OH216025   1.056   2.258   5.299 -0.2268 -0.2672  0.0719
 5354TIP3    H116026   1.029   2.227   5.386  0.3095 -1.3262 -0.1287
 5354TIP3    H216027   1.125   2.198   5.272  1.0466  1.2686 -0.2341
 5355TIP3   OH216028   6.477   4.089   5.497 -1.0631  0.3477 -0.2527
 5355TIP3    H116029   6.436   4.126   5.576  0.1104  1.4049 -0.1044
 5355TIP3    H216030   6.476   3.995   5.511 -2.2619  0.4227  0.3217
 5356TIP3   OH216031   4.434   0.746   1.056  0.2760  0.1538  0.3292
 5356TIP3    H116032   4.406   0.825   1.102  0.7824  0.2767  0.4335
 5356TIP3    H216033   4.528   0.741   1.073  0.6345  0.6203 -1.3296
 5357TIP3   OH216034   5.903   6.294   5.796 -0.0568  0.3302 -0.2458
 5357TIP3    H116035   5.921   6.277   5.704  1.1163 -0.4819  0.1003
 5357TIP3    H216036   5.905   6.208   5.837  0.2040  0.7497  0.6542
 5358TIP3   OH216037   3.472   2.165   3.142  0.3070 -0.1306 -0.3036
 5358TIP3    H116038   3.379   2.182   3.133  0.4008 -0.0505 -1.1551
 5358TIP3    H216039   3.482   2.071   3.125  0.4164 -0.0887 -0.4716
 5359TIP3   OH216040   5.432   3.204   2.098  0.2571 -0.3440 -0.3987
 5359TIP3    H116041   5.447   3.170   2.010 -0.2139  0.6231 -0.8619
 5359TIP3    H216042   5.382   3.285   2.085 -0.7838 -0.7595  0.8095
 5360TIP3   OH216043   0.680   4.810   1.814  0.3455  0.1604 -0.0227
 5360TIP3    H116044   0.727   4.745   1.865  1.4985  0.7583 -0.2740
 5360TIP3    H216045   0.749   4.854   1.763 -0.4029  1.4975  0.0786
 5361TIP3   OH216046   4.156   0.870   3.429 -0.3500 -0.3529  0.1697
 5361TIP3    H116047   4.231   0.828   3.387 -0.2366 -0.2835  0.3024
 5361TIP3    H216048   4.115   0.921   3.360 -0.2765 -0.3956  0.0947
 5362TIP3   OH216049   6.558   0.184   1.925 -0.2042  0.0537  0.3993
 5362TIP3    H116050   6.612   0.147   1.995 -0.5563  1.1427  1.2842
 5362TIP3    H216051   6.621   0.218   1.862  0.1402  0.2520  0.8430
 5363TIP3   OH216052   6.935   3.374   4.746  0.0483  0.1913 -0.2910
 5363TIP3    H116053   6.985   3.337   4.819  0.1784 -1.9225 -1.3742
 5363TIP3    H216054   6.852   3.401   4.784 -0.4297 -2.1515  0.4575
 5364TIP3   OH216055   3.239   4.602   5.883  0.1270  0.1789 -0.0354
 5364TIP3    H116056   3.252   4.556   5.800 -0.0681 -1.8563  1.0220
 5364TIP3    H216057   3.147   4.628   5.882  0.7169  2.6589 -1.5944
 5365TIP3   OH216058   4.379   5.317   2.096 -0.0826  0.3406  0.4712
 5365TIP3    H116059   4.328   5.279   2.167 -0.0250 -1.0355 -0.1903
 5365TIP3    H216060   4.453   5.258   2.085  1.8283  2.3913  1.5395
 5366TIP3   OH216061   5.668   4.070   2.540 -0.5739  0.4574 -0.5315
 5366TIP3    H116062   5.672   3.996   2.600 -1.2578  1.1424  0.3758
 5366TIP3    H216063   5.613   4.134   2.584  1.3767  2.2276 -0.5153
 5367TIP3   OH216064   2.580   2.260   1.053  0.1348  0.1676 -0.5582
 5367TIP3    H116065   2.611   2.217   1.133 -1.3657 -0.4796 -0.2826
 5367TIP3    H216066   2.610   2.351   1.061  2.4718 -0.5330 -0.6562
 5368TIP3   OH216067   1.701   0.061   4.641  0.4231 -0.9623 -0.5099
 5368TIP3    H116068   1.762   0.135   4.652  0.9332 -1.2844 -1.1037
 5368TIP3    H216069   1.692   0.025   4.729  0.5356 -0.4711 -0.2925
 5369TIP3   OH216070   5.347   0.783   3.482  0.1217 -0.3249 -0.1618
 5369TIP3    H116071   5.321   0.875   3.479  0.2255 -0.3119 -1.8740
 5369TIP3    H216072   5.438   0.783   3.452  0.4937 -0.8774  0.9385
 5370TIP3   OH216073   4.733   4.949   3.928  0.2408  0.4220  0.0811
 5370TIP3    H116074   4.804   5.004   3.895 -0.0966  0.6512 -0.2845
 5370TIP3    H216075   4.653   4.993   3.898 -0.0492  0.0492  0.2924
 5371TIP3   OH216076   6.421   0.124   5.317  0.2163 -0.4322 -0.3422
 5371TIP3    H116077   6.423   0.067   5.241 -1.2412 -1.2659  0.2005
 5371TIP3    H216078   6.350   0.186   5.298  0.6356  0.1077 -0.1712
 5372TIP3   OH216079   4.429   2.948   2.919  0.2704 -0.0790  0.6575
 5372TIP3    H116080   4.447   2.924   2.828 -4.0076 -3.5259  0.4100
 5372TIP3    H216081   4.405   3.040   2.915  3.2963  0.7791 -1.0068
 5373TIP3   OH216082   5.189   3.358   4.606 -0.1136  0.9535  0.0735
 5373TIP3    H116083   5.113   3.410   4.579 -0.8875  0.4170  1.1707
 5373TIP3    H216084   5.264   3.416   4.589 -0.7750  1.6201 -0.7047
 5374TIP3   OH216085   6.338   4.818   3.026  1.1428  0.7064 -0.1641
 5374TIP3    H116086   6.430   4.818   3.053  1.0237  0.8824  0.2587
 5374TIP3    H216087   6.302   4.898   3.064  0.3489 -0.3050  1.3204
 5375TIP3   OH216088   5.900   4.775   3.655  0.3238  0.0716  0.1094
 5375TIP3    H116089   5.894   4.782   3.750  0.0478 -1.1544  0.2035
 5375TIP3    H216090   5.894   4.865   3.623 -0.7078  0.4018  1.1902
 5376TIP3   OH216091   4.240   1.934   3.144  0.1451 -0.0996  0.3285
 5376TIP3    H116092   4.192   1.853   3.128 -0.4113  0.4812 -1.0514
 5376TIP3    H216093   4.171   2.001   3.156  0.5981  0.3320  0.5563
 5377TIP3   OH216094   2.656   0.553   2.731 -0.3224  0.3853  0.7907
 5377TIP3    H116095   2.579   0.522   2.779 -0.8464  0.8176  0.2402
 5377TIP3    H216096   2.623   0.622   2.674  0.5112  0.7131  0.6846
 5378TIP3   OH216097   5.138   2.630   3.435  0.4497  0.0786 -0.1511
 5378TIP3    H116098   5.046   2.656   3.426  0.6393  0.7285 -0.3075
 5378TIP3    H216099   5.136   2.535   3.446 -0.2813  0.1556  0.4749
 5379TIP3   OH216100   6.450   4.728   4.039  0.6550  0.8047 -0.7428
 5379TIP3    H116101   6.488   4.726   3.951  0.8485  2.8762 -0.7701
 5379TIP3    H216102   6.370   4.780   4.029  0.8546  1.3493  0.3560
 5380TIP3   OH216103   0.864   4.406   3.928  0.0638 -0.3920  0.5661
 5380TIP3    H116104   0.945   4.395   3.877 -0.3149 -2.0964  0.2909
 5380TIP3    H216105   0.883   4.480   3.986  0.8346  1.0162 -1.3668
 5381TIP3   OH216106   0.610   0.380   0.557  0.4193 -0.5127 -0.2084
 5381TIP3    H116107   0.546   0.369   0.487  0.4487  2.2445 -0.7928
 5381TIP3    H216108   0.691   0.345   0.521 -0.1702 -1.6354 -0.4780
 5382TIP3   OH216109   1.926   3.526   3.513 -0.1301 -0.4782 -0.4000
 5382TIP3    H116110   1.982   3.584   3.565 -1.0219 -0.9458  1.1640
 5382TIP3    H216111   1.860   3.583   3.474 -0.1863 -0.2635  0.0067
 5383TIP3   OH216112   3.288   6.713   4.957  0.1318 -0.2096 -0.2633
 5383TIP3    H116113   3.364   6.678   4.912 -0.2980 -1.8484  0.2095
 5383TIP3    H216114   3.264   6.645   5.021  0.8097  2.0478  2.5925
 5384TIP3   OH216115   3.164   6.419   0.455  0.4168 -0.0141  0.1896
 5384TIP3    H116116   3.072   6.394   0.445  0.2735  0.6713 -0.2752
 5384TIP3    H216117   3.163   6.485   0.525  0.4081  0.7445 -0.5101
 5385TIP3   OH216118   6.555   0.200   3.002 -0.1789  0.5605  0.2280
 5385TIP3    H116119   6.473   0.242   2.977 -0.3644  1.4013  2.0887
 5385TIP3    H216120   6.599   0.264   3.057  1.8420  0.1998 -0.9030
 5386TIP3   OH216121   3.733   0.469   1.873  0.5566 -0.4841 -0.4898
 5386TIP3    H116122   3.738   0.512   1.958 -1.2080 -1.5718  0.2314
 5386TIP3    H216123   3.761   0.535   1.810  0.3107  0.8830  0.7925
 5387TIP3   OH216124   2.411   1.082   4.321 -0.2025  0.5326 -1.1062
 5387TIP3    H116125   2.392   1.144   4.391  0.1537  0.1498 -0.6667
 5387TIP3    H216126   2.370   1.000   4.349  0.2968  0.2638 -1.1415
 5388TIP3   OH216127   3.703   5.827   3.240  0.3664  0.0096 -0.0258
 5388TIP3    H116128   3.784   5.786   3.210  0.0171 -0.1928 -0.7177
 5388TIP3    H216129   3.675   5.881   3.167  0.1584  0.5016  0.4122
 5389TIP3   OH216130   5.328   1.366   5.329 -0.0238 -0.3991 -0.4555
 5389TIP3    H116131   5.251   1.411   5.292 -1.9518 -2.1394  1.1586
 5389TIP3    H216132   5.397   1.380   5.264 -1.9178  0.5844 -2.4090
 5390TIP3   OH216133   5.384   3.579   4.290 -0.0900 -0.0908  0.1678
 5390TIP3    H116134   5.421   3.541   4.211  2.3193  1.0983  0.6097
 5390TIP3    H216135   5.452   3.640   4.321 -2.6481  2.6760  0.8360
 5391TIP3   OH216136   1.297   2.138   4.596 -0.7229  0.2561  0.4945
 5391TIP3    H116137   1.332   2.145   4.684  2.8214  1.9391 -0.8690
 5391TIP3    H216138   1.339   2.060   4.560 -2.8766 -0.9859  0.4683
 5392TIP3   OH216139   1.307   1.607   2.104 -0.1250  0.0431 -0.8034
 5392TIP3    H116140   1.402   1.614   2.114 -0.3800  0.6776  1.9814
 5392TIP3    H216141   1.283   1.682   2.050  1.1392 -1.6334 -3.9859
 5393TIP3   OH216142   4.193   6.728   2.562  0.1825 -1.2951 -0.5490
 5393TIP3    H116143   4.193   6.772   2.647  2.7438  0.9940 -1.5763
 5393TIP3    H216144   4.250   6.652   2.574  0.9143 -0.7213 -0.2806
 5394TIP3   OH216145   2.552   2.854   4.968  0.0730 -0.1489  0.2489
 5394TIP3    H116146   2.497   2.835   5.043 -0.4853  0.3203 -0.0340
 5394TIP3    H216147   2.501   2.915   4.915  0.6526 -0.1023 -0.2744
 5395TIP3   OH216148   2.796   4.426   3.740 -0.5690 -0.5502 -0.1820
 5395TIP3    H116149   2.889   4.410   3.757 -0.3320  0.4293 -0.4543
 5395TIP3    H216150   2.756   4.428   3.827 -0.7615 -3.1955 -0.1478
 5396TIP3   OH216151   3.653   5.565   5.831 -0.4612 -0.4256  0.3239
 5396TIP3    H116152   3.590   5.493   5.838 -0.1003 -0.7624  0.1717
 5396TIP3    H216153   3.738   5.522   5.837 -0.2327 -0.0766 -0.4198
 5397TIP3   OH216154   5.639   4.866   3.566 -0.1501  0.2871 -0.3891
 5397TIP3    H116155   5.702   4.799   3.593  1.7512  1.3448 -1.9272
 5397TIP3    H216156   5.563   4.851   3.622  1.0343 -1.7450  0.8184
 5398TIP3   OH216157   4.345   0.088   3.240  0.4860 -0.2911  0.0632
 5398TIP3    H116158   4.436   0.116   3.229 -0.1056  0.7809 -3.3423
 5398TIP3    H216159   4.312   0.078   3.151 -3.3228  1.3195  1.0861
 5399TIP3   OH216160   4.581   2.039   5.038 -0.0890 -0.0972  0.3279
 5399TIP3    H116161   4.513   2.017   5.102  1.2216 -0.7887  1.5395
 5399TIP3    H216162   4.533   2.063   4.959 -1.7227 -2.3587  0.5469
 5400TIP3   OH216163   2.043   4.006   0.374 -0.1963  0.0683  0.2873
 5400TIP3    H116164   2.051   4.078   0.437 -0.2244  2.0174 -1.8354
 5400TIP3    H216165   1.949   3.988   0.371 -0.2140  0.0767  0.6473
 5401TIP3   OH216166   3.056   0.640   5.501  0.2341  0.4803 -0.1846
 5401TIP3    H116167   3.067   0.615   5.593  1.2853 -0.5653 -0.5578
 5401TIP3    H216168   3.110   0.718   5.490 -0.1157  0.7725  0.1398
 5402TIP3   OH216169   6.228   4.344   1.922 -0.0219  0.4737  0.4427
 5402TIP3    H116170   6.240   4.379   2.010 -0.1533  0.4086  0.4881
 5402TIP3    H216171   6.224   4.249   1.934  2.5250  0.2638  0.0651
 5403TIP3   OH216172   2.516   0.908   4.695  0.0899  0.0623  0.0534
 5403TIP3    H116173   2.433   0.862   4.684 -2.2738  3.8302  0.2370
 5403TIP3    H216174   2.522   0.923   4.790  0.7660  0.1797 -0.0072
 5404TIP3   OH216175   5.948   5.303   5.218 -0.3173  0.1651 -0.5667
 5404TIP3    H116176   5.879   5.327   5.280  0.1755  1.2652 -0.4364
 5404TIP3    H216177   5.931   5.357   5.141  1.1102  1.3708 -0.0739
 5405TIP3   OH216178   0.803   5.979   2.749 -0.3196 -0.2281 -0.4615
 5405TIP3    H116179   0.871   6.046   2.748 -0.6038  0.0705 -1.6764
 5405TIP3    H216180   0.796   5.953   2.841  1.1611 -0.0004 -0.2615
 5406TIP3   OH216181   1.870   1.850   0.140  0.3356  0.3270  0.3840
 5406TIP3    H116182   1.824   1.889   0.215 -0.6483  1.1952 -0.6355
 5406TIP3    H216183   1.961   1.878   0.151  0.3993 -0.2997  1.7172
 5407TIP3   OH216184   6.054   1.939   1.712  0.1947  0.1248 -0.2495
 5407TIP3    H116185   5.967   1.913   1.742  0.0741 -0.4655 -1.0689
 5407TIP3    H216186   6.043   2.029   1.681 -0.0410  0.1794 -0.0094
 5408TIP3   OH216187   0.527   3.595   5.108  0.0969  0.2115  0.0290
 5408TIP3    H116188   0.523   3.500   5.123  1.5535  0.3343  1.4634
 5408TIP3    H216189   0.435   3.622   5.103 -0.3846 -1.5116 -2.4504
 5409TIP3   OH216190   4.184   5.113   5.314 -0.4523 -0.2161 -0.1517
 5409TIP3    H116191   4.127   5.117   5.390  1.6713  0.7295  1.5040
 5409TIP3    H216192   4.179   5.022   5.285  0.7519 -1.3904  2.9096
 5410TIP3   OH216193   5.767   6.209   1.454 -0.2249  0.2802  0.3349
 5410TIP3    H116194   5.831   6.176   1.391 -0.0009 -0.2112  0.8187
 5410TIP3    H216195   5.713   6.133   1.475 -0.7038  0.5946  0.2472
 5411TIP3   OH216196   0.106   5.635   1.876  0.1468 -0.2963 -0.3374
 5411TIP3    H116197   0.108   5.643   1.972  1.9628 -1.2144 -0.2619
 5411TIP3    H216198   0.029   5.581   1.859  0.2007 -0.7242  0.6707
 5412TIP3   OH216199   4.304   4.303   1.960 -0.8179 -0.4652  0.2074
 5412TIP3    H116200   4.267   4.336   1.878  0.0503 -1.5463 -0.6498
 5412TIP3    H216201   4.254   4.348   2.029 -1.9175  0.0720 -0.9039
 5413TIP3   OH216202   5.986   0.227   4.428 -0.5385  0.0104  0.1266
 5413TIP3    H116203   5.988   0.165   4.355  1.4538  1.7827 -1.4926
 5413TIP3    H216204   6.051   0.194   4.490  0.3077  0.2386 -0.6000
 5414TIP3   OH216205   0.730  -0.031   4.618 -0.7494 -0.3038  0.3301
 5414TIP3    H116206   0.654   0.025   4.606 -0.4723  0.1898  0.8216
 5414TIP3    H216207   0.801   0.013   4.571 -0.8661 -0.9858 -0.4958
 5415TIP3   OH216208   0.092   3.117   5.171 -0.2516  0.2540  0.3849
 5415TIP3    H116209   0.149   3.110   5.248 -1.5569  1.6989  1.5647
 5415TIP3    H216210   0.151   3.114   5.097  1.3942  1.6337  1.5494
 5416TIP3   OH216211   4.844   6.568   1.315  0.7440  0.1323 -0.6057
 5416TIP3    H116212   4.863   6.649   1.267  0.8638 -0.9341 -2.4615
 5416TIP3    H216213   4.909   6.567   1.386  0.6537  1.7058 -0.4583
 5417TIP3   OH216214   4.476   6.353   0.826 -0.1132  0.2201  0.6039
 5417TIP3    H116215   4.514   6.438   0.804  0.2658 -0.6332 -2.5293
 5417TIP3    H216216   4.539   6.289   0.791 -2.8937 -1.2611 -2.2445
 5418TIP3   OH216217   3.282   4.233   1.128 -0.0527  0.2448  0.3786
 5418TIP3    H116218   3.370   4.264   1.106 -0.1518  0.5043  0.3437
 5418TIP3    H216219   3.254   4.289   1.201  0.0884 -0.3005  0.8610
 5419TIP3   OH216220   3.155   5.773   5.400  0.6670 -0.5136 -0.1144
 5419TIP3    H116221   3.225   5.728   5.354  0.6178 -1.6295  0.8612
 5419TIP3    H216222   3.096   5.704   5.429  0.5811  0.1442  1.4194
 5420TIP3   OH216223   0.311   0.621   2.283 -0.5733 -0.4352  0.3613
 5420TIP3    H116224   0.271   0.561   2.346 -0.1511 -0.0601  0.9990
 5420TIP3    H216225   0.284   0.587   2.197 -1.2544 -0.8784  0.7429
 5421TIP3   OH216226   3.710   6.584   5.733 -0.4055 -0.1782 -1.4070
 5421TIP3    H116227   3.661   6.664   5.745 -0.2157 -0.2013 -0.3683
 5421TIP3    H216228   3.647   6.522   5.695 -1.2176 -0.2363 -0.0219
 5422TIP3   OH216229   1.151   1.651   1.006 -0.0421 -0.0469 -0.2057
 5422TIP3    H116230   1.102   1.676   0.928 -2.2320 -1.4350  0.6082
 5422TIP3    H216231   1.219   1.591   0.974 -1.7384 -1.6569 -0.9839
 5423TIP3   OH216232   1.743   2.655   1.806  0.4187  0.2413  0.1046
 5423TIP3    H116233   1.741   2.611   1.721  1.0471 -1.4712  0.9147
 5423TIP3    H216234   1.704   2.591   1.867 -0.6336  1.6792  1.0147
 5424TIP3   OH216235   5.683   3.334   0.029  0.0686  0.5621 -0.4840
 5424TIP3    H116236   5.737   3.257   0.043  0.6521  1.2132  1.0588
 5424TIP3    H216237   5.731   3.387  -0.034  0.6708  0.5993  0.0010
 5425TIP3   OH216238   5.209   5.084   1.067 -0.0065  0.5779  0.4508
 5425TIP3    H116239   5.121   5.046   1.072  0.1158  0.2551  0.1623
 5425TIP3    H216240   5.196   5.167   1.021 -0.0994  0.3394  0.0431
 5426TIP3   OH216241   0.170   4.160   3.466  0.0224 -0.1373 -0.3827
 5426TIP3    H116242   0.226   4.217   3.518 -0.0841 -0.2495 -0.1408
 5426TIP3    H216243   0.230   4.113   3.408  0.0035  1.0499 -1.3932
 5427TIP3   OH216244   2.617   3.366   3.987  0.3944 -0.0737  0.0428
 5427TIP3    H116245   2.661   3.389   4.069 -1.9675  1.7634  0.8966
 5427TIP3    H216246   2.681   3.387   3.919  1.4253  0.9520  1.2894
 5428TIP3   OH216247   4.189   4.013   0.656  0.9683  0.8924  0.4974
 5428TIP3    H116248   4.243   3.950   0.704  0.0907  0.7543  1.3405
 5428TIP3    H216249   4.162   3.966   0.578  1.4567  0.7082  0.4342
 5429TIP3   OH216250   5.211   4.561   3.191  0.3146 -0.2610 -0.3488
 5429TIP3    H116251   5.273   4.510   3.243 -0.6249  0.1351  1.2262
 5429TIP3    H216252   5.184   4.632   3.249 -1.9521 -0.6806 -0.8071
 5430TIP3   OH216253   1.240   6.686   2.920  0.0131  0.1737 -0.5871
 5430TIP3    H116254   1.222   6.700   3.013 -0.5837  1.3491 -0.8653
 5430TIP3    H216255   1.322   6.635   2.919  0.2905  0.5630  0.5670
 5431TIP3   OH216256   6.926   1.198   0.905 -0.1253 -0.8345  0.0726
 5431TIP3    H116257   6.835   1.228   0.898  0.3138  0.2322 -1.5546
 5431TIP3    H216258   6.920   1.103   0.911 -1.2965 -0.9851 -2.4028
 5432TIP3   OH216259   4.867   1.239   4.490  0.0182 -0.6062 -0.2239
 5432TIP3    H116260   4.823   1.235   4.575 -1.8656  0.8451 -1.0562
 5432TIP3    H216261   4.902   1.151   4.477 -3.0644 -2.0475  0.3266
 5433TIP3   OH216262   7.059   3.332   2.451 -0.2922  0.8177 -0.0258
 5433TIP3    H116263   7.021   3.386   2.520  0.0845 -0.4176  1.1826
 5433TIP3    H216264   7.085   3.251   2.495 -1.6942 -0.7690 -1.9584
 5434TIP3   OH216265   3.086   2.977   1.410 -0.0556  0.0402  0.0423
 5434TIP3    H116266   3.161   3.019   1.453 -0.9147  0.4607  1.2001
 5434TIP3    H216267   3.020   3.047   1.404 -1.7416 -1.1607  2.5594
 5435TIP3   OH216268   6.547   1.873   4.436  0.2341  0.2332  0.2971
 5435TIP3    H116269   6.572   1.965   4.446 -1.3874  0.6434  1.0015
 5435TIP3    H216270   6.623   1.831   4.396  0.8813  1.9462 -0.3596
 5436TIP3   OH216271   1.313   2.419   5.847 -0.4755 -0.0829 -0.0891
 5436TIP3    H116272   1.383   2.357   5.825 -0.4111 -0.7871  1.8841
 5436TIP3    H216273   1.256   2.419   5.770  0.6933 -0.9356 -0.9902
 5437TIP3   OH216274   5.046   2.318   3.392  0.0107  0.2049  0.2881
 5437TIP3    H116275   4.969   2.262   3.391  0.0161  0.1975  0.2847
 5437TIP3    H216276   5.074   2.320   3.484  1.2511 -1.4900  0.0031
 5438TIP3   OH216277   2.400   5.272   5.540  0.2688  1.3026 -0.0325
 5438TIP3    H116278   2.425   5.233   5.456 -1.0231  1.4219 -0.4992
 5438TIP3    H216279   2.446   5.221   5.606 -0.0032  0.1341 -0.7315
 5439TIP3   OH216280   4.015   2.873   0.060 -0.4472 -0.3397 -0.2259
 5439TIP3    H116281   3.934   2.845   0.103 -0.0666  1.0877  1.5577
 5439TIP3    H216282   4.051   2.940   0.118  0.9304  0.6071 -2.0590
 5440TIP3   OH216283   4.697   0.376   4.494  0.2038 -0.3526  0.3415
 5440TIP3    H116284   4.622   0.350   4.440 -0.6183  2.1462  0.1576
 5440TIP3    H216285   4.729   0.457   4.454  0.9247  0.3996  2.3193
 5441TIP3   OH216286   0.039   2.675   5.765 -0.2123  0.3522  0.1936
 5441TIP3    H116287   0.076   2.732   5.698 -1.0932  0.7265  0.0185
 5441TIP3    H216288  -0.053   2.667   5.742 -0.3161 -0.3183  0.8037
 5442TIP3   OH216289   3.438   0.927   0.486  0.2945  0.1656  0.2215
 5442TIP3    H116290   3.470   0.993   0.425 -1.7684 -0.0942 -1.2402
 5442TIP3    H216291   3.395   0.977   0.555  2.6792  0.4621  1.6195
 5443TIP3   OH216292   3.294   5.441   3.358  0.4202 -0.1697 -0.0204
 5443TIP3    H116293   3.342   5.424   3.439  1.1489 -1.2325 -0.6519
 5443TIP3    H216294   3.358   5.485   3.302 -0.8118  3.0203  0.8309
 5444TIP3   OH216295   6.578   4.220   3.246 -0.0846  0.1806 -0.4212
 5444TIP3    H116296   6.518   4.219   3.321  0.1276 -0.0545 -0.2533
 5444TIP3    H216297   6.575   4.310   3.214 -0.7830  0.0932 -0.6180
 5445TIP3   OH216298   2.772   4.984   0.332 -0.1715  0.5569  0.0364
 5445TIP3    H116299   2.691   4.937   0.314  0.1170 -0.5072  1.3094
 5445TIP3    H216300   2.751   5.076   0.315 -1.0147  0.0967 -1.6516
 5446TIP3   OH216301   3.811   1.334   5.147  0.7384 -0.0096 -0.0378
 5446TIP3    H116302   3.739   1.337   5.211  0.6870  0.1572 -0.1017
 5446TIP3    H216303   3.815   1.243   5.119  0.3538  0.0376 -0.2588
 5447TIP3   OH216304   2.266   1.232   4.501  0.5863 -0.3158 -0.2508
 5447TIP3    H116305   2.214   1.301   4.542 -0.8534 -1.4321 -0.1021
 5447TIP3    H216306   2.250   1.155   4.556  0.5694 -1.2350 -1.5136
 5448TIP3   OH216307   2.914   6.812   5.215  0.4119 -0.1962 -0.6205
 5448TIP3    H116308   2.924   6.721   5.188 -0.7181 -0.8899  1.1501
 5448TIP3    H216309   2.943   6.813   5.307 -1.3738  0.7955 -0.0222
 5449TIP3   OH216310   3.803   6.700   4.043  0.2843 -0.0931  0.1296
 5449TIP3    H116311   3.884   6.667   4.005  0.1621 -0.2737  0.0261
 5449TIP3    H216312   3.767   6.626   4.091  1.2219  0.5447  1.9230
 5450TIP3   OH216313   0.223   4.310   1.163  0.1702 -0.1617  0.4038
 5450TIP3    H116314   0.163   4.383   1.151  2.1219  1.5326  0.3903
 5450TIP3    H216315   0.167   4.238   1.194 -2.0718  0.8003 -1.1249
 5451TIP3   OH216316   3.880   6.475   3.044  0.9603 -0.4824  0.6297
 5451TIP3    H116317   3.789   6.498   3.063  0.6891 -0.1284 -0.9171
 5451TIP3    H216318   3.874   6.409   2.974  1.8853  0.9461 -0.8837
 5452TIP3   OH216319   5.488   0.358   1.704  0.7993 -0.4020  0.0646
 5452TIP3    H116320   5.451   0.441   1.674 -0.3923 -0.9025  0.0566
 5452TIP3    H216321   5.560   0.341   1.645  0.8493  0.4651 -0.1407
 5453TIP3   OH216322   6.141   5.553   3.831  0.3003  0.4416  0.2358
 5453TIP3    H116323   6.054   5.532   3.798  0.2527  1.4104 -0.2992
 5453TIP3    H216324   6.189   5.470   3.826 -0.4362  0.0235  0.0257
 5454TIP3   OH216325   2.284   1.902   3.725  0.6092  0.0816 -0.2125
 5454TIP3    H116326   2.221   1.970   3.749  0.0937 -0.5634  0.3334
 5454TIP3    H216327   2.342   1.895   3.801  0.6747 -0.0604 -0.2757
 5455TIP3   OH216328   5.743   6.171   3.544 -0.6301  0.6310 -0.3072
 5455TIP3    H116329   5.695   6.251   3.522 -2.3107 -0.2963 -0.1542
 5455TIP3    H216330   5.715   6.151   3.633  2.1398  1.5027  0.8902
 5456TIP3   OH216331   1.238   3.937   5.422  0.2625  0.2364  0.4290
 5456TIP3    H116332   1.268   3.951   5.512  2.1384 -0.5940 -0.0103
 5456TIP3    H216333   1.203   4.022   5.394 -1.3942  0.2116  2.2781
 5457TIP3   OH216334   5.581   1.165   1.074  0.2816 -0.2317  0.4818
 5457TIP3    H116335   5.537   1.204   0.999 -0.8420  0.3330  1.3944
 5457TIP3    H216336   5.539   1.205   1.150  1.3684 -0.7990  1.4182
 5458TIP3   OH216337   4.548   2.083   0.154 -0.4165 -0.2362 -0.2660
 5458TIP3    H116338   4.554   2.136   0.075  0.7181  0.6365  0.3714
 5458TIP3    H216339   4.587   1.999   0.130  0.0740  0.0792 -0.5908
 5459TIP3   OH216340   3.950   0.647   5.670 -0.0909  0.0111 -0.0506
 5459TIP3    H116341   4.036   0.674   5.703 -0.8828 -0.5079  2.7022
 5459TIP3    H216342   3.901   0.729   5.661 -0.0719  0.1167  0.7805
 5460TIP3   OH216343   6.109   5.386   0.777  0.0469 -0.0025  0.6228
 5460TIP3    H116344   6.077   5.436   0.702 -3.9928  0.1630  2.1791
 5460TIP3    H216345   6.094   5.295   0.754  1.1586 -0.1017  0.2880
 5461TIP3   OH216346   1.943   4.017   5.645  0.1183 -0.0297 -0.1014
 5461TIP3    H116347   1.986   3.947   5.693  0.6802  1.7299  2.1596
 5461TIP3    H216348   2.013   4.081   5.629 -0.3293 -0.0105 -2.2895
 5462TIP3   OH216349   3.452   2.011   3.994  0.4326 -0.5164 -0.2252
 5462TIP3    H116350   3.359   2.034   3.989  0.3831 -0.8020 -0.7118
 5462TIP3    H216351   3.479   2.039   4.081 -0.0290 -0.1270 -0.2017
 5463TIP3   OH216352   0.317   1.869   3.056 -0.5777  0.5116  0.0496
 5463TIP3    H116353   0.361   1.807   3.115 -0.7315  1.3677  1.0953
 5463TIP3    H216354   0.224   1.847   3.063 -0.4498 -0.7112 -1.4742
 5464TIP3   OH216355   1.301   5.626   0.762  0.5255  0.3096  0.9596
 5464TIP3    H116356   1.256   5.555   0.716  2.0917  0.8888 -1.6680
 5464TIP3    H216357   1.310   5.696   0.697  3.0593  1.1138  2.0313
 5465TIP3   OH216358   3.515   6.215   0.061  0.1743 -0.1201  0.3774
 5465TIP3    H116359   3.507   6.174   0.148  0.5000 -1.9932 -0.4253
 5465TIP3    H216360   3.432   6.194   0.018  1.1585 -1.8879 -0.7959
 5466TIP3   OH216361   5.922   6.648   1.056  0.2981  0.4179 -0.1198
 5466TIP3    H116362   5.990   6.705   1.020  0.1955  0.8958  0.4349
 5466TIP3    H216363   5.849   6.706   1.075 -0.3645 -0.1254 -0.9299
 5467TIP3   OH216364   0.892   0.445   1.134 -0.6313 -0.3358 -0.4252
 5467TIP3    H116365   0.878   0.351   1.137 -0.5050 -0.3361  0.3049
 5467TIP3    H216366   0.824   0.482   1.190  0.4192 -0.1274  0.7463
 5468TIP3   OH216367   1.086   6.077   2.020 -0.4649  0.1646  0.1322
 5468TIP3    H116368   0.996   6.110   2.021 -0.2333  1.0380 -1.7874
 5468TIP3    H216369   1.137   6.149   1.981  0.4048 -1.6371 -2.3312
 5469TIP3   OH216370   2.524   4.861   1.117 -0.2722 -0.2284 -0.2514
 5469TIP3    H116371   2.460   4.932   1.108  0.0707  0.1482  0.2357
 5469TIP3    H216372   2.582   4.890   1.187 -0.1525 -1.0086 -0.0192
 5470TIP3   OH216373   0.329   3.062   3.672  0.1857 -0.0959 -0.2965
 5470TIP3    H116374   0.355   3.008   3.746  1.0617  0.4612 -0.1738
 5470TIP3    H216375   0.234   3.052   3.666  0.1482 -0.4027  0.6883
 5471TIP3   OH216376   5.353   0.942   2.943 -0.0101  0.0193 -0.0451
 5471TIP3    H116377   5.294   0.980   3.009 -0.4164  0.7765 -0.8270
 5471TIP3    H216378   5.332   0.990   2.862  2.1330  0.7927 -0.1986
 5472TIP3   OH216379   6.229   3.348   1.501 -0.4218  0.0326 -0.0668
 5472TIP3    H116380   6.209   3.433   1.541 -1.1443  1.2076 -2.7633
 5472TIP3    H216381   6.287   3.369   1.428 -2.4758 -1.4559 -2.2359
 5473TIP3   OH216382   6.486   0.442   3.694  0.4221  0.0645 -0.4653
 5473TIP3    H116383   6.535   0.369   3.732  0.0289 -1.5603 -2.8360
 5473TIP3    H216384   6.395   0.426   3.719  0.3404 -0.2740 -0.9576
 5474TIP3   OH216385   6.305   3.374   2.971  0.0235  0.1631  0.2902
 5474TIP3    H116386   6.267   3.412   2.892  1.6752  2.0075  0.2976
 5474TIP3    H216387   6.230   3.344   3.022 -1.1433 -0.0817 -1.4619
 5475TIP3   OH216388   4.986   1.803   2.019 -0.3563  0.0085 -0.0085
 5475TIP3    H116389   4.904   1.783   2.064  0.6433 -2.4906  0.8450
 5475TIP3    H216390   5.032   1.863   2.077 -1.3052  1.0147 -0.2545
 5476TIP3   OH216391   6.263   2.898   0.665  0.1205  0.5031 -0.1904
 5476TIP3    H116392   6.225   2.816   0.696 -2.4027  0.3492 -3.2159
 5476TIP3    H216393   6.348   2.902   0.708 -0.0068 -3.2384  0.7900
 5477TIP3   OH216394   0.075   5.055   5.893 -0.3270  0.7106  0.7070
 5477TIP3    H116395   0.087   5.005   5.812 -0.4726  1.7330  0.0303
 5477TIP3    H216396   0.023   4.998   5.949  0.4279 -0.3279  0.3886
 5478TIP3   OH216397   3.101   5.195   3.924  0.4831  0.1851  0.5589
 5478TIP3    H116398   3.048   5.230   3.996 -2.9758  0.1157 -1.7309
 5478TIP3    H216399   3.085   5.101   3.925  1.6158 -0.0252  0.5427
 5479TIP3   OH216400   5.708   6.282   2.283  0.0487  0.0723 -0.0076
 5479TIP3    H116401   5.778   6.248   2.338  0.4621  1.1815  0.1693
 5479TIP3    H216402   5.743   6.279   2.194 -0.5719 -1.5980 -0.2249
 5480TIP3   OH216403   6.377   1.962   3.629  0.4060  0.1821  0.3792
 5480TIP3    H116404   6.414   2.040   3.671  2.0614 -0.2837 -0.1454
 5480TIP3    H216405   6.331   1.995   3.552  0.1139  0.7444  0.7939
 5481TIP3   OH216406   4.654   3.781   3.871 -0.2597 -0.1634  0.1809
 5481TIP3    H116407   4.731   3.759   3.923 -0.9027  0.7056  1.5680
 5481TIP3    H216408   4.599   3.703   3.875  0.5165 -0.7774 -0.7954
 5482TIP3   OH216409   3.244   4.002   2.283 -0.3367 -0.3978  0.5487
 5482TIP3    H116410   3.187   4.077   2.296 -0.2779 -0.2790  0.1563
 5482TIP3    H216411   3.238   3.983   2.189 -0.4664 -0.9781  0.6705
 5483TIP3   OH216412   2.958   4.749   0.791  0.1995  0.3106 -0.2546
 5483TIP3    H116413   2.897   4.779   0.724 -1.7551 -0.2545  1.1962
 5483TIP3    H216414   3.041   4.792   0.769 -0.6948  1.1089 -2.2791
 5484TIP3   OH216415   7.221   6.269   2.075  0.0448  0.8333  0.6613
 5484TIP3    H116416   7.138   6.222   2.075  0.8230 -0.6278  0.6679
 5484TIP3    H216417   7.199   6.358   2.101 -1.5213  0.5100  0.5347
 5485TIP3   OH216418   5.099   4.762   3.356 -0.6594  0.0052 -0.4453
 5485TIP3    H116419   5.045   4.695   3.398  0.0110  1.1063  2.4640
 5485TIP3    H216420   5.052   4.844   3.372  0.4274  0.6494 -0.4411
 5486TIP3   OH216421   1.463   5.137   0.412 -0.0757 -0.3519 -0.3215
 5486TIP3    H116422   1.389   5.183   0.374 -0.5056 -1.6098 -1.0573
 5486TIP3    H216423   1.535   5.199   0.409 -0.5752  0.1821 -1.5094
 5487TIP3   OH216424   6.514   3.183   1.438  0.5347  0.1016 -0.1683
 5487TIP3    H116425   6.520   3.120   1.510 -0.2545 -0.9086 -0.9633
 5487TIP3    H216426   6.556   3.262   1.472  2.1980 -1.0559  0.6167
 5488TIP3   OH216427   0.670   1.884   3.784  0.2964 -0.1128 -0.1429
 5488TIP3    H116428   0.623   1.878   3.867 -1.1320 -2.3975 -1.0378
 5488TIP3    H216429   0.757   1.849   3.802 -0.2148 -1.1903  0.2508
 5489TIP3   OH216430   2.576   3.133   0.822 -0.1615  0.3750 -0.5017
 5489TIP3    H116431   2.486   3.166   0.818 -0.3312  0.2357  1.3754
 5489TIP3    H216432   2.573   3.063   0.886  1.4420  0.9140  0.2182
 5490TIP3   OH216433   4.998   0.810   5.679  0.2268 -0.0580  0.2073
 5490TIP3    H116434   5.044   0.850   5.605  0.5186 -0.2227  0.2997
 5490TIP3    H216435   4.919   0.772   5.640 -0.5783  1.4894  0.2700
 5491TIP3   OH216436   5.234   1.514   0.985  0.0001 -0.1398  0.0136
 5491TIP3    H116437   5.159   1.474   1.029  0.6929 -1.5799 -0.0604
 5491TIP3    H216438   5.220   1.608   0.995  0.1487 -0.3507  3.4329
 5492TIP3   OH216439   0.825   2.989   4.093 -0.4008 -0.1494  0.0500
 5492TIP3    H116440   0.873   2.982   4.175 -0.3795  0.4878  0.1034
 5492TIP3    H216441   0.816   3.084   4.079  0.1809 -0.2361 -1.0232
 5493TIP3   OH216442   3.307   1.090   3.349  0.0072 -0.0832  0.2427
 5493TIP3    H116443   3.336   1.003   3.321  0.6600  0.3579 -0.4724
 5493TIP3    H216444   3.212   1.082   3.356 -0.0039 -0.6813 -0.4393
 5494TIP3   OH216445   3.120   5.278   1.752 -0.2339  0.1133  0.1103
 5494TIP3    H116446   3.150   5.219   1.682 -1.1165 -0.2950  0.0510
 5494TIP3    H216447   3.188   5.344   1.759 -0.8080  1.0535 -2.2024
 5495TIP3   OH216448   2.542   2.889   3.242  0.1557 -1.0563 -0.4471
 5495TIP3    H116449   2.563   2.796   3.239  0.2701 -1.1150  1.1463
 5495TIP3    H216450   2.605   2.926   3.303  0.1547  0.0886 -1.1141
 5496TIP3   OH216451   0.348   2.511   3.219 -0.0226  0.0454 -0.0392
 5496TIP3    H116452   0.382   2.425   3.193 -0.5351  0.0437 -0.7577
 5496TIP3    H216453   0.389   2.572   3.158  0.1770  0.2869  0.3336
 5497TIP3   OH216454   4.588   5.469   0.128  0.0913 -0.2844 -0.9937
 5497TIP3    H116455   4.494   5.479   0.112  0.3569 -1.3380 -3.8717
 5497TIP3    H216456   4.618   5.555   0.155 -1.2316  0.9566 -3.1671
 5498TIP3   OH216457   6.540   1.502   5.847 -0.0154  0.2345  0.2927
 5498TIP3    H116458   6.553   1.596   5.834  2.1725  0.2253  1.8851
 5498TIP3    H216459   6.480   1.495   5.921 -1.8074  0.3235 -1.1012
 5499TIP3   OH216460   3.402   5.936   2.632  0.4454 -0.0123  0.1748
 5499TIP3    H116461   3.358   6.002   2.686  1.8646  0.6857  0.5377
 5499TIP3    H216462   3.462   5.987   2.578 -0.6686 -0.7192 -1.8630
 5500TIP3   OH216463   1.894   0.738   1.106 -0.1220 -0.8302 -0.7594
 5500TIP3    H116464   1.879   0.683   1.029  0.9254 -1.1172 -0.7721
 5500TIP3    H216465   1.941   0.682   1.167  2.9321  0.5575 -1.6003
 5501TIP3   OH216466   0.599   2.696   0.839 -0.5256 -0.0806  0.4988
 5501TIP3    H116467   0.544   2.652   0.905 -2.1469 -0.0272 -0.7488
 5501TIP3    H216468   0.594   2.789   0.863 -1.0593 -0.0691  0.3696
 5502TIP3   OH216469   4.696   5.879   5.075 -0.2272 -0.5903 -0.1051
 5502TIP3    H116470   4.743   5.925   5.145 -0.9184 -1.2569  0.8299
 5502TIP3    H216471   4.640   5.945   5.036  0.0811 -0.2328  0.0562
 5503TIP3   OH216472   4.412   5.382   4.590  0.4066  0.2850  0.4326
 5503TIP3    H116473   4.497   5.378   4.547  0.4240  0.1528  0.4770
 5503TIP3    H216474   4.355   5.326   4.537  0.1572  0.9494 -0.0104
 5504TIP3   OH216475   0.511   1.810   4.015 -0.0794  0.3316  0.2960
 5504TIP3    H116476   0.532   1.862   4.093 -0.8065 -0.3711  0.9836
 5504TIP3    H216477   0.416   1.817   4.006 -0.0698 -0.0781 -0.1723
 5505TIP3   OH216478   5.569   2.051   5.736  0.6374 -0.0358  0.2672
 5505TIP3    H116479   5.495   2.004   5.696  1.3243 -1.1708  0.2909
 5505TIP3    H216480   5.537   2.077   5.822 -0.0021  0.2052 -0.0343
 5506TIP3   OH216481   3.952   6.154   2.951  0.2598  0.0360 -0.0414
 5506TIP3    H116482   3.973   6.069   2.913  1.9079  0.1371  0.5741
 5506TIP3    H216483   3.862   6.172   2.922  0.1489 -1.5657 -0.7753
 5507TIP3   OH216484   7.227   3.842   4.594 -0.8253 -0.9272 -0.4204
 5507TIP3    H116485   7.133   3.837   4.612 -0.7992 -0.8201 -0.2517
 5507TIP3    H216486   7.269   3.808   4.673 -0.6375  2.0378  0.8923
 5508TIP3   OH216487   0.575   0.105   4.916 -0.0734  0.3473  1.1457
 5508TIP3    H116488   0.586   0.010   4.916  2.3768  0.5574  0.7425
 5508TIP3    H216489   0.508   0.122   4.850  0.6025 -1.0370  0.0574
 5509TIP3   OH216490   0.785   2.184   3.320  0.5483 -0.0089  0.0696
 5509TIP3    H116491   0.750   2.194   3.408  0.8570  0.6927  0.1181
 5509TIP3    H216492   0.713   2.211   3.262  0.1864 -0.9129  0.0812
 5510TIP3   OH216493   5.123   4.861   3.042  0.3980  0.5030 -0.1836
 5510TIP3    H116494   5.151   4.890   3.128 -0.2107 -1.4688  0.7350
 5510TIP3    H216495   5.028   4.872   3.043  0.5028  1.7682 -1.1543
 5511TIP3   OH216496   1.554   0.824   2.529 -0.2769  0.1031  0.0418
 5511TIP3    H116497   1.629   0.791   2.479 -0.0466  0.8146 -0.0948
 5511TIP3    H216498   1.540   0.758   2.598 -0.6046 -0.8844 -0.9458
 5512TIP3   OH216499   7.115   4.059   3.005  0.5189 -0.3413 -0.5610
 5512TIP3    H116500   7.176   4.103   2.946 -0.3042 -2.6518 -3.4031
 5512TIP3    H216501   7.029   4.092   2.978  0.2091 -0.0982  0.6584
 5513TIP3   OH216502   5.312   6.315   4.192  0.2418 -0.3852 -0.0052
 5513TIP3    H116503   5.359   6.275   4.265 -0.1418 -1.4607 -0.3384
 5513TIP3    H216504   5.224   6.278   4.197 -0.2922  0.8174 -0.0186
 5514TIP3   OH216505   6.608   1.443   5.376 -0.2445  0.2410  0.5653
 5514TIP3    H116506   6.526   1.461   5.423 -1.1248  1.3189 -1.2840
 5514TIP3    H216507   6.591   1.364   5.326  0.3317 -0.3089  1.2219
 5515TIP3   OH216508   3.534   4.266   5.470  0.1150  0.1653 -0.6002
 5515TIP3    H116509   3.489   4.228   5.394  0.4924  0.0556 -0.7671
 5515TIP3    H216510   3.478   4.241   5.544 -1.1630  1.6926 -0.9876
 5516TIP3   OH216511   6.039   4.559   4.185  0.0573  0.2051  0.1789
 5516TIP3    H116512   5.956   4.605   4.200  0.1611  0.1470  0.9655
 5516TIP3    H216513   6.041   4.544   4.091  0.2856  2.3636 -0.2300
 5517TIP3   OH216514   0.418   2.142   2.817 -0.0057 -0.1894 -0.3025
 5517TIP3    H116515   0.334   2.096   2.816 -0.0669 -0.1265  0.9553
 5517TIP3    H216516   0.418   2.192   2.735 -2.2714  1.6582  0.7020
 5518TIP3   OH216517   4.174   2.648   0.433 -0.0281  0.7965 -0.0221
 5518TIP3    H116518   4.251   2.658   0.377 -0.0331 -0.6212 -0.3257
 5518TIP3    H216519   4.209   2.651   0.522  0.3931  0.1992 -0.1566
 5519TIP3   OH216520   5.797   5.661   4.801 -0.1493 -0.0320 -0.5212
 5519TIP3    H116521   5.866   5.726   4.814  1.4458 -2.0774  2.3476
 5519TIP3    H216522   5.717   5.713   4.789  1.0367  2.5324  1.6008
 5520TIP3   OH216523   2.866   5.654   0.846 -0.1239 -0.4711 -0.4211
 5520TIP3    H116524   2.953   5.620   0.866 -0.1558 -0.3165 -0.0010
 5520TIP3    H216525   2.861   5.655   0.751  0.6971  0.4162 -0.4755
 5521TIP3   OH216526   1.189   2.997   2.673 -0.0170  0.3630 -0.0397
 5521TIP3    H116527   1.267   2.948   2.645  0.3736 -0.2081  1.9041
 5521TIP3    H216528   1.171   3.056   2.599  1.6424 -0.1982 -0.9647
 5522TIP3   OH216529   0.537   4.555   0.246  0.6438 -0.2268  0.5479
 5522TIP3    H116530   0.626   4.578   0.220 -0.0677 -0.0141 -1.9305
 5522TIP3    H216531   0.519   4.473   0.201 -0.4453 -0.2382  0.9569
 5523TIP3   OH216532   2.238   0.732   2.143  0.0061 -0.2671 -0.2108
 5523TIP3    H116533   2.265   0.794   2.076 -1.3045  1.4063  0.7411
 5523TIP3    H216534   2.289   0.755   2.220  0.0816 -0.8847 -0.0710
 5524TIP3   OH216535   5.799   5.121   0.111  0.1572 -0.4464 -0.0961
 5524TIP3    H116536   5.750   5.073   0.045 -1.1878 -0.5979  0.9697
 5524TIP3    H216537   5.774   5.213   0.097 -2.1688 -0.7112  1.7515
 5525TIP3   OH216538   4.361   2.969   1.121  0.6843 -0.1929  0.0719
 5525TIP3    H116539   4.315   2.925   1.193  0.9467  0.1052  0.4246
 5525TIP3    H216540   4.309   3.048   1.104  1.5713  0.6493  1.1189
 5526TIP3   OH216541   2.269   4.608   2.619 -0.4594  0.0399 -0.1741
 5526TIP3    H116542   2.328   4.560   2.678 -1.2633  0.1537  0.7578
 5526TIP3    H216543   2.203   4.544   2.594 -0.1621  0.0132 -0.9123
 5527TIP3   OH216544   6.114   2.586   5.684 -0.3035 -0.0384 -0.3365
 5527TIP3    H116545   6.207   2.588   5.659 -0.1493 -2.1530 -0.1174
 5527TIP3    H216546   6.110   2.637   5.764 -0.0654  3.3131 -2.2765
 5528TIP3   OH216547   4.968   1.347   3.809 -0.5739 -0.1104 -0.2562
 5528TIP3    H116548   4.985   1.349   3.715 -3.4716  0.7931 -0.8784
 5528TIP3    H216549   4.991   1.434   3.840  1.6247 -0.8020  0.2024
 5529TIP3   OH216550   6.434   3.022   5.188 -0.6944  0.9327  0.4821
 5529TIP3    H116551   6.412   3.009   5.095 -0.8125 -0.8838  0.7237
 5529TIP3    H216552   6.395   3.107   5.210  0.1159  1.8332 -1.3499
 5530TIP3   OH216553   2.115   3.230   3.949  0.0034 -0.7803 -0.9032
 5530TIP3    H116554   2.193   3.284   3.941 -1.6687  2.0482  0.2189
 5530TIP3    H216555   2.080   3.224   3.860 -0.6199  1.5103 -0.8874
 5531TIP3   OH216556   7.215   5.918   2.018 -0.6473  0.2321  0.1113
 5531TIP3    H116557   7.141   5.862   1.996 -0.0478 -0.3337 -0.5031
 5531TIP3    H216558   7.193   6.003   1.980 -1.1393  0.1654  0.2422
 5532TIP3   OH216559   3.964   0.263   0.391  0.2363  0.5065  0.2006
 5532TIP3    H116560   4.036   0.319   0.363 -0.4901  1.7603  0.7943
 5532TIP3    H216561   3.903   0.263   0.317  0.8622 -0.6542 -0.3516
 5533TIP3   OH216562   5.112   0.098   0.655 -0.4030 -0.9836 -0.0793
 5533TIP3    H116563   5.047   0.141   0.599  0.1988 -1.8036 -1.4808
 5533TIP3    H216564   5.165   0.170   0.689 -1.0685 -0.4298 -0.1877
 5534TIP3   OH216565   0.623   4.721   0.869  0.0800 -0.6427 -0.0815
 5534TIP3    H116566   0.629   4.626   0.858 -1.0625 -0.7614  0.1082
 5534TIP3    H216567   0.563   4.732   0.943 -1.4518  0.2186 -1.3659
 5535TIP3   OH216568   1.676   0.469   0.270 -0.3409 -0.5224 -0.9405
 5535TIP3    H116569   1.668   0.381   0.233  0.9502 -1.0133 -0.1261
 5535TIP3    H216570   1.648   0.459   0.361 -0.5772  0.0122 -0.9505
 5536TIP3   OH216571   1.838   4.709   0.316  0.2460 -0.4349 -0.9265
 5536TIP3    H116572   1.801   4.775   0.374  1.1339  0.7296 -1.6411
 5536TIP3    H216573   1.772   4.640   0.312 -1.1202  0.8310 -0.9031
 5537TIP3   OH216574   3.435   4.281   2.535 -0.0997 -0.4663 -0.1401
 5537TIP3    H116575   3.483   4.359   2.509 -1.8149  0.3955 -0.9274
 5537TIP3    H216576   3.474   4.254   2.618 -0.9581  2.6508  1.4455
 5538TIP3   OH216577   2.462   1.031   2.617  0.4303  0.5732 -0.5156
 5538TIP3    H116578   2.419   1.110   2.651 -3.1516 -1.0769 -0.7322
 5538TIP3    H216579   2.469   1.047   2.523  0.0432  0.7817 -0.5115
 5539TIP3   OH216580   2.336   6.569   2.247 -0.0986 -0.6008 -0.1720
 5539TIP3    H116581   2.353   6.523   2.164  0.3256 -0.8522  0.0525
 5539TIP3    H216582   2.269   6.634   2.225 -1.8425 -2.3043 -0.1906
 5540TIP3   OH216583   6.442   6.424   0.197 -0.4783  0.1115  0.3517
 5540TIP3    H116584   6.444   6.458   0.287 -1.3964  0.8807  0.1035
 5540TIP3    H216585   6.393   6.490   0.148  1.5014  0.5646 -1.1092
 5541TIP3   OH216586   5.436   4.356   1.424  0.6251 -0.3947 -0.1139
 5541TIP3    H116587   5.530   4.342   1.421  0.5606 -0.7065 -0.8263
 5541TIP3    H216588   5.423   4.444   1.388  0.8050  0.5657  1.9691
 5542TIP3   OH216589   3.109   4.871   1.328 -0.2420 -0.2976 -0.4336
 5542TIP3    H116590   3.080   4.810   1.260  0.8829  0.8214 -1.9688
 5542TIP3    H216591   3.200   4.891   1.305  0.9345 -1.5056  2.6154
 5543TIP3   OH216592   3.202   2.956   5.310 -0.5271  0.1683 -0.2595
 5543TIP3    H116593   3.173   3.043   5.337  1.9104  1.3890 -1.2474
 5543TIP3    H216594   3.184   2.900   5.386 -2.4413  1.4241  0.2874
 5544TIP3   OH216595   0.268   0.570   1.624  0.6372  0.4014  0.2471
 5544TIP3    H116596   0.285   0.625   1.548 -2.6698 -0.2410 -1.1127
 5544TIP3    H216597   0.317   0.611   1.695  1.4417  2.7602 -1.5467
 5545TIP3   OH216598   4.370   1.807   4.105  0.4948  0.2447 -0.5893
 5545TIP3    H116599   4.355   1.844   4.018  2.5338  1.7009 -0.3870
 5545TIP3    H216600   4.418   1.875   4.152 -0.5337 -0.5331  1.6911
 5546TIP3   OH216601   6.762   3.850   1.840  0.1474 -0.4461  0.3343
 5546TIP3    H116602   6.816   3.890   1.908 -0.7862  2.1385 -0.3242
 5546TIP3    H216603   6.688   3.812   1.887  1.6987 -2.8001  1.1000
 5547TIP3   OH216604   4.140   5.044   3.988 -0.1638  0.2987 -0.0381
 5547TIP3    H116605   4.106   5.019   3.903 -0.3077  0.1708  0.0577
 5547TIP3    H216606   4.161   4.962   4.031  0.6304  0.3864 -0.2458
 5548TIP3   OH216607   0.951   5.363   1.540  0.2536 -0.3403 -0.1359
 5548TIP3    H116608   0.919   5.375   1.451 -1.8487 -1.6290  0.3758
 5548TIP3    H216609   0.889   5.410   1.595  0.7048 -0.7569  0.7608
 5549TIP3   OH216610   3.522   6.072   3.845 -0.1735  0.7586  0.3964
 5549TIP3    H116611   3.617   6.067   3.841 -0.1720  0.9032  0.2177
 5549TIP3    H216612   3.504   6.131   3.918 -0.1944 -1.7274  2.5064
 5550TIP3   OH216613   1.520   4.664   2.157 -0.2865 -0.0423 -0.5913
 5550TIP3    H116614   1.593   4.704   2.109 -0.7420  0.7641 -0.6221
 5550TIP3    H216615   1.467   4.622   2.090 -0.2907  0.0739 -0.6613
 5551TIP3   OH216616   4.840   4.685   3.995  0.6510 -0.1727 -0.1926
 5551TIP3    H116617   4.783   4.760   3.982 -0.8670 -1.5557 -2.0231
 5551TIP3    H216618   4.806   4.641   4.073 -0.1519 -0.3835 -0.6474
 5552TIP3   OH216619   3.794   5.219   2.804 -0.0185 -0.5510  1.2917
 5552TIP3    H116620   3.822   5.268   2.881  0.1156  0.8639  0.3982
 5552TIP3    H216621   3.876   5.201   2.757 -0.1912 -0.4345  0.9433
 5553TIP3   OH216622   5.250   2.608   4.305 -0.6575  0.2002 -0.1058
 5553TIP3    H116623   5.241   2.530   4.360 -0.3917 -0.7227 -1.3344
 5553TIP3    H216624   5.212   2.678   4.358  0.1765 -0.5065  1.5287
 5554TIP3   OH216625   5.386   1.532   0.009  0.3389 -0.0727 -0.4427
 5554TIP3    H116626   5.302   1.542   0.054  1.4798 -3.0227  2.8139
 5554TIP3    H216627   5.444   1.597   0.050 -0.0322  1.3442 -2.0554
 5555TIP3   OH216628   2.471   3.006   0.520  0.1757 -0.0703  0.4392
 5555TIP3    H116629   2.408   2.962   0.462 -1.0529  0.4610  1.3261
 5555TIP3    H216630   2.416   3.056   0.581  1.4864  1.3590  0.5130
 5556TIP3   OH216631   4.021   0.290   3.211 -0.2486  0.3366  0.2521
 5556TIP3    H116632   3.978   0.218   3.256  2.3691 -1.0839  0.6644
 5556TIP3    H216633   4.104   0.253   3.181 -0.7596  1.8801 -3.6653
 5557TIP3   OH216634   3.364   4.360   4.792 -0.2075 -0.2434  0.1141
 5557TIP3    H116635   3.388   4.338   4.882 -0.5458  0.7077  0.4580
 5557TIP3    H216636   3.273   4.390   4.798  0.2855  1.4632 -0.2400
 5558TIP3   OH216637   6.742   1.088   3.118 -0.6483  0.3376  0.1333
 5558TIP3    H116638   6.828   1.046   3.113 -0.0475  1.6751 -2.9706
 5558TIP3    H216639   6.724   1.094   3.212  3.1516  0.9229  0.9862
 5559TIP3   OH216640   4.683   1.947   2.971 -0.2195 -0.2251 -0.0853
 5559TIP3    H116641   4.673   2.020   3.032  0.5770 -2.2310  2.5961
 5559TIP3    H216642   4.600   1.945   2.923 -2.6422 -0.8996  3.7061
 5560TIP3   OH216643   5.358   4.676   1.691  0.2772  0.0568 -0.5889
 5560TIP3    H116644   5.382   4.587   1.718  1.2830  0.8294  1.2751
 5560TIP3    H216645   5.276   4.693   1.738  0.5305  0.3973 -0.2642
 5561TIP3   OH216646   2.333   0.664   2.410  0.3753  0.2721  0.0766
 5561TIP3    H116647   2.408   0.604   2.414  0.9024  0.5942 -2.7687
 5561TIP3    H216648   2.368   0.744   2.372 -1.2873  0.6058 -0.8683
 5562TIP3   OH216649  -0.001   0.074   5.173  0.1274  0.1897  0.0746
 5562TIP3    H116650   0.047  -0.000   5.210 -0.5712  0.1587  0.9425
 5562TIP3    H216651   0.026   0.149   5.226  1.5843  0.7752 -1.4128
 5563TIP3   OH216652   1.943   4.204   1.029  0.0119 -0.1248  0.2471
 5563TIP3    H116653   1.894   4.251   1.096 -1.0174  0.4875 -0.9030
 5563TIP3    H216654   2.034   4.230   1.044  0.2060 -1.9455  2.9519
 5564TIP3   OH216655   1.216   4.814   0.079  0.1097  0.0106 -0.2607
 5564TIP3    H116656   1.178   4.746   0.024 -1.9409  1.0218 -0.1836
 5564TIP3    H216657   1.180   4.798   0.166 -1.8796  2.1829 -0.6011
 5565TIP3   OH216658   6.171   5.053   5.120 -0.0584  0.6318  0.3859
 5565TIP3    H116659   6.185   4.958   5.124 -1.7221  0.3443  0.3795
 5565TIP3    H216660   6.118   5.072   5.198  0.4221  1.5977  0.4881
 5566TIP3   OH216661   6.794   2.730   0.675  0.2265  0.2550  1.0190
 5566TIP3    H116662   6.874   2.743   0.624  0.4354 -0.4445  1.1581
 5566TIP3    H216663   6.725   2.724   0.609  0.7281 -2.5774  0.6194
 5567TIP3   OH216664   4.887   4.530   0.418  0.1518  0.1625  0.1561
 5567TIP3    H116665   4.888   4.450   0.366 -0.5844  0.3245 -0.1237
 5567TIP3    H216666   4.804   4.573   0.395 -1.0088 -0.5626  2.6879
 5568TIP3   OH216667   1.360   0.469   2.954  0.7025 -0.5908  0.0506
 5568TIP3    H116668   1.452   0.492   2.968  0.5246 -0.2127  0.6692
 5568TIP3    H216669   1.360   0.419   2.873  1.0361  2.1512 -1.7752
 5569TIP3   OH216670   7.007   4.143   4.673 -0.2289 -0.3302 -0.6440
 5569TIP3    H116671   6.947   4.071   4.654  0.6301 -0.9627 -1.0131
 5569TIP3    H216672   6.963   4.193   4.742 -1.6187 -0.2144 -1.5814
 5570TIP3   OH216673   1.286   4.627   1.088 -0.0623  0.2667  0.3660
 5570TIP3    H116674   1.332   4.556   1.043  1.0589  0.1287  1.6501
 5570TIP3    H216675   1.235   4.584   1.156  0.3927  0.6614  0.9639
 5571TIP3   OH216676   2.318   2.978   0.863 -0.0550  0.4338  0.4289
 5571TIP3    H116677   2.327   2.939   0.950  2.3299 -0.5381 -0.1678
 5571TIP3    H216678   2.330   2.904   0.803  0.0841  1.3563 -0.7155
 5572TIP3   OH216679   3.351   4.168   1.947  0.6425 -1.3973 -0.3153
 5572TIP3    H116680   3.431   4.217   1.969  1.0528 -2.2408  0.1278
 5572TIP3    H216681   3.282   4.234   1.946  1.4134 -0.5632 -1.1844
 5573TIP3   OH216682   0.209   0.534   0.269 -0.9246 -0.2109  0.1319
 5573TIP3    H116683   0.158   0.509   0.346  1.9798  0.0022  2.2589
 5573TIP3    H216684   0.298   0.547   0.301  0.2908  0.6652 -3.1485
 5574TIP3   OH216685   0.599   3.497   5.812 -0.2238 -0.4426  1.0186
 5574TIP3    H116686   0.659   3.562   5.848  0.2263 -0.4535  0.3231
 5574TIP3    H216687   0.654   3.420   5.796 -0.5167 -0.6110  0.8140
 5575TIP3   OH216688   2.881   3.123   4.597 -0.3224 -0.5881 -0.0476
 5575TIP3    H116689   2.919   3.055   4.653  3.3127 -0.6499 -2.2402
 5575TIP3    H216690   2.893   3.204   4.647  3.3031 -0.5665 -0.6527
 5576TIP3   OH216691   0.950   5.541   3.148  0.1145 -0.3258  0.6136
 5576TIP3    H116692   0.939   5.554   3.054 -1.4043 -0.9274  0.6893
 5576TIP3    H216693   0.863   5.557   3.185  0.7955  0.3744  1.9778
 5577TIP3   OH216694   2.667   6.725   1.446  0.3960  0.3703  0.0199
 5577TIP3    H116695   2.637   6.706   1.357 -0.4601  0.2730  0.3273
 5577TIP3    H216696   2.763   6.727   1.438  0.3527 -0.1390 -0.8020
 5578TIP3   OH216697   2.195   5.837   1.444 -0.0743 -0.4008 -0.2200
 5578TIP3    H116698   2.172   5.744   1.443  0.8899 -0.6450 -0.7983
 5578TIP3    H216699   2.203   5.861   1.352  1.2974 -0.1730 -0.0603
 5579TIP3   OH216700   2.530   2.048   5.627 -0.0813 -0.6813 -0.0000
 5579TIP3    H116701   2.446   2.045   5.673 -0.0659 -2.9050 -0.0217
 5579TIP3    H216702   2.592   2.077   5.694 -0.5584 -0.8578  0.5293
 5580TIP3   OH216703   0.061   2.580   1.220  0.0629 -0.7111 -0.1054
 5580TIP3    H116704   0.062   2.607   1.311 -0.1372  1.0423 -0.5926
 5580TIP3    H216705   0.043   2.660   1.171 -0.5350 -1.7363 -1.6489
 5581TIP3   OH216706   5.637   2.332   5.006  0.4071 -0.0081  0.1681
 5581TIP3    H116707   5.711   2.374   4.963  0.8862  1.5751  2.3309
 5581TIP3    H216708   5.580   2.302   4.935  2.8151 -0.7781 -1.5439
 5582TIP3   OH216709   2.719   4.157   3.165 -0.1044  0.3965 -0.6334
 5582TIP3    H116710   2.677   4.103   3.233  0.6125  0.0512 -0.4438
 5582TIP3    H216711   2.681   4.127   3.083  0.0649 -0.2003 -0.4998
 5583TIP3   OH216712   2.806   3.110   1.092  0.1545  0.0224  0.1032
 5583TIP3    H116713   2.762   3.183   1.135 -0.0234  0.2026 -0.3790
 5583TIP3    H216714   2.758   3.098   1.010  0.9291  0.1517 -0.3806
 5584TIP3   OH216715   6.751   0.905   0.346 -0.4314 -0.0773 -0.1769
 5584TIP3    H116716   6.802   0.862   0.277  0.1062  1.3763 -0.7286
 5584TIP3    H216717   6.714   0.983   0.304 -0.2048  0.7701  1.1266
 5585TIP3   OH216718   5.334   1.481   2.217 -0.0066 -0.0376  0.8945
 5585TIP3    H116719   5.248   1.439   2.211 -0.1750  0.3585  0.4240
 5585TIP3    H216720   5.316   1.566   2.258  0.0110  0.4473 -0.0842
 5586TIP3   OH216721   4.219   1.435   2.871 -0.1242  0.4572  0.6402
 5586TIP3    H116722   4.231   1.504   2.806  1.1048 -0.4211 -0.1227
 5586TIP3    H216723   4.220   1.354   2.820 -0.4050 -0.1852  1.6266
 5587TIP3   OH216724   5.580   6.067   1.597 -0.2170 -0.0142 -0.0724
 5587TIP3    H116725   5.496   6.081   1.640 -0.3241  1.7207 -0.7937
 5587TIP3    H216726   5.642   6.057   1.669 -0.9340 -0.7590  0.4669
 5588TIP3   OH216727   6.755   6.618   1.263  0.0493 -0.1157 -0.4072
 5588TIP3    H116728   6.839   6.663   1.257  0.2688 -0.4195  0.2620
 5588TIP3    H216729   6.751   6.565   1.184 -0.2714  1.1592 -1.2708
 5589TIP3   OH216730   5.825   0.638   0.800  0.0573  0.7072  0.0702
 5589TIP3    H116731   5.731   0.644   0.787  0.0374 -1.6790 -1.4952
 5589TIP3    H216732   5.838   0.555   0.845  1.4161  0.9787  0.2280
 5590TIP3   OH216733   3.900   3.572   4.054  0.2886 -0.1010 -0.0186
 5590TIP3    H116734   3.917   3.657   4.095  0.6720  0.9261 -2.1824
 5590TIP3    H216735   3.987   3.536   4.036  0.1297 -1.0536  1.0044
 5591TIP3   OH216736   0.846   5.067   0.550 -0.1582 -0.3018  0.0278
 5591TIP3    H116737   0.926   5.031   0.511 -0.0101  0.3474 -0.2866
 5591TIP3    H216738   0.802   4.991   0.588  2.4460 -0.2669  3.6654
 5592TIP3   OH216739   1.505   0.255   4.190  1.0835  0.0368  0.4465
 5592TIP3    H116740   1.530   0.171   4.229 -0.1291 -0.3591  0.4102
 5592TIP3    H216741   1.457   0.300   4.259  0.2801 -0.0177 -0.0609
 5593TIP3   OH216742   2.468   2.256   0.677 -0.8693 -0.1091 -0.0020
 5593TIP3    H116743   2.383   2.248   0.721 -1.7780  0.6910 -1.5148
 5593TIP3    H216744   2.495   2.346   0.694  0.1196 -0.6115  1.1921
 5594TIP3   OH216745   5.237   0.437   2.946  0.2821 -0.0459 -0.3181
 5594TIP3    H116746   5.267   0.449   3.036 -0.9436  0.2951  0.0635
 5594TIP3    H216747   5.217   0.525   2.916 -1.3006 -0.3446 -0.2002
 5595TIP3   OH216748   3.459   5.986   1.477 -1.1262  0.3355  0.4746
 5595TIP3    H116749   3.438   5.903   1.519 -1.2481 -0.1546 -0.5161
 5595TIP3    H216750   3.467   5.964   1.384 -0.9300  1.3917  0.2305
 5596TIP3   OH216751   4.779   4.577   4.602  0.4634  0.6793  0.3444
 5596TIP3    H116752   4.800   4.652   4.547  0.2070  1.3098  1.0863
 5596TIP3    H216753   4.837   4.507   4.571 -0.5979  0.6022 -1.5987
 5597TIP3   OH216754   0.096   2.108   4.945  0.4033 -0.1283 -0.1227
 5597TIP3    H116755   0.174   2.134   4.896  0.0972  0.2208 -0.4367
 5597TIP3    H216756   0.035   2.182   4.934  0.2634 -0.1278  0.6340
 5598TIP3   OH216757   5.567   3.156   2.612 -0.2645  0.0589 -0.4203
 5598TIP3    H116758   5.485   3.157   2.563 -0.0754 -1.8602 -0.8423
 5598TIP3    H216759   5.579   3.247   2.641 -3.3533  0.1278  1.0238
 5599TIP3   OH216760   1.845   5.682   4.789  0.0053 -0.5601  0.1941
 5599TIP3    H116761   1.931   5.688   4.831  0.6688 -0.8454 -1.0966
 5599TIP3    H216762   1.847   5.749   4.721 -1.0414 -0.1376  0.5618
 5600TIP3   OH216763   6.457   6.541   0.452  0.4426 -0.3549  0.4242
 5600TIP3    H116764   6.365   6.562   0.468  0.2891  0.0076 -0.8172
 5600TIP3    H216765   6.483   6.488   0.527 -0.7785 -0.4679  0.7921
 5601TIP3   OH216766   5.409   4.129   2.064 -0.0158  0.4534 -0.0628
 5601TIP3    H116767   5.387   4.141   2.156  0.2512  1.1645 -0.0847
 5601TIP3    H216768   5.336   4.170   2.017 -0.5173 -0.5625 -0.1775
 5602TIP3   OH216769   4.212   6.627   1.322  0.5794 -0.4470 -0.6666
 5602TIP3    H116770   4.235   6.661   1.235  1.0243 -1.4753 -0.9660
 5602TIP3    H216771   4.214   6.532   1.311 -0.7727 -0.5722  0.1185
 5603TIP3   OH216772   2.795   5.758   5.201  0.1570  0.0997 -0.3578
 5603TIP3    H116773   2.735   5.831   5.184  0.4702  0.3980 -0.2237
 5603TIP3    H216774   2.877   5.785   5.160  0.4526  0.1046  0.2218
 5604TIP3   OH216775   6.031   3.313   4.373 -0.0637 -0.2266 -0.5070
 5604TIP3    H116776   6.043   3.390   4.428  1.2231 -0.1061 -0.9199
 5604TIP3    H216777   6.113   3.264   4.382 -0.9923 -1.7368  0.0241
 5605TIP3   OH216778   2.748   6.720   3.801  0.2138  0.4325  0.4793
 5605TIP3    H116779   2.759   6.808   3.835  2.2153  0.3732  0.1175
 5605TIP3    H216780   2.820   6.709   3.738 -1.3515 -0.6469 -1.2309
 5606TIP3   OH216781   6.173   5.041   3.228 -0.1396  0.1627  0.4567
 5606TIP3    H116782   6.241   5.086   3.177 -1.4024  0.4192 -1.0908
 5606TIP3    H216783   6.093   5.087   3.205 -0.8888 -0.2735  2.0764
 5607TIP3   OH216784   0.045   6.087   2.949 -0.2715 -0.1368  1.0180
 5607TIP3    H116785   0.072   5.995   2.945  2.1758  0.4919  1.3919
 5607TIP3    H216786  -0.045   6.084   2.981 -1.1410 -2.4873 -1.2462
 5608TIP3   OH216787   3.234   4.750   5.135  0.1990  0.1865  0.3547
 5608TIP3    H116788   3.215   4.692   5.208  0.5327 -0.6894 -0.2481
 5608TIP3    H216789   3.296   4.814   5.170  0.2230 -0.1290  0.8838
 5609TIP3   OH216790   7.036   3.336   1.974 -0.1202  0.1259 -0.7736
 5609TIP3    H116791   7.002   3.302   2.057 -0.4307  0.2991 -0.8296
 5609TIP3    H216792   7.010   3.270   1.909 -0.6211  0.4121 -0.8642
 5610TIP3   OH216793   5.411   3.226   4.427 -0.5223  0.1202 -0.0722
 5610TIP3    H116794   5.415   3.321   4.438 -0.3739  0.0369  0.6333
 5610TIP3    H216795   5.409   3.191   4.516 -0.4888 -0.5448 -0.3237
 5611TIP3   OH216796   5.414   0.710   5.874  0.4301 -0.8877 -0.0837
 5611TIP3    H116797   5.460   0.633   5.908 -0.6737 -2.3339 -1.6678
 5611TIP3    H216798   5.440   0.715   5.782 -0.1023  0.1802 -0.1903
 5612TIP3   OH216799   6.437   3.269   0.485  0.3939  0.4720  0.0938
 5612TIP3    H116800   6.348   3.302   0.494  0.3706  0.3453  0.3274
 5612TIP3    H216801   6.450   3.213   0.561  0.2163 -0.5501 -0.6035
 5613TIP3   OH216802   3.662   4.712   2.765  0.3186  0.8412  0.3589
 5613TIP3    H116803   3.610   4.749   2.693 -1.3025 -2.8533 -0.5867
 5613TIP3    H216804   3.610   4.729   2.843  0.2316  1.5890  0.1462
 5614TIP3   OH216805   0.889   4.108   3.094  0.0454  0.1725 -0.0607
 5614TIP3    H116806   0.825   4.171   3.060  0.7484  2.3105  2.2800
 5614TIP3    H216807   0.967   4.121   3.040  0.2210  1.4623  0.4708
 5615TIP3   OH216808   2.644   3.222   4.820 -0.1808 -0.2558 -0.4781
 5615TIP3    H116809   2.734   3.237   4.791 -0.9911 -0.2373 -3.1971
 5615TIP3    H216810   2.632   3.282   4.893  2.0130 -0.3218  0.0081
 5616TIP3   OH216811   0.568   3.386   4.732 -0.2337 -0.4766  0.0737
 5616TIP3    H116812   0.628   3.455   4.760  0.3337  0.3754 -2.9386
 5616TIP3    H216813   0.481   3.425   4.737 -0.1237 -0.2676  0.3795
 5617TIP3   OH216814   1.158   5.930   0.992 -0.2475  0.0228 -0.0132
 5617TIP3    H116815   1.252   5.912   0.984 -0.0756  0.7820  0.1798
 5617TIP3    H216816   1.130   5.952   0.903 -0.4661 -1.1823 -0.2551
 5618TIP3   OH216817   5.054   1.989   4.797 -0.3850 -0.1465 -0.1252
 5618TIP3    H116818   5.043   2.079   4.828 -0.3987 -0.3151  0.3719
 5618TIP3    H216819   5.020   1.990   4.708 -0.1277  0.4059 -0.2242
 5619TIP3   OH216820   3.259   5.283   4.300  0.1640 -0.1972  0.8219
 5619TIP3    H116821   3.289   5.296   4.210  0.4266 -2.4927  0.5134
 5619TIP3    H216822   3.239   5.371   4.332 -1.0371  0.5943 -1.8346
 5620TIP3   OH216823   3.660   6.575   5.257 -0.0065  0.2640  0.5309
 5620TIP3    H116824   3.574   6.539   5.282 -0.5947  0.9137 -0.5048
 5620TIP3    H216825   3.665   6.659   5.302  0.9616 -0.6166  2.1775
 5621TIP3   OH216826   1.827   0.699   5.228 -0.3801  0.2407 -0.1406
 5621TIP3    H116827   1.891   0.686   5.298  0.2576  2.2132 -0.3160
 5621TIP3    H216828   1.769   0.623   5.236  2.0481 -1.7427 -0.1085
 5622TIP3   OH216829   0.940   5.889   1.183 -0.2051 -0.0342  0.0206
 5622TIP3    H116830   0.854   5.908   1.146  0.1429  0.7389 -0.4203
 5622TIP3    H216831   0.998   5.884   1.107  0.1080 -0.7899  0.2950
 5623TIP3   OH216832   0.234   1.209   5.302 -0.3466  0.3634 -0.3685
 5623TIP3    H116833   0.194   1.151   5.237  1.9052  0.0998 -1.6244
 5623TIP3    H216834   0.267   1.283   5.250  0.8494  0.5003  0.5467
 5624TIP3   OH216835   6.659   0.534   3.901 -0.0536 -0.4517  0.2710
 5624TIP3    H116836   6.591   0.600   3.915 -0.8551 -1.5320  1.8292
 5624TIP3    H216837   6.652   0.476   3.977  1.7323 -1.3768 -0.2081
 5625TIP3   OH216838   6.912   6.721   4.436 -0.2896 -0.2262 -0.1541
 5625TIP3    H116839   6.879   6.656   4.499 -0.7666 -1.4031 -1.5703
 5625TIP3    H216840   6.952   6.669   4.367  1.8909  1.1007  0.0226
 5626TIP3   OH216841   6.376   3.942   4.111 -0.5850  0.3602 -0.0712
 5626TIP3    H116842   6.414   3.956   4.024  0.0463  0.9849  0.2977
 5626TIP3    H216843   6.336   4.026   4.133 -0.4030  0.3212  0.4090
 5627TIP3   OH216844   4.847   1.354   4.225  0.2135 -0.3123  0.0836
 5627TIP3    H116845   4.924   1.314   4.185  0.5856  0.1868  0.2850
 5627TIP3    H216846   4.856   1.335   4.318 -0.5606 -1.3186 -0.0319
 5628TIP3   OH216847   3.433   1.763   1.249  0.2165  0.0435  0.3543
 5628TIP3    H116848   3.370   1.832   1.230 -0.5743 -0.9983 -1.0161
 5628TIP3    H216849   3.517   1.808   1.254 -0.2896  1.1198 -0.4592
 5629TIP3   OH216850   4.952   0.925   1.552 -0.2493 -0.1966  0.2748
 5629TIP3    H116851   4.991   0.999   1.599  1.2778 -0.1188 -1.0116
 5629TIP3    H216852   4.973   0.849   1.605  0.7955 -0.0259  0.1245
 5630TIP3   OH216853   3.170   0.191   5.191 -0.2097  0.1409  0.6712
 5630TIP3    H116854   3.120   0.258   5.237 -1.7393  0.0564 -0.7907
 5630TIP3    H216855   3.233   0.160   5.256 -1.0198  1.3279  2.0985
 5631TIP3   OH216856   4.485   6.096   0.502  0.6052  0.2007  0.1895
 5631TIP3    H116857   4.440   6.021   0.541 -0.5958  1.6712  1.7629
 5631TIP3    H216858   4.536   6.134   0.574  2.9869 -0.3447 -1.1196
 5632TIP3   OH216859   1.735   2.461   1.319  0.3157 -0.1575  0.2729
 5632TIP3    H116860   1.732   2.556   1.307 -1.0975 -0.0419  1.2275
 5632TIP3    H216861   1.710   2.426   1.233  2.9247  0.2275 -0.7216
 5633TIP3   OH216862   5.488   1.894   2.335  0.4342 -0.7530 -0.4827
 5633TIP3    H116863   5.561   1.934   2.381  0.6559 -1.2168 -0.4187
 5633TIP3    H216864   5.413   1.952   2.350  0.6000 -0.6982  0.1266
 5634TIP3   OH216865   0.802   6.313   4.591 -0.2504 -0.0531  0.3337
 5634TIP3    H116866   0.770   6.232   4.551  0.9045  0.7716 -2.5239
 5634TIP3    H216867   0.726   6.371   4.591 -0.2563 -0.0496 -0.7820
 5635TIP3   OH216868   2.382   3.598   5.553  0.6703 -0.2394 -0.2377
 5635TIP3    H116869   2.390   3.674   5.495 -0.1011  0.0508  0.0339
 5635TIP3    H216870   2.306   3.550   5.520  0.3366 -0.1702  0.4291
 5636TIP3   OH216871   3.576   5.453   4.034  0.0952 -0.0769  0.4374
 5636TIP3    H116872   3.647   5.499   4.079 -0.4174  2.3105 -1.0181
 5636TIP3    H216873   3.612   5.366   4.015  2.4583  0.8800  0.2128
 5637TIP3   OH216874   4.164   6.157   0.384 -0.0227 -0.3042 -0.0725
 5637TIP3    H116875   4.169   6.128   0.475 -1.5374  0.2496  0.2166
 5637TIP3    H216876   4.178   6.077   0.333  0.9424 -0.6065  0.6270
 5638TIP3   OH216877   6.096   3.702   2.549 -0.1405  0.4924 -0.7756
 5638TIP3    H116878   6.083   3.662   2.463  0.7800  0.0115 -0.7071
 5638TIP3    H216879   6.163   3.769   2.534  1.0286 -0.4999 -0.2045
 5639TIP3   OH216880   2.887   2.347   0.442  0.0179  0.0705 -0.1178
 5639TIP3    H116881   2.826   2.391   0.501 -1.4596 -0.2725 -1.3334
 5639TIP3    H216882   2.872   2.254   0.457 -1.8392 -0.0766 -2.3693
 5640TIP3   OH216883   1.073   0.196   1.245  0.3687 -0.0219 -0.2105
 5640TIP3    H116884   1.168   0.199   1.258  0.0466  1.8227  2.3131
 5640TIP3    H216885   1.039   0.264   1.301 -2.4100  0.3535 -2.1721
 5641TIP3   OH216886   2.873   2.507   5.899  0.0045 -0.1938  0.0181
 5641TIP3    H116887   2.790   2.495   5.852 -0.2185 -0.0839  0.3775
 5641TIP3    H216888   2.922   2.426   5.882  1.2775  1.0610 -3.0143
 5642TIP3   OH216889   4.941   0.420   5.702 -0.6448  0.0506  0.1214
 5642TIP3    H116890   5.028   0.459   5.713 -1.0022  0.5883  1.1963
 5642TIP3    H216891   4.942   0.344   5.761 -0.4717 -0.7181 -0.8408
 5643TIP3   OH216892   6.423   3.725   2.703 -0.3719 -0.2098  0.2172
 5643TIP3    H116893   6.364   3.720   2.778 -2.9899 -2.1717 -1.7813
 5643TIP3    H216894   6.468   3.641   2.701  1.5036  0.7166  0.8607
 5644TIP3   OH216895   3.049   2.296   4.825  0.4116 -0.5473  0.0616
 5644TIP3    H116896   3.073   2.354   4.898  1.5067  0.6280 -1.1575
 5644TIP3    H216897   3.124   2.236   4.817  0.0222 -1.0682  0.2737
 5645TIP3   OH216898   3.018   3.774   3.384 -0.3971  0.5975 -0.6339
 5645TIP3    H116899   3.004   3.823   3.303  0.3052  3.4329  0.8461
 5645TIP3    H216900   3.105   3.736   3.374 -0.5842  0.3632 -1.4638
 5646TIP3   OH216901   2.593   5.397   1.932 -0.7473 -0.5043  0.5592
 5646TIP3    H116902   2.565   5.441   1.851  0.5196 -0.8883 -0.1144
 5646TIP3    H216903   2.534   5.321   1.938 -0.2953 -0.9737 -0.5120
 5647TIP3   OH216904   2.520   3.880   5.158 -0.6176  0.6530 -0.4197
 5647TIP3    H116905   2.527   3.795   5.114  2.2815  0.4928  0.1645
 5647TIP3    H216906   2.519   3.944   5.087  0.8305  0.2489 -0.8383
 5648TIP3   OH216907   4.081   4.659   5.741 -0.6316  0.2927  0.0100
 5648TIP3    H116908   4.058   4.734   5.685  1.2193  1.1452  0.3021
 5648TIP3    H216909   4.002   4.606   5.743 -1.6402  1.6463 -1.1681
 5649TIP3   OH216910   1.778   5.099   5.407 -0.0853 -0.2806 -0.0275
 5649TIP3    H116911   1.771   5.146   5.491 -2.4876  1.2374 -0.9650
 5649TIP3    H216912   1.689   5.067   5.390  0.6608 -1.8074 -1.3581
 5650TIP3   OH216913   6.961   4.739   0.735 -0.4803  0.5467 -0.1278
 5650TIP3    H116914   7.010   4.804   0.684  0.5499  0.7952  1.1249
 5650TIP3    H216915   6.873   4.742   0.699  0.4226 -0.0489 -2.5791
 5651TIP3   OH216916   1.749   6.564   1.657 -0.3536 -0.5813 -1.1593
 5651TIP3    H116917   1.709   6.561   1.570 -2.1187 -1.1423 -0.3551
 5651TIP3    H216918   1.676   6.567   1.718  0.8315 -1.1016  0.3623
 5652TIP3   OH216919   3.280   5.467   4.047 -0.8325 -0.5442 -0.6705
 5652TIP3    H116920   3.375   5.477   4.051 -0.7461 -1.5549  0.4325
 5652TIP3    H216921   3.264   5.411   3.972 -0.5584 -0.4068 -0.8303
 5653TIP3   OH216922   5.471   3.581   0.563 -0.4686 -0.0938 -0.2041
 5653TIP3    H116923   5.429   3.513   0.510 -0.2014 -1.1055  0.8301
 5653TIP3    H216924   5.450   3.556   0.653  1.7730 -0.2451  0.3211
 5654TIP3   OH216925   4.742   4.557   1.175 -0.2601  0.6879  0.2951
 5654TIP3    H116926   4.710   4.563   1.085 -0.5480 -0.0559  0.3389
 5654TIP3    H216927   4.835   4.578   1.169 -0.5310  1.8689  0.0162
 5655TIP3   OH216928   3.350   0.344   3.573 -0.3162 -0.3580 -0.0958
 5655TIP3    H116929   3.270   0.308   3.534  0.2808 -1.3482 -0.4543
 5655TIP3    H216930   3.389   0.396   3.503 -1.3172  1.2703  0.5071
 5656TIP3   OH216931   6.672   1.454   1.920 -0.0937 -0.0550 -0.3430
 5656TIP3    H116932   6.756   1.473   1.877  0.3270  0.0005  0.4896
 5656TIP3    H216933   6.623   1.404   1.854  0.1835  0.8014 -1.2238
 5657TIP3   OH216934   6.080   2.703   0.763 -0.0006  0.0853 -0.2887
 5657TIP3    H116935   6.004   2.750   0.730  1.1153  2.0583 -0.1904
 5657TIP3    H216936   6.080   2.720   0.857 -1.2951 -2.7683  0.3490
 5658TIP3   OH216937   0.971   0.008   1.445  0.0542 -0.0276  0.0447
 5658TIP3    H116938   0.934  -0.051   1.379 -0.4312 -1.3995  1.4578
 5658TIP3    H216939   1.024   0.070   1.396 -0.8097 -0.5910 -1.6737
 5659TIP3   OH216940   1.164   4.975   4.684  0.1594  0.2453  0.0017
 5659TIP3    H116941   1.238   4.923   4.653  0.8173  0.3386  1.3079
 5659TIP3    H216942   1.174   4.976   4.779 -1.1027  0.9048  0.1525
 5660TIP3   OH216943   6.135   4.525   1.744 -0.2791  0.6359  0.1877
 5660TIP3    H116944   6.220   4.570   1.739 -0.0128  0.3925  1.9445
 5660TIP3    H216945   6.156   4.438   1.778 -1.0521 -0.0341 -1.0021
 5661TIP3   OH216946   3.867   3.360   5.610 -0.1062 -0.0734  0.3203
 5661TIP3    H116947   3.878   3.280   5.558 -0.3109  0.1117 -0.0111
 5661TIP3    H216948   3.824   3.421   5.550 -1.1765 -0.1572  0.9879
 5662TIP3   OH216949   3.968   2.524   2.610  0.5135 -0.2137  0.2831
 5662TIP3    H116950   3.989   2.617   2.602  0.7639 -0.0426  2.2472
 5662TIP3    H216951   4.053   2.480   2.601  0.5474 -0.1639  0.3539
 5663TIP3   OH216952   4.639   3.415   3.766  0.2133 -0.4357 -0.3432
 5663TIP3    H116953   4.625   3.404   3.672 -0.3519 -0.7431 -0.2225
 5663TIP3    H216954   4.573   3.478   3.793  0.0179 -0.7706 -0.0458
 5664TIP3   OH216955   6.086   0.372   0.630  0.0530 -0.2407 -0.2990
 5664TIP3    H116956   6.000   0.370   0.589  0.1911 -1.1881 -0.5657
 5664TIP3    H216957   6.097   0.285   0.667  1.6674 -0.8024 -1.9319
 5665TIP3   OH216958   6.197   3.304   3.557  0.4514  0.1456 -0.0013
 5665TIP3    H116959   6.264   3.245   3.525 -1.5026 -1.6902 -0.9303
 5665TIP3    H216960   6.225   3.326   3.646  2.2054 -0.6387 -0.3246
 5666TIP3   OH216961   3.643   2.476   0.983  0.4870  0.2793  0.7528
 5666TIP3    H116962   3.607   2.559   1.013 -0.8313 -0.1508  0.4185
 5666TIP3    H216963   3.653   2.424   1.063  0.3409  0.3883  0.8414
 5667TIP3   OH216964   4.836   3.063   5.669  0.3191 -0.2177  0.5236
 5667TIP3    H116965   4.842   2.998   5.739 -1.8459 -0.0121  0.9808
 5667TIP3    H216966   4.865   3.017   5.590  0.7652 -1.1081  1.1911
 5668TIP3   OH216967   3.076   6.505   1.887  0.0075 -0.4113  0.0697
 5668TIP3    H116968   2.982   6.515   1.905 -0.4162 -0.3556 -1.9346
 5668TIP3    H216969   3.079   6.461   1.802  1.8235 -1.4293  0.6200
 5669TIP3   OH216970   1.078   0.620   0.039 -0.1199  0.0783  0.3825
 5669TIP3    H116971   1.151   0.558   0.034 -0.2241  0.0275 -0.9286
 5669TIP3    H216972   1.104   0.691  -0.020 -0.5639  0.6714  0.8981
 5670TIP3   OH216973   4.684   6.459   2.747 -0.4602 -0.4210 -0.2123
 5670TIP3    H116974   4.656   6.484   2.659  1.4965 -0.0503 -0.7787
 5670TIP3    H216975   4.686   6.541   2.796 -0.4147 -0.4536 -0.1585
 5671TIP3   OH216976   0.512   1.783   1.814  0.7001  0.8191 -0.4528
 5671TIP3    H116977   0.608   1.785   1.804  0.8240  1.1539  0.6124
 5671TIP3    H216978   0.490   1.690   1.818  0.8876  0.7241 -1.4240
 5672TIP3   OH216979   1.945   0.819   4.493  0.1872 -0.1112 -0.1716
 5672TIP3    H116980   1.975   0.735   4.457  0.4269 -0.2718  0.3962
 5672TIP3    H216981   1.951   0.880   4.420 -0.3504 -0.6738 -0.7025
 5673TIP3   OH216982   2.267   0.859   1.326 -0.5153  0.4769 -0.0944
 5673TIP3    H116983   2.319   0.873   1.405  1.7196 -0.4664 -1.3165
 5673TIP3    H216984   2.251   0.947   1.291  1.5588  0.7640 -0.4427
 5674TIP3   OH216985   1.444   6.466   2.907 -0.2776  0.1269 -0.0433
 5674TIP3    H116986   1.527   6.487   2.864  0.7968 -3.4414 -0.0571
 5674TIP3    H216987   1.469   6.429   2.992 -1.7327 -1.7706 -0.3655
 5675TIP3   OH216988   3.927   6.789   2.550 -0.1840  0.4568 -0.1496
 5675TIP3    H116989   4.021   6.773   2.556 -0.3567 -0.6390 -0.1361
 5675TIP3    H216990   3.906   6.774   2.458 -0.4034  0.3492 -0.0823
 5676TIP3   OH216991   2.893   1.919   2.298 -0.2221 -0.1391  0.0779
 5676TIP3    H116992   2.806   1.938   2.333  0.4137  0.4463  1.4200
 5676TIP3    H216993   2.878   1.852   2.231 -1.3917 -2.4972  2.5242
 5677TIP3   OH216994   1.374   0.036   4.030  0.0999  0.0906  0.0482
 5677TIP3    H116995   1.386   0.021   4.124 -0.3429 -0.0299  0.0892
 5677TIP3    H216996   1.461   0.059   3.998  0.1870  0.4904  0.5551
 5678TIP3   OH216997   7.023   2.365   5.582  0.4913 -0.5187  0.4186
 5678TIP3    H116998   7.052   2.366   5.490 -0.2013 -1.5185  0.1745
 5678TIP3    H216999   6.981   2.451   5.594  0.0459 -0.6035 -0.3924
 5679TIP3   OH217000   6.047   4.196   1.353  0.5528 -0.1254  0.2342
 5679TIP3    H117001   5.963   4.162   1.323  0.7047 -0.1160 -0.2205
 5679TIP3    H217002   6.096   4.119   1.381  0.6010 -0.1971 -0.0413
 5680TIP3   OH217003   4.248   2.280   4.987  0.2338 -0.2774 -0.1865
 5680TIP3    H117004   4.205   2.249   5.066  0.7665 -2.8499 -0.8106
 5680TIP3    H217005   4.293   2.203   4.952  3.6597  1.7278 -0.6706
 5681TIP3   OH217006   1.756   1.521   3.462  0.2761 -0.1187 -0.3479
 5681TIP3    H117007   1.810   1.449   3.428 -0.6018 -0.5711 -0.8232
 5681TIP3    H217008   1.727   1.490   3.548 -0.7400 -0.6891 -0.8787
 5682TIP3   OH217009   5.546   5.075   5.140 -0.0850  0.3809  0.3933
 5682TIP3    H117010   5.641   5.080   5.130  0.1026 -1.2346  1.0073
 5682TIP3    H217011   5.511   5.118   5.062  1.1735 -0.4533 -0.6766
 5683TIP3   OH217012   2.223   2.705   4.853  0.5129  0.3829  0.1608
 5683TIP3    H117013   2.237   2.633   4.791 -0.5701 -0.3475  0.7281
 5683TIP3    H217014   2.265   2.781   4.812  2.5030 -0.7530 -0.0382
 5684TIP3   OH217015   0.740   4.949   4.150 -0.3477  0.1523  0.2149
 5684TIP3    H117016   0.679   4.877   4.136  0.8762 -1.0755  0.9202
 5684TIP3    H217017   0.783   4.961   4.065 -0.6300  0.1296  0.0675
 5685TIP3   OH217018   5.257   3.372   3.379 -0.0679 -0.4445 -0.0495
 5685TIP3    H117019   5.274   3.410   3.465 -0.1700  1.4423 -0.8197
 5685TIP3    H217020   5.176   3.322   3.391 -0.1063 -0.1676  0.9373
 5686TIP3   OH217021   0.697   0.583   4.786 -0.3782  0.0387 -0.0402
 5686TIP3    H117022   0.739   0.515   4.838  1.6698 -0.9430 -2.7403
 5686TIP3    H217023   0.624   0.538   4.743 -0.1601  0.0231 -0.3970
 5687TIP3   OH217024   0.477   2.246   1.718  0.3491  0.0366 -0.4513
 5687TIP3    H117025   0.392   2.282   1.691  0.4074  0.1958 -0.4255
 5687TIP3    H217026   0.455   2.174   1.776  0.2107 -0.6045 -1.2712
 5688TIP3   OH217027   3.246   6.230   5.628 -0.4238 -0.4513 -0.1441
 5688TIP3    H117028   3.163   6.270   5.600  0.1704  1.5847  0.8047
 5688TIP3    H217029   3.255   6.153   5.572 -1.3414  1.0783 -2.6131
 5689TIP3   OH217030   7.083   3.240   0.643  0.0537 -0.0046  0.2048
 5689TIP3    H117031   7.033   3.233   0.561  0.7399 -0.2046 -0.1987
 5689TIP3    H217032   7.143   3.166   0.641  0.5821  0.4118  0.5423
 5690TIP3   OH217033   3.244   4.492   5.640  0.0576  0.0645  0.1537
 5690TIP3    H117034   3.240   4.522   5.549  1.1123  0.4943  0.2345
 5690TIP3    H217035   3.254   4.397   5.634 -0.5354  0.0135 -0.1560
 5691TIP3   OH217036   5.074   6.495   4.328 -0.2198  0.4377 -0.2847
 5691TIP3    H117037   5.170   6.497   4.321 -0.1742  1.3459  0.4331
 5691TIP3    H217038   5.045   6.474   4.240  0.6146  1.6456 -0.8920
 5692TIP3   OH217039   6.861   1.168   1.732 -0.1970 -0.1139 -0.1391
 5692TIP3    H117040   6.820   1.085   1.754  0.9101 -0.8461 -0.7346
 5692TIP3    H217041   6.856   1.174   1.636  1.7470 -0.6220 -0.3127
 5693TIP3   OH217042   0.093   0.371   1.093  0.8074  0.4609  0.0653
 5693TIP3    H117043   0.045   0.309   1.148  0.0703  0.7261 -0.2807
 5693TIP3    H217044   0.106   0.447   1.149  1.7259  0.0044  0.4960
 5694TIP3   OH217045   5.326   1.865   0.013 -0.0682  0.2249 -0.1115
 5694TIP3    H117046   5.401   1.811   0.038  0.6168  0.8085 -0.8447
 5694TIP3    H217047   5.304   1.914   0.092  0.6313  0.3926 -0.0141
 5695TIP3   OH217048   4.643   1.074   4.287 -0.6724 -0.2005 -1.0700
 5695TIP3    H117049   4.621   1.059   4.195  3.5493 -0.3397 -2.2549
 5695TIP3    H217050   4.708   1.144   4.285  1.5336 -1.9602  1.4393
 5696TIP3   OH217051   3.118   0.274   3.462  0.0917  0.4000 -0.2319
 5696TIP3    H117052   3.149   0.250   3.375  0.2424 -0.5007  0.0595
 5696TIP3    H217053   3.067   0.199   3.492 -0.2800  0.8539  0.3066
 5697TIP3   OH217054   4.284   2.186   4.602  0.0742 -0.2636 -0.4436
 5697TIP3    H117055   4.310   2.249   4.535  0.7432 -1.5831 -1.4758
 5697TIP3    H217056   4.190   2.175   4.588 -0.0620  0.5314 -0.2161
 5698TIP3   OH217057   6.626   1.506   4.932  0.7260  0.1166  0.5180
 5698TIP3    H117058   6.680   1.558   4.872  1.9313  0.6911  2.0272
 5698TIP3    H217059   6.668   1.518   5.017 -0.1639 -1.7152  1.2580
 5699TIP3   OH217060   3.035   0.316   1.782  0.0980  0.3368 -0.7367
 5699TIP3    H117061   3.107   0.347   1.727 -2.0570  2.9712 -2.2832
 5699TIP3    H217062   2.990   0.251   1.728  1.4503 -1.7075  0.4299
 5700TIP3   OH217063   3.959   6.389   3.813  0.0578 -0.7558  0.4538
 5700TIP3    H117064   3.997   6.323   3.756 -0.6975 -0.3046 -0.6130
 5700TIP3    H217065   4.027   6.457   3.820  0.2409 -0.9211  0.2772
 5701TIP3   OH217066   3.025   0.004   0.512 -1.1707 -0.3068  0.3616
 5701TIP3    H117067   2.968   0.078   0.491 -0.1165  0.6198  0.6460
 5701TIP3    H217068   3.040   0.011   0.606  0.1134  0.0142  0.1577
 5702TIP3   OH217069   5.052   0.058   3.056 -0.5302 -0.0800  0.5966
 5702TIP3    H117070   5.068  -0.002   3.128  3.6639 -0.6151 -0.5379
 5702TIP3    H217071   5.061   0.004   2.977 -0.0892  1.3769 -0.3905
 5703TIP3   OH217072   7.172   4.230   4.432 -0.6370 -0.5735  0.2254
 5703TIP3    H117073   7.111   4.213   4.504  0.2445 -4.0301  0.3480
 5703TIP3    H217074   7.123   4.207   4.353 -0.9709  1.3185 -0.1535
 5704TIP3   OH217075   1.262   6.725   1.409 -0.7531  0.3504 -0.3688
 5704TIP3    H117076   1.181   6.776   1.404 -1.2781 -0.3508  0.7440
 5704TIP3    H217077   1.332   6.791   1.405 -1.3902  1.0351 -0.4291
 5705TIP3   OH217078   2.559   5.340   4.331 -0.4299  0.1471 -0.6971
 5705TIP3    H117079   2.488   5.287   4.294 -0.1389 -0.2342 -0.7139
 5705TIP3    H217080   2.554   5.423   4.283 -0.8761  0.1314 -0.6839
 5706TIP3   OH217081   1.928   6.502   0.777 -0.1484 -0.4297  0.4058
 5706TIP3    H117082   1.962   6.589   0.797 -2.3187  0.6062 -0.0502
 5706TIP3    H217083   1.896   6.509   0.687  0.5013 -2.0150  0.0159
 5707TIP3   OH217084   7.028   0.224   0.933 -0.0274 -0.1864  0.7718
 5707TIP3    H117085   6.939   0.254   0.912  0.0679 -0.5716 -0.2585
 5707TIP3    H217086   7.073   0.225   0.849 -0.2861 -4.1304  0.4122
 5708TIP3   OH217087   5.740   1.380   2.604  0.4865 -0.3453  0.6747
 5708TIP3    H117088   5.667   1.443   2.600  1.2889  0.5611 -3.2145
 5708TIP3    H217089   5.818   1.432   2.586  1.3484 -2.1250 -1.1744
 5709TIP3   OH217090   7.024   0.625   3.994 -0.1999 -0.7803 -0.6341
 5709TIP3    H117091   7.031   0.538   3.955 -2.3753 -0.7797 -1.1468
 5709TIP3    H217092   7.066   0.616   4.080  2.5408 -1.4096 -1.9061
 5710TIP3   OH217093   4.538   3.779   2.517  0.2279 -0.2861 -0.2799
 5710TIP3    H117094   4.485   3.762   2.439  0.3231  2.1021 -0.9404
 5710TIP3    H217095   4.629   3.768   2.487  0.2437 -2.9234  0.4819
 5711TIP3   OH217096   5.127   5.667   4.975 -0.1787  0.3262  0.2739
 5711TIP3    H117097   5.152   5.678   4.883  1.0302 -0.7907  0.4524
 5711TIP3    H217098   5.180   5.731   5.022 -0.4694  0.5840  0.2596
 5712TIP3   OH217099   0.854   0.513   0.868  0.6961 -0.3232 -0.1499
 5712TIP3    H117100   0.852   0.523   0.963  0.2198  0.2645 -0.2124
 5712TIP3    H217101   0.771   0.550   0.838  0.3698 -1.4655 -0.7172
 5713TIP3   OH217102   4.337   0.516   1.195 -0.4164  0.5424 -0.0405
 5713TIP3    H117103   4.365   0.604   1.172 -0.0475  0.1405 -1.1844
 5713TIP3    H217104   4.418   0.465   1.196 -0.8746 -0.3073 -1.8630
 5714TIP3   OH217105   3.216   4.734   2.930 -0.0423 -0.3635 -0.0975
 5714TIP3    H117106   3.162   4.723   3.008 -0.1857  0.8089 -0.0193
 5714TIP3    H217107   3.165   4.693   2.860 -0.8114  0.3052  0.0662
 5715TIP3   OH217108   2.677   3.990   5.797 -0.1473 -1.0999  0.4306
 5715TIP3    H117109   2.593   4.031   5.778  0.4009 -0.5723 -0.9429
 5715TIP3    H217110   2.683   3.918   5.735 -0.1370 -1.9491  1.3882
 5716TIP3   OH217111   5.355   3.276   3.107 -0.5406  0.1048 -0.0521
 5716TIP3    H117112   5.311   3.292   3.191 -1.3230  2.3874 -0.8403
 5716TIP3    H217113   5.447   3.298   3.124 -0.1493 -1.9428  0.8324
 5717TIP3   OH217114   3.867   0.113   5.731  0.0616  0.2481  0.1748
 5717TIP3    H117115   3.874   0.206   5.754  0.1923  0.0499  0.9280
 5717TIP3    H217116   3.860   0.114   5.635 -0.7729  1.0840  0.2279
 5718TIP3   OH217117   5.585   2.091   4.233  0.0929 -0.0515  0.7489
 5718TIP3    H117118   5.591   2.147   4.311 -0.0415 -0.8308  1.3231
 5718TIP3    H217119   5.664   2.112   4.183  0.2395  0.3729  1.1440
 5719TIP3   OH217120   0.178   3.869   1.580  0.3291  0.1573 -0.1712
 5719TIP3    H117121   0.102   3.914   1.618 -0.0920 -1.2924  0.8257
 5719TIP3    H217122   0.147   3.779   1.566  1.9757 -0.5788  0.6447
 5720TIP3   OH217123   4.741   4.709   3.319 -0.1414 -0.3221  0.0686
 5720TIP3    H117124   4.816   4.702   3.260 -0.1270  2.1897 -0.3313
 5720TIP3    H217125   4.751   4.635   3.379  2.1314 -0.6127 -0.5504
 5721TIP3   OH217126   1.470   4.859   4.956  0.2615  0.2520 -0.0171
 5721TIP3    H117127   1.432   4.772   4.966 -0.3585  0.3807 -1.1301
 5721TIP3    H217128   1.512   4.858   4.870  1.0323  0.7777  0.3342
 5722TIP3   OH217129   3.341   3.074   2.407  0.5989 -0.9995  0.1937
 5722TIP3    H117130   3.323   2.981   2.419  1.9762 -1.0847  1.9954
 5722TIP3    H217131   3.418   3.076   2.350  0.9434 -0.9890  0.6581
 5723TIP3   OH217132   5.354   2.506   2.056 -0.2390  0.6123 -0.1689
 5723TIP3    H117133   5.370   2.508   1.961  0.4163 -0.7182 -0.0958
 5723TIP3    H217134   5.435   2.539   2.095  0.6754 -1.7021  0.0158
 5724TIP3   OH217135   6.797   4.565   4.724 -0.2519  0.4405 -0.2724
 5724TIP3    H117136   6.743   4.545   4.800 -0.3084  0.6662 -0.2504
 5724TIP3    H217137   6.745   4.537   4.649  0.4714 -1.2665 -0.1655
 5725TIP3   OH217138   5.247   0.672   2.829  0.2070 -0.1191  0.9114
 5725TIP3    H117139   5.291   0.731   2.890  1.4165 -0.3866  0.3428
 5725TIP3    H217140   5.196   0.730   2.772  1.9896  0.5089 -0.1380
 5726TIP3   OH217141   1.787   5.013   3.667  0.7301 -0.5420  0.2786
 5726TIP3    H117142   1.816   5.102   3.647  0.5632 -0.0810  2.0026
 5726TIP3    H217143   1.750   5.018   3.755 -0.1601 -2.1273  0.0388
 5727TIP3   OH217144   3.582   1.408   5.854  0.3419  0.2939  0.3371
 5727TIP3    H117145   3.498   1.453   5.846  0.3282  0.1254 -0.6368
 5727TIP3    H217146   3.608   1.391   5.763  0.3073 -1.7117  0.6671
 5728TIP3   OH217147   5.795   1.920   3.082  0.7296  0.1407  0.3331
 5728TIP3    H117148   5.800   1.998   3.026 -1.1510  0.1913  0.1515
 5728TIP3    H217149   5.770   1.850   3.022 -0.7437  0.0789  0.9745
 5729TIP3   OH217150   0.547   5.654   2.416  0.6049  0.4835  0.5188
 5729TIP3    H117151   0.613   5.667   2.484  0.8877  1.9961  0.0066
 5729TIP3    H217152   0.532   5.742   2.381 -1.7915  0.2149  0.7095
 5730TIP3   OH217153   5.892   6.336   0.815  0.5929  0.3887  0.5121
 5730TIP3    H117154   5.827   6.404   0.834 -1.3194 -1.5388  1.1147
 5730TIP3    H217155   5.923   6.357   0.726  0.4249  2.2926  0.8537
 5731TIP3   OH217156   2.561   4.172   3.447 -0.0416 -0.6600  0.2293
 5731TIP3    H117157   2.653   4.182   3.470  0.5671 -0.4386 -1.9998
 5731TIP3    H217158   2.523   4.258   3.464  0.5468 -0.2882 -0.2855
 5732TIP3   OH217159   1.414   4.762   5.761  0.0641  0.3979  0.3626
 5732TIP3    H117160   1.324   4.794   5.749 -0.6409 -1.3260  0.7917
 5732TIP3    H217161   1.435   4.783   5.852 -0.5433 -0.6302  0.7620
 5733TIP3   OH217162   6.726   1.310   4.387  0.3632  0.6003 -0.3717
 5733TIP3    H117163   6.748   1.254   4.313  0.4860  0.1356  0.0068
 5733TIP3    H217164   6.810   1.344   4.418  0.3165  0.7646 -0.4221
 5734TIP3   OH217165   4.852   2.056   2.216 -0.1921  0.2866  0.5068
 5734TIP3    H117166   4.860   1.996   2.290  0.6003  1.4660  1.4404
 5734TIP3    H217167   4.797   2.127   2.249  0.1945  0.8396 -0.0110
 5735TIP3   OH217168   5.243   4.472   4.144 -0.4990  0.4861  0.0684
 5735TIP3    H117169   5.243   4.557   4.099 -0.6459  0.1785 -0.5220
 5735TIP3    H217170   5.300   4.417   4.091 -0.8409  0.0571  0.1419
 5736TIP3   OH217171   3.845   0.213   3.750  0.4197 -0.0310  0.1992
 5736TIP3    H117172   3.805   0.128   3.731  0.6760 -0.1360  0.1323
 5736TIP3    H217173   3.774   0.276   3.734  0.5222 -0.1423 -0.7973
 5737TIP3   OH217174   5.068   6.038   4.762  0.1258  0.0654 -0.2152
 5737TIP3    H117175   5.056   6.117   4.814  0.4186 -0.8087  1.2330
 5737TIP3    H217176   4.979   6.008   4.743  0.0065  1.0848 -1.3476
 5738TIP3   OH217177   6.833   3.622   2.096 -0.0742 -0.2197  0.3199
 5738TIP3    H117178   6.748   3.577   2.097 -0.4412  0.3852 -1.1078
 5738TIP3    H217179   6.894   3.557   2.062 -0.2750 -0.1945 -0.1014
 5739TIP3   OH217180   1.929   3.046   4.684 -0.0697 -0.0014 -0.1883
 5739TIP3    H117181   1.997   3.112   4.667  0.8195 -0.7025  0.5695
 5739TIP3    H217182   1.909   3.056   4.777 -2.6195  1.6759 -0.8082
 5740TIP3   OH217183   4.628   5.804   1.097 -0.6675 -0.0069 -0.1679
 5740TIP3    H117184   4.608   5.891   1.132 -0.0022 -0.4551  1.4373
 5740TIP3    H217185   4.585   5.744   1.158  0.9306 -0.8344  0.1822
 5741TIP3   OH217186   1.682   4.739   3.812 -0.0364  0.1228 -0.1833
 5741TIP3    H117187   1.638   4.808   3.763 -0.0424 -0.1634 -0.5829
 5741TIP3    H217188   1.767   4.729   3.769 -0.4014 -0.7637 -0.7202
 5742TIP3   OH217189   2.558   2.948   3.719 -0.4041 -0.1132  0.1752
 5742TIP3    H117190   2.503   2.874   3.694 -0.8757  0.2831 -0.0031
 5742TIP3    H217191   2.500   3.004   3.771  0.2114 -0.3149  1.1071
 5743TIP3   OH217192   2.166   2.487   5.746 -0.3511 -0.5041 -0.4938
 5743TIP3    H117193   2.109   2.421   5.785 -1.0676  0.6744  0.5414
 5743TIP3    H217194   2.156   2.476   5.652 -1.2342 -1.1983 -0.3271
 5744TIP3   OH217195   0.385   0.478   4.235 -0.1395 -0.0255 -0.1680
 5744TIP3    H117196   0.478   0.498   4.221 -0.1975  0.8111  0.5748
 5744TIP3    H217197   0.386   0.396   4.285  0.1836 -0.2170 -0.4798
 5745TIP3   OH217198   6.728   5.415   2.248  0.1636 -0.2332  0.4520
 5745TIP3    H117199   6.725   5.336   2.193 -0.2454 -0.3607  0.6540
 5745TIP3    H217200   6.639   5.450   2.244  0.8860  1.5909 -1.5942
 5746TIP3   OH217201   3.819   0.875   4.384 -0.3369 -0.2710 -0.3530
 5746TIP3    H117202   3.907   0.901   4.413  0.1256  0.5509 -2.3147
 5746TIP3    H217203   3.761   0.906   4.454  0.9257 -1.1381  1.1538
 5747TIP3   OH217204   6.578   5.519   0.179 -0.9821 -0.4340  0.4072
 5747TIP3    H117205   6.620   5.584   0.236  1.5480 -1.7699  0.2003
 5747TIP3    H217206   6.533   5.460   0.239  0.8417 -1.2677  1.0204
 5748TIP3   OH217207   4.015   5.454   1.342 -0.5376 -1.0037  0.7712
 5748TIP3    H117208   4.007   5.538   1.386  0.0439 -0.8553  0.5968
 5748TIP3    H217209   4.066   5.472   1.263 -1.3880 -1.3061  0.1407
 5749TIP3   OH217210   2.311   3.907   4.227  0.3235 -0.4762  0.2372
 5749TIP3    H117211   2.306   3.841   4.158 -2.5175 -2.0269  1.7502
 5749TIP3    H217212   2.327   3.858   4.307 -0.2874  0.8186  1.2074
 5750TIP3   OH217213   0.835   2.450   0.812 -0.4446  0.0256  0.6912
 5750TIP3    H117214   0.764   2.506   0.781 -0.1176 -0.1690 -0.4853
 5750TIP3    H217215   0.835   2.461   0.907 -2.5831 -0.6102  0.8278
 5751TIP3   OH217216   4.456   4.993   5.348 -0.2921  0.1302 -0.3848
 5751TIP3    H117217   4.428   5.047   5.274  0.2062  1.0549  0.0812
 5751TIP3    H217218   4.381   4.993   5.408  0.0392  1.1658  0.0675
 5752TIP3   OH217219   0.742   2.303   2.339  0.4952 -0.3071  0.0085
 5752TIP3    H117220   0.759   2.270   2.251  1.7811 -0.0763  0.1533
 5752TIP3    H217221   0.759   2.397   2.333  0.8302 -0.3288  0.5632
 5753TIP3   OH217222   6.102   4.567   5.415 -0.4283  0.0193 -0.0372
 5753TIP3    H117223   6.173   4.574   5.478  0.6162 -3.4614 -0.6333
 5753TIP3    H217224   6.022   4.567   5.468  0.2204  0.5505  0.9564
 5754TIP3   OH217225   2.406   6.448   2.503 -0.4334 -0.1878 -0.2199
 5754TIP3    H117226   2.336   6.431   2.567  0.1682 -1.8330  0.0627
 5754TIP3    H217227   2.361   6.478   2.425 -1.3419  0.0836  0.3953
 5755TIP3   OH217228   2.068   2.411   1.240 -0.4885  0.1000 -0.1363
 5755TIP3    H117229   2.149   2.454   1.210  2.4137 -2.4833  3.1420
 5755TIP3    H217230   2.007   2.483   1.255  2.2411  2.5764  0.0565
 5756TIP3   OH217231   6.160   1.140   4.561  0.2579  0.5283  0.3518
 5756TIP3    H117232   6.194   1.190   4.635 -0.9917  2.8764 -0.5606
 5756TIP3    H217233   6.110   1.203   4.510  1.2030 -0.9531 -2.6129
 5757TIP3   OH217234   5.835   3.826   5.620 -0.4199  0.2985  0.0776
 5757TIP3    H117235   5.772   3.794   5.685 -1.7579  4.0861  0.9340
 5757TIP3    H217236   5.781   3.859   5.548  0.8255  0.0285 -1.0117
 5758TIP3   OH217237   2.014   4.961   1.535  0.3548  0.4731 -0.1062
 5758TIP3    H117238   2.018   4.992   1.444 -0.7540  0.1458 -0.2903
 5758TIP3    H217239   2.057   4.875   1.533  0.6663  0.6293 -0.2385
 5759TIP3   OH217240   3.737   0.950   0.398  0.1316  0.1470 -0.5270
 5759TIP3    H117241   3.683   1.027   0.380 -0.8057 -0.5513 -0.8023
 5759TIP3    H217242   3.679   0.876   0.379  0.3575 -0.6340  1.6381
 5760TIP3   OH217243   3.065   1.725   5.238  0.0355 -0.3779 -0.1274
 5760TIP3    H117244   3.128   1.715   5.166  1.0130  1.8963  0.3024
 5760TIP3    H217245   2.989   1.766   5.196 -0.0027 -0.4548 -0.1330
 5761TIP3   OH217246   3.199   2.964   3.067  0.2325  0.0082  0.0272
 5761TIP3    H117247   3.112   3.003   3.060 -0.8543 -2.1965  0.5120
 5761TIP3    H217248   3.247   3.024   3.124 -0.1798  2.4606 -2.0274
 5762TIP3   OH217249   1.246   5.005   5.451 -0.0606  0.1031 -0.2321
 5762TIP3    H117250   1.313   4.938   5.445  0.0161  0.1350  0.2242
 5762TIP3    H217251   1.289   5.079   5.495 -0.3549  0.1680 -0.0465
 5763TIP3   OH217252   6.479   6.320   3.037 -0.0807  0.3085 -0.2179
 5763TIP3    H117253   6.543   6.368   2.986 -1.6095  1.8383 -0.7743
 5763TIP3    H217254   6.510   6.326   3.127  1.0150  0.2184 -0.5740
 5764TIP3   OH217255   2.355   6.270   3.589 -0.4673  0.1488 -0.6590
 5764TIP3    H117256   2.376   6.353   3.546 -1.1357  0.5399 -0.2537
 5764TIP3    H217257   2.293   6.294   3.658  0.8015 -0.4162  0.7361
 5765TIP3   OH217258   5.077   4.091   5.452  0.1794 -0.4002 -0.2281
 5765TIP3    H117259   5.089   4.127   5.364 -0.7138 -0.5272 -0.4196
 5765TIP3    H217260   4.996   4.133   5.483  0.4950 -0.3455  0.5363
 5766TIP3   OH217261   5.154   5.861   0.250 -0.4945  0.4584 -0.2162
 5766TIP3    H117262   5.218   5.905   0.307  0.2924 -0.6312 -0.2196
 5766TIP3    H217263   5.199   5.853   0.166 -0.7281 -0.0798 -0.2923
 5767TIP3   OH217264   0.336   3.375   5.189  0.3506  0.4826  0.4650
 5767TIP3    H117265   0.287   3.446   5.146 -1.1053 -1.0115 -0.4743
 5767TIP3    H217266   0.363   3.318   5.118  0.4439 -0.5267  1.2822
 5768TIP3   OH217267   1.734   0.805   5.889 -0.2667  0.0465 -0.0986
 5768TIP3    H117268   1.674   0.732   5.907 -0.6478  0.2101 -0.6837
 5768TIP3    H217269   1.748   0.801   5.795 -1.6581  1.7623 -0.4235
 5769TIP3   OH217270   2.252   6.297   4.480  0.2802  0.2138  0.0603
 5769TIP3    H117271   2.341   6.307   4.513  0.4774  0.4240 -0.5372
 5769TIP3    H217272   2.246   6.205   4.454  0.1556  0.0712  0.5777
 5770TIP3   OH217273   2.720   4.095   2.056  0.2489  0.2007  0.1375
 5770TIP3    H117274   2.738   4.023   1.997 -0.3876 -0.0006  0.1822
 5770TIP3    H217275   2.675   4.055   2.131 -1.7498  0.8602 -0.6434
 5771TIP3   OH217276   3.408   6.068   0.257 -0.1405 -0.1690  0.2042
 5771TIP3    H117277   3.320   6.061   0.219  0.2756 -0.0857 -0.7931
 5771TIP3    H217278   3.401   6.141   0.318 -1.2324 -1.2842  1.5068
 5772TIP3   OH217279   1.816   0.010   3.127 -0.1055  0.4151  0.0016
 5772TIP3    H117280   1.811  -0.042   3.047 -0.1527  0.6180 -0.1291
 5772TIP3    H217281   1.755   0.082   3.113  0.2848  0.7500 -0.0004
 5773TIP3   OH217282   4.833   2.456   4.546  0.1426  0.1449  0.4411
 5773TIP3    H117283   4.791   2.437   4.462  0.0103  1.0104  0.3032
 5773TIP3    H217284   4.904   2.517   4.525  0.5399 -0.1640  0.8683
 5774TIP3   OH217285   5.924   5.898   4.772 -0.4129  0.1329  0.0192
 5774TIP3    H117286   5.998   5.839   4.755 -1.0864 -0.5033 -0.7961
 5774TIP3    H217287   5.904   5.935   4.686 -2.1437 -1.0223 -0.1117
 5775TIP3   OH217288   1.425   6.088   2.127  0.1763  0.5918 -0.2098
 5775TIP3    H117289   1.421   6.166   2.183 -0.0041  1.6420 -1.6311
 5775TIP3    H217290   1.337   6.050   2.133  0.4211  0.1934  0.9075
 5776TIP3   OH217291   3.876   0.746   1.792 -0.3302 -0.2926  0.6545
 5776TIP3    H117292   3.894   0.840   1.787 -3.1145  0.2825 -0.6064
 5776TIP3    H217293   3.813   0.737   1.864  0.3298 -1.3001  1.1315
 5777TIP3   OH217294   2.554   5.728   1.475  0.4247 -0.6364 -0.2823
 5777TIP3    H117295   2.534   5.756   1.386  0.4558  0.9974  0.1939
 5777TIP3    H217296   2.569   5.809   1.523 -1.8891 -1.3271  1.7970
 5778TIP3   OH217297   2.867   1.767   2.986 -0.1218  0.0698  0.4143
 5778TIP3    H117298   2.791   1.747   2.932 -0.5216 -1.1720  1.4131
 5778TIP3    H217299   2.937   1.783   2.923 -0.5851 -1.3173 -0.4876
 5779TIP3   OH217300   6.025   2.474   3.230 -0.1555 -0.2684  0.5667
 5779TIP3    H117301   5.975   2.394   3.248 -0.5856  0.3452  2.2823
 5779TIP3    H217302   6.014   2.488   3.136  1.0423 -2.9325 -0.0752
 5780TIP3   OH217303   6.144   0.918   4.864 -0.0486  0.1251 -0.2511
 5780TIP3    H117304   6.064   0.970   4.849 -2.0517 -2.3228  1.1216
 5780TIP3    H217305   6.213   0.983   4.872 -2.0046  2.4430 -0.8431
 5781TIP3   OH217306   1.087   6.045   0.736  0.3266  0.4320  0.8677
 5781TIP3    H117307   0.995   6.021   0.725  0.6261 -0.0419 -0.9470
 5781TIP3    H217308   1.088   6.139   0.721  0.5658 -0.0288 -3.1240
 5782TIP3   OH217309   5.751   4.233   5.507 -0.0926 -0.0728  0.0689
 5782TIP3    H117310   5.774   4.323   5.529  0.4749  0.0925 -1.1028
 5782TIP3    H217311   5.655   4.231   5.510 -0.0611  0.0664  1.9113
 5783TIP3   OH217312   2.902   0.746   0.032  0.2014 -0.5574  0.6941
 5783TIP3    H117313   2.843   0.728  -0.041  0.7714 -1.0521  0.3434
 5783TIP3    H217314   2.855   0.809   0.086 -0.9939 -1.5240  0.8368
 5784TIP3   OH217315   2.980   1.311   2.586  0.4424 -0.1077 -0.2192
 5784TIP3    H117316   3.051   1.375   2.589  0.0871  0.2529  0.6287
 5784TIP3    H217317   3.013   1.242   2.528  1.1967  0.3923 -0.4011
 5785TIP3   OH217318   1.521   2.567   0.686  0.6721  0.6599 -0.3970
 5785TIP3    H117319   1.494   2.480   0.717 -0.2086 -0.4377 -3.8309
 5785TIP3    H217320   1.441   2.619   0.687  0.9135  1.0289  0.3471
 5786TIP3   OH217321   5.621   2.535   1.412 -0.2901 -0.3922  0.0473
 5786TIP3    H117322   5.574   2.606   1.367 -0.7565 -1.0232 -0.4697
 5786TIP3    H217323   5.551   2.479   1.447  0.0475  0.1334  1.6669
 5787TIP3   OH217324   2.400   3.725   4.430 -0.1130 -0.3483 -0.4710
 5787TIP3    H117325   2.485   3.760   4.456  0.5716 -2.0491 -0.3092
 5787TIP3    H217326   2.420   3.647   4.378 -1.5611  0.0759 -1.7628
 5788TIP3   OH217327   5.742   5.285   0.363  0.5854  0.6816 -0.5949
 5788TIP3    H117328   5.764   5.230   0.288 -0.0819  0.5336 -0.6891
 5788TIP3    H217329   5.798   5.253   0.434  0.4846  0.1467 -0.7548
 5789TIP3   OH217330   6.964   4.647   3.981 -0.5156 -0.3094 -0.1754
 5789TIP3    H117331   6.869   4.638   3.992 -0.7000  1.1892 -0.4108
 5789TIP3    H217332   6.999   4.635   4.069 -0.8259 -1.7067 -0.2100
 5790TIP3   OH217333   4.152   5.329   1.684 -0.1035  0.9592  0.0093
 5790TIP3    H117334   4.231   5.384   1.688  0.7102 -0.2283  0.6115
 5790TIP3    H217335   4.184   5.243   1.659 -1.4386  0.8539 -1.5385
 5791TIP3   OH217336   3.897   3.429   1.169  0.4301  0.5879 -0.1770
 5791TIP3    H117337   3.818   3.396   1.213  1.3130 -0.5422  0.6027
 5791TIP3    H217338   3.970   3.394   1.220  1.4596  2.0056 -0.5991
 5792TIP3   OH217339   6.680   3.388   1.519 -0.6681  0.1847  0.1038
 5792TIP3    H117340   6.691   3.482   1.502  1.2522 -0.2585 -1.4722
 5792TIP3    H217341   6.756   3.347   1.478 -2.1621 -2.2088 -0.4899
 5793TIP3   OH217342   4.632   1.458   0.084  0.3049  0.1077 -0.4122
 5793TIP3    H117343   4.538   1.452   0.099 -0.1362  0.9226 -2.4801
 5793TIP3    H217344   4.644   1.423  -0.004  1.6822  1.6576 -0.8833
 5794TIP3   OH217345   2.897   3.512   3.020  0.1954  0.6339  0.5267
 5794TIP3    H117346   2.896   3.432   2.968  0.2725  1.4171 -0.7020
 5794TIP3    H217347   2.897   3.481   3.111  2.9567 -0.8258  0.1362
 5795TIP3   OH217348   0.354   3.610   3.994  0.3857 -0.4023  0.3328
 5795TIP3    H117349   0.382   3.519   3.987  0.5448 -0.2644 -1.1287
 5795TIP3    H217350   0.367   3.646   3.906 -0.3263  0.8400  0.7111
 5796TIP3   OH217351   2.776   3.887   0.862 -0.1044 -0.7442 -0.1669
 5796TIP3    H117352   2.804   3.978   0.858 -4.0508  0.7857  1.9852
 5796TIP3    H217353   2.730   3.873   0.779 -0.5340 -0.3805  0.0095
 5797TIP3   OH217354   5.356   4.873   3.356 -0.3711 -0.4614 -0.3958
 5797TIP3    H117355   5.411   4.795   3.351  0.8005  0.1500  1.7230
 5797TIP3    H217356   5.270   4.840   3.379  0.1753 -1.1526  0.7708
 5798TIP3   OH217357   4.613   2.764   4.119 -0.4470  0.0879  0.5043
 5798TIP3    H117358   4.648   2.834   4.174  1.5610  0.3310 -0.9824
 5798TIP3    H217359   4.655   2.777   4.034  0.0430 -2.9443  0.1942
 5799TIP3   OH217360   2.678   5.158   3.691  0.5894 -0.2160 -0.4045
 5799TIP3    H117361   2.651   5.171   3.600  0.2715  1.7883 -0.0809
 5799TIP3    H217362   2.751   5.219   3.703  0.4193 -0.2119  0.7633
 5800TIP3   OH217363   0.882   2.503   5.640 -0.1519 -0.4229 -0.3180
 5800TIP3    H117364   0.794   2.471   5.623 -1.5579  1.2556  2.9487
 5800TIP3    H217365   0.909   2.459   5.721  0.8658  1.1151  0.2318
 5801TIP3   OH217366   5.379   3.302   4.062 -0.2845  0.5199 -0.3597
 5801TIP3    H117367   5.290   3.332   4.042 -0.4033  0.1357 -0.4080
 5801TIP3    H217368   5.434   3.379   4.044 -0.6522  0.9035  0.1117
 5802TIP3   OH217369   2.396   3.625   2.151 -0.5535  0.6946 -0.7978
 5802TIP3    H117370   2.446   3.553   2.114  0.9416  1.0554  0.4039
 5802TIP3    H217371   2.330   3.583   2.207  1.5523  0.1971  1.4651
 5803TIP3   OH217372   7.132   5.881   3.980 -0.2171  0.4537  0.1151
 5803TIP3    H117373   7.144   5.975   3.988 -0.6012  0.4105  1.6389
 5803TIP3    H217374   7.055   5.862   4.035  0.9284 -0.9574  1.3078
 5804TIP3   OH217375   0.453   1.479   0.313  0.0417  0.4814  0.7633
 5804TIP3    H117376   0.476   1.390   0.342 -0.9341  0.4143  1.3692
 5804TIP3    H217377   0.397   1.465   0.236  0.9178  0.6180  0.0778
 5805TIP3   OH217378   2.520   4.958   2.038  0.1161  0.5305  0.8660
 5805TIP3    H117379   2.615   4.953   2.048  0.3948 -1.4490 -1.5236
 5805TIP3    H217380   2.486   4.890   2.096  0.3638 -0.1023  0.2877
 5806TIP3   OH217381   2.086   0.638   5.754 -0.5441  0.0525  0.0270
 5806TIP3    H117382   2.100   0.720   5.801  1.7354  0.7130 -1.6477
 5806TIP3    H217383   2.032   0.586   5.813 -0.3933  1.9860  2.0041
 5807TIP3   OH217384   3.936   3.366   3.607 -0.4452  0.5464 -0.2617
 5807TIP3    H117385   3.974   3.371   3.519  1.7361  0.5371  0.6131
 5807TIP3    H217386   3.923   3.272   3.622  1.4032  0.3384  0.2616
 5808TIP3   OH217387   6.206   4.539   3.338 -0.1841 -0.2706 -0.3148
 5808TIP3    H117388   6.163   4.624   3.338 -0.7423 -0.5264 -1.3813
 5808TIP3    H217389   6.297   4.557   3.360 -0.4879  0.4808  0.3860
 5809TIP3   OH217390   1.181   0.934   4.751  0.1024  0.4333 -0.6846
 5809TIP3    H117391   1.131   0.971   4.823  0.5142  0.6197 -0.4911
 5809TIP3    H217392   1.147   0.846   4.740 -1.7486  1.2433 -1.9430
 5810TIP3   OH217393   3.851   1.599   3.247  0.1739 -0.3196  0.1447
 5810TIP3    H117394   3.929   1.567   3.200  1.2890 -0.6168  2.1014
 5810TIP3    H217395   3.883   1.672   3.299 -0.3350 -1.6868  2.5184
 5811TIP3   OH217396   4.067   5.034   1.912 -0.6969 -0.4721 -0.0931
 5811TIP3    H117397   4.117   5.036   1.830  0.2109 -0.1441  0.4580
 5811TIP3    H217398   3.991   5.091   1.896 -0.4692 -0.3291 -0.6701
 5812TIP3   OH217399   6.862   0.102   1.209 -0.4602 -0.0052 -0.0377
 5812TIP3    H117400   6.929   0.062   1.264  0.6485  0.4152 -1.0414
 5812TIP3    H217401   6.809   0.028   1.178  0.9833 -0.6446 -1.1007
 5813TIP3   OH217402   1.251   2.400   0.076 -0.1225  0.2162  0.1633
 5813TIP3    H117403   1.336   2.410   0.033 -0.4191  0.1975 -0.4405
 5813TIP3    H217404   1.220   2.314   0.049 -0.9750  0.7901 -0.8215
 5814TIP3   OH217405   1.824   5.002   4.597  0.0328 -0.4273  0.3660
 5814TIP3    H117406   1.865   5.058   4.663  0.0122 -0.8671  0.7560
 5814TIP3    H217407   1.844   5.044   4.514  0.3485 -0.0514  0.6307
 5815TIP3   OH217408   0.644   5.046   4.644 -0.3611  0.0519 -0.1688
 5815TIP3    H117409   0.656   5.024   4.737  0.0385  0.8277 -0.0261
 5815TIP3    H217410   0.655   4.963   4.598 -1.5344 -0.5232  0.5510
 5816TIP3   OH217411   2.488   0.059   1.292  0.0590  0.2021  0.2755
 5816TIP3    H117412   2.543   0.090   1.365  0.1814  0.2311  0.1714
 5816TIP3    H217413   2.540   0.077   1.214  0.3224 -0.6804  0.2409
 5817TIP3   OH217414   2.719   2.666   1.558  0.6057  0.4169  0.2422
 5817TIP3    H117415   2.709   2.620   1.642 -0.6632 -0.5217 -0.3943
 5817TIP3    H217416   2.809   2.699   1.560  0.8158 -0.1403  1.6962
 5818TIP3   OH217417   5.933   4.113   2.627 -0.2548 -0.5747  0.3187
 5818TIP3    H117418   5.941   4.040   2.689 -2.1020 -0.4028  0.8158
 5818TIP3    H217419   5.849   4.098   2.583 -0.4551  1.0088  0.1030
 5819TIP3   OH217420   2.796   6.230   1.870 -0.0356  0.2363 -0.1696
 5819TIP3    H117421   2.821   6.187   1.788  0.9818 -0.4400  0.4778
 5819TIP3    H217422   2.722   6.177   1.902 -0.5914  0.6415 -0.7490
 5820TIP3   OH217423   4.464   0.680   0.327 -0.1706  0.2735 -0.2258
 5820TIP3    H117424   4.424   0.619   0.389 -0.6164 -1.9549 -2.5568
 5820TIP3    H217425   4.557   0.661   0.331 -0.2156  0.0302 -0.3699
 5821TIP3   OH217426   4.085   6.541   0.943 -0.3461  0.2323  0.1837
 5821TIP3    H117427   4.064   6.471   1.005  1.1971  0.9253  1.5872
 5821TIP3    H217428   4.039   6.618   0.977  1.7560  1.0061  1.4982
 5822TIP3   OH217429   2.552   0.419   4.673 -0.8969  0.3803  0.1456
 5822TIP3    H117430   2.516   0.490   4.726  0.3295  0.6709  0.6320
 5822TIP3    H217431   2.609   0.463   4.610 -0.7409 -0.1200 -0.0657
 5823TIP3   OH217432   6.640   0.459   1.612 -0.1786  0.1621 -0.1281
 5823TIP3    H117433   6.568   0.397   1.601 -0.8044  0.9320 -0.5193
 5823TIP3    H217434   6.695   0.420   1.680 -1.0445 -0.3838  0.2882
 5824TIP3   OH217435   1.976   0.431   5.017 -0.2438 -0.2211 -0.2237
 5824TIP3    H117436   2.064   0.406   4.989  0.3354  0.8985  0.5294
 5824TIP3    H217437   1.926   0.435   4.936  0.0203 -2.1806 -0.5381
 5825TIP3   OH217438   3.562   2.823   3.157  0.1609  0.5528  0.1579
 5825TIP3    H117439   3.546   2.903   3.208  1.0904  0.3476  0.7957
 5825TIP3    H217440   3.524   2.753   3.209 -0.1646  0.5035 -0.1390
 5826TIP3   OH217441   2.948   1.474   3.699 -0.3258 -0.0312  0.0001
 5826TIP3    H117442   2.943   1.406   3.766  1.2221  0.7181  0.9138
 5826TIP3    H217443   3.035   1.465   3.661 -0.0232  1.5536  0.2677
 5827TIP3   OH217444   3.598   5.701   2.523  0.0488  0.5903 -0.0422
 5827TIP3    H117445   3.510   5.728   2.499 -0.4277  0.1357  1.1393
 5827TIP3    H217446   3.654   5.773   2.495 -0.2098 -0.5105 -3.9097
 5828TIP3   OH217447   6.506   3.033   4.304  0.6190  0.2871  0.3603
 5828TIP3    H117448   6.586   2.987   4.279 -0.7343 -1.2910 -1.3140
 5828TIP3    H217449   6.490   3.095   4.233 -0.4483 -0.5099 -0.1230
 5829TIP3   OH217450   0.627   4.285   3.936  0.5168 -1.3855 -0.4691
 5829TIP3    H117451   0.597   4.282   4.027 -1.8308 -0.2141 -1.1193
 5829TIP3    H217452   0.715   4.321   3.941  0.2894 -0.9556  1.3298
 5830TIP3   OH217453   4.343   2.229   3.081  0.1613  0.3946  0.6042
 5830TIP3    H117454   4.267   2.212   3.136  0.1699 -2.0144 -0.0187
 5830TIP3    H217455   4.334   2.169   3.008  1.3592  1.8860 -0.8525
 5831TIP3   OH217456   1.643   3.810   4.339 -0.4821 -0.3675 -0.1088
 5831TIP3    H117457   1.563   3.782   4.383  1.4281 -1.5253  3.0137
 5831TIP3    H217458   1.711   3.751   4.374  1.9768  1.5024 -1.4133
 5832TIP3   OH217459   3.289   0.869   3.550  0.1008 -0.3205 -0.0343
 5832TIP3    H117460   3.367   0.815   3.564  1.3509  0.7184 -2.2912
 5832TIP3    H217461   3.268   0.857   3.457 -1.0979  1.1181  0.0101
 5833TIP3   OH217462   3.152   1.881   4.504  0.2386  0.1512  0.0159
 5833TIP3    H117463   3.226   1.932   4.537 -0.9187  1.3577  0.8760
 5833TIP3    H217464   3.160   1.797   4.548 -0.4736  1.2503  2.4136
 5834TIP3   OH217465   3.678   1.678   0.743 -0.6018  0.3138  0.2040
 5834TIP3    H117466   3.674   1.665   0.649  0.4169  1.7466 -0.0688
 5834TIP3    H217467   3.589   1.706   0.767 -1.0330 -0.6619 -0.2103
 5835TIP3   OH217468  -0.003   4.361   3.387  0.0886 -0.4507 -0.1466
 5835TIP3    H117469   0.048   4.283   3.406  1.6000  0.3290 -0.8635
 5835TIP3    H217470   0.035   4.429   3.443  0.6274  0.4199 -1.5314
 5836TIP3   OH217471   3.345   5.609   3.009  0.7324 -0.3452  0.4673
 5836TIP3    H117472   3.349   5.617   2.914 -0.1375  0.3430  0.4750
 5836TIP3    H217473   3.287   5.534   3.025 -1.4142  1.2006  0.4286
 5837TIP3   OH217474   3.679   3.437   1.421 -0.0378  0.3670 -0.3513
 5837TIP3    H117475   3.728   3.511   1.456 -1.7847  2.3895 -1.9497
 5837TIP3    H217476   3.587   3.458   1.438 -0.5868 -1.9554  0.0288
 5838TIP3   OH217477   0.706   2.191   4.339 -0.2440  0.4901 -0.1593
 5838TIP3    H117478   0.731   2.231   4.423 -3.6011  0.5531  0.9352
 5838TIP3    H217479   0.696   2.265   4.279  1.3270  0.5129 -0.4396
 5839TIP3   OH217480   3.226   1.446   2.606 -0.0888 -0.1619  0.5102
 5839TIP3    H117481   3.285   1.470   2.677  0.8423 -2.0424  0.4510
 5839TIP3    H217482   3.283   1.441   2.529 -1.1416  2.2477 -0.5357
 5840TIP3   OH217483   1.987   2.611   1.878 -0.1117  0.0667 -0.5896
 5840TIP3    H117484   1.959   2.544   1.940  2.2524 -0.5319 -0.0810
 5840TIP3    H217485   1.905   2.650   1.846 -1.4527 -1.2352  1.0867
 5841TIP3   OH217486   1.166   2.583   2.855  0.1224 -0.1117  0.1935
 5841TIP3    H117487   1.092   2.546   2.807 -0.2416  0.3342  0.4071
 5841TIP3    H217488   1.136   2.668   2.885  0.6768  0.0186  0.4006
 5842TIP3   OH217489   5.574   5.756   5.823 -0.2243 -0.4450 -0.4895
 5842TIP3    H117490   5.654   5.735   5.870 -0.4795  2.2681  1.3952
 5842TIP3    H217491   5.517   5.680   5.837  0.7982 -0.9547  1.1178
 5843TIP3   OH217492   3.110   0.039   2.901 -0.1654  0.2421  0.5597
 5843TIP3    H117493   3.162   0.091   2.841 -1.9600  2.1644  0.5568
 5843TIP3    H217494   3.167  -0.034   2.926  0.3502 -1.4137 -4.3302
 5844TIP3   OH217495   3.481   1.150   1.872  0.1520 -0.3920  0.1319
 5844TIP3    H117496   3.411   1.212   1.852  0.8437  0.7644  1.1962
 5844TIP3    H217497   3.508   1.171   1.961  1.5176 -1.1553 -0.0691
 5845TIP3   OH217498   2.881   1.461   0.930 -0.4222  0.6907 -0.8915
 5845TIP3    H117499   2.928   1.442   1.012  0.3121  0.1524 -1.4235
 5845TIP3    H217500   2.878   1.376   0.885 -1.7135  0.7645 -0.9804
 5846TIP3   OH217501   1.761   0.684   2.312  0.2226  0.2034 -0.3528
 5846TIP3    H117502   1.732   0.597   2.341 -1.3340  0.4039 -1.1876
 5846TIP3    H217503   1.850   0.670   2.281 -0.5139 -1.4678 -1.9236
 5847TIP3   OH217504   3.957   3.272   0.955  0.1310  0.7666 -0.0437
 5847TIP3    H117505   3.878   3.219   0.945 -0.4511  1.5704  0.1875
 5847TIP3    H217506   3.932   3.341   1.016  1.5268  0.0331  1.4796
 5848TIP3   OH217507   1.408   2.494   0.321  0.2973  0.4777 -0.0914
 5848TIP3    H117508   1.351   2.491   0.398  0.1679 -0.4257 -0.2118
 5848TIP3    H217509   1.351   2.475   0.247  0.8123 -0.9642 -0.1604
 5849TIP3   OH217510   4.657   5.726   5.421  0.5095  0.0877 -0.7122
 5849TIP3    H117511   4.688   5.740   5.510 -0.5938 -1.7524  0.0316
 5849TIP3    H217512   4.599   5.800   5.403  0.0625  0.0338  0.4505
 5850TIP3   OH217513   3.208   1.759   0.112  0.0874 -0.5398  0.3427
 5850TIP3    H117514   3.251   1.749   0.197 -1.4209  0.8090  1.3231
 5850TIP3    H217515   3.116   1.776   0.133 -1.1786 -3.8800 -1.6474
 5851TIP3   OH217516   2.573   3.995   2.313  0.4835  0.1944 -0.2277
 5851TIP3    H117517   2.561   4.049   2.391 -2.1155  0.6683 -0.8573
 5851TIP3    H217518   2.485   3.964   2.292  1.1011  0.0136 -2.9326
 5852TIP3   OH217519   0.952   1.469   5.890  0.2894  0.3966 -0.1864
 5852TIP3    H117520   0.918   1.481   5.801  1.6264  2.0685 -0.5333
 5852TIP3    H217521   0.892   1.517   5.946 -0.3104 -0.2895 -0.2315
 5853TIP3   OH217522   2.950   3.311   3.587 -0.6094 -0.3623 -0.0388
 5853TIP3    H117523   2.895   3.302   3.665  0.2747  0.8043  0.7469
 5853TIP3    H217524   2.936   3.401   3.557  0.4937 -0.1954 -0.0966
 5854TIP3   OH217525   3.879   0.967   4.814  0.0678 -0.6414  0.0845
 5854TIP3    H117526   3.889   0.885   4.767  0.1891 -1.1301  0.9511
 5854TIP3    H217527   3.957   1.018   4.791  0.6895 -1.3298  0.6514
 5855TIP3   OH217528   0.019   4.654   3.491  0.1650  0.2991 -0.1037
 5855TIP3    H117529   0.018   4.607   3.575 -1.0686  0.7662  0.1712
 5855TIP3    H217530  -0.029   4.735   3.509  0.6212  0.7877 -1.0574
 5856TIP3   OH217531   1.663   2.240   4.652  0.3063 -0.1185 -0.3281
 5856TIP3    H117532   1.628   2.235   4.563  0.7756  0.3352 -0.5402
 5856TIP3    H217533   1.597   2.196   4.706 -0.0692 -0.2321 -0.8716
 5857TIP3   OH217534   5.840   0.320   2.569  0.0316  0.4820  0.1225
 5857TIP3    H117535   5.795   0.268   2.503 -1.5937  1.8823  0.0532
 5857TIP3    H217536   5.886   0.388   2.520  1.6083 -0.4346  0.2556
 5858TIP3   OH217537   2.997   0.278   4.951 -0.2236 -0.3846  0.8827
 5858TIP3    H117538   2.983   0.193   4.910  0.2877  0.5772 -1.4517
 5858TIP3    H217539   3.081   0.269   4.996  0.2826 -0.8711 -0.1197
 5859TIP3   OH217540   1.449   3.339   0.676 -0.2644 -0.5488  0.4152
 5859TIP3    H117541   1.520   3.287   0.714 -0.4263 -1.2774 -0.2456
 5859TIP3    H217542   1.484   3.428   0.670 -0.0813 -0.5063  1.8376
 5860TIP3   OH217543   2.211   4.093   0.134  0.1975 -0.3750 -0.2767
 5860TIP3    H117544   2.278   4.037   0.172  0.1636  0.7083  1.4451
 5860TIP3    H217545   2.133   4.078   0.188 -0.3708 -0.1082 -1.0022
 5861TIP3   OH217546   1.816   6.372   5.277 -0.0663  0.1509  0.0879
 5861TIP3    H117547   1.725   6.400   5.291 -0.1741 -0.5170  0.8354
 5861TIP3    H217548   1.809   6.296   5.220 -0.0382 -0.3049  0.6810
 5862TIP3   OH217549   2.132   5.020   4.462  0.0775 -0.3666 -0.0076
 5862TIP3    H117550   2.216   4.983   4.489  0.0781  0.5239  1.3447
 5862TIP3    H217551   2.148   5.055   4.374  0.9234 -0.8494 -0.0579
 5863TIP3   OH217552   0.484   2.527  -0.003 -0.0108  0.2302 -0.3380
 5863TIP3    H117553   0.445   2.461  -0.061 -1.5099  0.5848  0.2157
 5863TIP3    H217554   0.457   2.501   0.085  1.1927  0.3996  0.1033
 5864TIP3   OH217555   6.825   4.698   0.205  0.1272  0.0657  0.2996
 5864TIP3    H117556   6.882   4.633   0.245 -1.3993 -0.5339  1.5865
 5864TIP3    H217557   6.875   4.780   0.208  1.7324 -0.8337 -0.5787
 5865TIP3   OH217558   5.513   0.540   5.661 -0.2337  0.7880  0.1383
 5865TIP3    H117559   5.591   0.573   5.705  0.0701 -0.0965  0.2930
 5865TIP3    H217560   5.538   0.533   5.569  0.8783 -2.1547  0.5533
 5866TIP3   OH217561   0.048   6.199   2.404 -0.8287  0.1545 -0.3724
 5866TIP3    H117562   0.071   6.134   2.337  0.3424  0.9356 -0.7692
 5866TIP3    H217563  -0.047   6.191   2.414 -0.6742 -2.0088  0.0112
 5867TIP3   OH217564   4.681   2.520   3.485  0.0318  0.3656 -0.2563
 5867TIP3    H117565   4.767   2.562   3.485  1.9240 -3.0524  2.1941
 5867TIP3    H217566   4.625   2.580   3.534  2.3416  0.5694  2.3336
 5868TIP3   OH217567   0.389   0.703   1.837 -0.0200 -0.2587 -0.1137
 5868TIP3    H117568   0.438   0.730   1.915  0.9419 -1.8466 -0.1255
 5868TIP3    H217569   0.416   0.765   1.770  0.6139 -0.0207  0.3465
 5869TIP3   OH217570   4.131   3.396   5.197 -0.3213  0.2881 -0.1006
 5869TIP3    H117571   4.099   3.480   5.229 -0.8361  1.0262 -2.3644
 5869TIP3    H217572   4.062   3.334   5.221  0.4048  0.3267  2.2381
 5870TIP3   OH217573   0.480   4.447   4.383  0.2029 -0.0637 -0.3121
 5870TIP3    H117574   0.528   4.386   4.327 -0.2794 -0.6695 -0.0699
 5870TIP3    H217575   0.471   4.401   4.466 -0.3410  0.2536 -0.1924
 5871TIP3   OH217576   6.931   5.590   2.155  0.3744  0.2119  0.0000
 5871TIP3    H117577   6.855   5.535   2.175  0.2355  0.8126  1.1778
 5871TIP3    H217578   7.006   5.534   2.173  0.2273 -0.1456 -0.4674
 5872TIP3   OH217579   0.245   4.580   2.949 -0.4320  0.1423  0.3870
 5872TIP3    H117580   0.239   4.675   2.939  1.0535  0.2420  0.1730
 5872TIP3    H217581   0.218   4.563   3.040 -3.7614  0.3793 -0.4293
 5873TIP3   OH217582   3.989   5.027   1.416  0.0294 -0.0798 -0.3493
 5873TIP3    H117583   3.900   5.052   1.441 -0.8680 -1.5769 -1.8641
 5873TIP3    H217584   4.027   5.108   1.380 -1.6830  0.0073 -2.1693
 5874TIP3   OH217585   0.494   6.258   2.934 -0.4722  0.0999  0.1143
 5874TIP3    H117586   0.472   6.182   2.988  1.0739  0.0508  0.7324
 5874TIP3    H217587   0.511   6.223   2.847 -0.2210 -0.2034  0.2859
 5875TIP3   OH217588   6.363   0.111   4.392 -0.1548  0.2103 -0.0469
 5875TIP3    H117589   6.421   0.072   4.327 -1.0596  1.7555 -1.8918
 5875TIP3    H217590   6.421   0.140   4.462  1.4157  2.0211 -1.9748
 5876TIP3   OH217591   2.077   6.323   1.935 -0.4199  0.5155  0.3317
 5876TIP3    H117592   2.037   6.337   1.849 -0.0886  0.5426  0.1817
 5876TIP3    H217593   2.061   6.231   1.954 -0.8602  0.6093  0.4305
 5877TIP3   OH217594   6.453   5.209   5.009 -0.3702 -0.4647 -0.3177
 5877TIP3    H117595   6.474   5.123   4.973  0.1769 -0.2817 -0.4455
 5877TIP3    H217596   6.361   5.204   5.032 -0.7322 -0.5961 -1.7194
 5878TIP3   OH217597   6.174   2.115   1.363  0.0333 -0.4498  1.0636
 5878TIP3    H117598   6.242   2.118   1.430  0.7888  1.5387  0.2637
 5878TIP3    H217599   6.222   2.108   1.280 -0.8907 -3.7333  0.6490
 5879TIP3   OH217600   2.769   2.935   4.248  0.2756 -0.2842  0.3467
 5879TIP3    H117601   2.735   2.911   4.162 -1.0028  1.1581  0.4184
 5879TIP3    H217602   2.774   2.852   4.296  0.2532 -0.9914 -0.8430
 5880TIP3   OH217603   3.913   3.108   3.210 -0.1460  0.2599 -0.1659
 5880TIP3    H117604   3.876   3.020   3.206 -1.3526  0.8104 -2.7358
 5880TIP3    H217605   3.986   3.106   3.148  0.0446  0.9778  0.0271
 5881TIP3   OH217606   2.537   0.778   1.999 -0.3672  0.4572  0.1757
 5881TIP3    H117607   2.627   0.768   1.968  0.1422  0.6551  1.5431
 5881TIP3    H217608   2.498   0.692   1.986  0.8709 -0.4655  2.1350
 5882TIP3   OH217609   2.236   1.361   3.305 -0.7117  0.3687  0.4365
 5882TIP3    H117610   2.165   1.421   3.283  0.8194  2.0688 -0.0751
 5882TIP3    H217611   2.256   1.317   3.222 -0.6630  0.4291  0.4167
 5883TIP3   OH217612   6.460   5.494   2.902  0.1294 -0.0943  0.1443
 5883TIP3    H117613   6.411   5.546   2.838  2.1794  0.8512 -0.7615
 5883TIP3    H217614   6.505   5.428   2.849  1.6922  0.5757  0.5858
 5884TIP3   OH217615   4.115   3.266   0.748 -0.4659 -0.0119 -0.6393
 5884TIP3    H117616   4.070   3.212   0.683  0.0322 -1.1573 -0.0461
 5884TIP3    H217617   4.055   3.269   0.823  0.0889 -0.8982 -0.1461
 5885TIP3   OH217618   5.527   0.219   2.418 -0.1064  0.2439  0.2639
 5885TIP3    H117619   5.447   0.186   2.376 -0.1822 -2.4032  2.2245
 5885TIP3    H217620   5.496   0.293   2.471 -0.5228  1.6435 -1.8195
 5886TIP3   OH217621   3.170   1.921   5.674 -0.1248  0.5374  0.1241
 5886TIP3    H117622   3.237   1.870   5.720  0.1988  1.3651  0.5992
 5886TIP3    H217623   3.097   1.859   5.663  1.1029 -0.7133 -1.4065
 5887TIP3   OH217624   5.650   3.876   4.761  0.0409 -0.0114  0.1010
 5887TIP3    H117625   5.719   3.896   4.698  0.8783 -0.1945  0.9370
 5887TIP3    H217626   5.689   3.894   4.846 -1.6209  1.9327  0.5399
 5888TIP3   OH217627   1.245   0.516   4.970  0.0213  0.5096  0.1160
 5888TIP3    H117628   1.313   0.546   4.910 -1.4853  2.1356 -0.8687
 5888TIP3    H217629   1.199   0.447   4.923  1.8821 -1.7053  1.3876
 5889TIP3   OH217630   4.771   0.613   5.596  0.7904  0.3106 -0.2789
 5889TIP3    H117631   4.828   0.549   5.637  0.5852 -1.8268 -3.0158
 5889TIP3    H217632   4.685   0.572   5.594 -0.2643  2.2591  1.1170
 5890TIP3   OH217633   0.323   2.767   1.019  0.2584  0.0712  0.1240
 5890TIP3    H117634   0.229   2.756   1.034  0.1516 -0.2614 -0.7354
 5890TIP3    H217635   0.346   2.846   1.068  0.0080 -1.1123  2.2493
 5891TIP3   OH217636   6.965   0.349   1.146  0.1247  0.8252 -0.2745
 5891TIP3    H117637   6.940   0.260   1.171 -1.3585  1.1918 -0.4108
 5891TIP3    H217638   7.026   0.337   1.072 -0.1136 -0.0686 -0.3333
 5892TIP3   OH217639   7.068   5.351   4.115 -0.0428 -0.7780 -0.0176
 5892TIP3    H117640   7.049   5.436   4.075 -0.2002 -1.7876 -2.2634
 5892TIP3    H217641   7.001   5.341   4.182  0.4662  1.1828  0.8532
 5893TIP3   OH217642   1.206   6.189   2.343  0.0431  0.5077  0.6673
 5893TIP3    H117643   1.139   6.211   2.278 -1.1198 -0.7581  1.3835
 5893TIP3    H217644   1.160   6.195   2.427  0.2322 -2.2003  1.0561
 5894TIP3   OH217645   5.323   3.568   1.197  0.3796  0.1471 -0.6597
 5894TIP3    H117646   5.339   3.512   1.121  1.5146  0.0195 -0.3455
 5894TIP3    H217647   5.377   3.531   1.266 -1.5848 -0.4986  0.6150
 5895TIP3   OH217648   1.966   6.370   2.245 -0.3758 -0.2689 -0.4593
 5895TIP3    H117649   1.984   6.437   2.179  0.0814  0.4737  0.4011
 5895TIP3    H217650   1.889   6.324   2.212  0.3037 -0.4427 -1.9128
 5896TIP3   OH217651   6.838   6.322   3.911  0.0962 -0.1641 -0.1617
 5896TIP3    H117652   6.767   6.387   3.909 -0.9761 -1.3029  0.1039
 5896TIP3    H217653   6.904   6.358   3.851 -0.4379  1.1901  0.0178
 5897TIP3   OH217654   0.385   2.530   5.276  0.4629 -0.0284  0.1665
 5897TIP3    H117655   0.383   2.447   5.229  0.8209  0.9972 -1.7447
 5897TIP3    H217656   0.477   2.542   5.300  0.1998 -0.8289  1.7643
 5898TIP3   OH217657   3.679   2.240   3.796 -0.4015  0.4030  0.3720
 5898TIP3    H117658   3.625   2.266   3.722  0.0136 -0.3852 -0.2179
 5898TIP3    H217659   3.675   2.144   3.797 -0.2232  0.3972  1.2257
 5899TIP3   OH217660   1.990   4.084   4.010 -0.1871 -0.3133 -0.6143
 5899TIP3    H117661   2.016   3.997   3.979  0.5079  0.5469 -2.6421
 5899TIP3    H217662   2.042   4.144   3.957 -0.0925  1.3489  1.2737
 5900TIP3   OH217663   5.292   1.093   5.257 -0.1460 -0.7179 -0.6822
 5900TIP3    H117664   5.329   1.169   5.300  5.5021 -2.9815 -0.7006
 5900TIP3    H217665   5.242   1.048   5.325  0.4535  0.5909  0.6603
 5901TIP3   OH217666   0.527   6.001   2.992 -0.0408 -0.1566 -1.2614
 5901TIP3    H117667   0.620   5.979   2.999  0.8092  3.1227 -0.9145
 5901TIP3    H217668   0.487   5.962   3.070  1.1369 -1.0069 -1.0593
 5902TIP3   OH217669   7.117   1.949   5.088  0.1222  0.2046 -0.2210
 5902TIP3    H117670   7.099   1.874   5.031 -0.4985  1.1919 -1.3600
 5902TIP3    H217671   7.180   2.002   5.038  2.4725 -0.6890  1.5681
 5903TIP3   OH217672   1.054   3.586   2.401  0.2030 -0.1268 -0.0562
 5903TIP3    H117673   1.008   3.566   2.483 -1.0471  0.3244 -0.6294
 5903TIP3    H217674   0.992   3.561   2.332  0.6931  0.7991 -0.8472
 5904TIP3   OH217675   0.198   6.492   1.536 -0.2930  0.2366 -0.1479
 5904TIP3    H117676   0.288   6.463   1.549 -0.7647 -1.4807 -0.4504
 5904TIP3    H217677   0.153   6.467   1.616 -0.4867  1.1805  0.0433
 5905TIP3   OH217678   3.271   3.128   3.298  0.6347  0.5100  0.3650
 5905TIP3    H117679   3.280   3.223   3.310  1.6845  0.5481 -0.6032
 5905TIP3    H217680   3.213   3.101   3.370 -0.5273  2.0234  0.0505
 5906TIP3   OH217681   3.523   5.456   3.540 -0.2384  0.1803 -0.0201
 5906TIP3    H117682   3.506   5.479   3.632  0.9078  1.6203 -0.1446
 5906TIP3    H217683   3.540   5.539   3.497 -0.0401 -0.5536 -1.4087
 5907TIP3   OH217684   1.422   1.813   5.805 -0.1038  0.1927  0.0557
 5907TIP3    H117685   1.367   1.742   5.840 -0.5895  0.6357  0.1970
 5907TIP3    H217686   1.505   1.802   5.851 -0.4817  0.2878  0.7867
 5908TIP3   OH217687   5.266   1.309   2.987  0.4417  0.6362  0.3267
 5908TIP3    H117688   5.234   1.222   3.008  0.5624  0.4606 -0.2083
 5908TIP3    H217689   5.271   1.354   3.072 -1.2300  0.6868  0.4318
 5909TIP3   OH217690   1.203   6.401   5.275 -0.3335 -0.2527  0.0979
 5909TIP3    H117691   1.141   6.397   5.202 -0.3898 -0.8139  0.1673
 5909TIP3    H217692   1.289   6.397   5.234 -0.3352  0.5080  0.0026
 5910TIP3   OH217693   4.374   5.431   5.767 -0.0548  0.6409 -0.5346
 5910TIP3    H117694   4.384   5.488   5.690  2.1281  1.6941  0.4484
 5910TIP3    H217695   4.457   5.383   5.773 -0.7946 -0.5939  0.2877
 5911TIP3   OH217696   0.890   2.705   2.620  0.2891  0.5855  0.1267
 5911TIP3    H117697   0.854   2.634   2.568  1.1668  1.7139 -2.1818
 5911TIP3    H217698   0.911   2.666   2.705 -0.3630 -1.5766 -0.6596
 5912TIP3   OH217699   6.807   3.944   0.506  0.0766 -0.3721 -0.1191
 5912TIP3    H117700   6.801   3.892   0.586  1.0651  1.1309  1.0090
 5912TIP3    H217701   6.830   3.881   0.438 -1.1155 -1.7516  0.6942
 5913TIP3   OH217702   1.018   2.097   4.220 -0.1318  0.0095 -0.0874
 5913TIP3    H117703   0.931   2.087   4.182 -0.3000  0.4190  0.1792
 5913TIP3    H217704   1.075   2.116   4.145 -0.5312  1.2350 -0.1043
 5914TIP3   OH217705   5.884   0.007   3.164 -0.8161 -0.2886  0.4538
 5914TIP3    H117706   5.805  -0.043   3.182 -1.2234  0.3742  0.5374
 5914TIP3    H217707   5.853   0.088   3.124 -0.0992 -0.5582 -0.6829
 5915TIP3   OH217708   4.854   2.877   2.200 -0.0863  0.0676  0.4142
 5915TIP3    H117709   4.889   2.819   2.132 -0.6888  1.7140 -1.3933
 5915TIP3    H217710   4.819   2.952   2.152  0.8829  2.0932  2.6467
 5916TIP3   OH217711   3.064   3.076   3.488 -0.0950 -0.4508  0.3609
 5916TIP3    H117712   3.025   3.160   3.512  2.3341  0.7524  0.3751
 5916TIP3    H217713   3.060   3.023   3.568 -1.6696 -0.3985  0.3423
 5917TIP3   OH217714   5.437   1.888   4.663 -0.5414  0.0452  0.2178
 5917TIP3    H117715   5.385   1.825   4.614 -1.0443  1.0000 -0.5122
 5917TIP3    H217716   5.384   1.968   4.664 -0.5683  0.0578  2.3574
 5918TIP3   OH217717   3.499   3.951   0.084 -0.1717 -0.6575 -0.0666
 5918TIP3    H117718   3.479   4.040   0.058  1.7217  0.1012  0.8584
 5918TIP3    H217719   3.482   3.949   0.178 -0.7192 -1.4438 -0.1725
 5919TIP3   OH217720   0.842   5.442   1.302 -0.6350 -0.7613 -0.3030
 5919TIP3    H117721   0.788   5.498   1.246  0.9249  0.4455 -0.6886
 5919TIP3    H217722   0.909   5.407   1.243 -0.4578 -1.5029  0.3258
 5920TIP3   OH217723   5.402   5.253   3.871  0.0263  0.0181 -0.1334
 5920TIP3    H117724   5.419   5.298   3.954  0.7003  1.6140 -1.0969
 5920TIP3    H217725   5.320   5.206   3.886 -0.8740  1.7980  0.8432
 5921TIP3   OH217726   2.656   0.579   3.133  0.6027  0.2134 -0.1656
 5921TIP3    H117727   2.714   0.611   3.065 -0.3317  1.3840 -0.4547
 5921TIP3    H217728   2.674   0.634   3.209 -0.6901  1.1850 -0.5208
 5922TIP3   OH217729   4.778   1.061   5.076  0.0933  0.2911  0.2809
 5922TIP3    H117730   4.868   1.070   5.044 -0.1095  1.1603 -0.0539
 5922TIP3    H217731   4.779   1.100   5.163  0.9826 -3.3164  2.0734
 5923TIP3   OH217732   1.064   5.244   2.948 -0.5561  0.3945 -0.2103
 5923TIP3    H117733   0.969   5.252   2.943 -0.6694 -0.6519 -0.0724
 5923TIP3    H217734   1.079   5.194   3.028  0.0837  0.2641 -0.4070
 5924TIP3   OH217735   3.063   2.711   5.076 -0.3145 -0.4539  0.1861
 5924TIP3    H117736   3.139   2.747   5.031 -1.4274  1.9647  0.1155
 5924TIP3    H217737   3.005   2.785   5.090 -3.0729 -2.3217 -0.5051
 5925TIP3   OH217738   6.709   6.406   1.425  0.1927  0.0594 -0.5276
 5925TIP3    H117739   6.753   6.469   1.367  0.8105 -1.0630 -1.3218
 5925TIP3    H217740   6.639   6.368   1.370 -0.3641  0.2507  0.0360
 5926TIP3   OH217741   0.507   0.327   3.973  0.3361 -0.2387  0.2118
 5926TIP3    H117742   0.457   0.268   4.029 -0.6267 -1.6720 -2.0035
 5926TIP3    H217743   0.508   0.284   3.888  0.1698  2.6051 -1.3725
 5927TIP3   OH217744   2.101   3.050   3.014  0.8217  0.2533  0.7269
 5927TIP3    H117745   2.052   3.074   2.935  0.6042  1.0617  1.1004
 5927TIP3    H217746   2.105   2.955   3.012 -1.5539  0.0968  1.1509
 5928TIP3   OH217747   6.775   5.874   1.430 -0.2905  0.4574 -0.3892
 5928TIP3    H117748   6.766   5.787   1.468  2.3368 -0.1405 -0.9570
 5928TIP3    H217749   6.714   5.928   1.481 -0.7777 -1.3559  1.0688
 5929TIP3   OH217750   3.262   0.709   1.438  0.1430  0.0516 -0.0576
 5929TIP3    H117751   3.351   0.725   1.470  0.9768 -2.1724 -1.0372
 5929TIP3    H217752   3.268   0.721   1.343  0.1971 -2.8474 -0.5145
 5930TIP3   OH217753   4.640   1.474   4.532 -0.4724  0.0276 -0.0898
 5930TIP3    H117754   4.702   1.401   4.534 -1.4455 -0.8224  0.2906
 5930TIP3    H217755   4.607   1.481   4.621 -0.6376  0.7215 -0.1974
 5931TIP3   OH217756   0.064   4.599   1.938 -0.2117  0.1219 -0.3894
 5931TIP3    H117757   0.031   4.513   1.965 -0.6641  0.4209  0.0166
 5931TIP3    H217758   0.075   4.647   2.020  1.7500 -0.1359 -0.4477
 5932TIP3   OH217759   4.061   3.641   4.694  0.0261 -0.4883 -0.5939
 5932TIP3    H117760   4.131   3.593   4.651  1.5387  1.4658 -0.4879
 5932TIP3    H217761   4.050   3.597   4.779  0.4013 -1.4416 -1.0266
 5933TIP3   OH217762   4.392   6.656   1.530  0.0721  0.0746  0.1435
 5933TIP3    H117763   4.332   6.717   1.574  1.6926  2.4546 -0.7257
 5933TIP3    H217764   4.345   6.628   1.452 -0.9756 -0.3772  0.9151
 5934TIP3   OH217765   6.715   0.876   2.542  0.3177  0.6038 -0.2602
 5934TIP3    H117766   6.804   0.904   2.522  1.0628 -1.2347  0.2111
 5934TIP3    H217767   6.723   0.830   2.626 -1.1492  0.7482 -0.0123
 5935TIP3   OH217768   2.274   2.007   0.331 -0.3510  0.0903  0.0844
 5935TIP3    H117769   2.284   2.012   0.426 -0.8236 -0.4486  0.1650
 5935TIP3    H217770   2.238   2.092   0.306  0.6644  0.5880  0.2653
 5936TIP3   OH217771   6.102   1.004   0.240  0.4419 -0.2774  0.4706
 5936TIP3    H117772   6.117   0.939   0.172 -0.5463 -0.0309 -0.0111
 5936TIP3    H217773   6.132   0.963   0.320  1.1761 -0.7611 -0.0425
 5937TIP3   OH217774   5.666   1.366   0.321 -0.1884 -0.0581 -0.7616
 5937TIP3    H117775   5.697   1.279   0.345 -1.1474 -0.3493 -0.5621
 5937TIP3    H217776   5.586   1.350   0.271 -0.2270  0.7017 -0.9557
 5938TIP3   OH217777   0.036   0.476   0.454 -0.5203 -0.2622  0.2945
 5938TIP3    H117778  -0.045   0.517   0.425 -0.3920  0.4278  0.8604
 5938TIP3    H217779   0.058   0.522   0.535  1.2167  0.6145 -0.6123
 5939TIP3   OH217780   6.731   1.085   4.829 -0.2350 -0.1658  0.2523
 5939TIP3    H117781   6.652   1.133   4.805  1.4752  2.0247 -1.5186
 5939TIP3    H217782   6.758   1.042   4.748  0.9519  0.0355  0.5206
 5940TIP3   OH217783   6.249   3.119   4.341  0.3059  0.0944  0.0718
 5940TIP3    H117784   6.245   3.143   4.248 -1.2507 -0.5815 -0.0579
 5940TIP3    H217785   6.341   3.100   4.357  0.4753 -0.5785 -1.5466
 5941TIP3   OH217786   3.790   2.691   3.459 -0.6249 -0.1396 -0.1761
 5941TIP3    H117787   3.855   2.658   3.521  0.1272  0.4668 -0.6200
 5941TIP3    H217788   3.711   2.701   3.511 -0.2781 -0.5702  0.4583
 5942TIP3   OH217789   2.747   4.603   0.936 -0.1742 -0.5649 -0.5772
 5942TIP3    H117790   2.723   4.569   0.850  1.2619  1.6353 -1.9418
 5942TIP3    H217791   2.831   4.647   0.923 -0.3910  0.7125  1.7060
 5943TIP3   OH217792   3.276   2.521   0.449 -0.4050  0.1802  0.4596
 5943TIP3    H117793   3.259   2.595   0.507 -0.7014  0.0791  0.5020
 5943TIP3    H217794   3.348   2.550   0.393 -2.8383  1.9343 -2.0436
 5944TIP3   OH217795   0.910   2.221   3.657  0.2727  0.3715  0.3030
 5944TIP3    H117796   0.821   2.238   3.627  0.4582  1.7653  0.4834
 5944TIP3    H217797   0.962   2.294   3.622  1.4854 -0.7637 -0.3711
 5945TIP3   OH217798   3.397   5.687   5.668  0.1351 -0.2564  0.1150
 5945TIP3    H117799   3.306   5.686   5.637 -0.2175  3.4513  0.6394
 5945TIP3    H217800   3.390   5.673   5.762  0.0937  0.1721  0.1758
 5946TIP3   OH217801   3.296   6.352   3.504 -0.0960  0.3099 -0.1208
 5946TIP3    H117802   3.369   6.402   3.466  2.5351 -0.1179  3.8311
 5946TIP3    H217803   3.242   6.418   3.547 -0.7320  0.3617 -0.9598
 5947TIP3   OH217804   5.695   1.616   0.414  0.4320 -0.1400 -0.2459
 5947TIP3    H117805   5.676   1.540   0.359 -1.0144  0.1216 -0.1631
 5947TIP3    H217806   5.674   1.587   0.503  1.3416 -0.1110 -0.0192
 5948TIP3   OH217807   1.355   3.590   4.242  0.6650  0.7146 -0.0160
 5948TIP3    H117808   1.409   3.523   4.202 -1.1957 -0.8783 -0.0124
 5948TIP3    H217809   1.411   3.629   4.309  2.7300  1.1752 -1.8990
 5949TIP3   OH217810   4.685   6.500   0.088 -0.1647 -0.0039 -0.3562
 5949TIP3    H117811   4.619   6.543   0.034 -0.5686  0.3493  0.4052
 5949TIP3    H217812   4.661   6.522   0.178 -0.8182 -2.3746  0.1309
 5950TIP3   OH217813   4.241   3.171   3.266 -0.0214 -0.2659 -0.1154
 5950TIP3    H117814   4.319   3.202   3.221  1.1570 -2.0733  0.5774
 5950TIP3    H217815   4.187   3.132   3.196  0.0679  0.2607 -0.4780
 5951TIP3   OH217816   0.869   0.689   1.263  0.4571 -0.3413 -0.2039
 5951TIP3    H117817   0.930   0.700   1.190 -0.0306 -2.3193 -0.9764
 5951TIP3    H217818   0.917   0.720   1.340  2.8699 -2.7723 -0.5928
 5952TIP3   OH217819   1.771   0.171   2.068  0.1560  0.1307  0.4283
 5952TIP3    H117820   1.816   0.221   2.136  0.5604  0.9509 -0.4143
 5952TIP3    H217821   1.780   0.225   1.989 -1.4603 -0.1506  0.0192
 5953TIP3   OH217822   1.329   1.706   1.455  0.0492  0.2006  0.1283
 5953TIP3    H117823   1.379   1.736   1.379 -1.5517  0.7308 -0.7442
 5953TIP3    H217824   1.342   1.612   1.456  1.9950  0.4171  0.6284
 5954TIP3   OH217825   4.016   5.093   4.833 -0.0294 -0.1764 -0.6223
 5954TIP3    H117826   4.024   5.010   4.879  1.0226 -0.5706 -1.4531
 5954TIP3    H217827   3.988   5.069   4.745 -0.1420  0.3870 -0.7460
 5955TIP3   OH217828   0.430   4.551   3.821 -0.3980 -0.3605  0.1040
 5955TIP3    H117829   0.510   4.601   3.837 -0.6243 -0.3006  1.1583
 5955TIP3    H217830   0.431   4.483   3.889 -2.2213  0.8794  1.4673
 5956TIP3   OH217831   2.232   1.173   5.222  1.1859  0.1740 -0.3797
 5956TIP3    H117832   2.209   1.080   5.231  0.3463  0.2151 -1.8114
 5956TIP3    H217833   2.327   1.175   5.228  1.1945 -0.7336  0.0265
 5957TIP3   OH217834   1.655   1.283   4.542  0.0457  0.2120 -0.7508
 5957TIP3    H117835   1.724   1.251   4.483 -0.7219 -0.1661 -1.4691
 5957TIP3    H217836   1.577   1.234   4.516 -1.5435  3.4292 -2.7776
 5958TIP3   OH217837   2.940   5.495   2.855 -0.0094  0.1139  0.0122
 5958TIP3    H117838   2.852   5.528   2.876  0.2734  0.9418 -0.0582
 5958TIP3    H217839   2.984   5.570   2.814  0.0987 -0.8451 -1.7214
 5959TIP3   OH217840   3.324   6.802   1.370 -0.0999  0.5452  0.3794
 5959TIP3    H117841   3.363   6.715   1.356  0.3458  0.7852  0.0846
 5959TIP3    H217842   3.375   6.860   1.314 -1.7034  0.6806 -1.0181
 5960TIP3   OH217843   4.004   0.578   5.058  0.1166  0.0624  0.1467
 5960TIP3    H117844   4.100   0.569   5.052  0.1483  0.5759 -0.1829
 5960TIP3    H217845   3.989   0.621   5.142  0.1633 -0.1326  0.2571
 5961TIP3   OH217846   3.714   3.059   2.865 -0.3445 -0.0077 -0.1332
 5961TIP3    H117847   3.782   3.124   2.879  1.5119 -1.7891 -0.4371
 5961TIP3    H217848   3.665   3.091   2.790 -0.5514  1.8212  0.7179
 5962TIP3   OH217849   4.800   6.020   4.758  0.2615  0.1523  0.2850
 5962TIP3    H117850   4.766   6.057   4.840 -2.3342 -1.4736  0.0483
 5962TIP3    H217851   4.732   6.037   4.693  0.9686 -1.1408 -0.8577
 5963TIP3   OH217852   2.630   1.903   0.626 -0.3330 -0.1820  0.5959
 5963TIP3    H117853   2.634   1.940   0.715 -0.3265  2.0526 -0.2627
 5963TIP3    H217854   2.668   1.971   0.571 -0.1279 -1.6256 -1.1202
 5964TIP3   OH217855   3.214   2.156   3.113  0.4603  0.1411  0.1209
 5964TIP3    H117856   3.207   2.063   3.135 -1.5522  0.5788  1.5555
 5964TIP3    H217857   3.159   2.167   3.036  2.2075 -0.1340 -1.2505
 5965TIP3   OH217858   3.286   4.667   3.290 -0.0115  0.0707 -0.4850
 5965TIP3    H117859   3.196   4.635   3.293  0.4290 -1.2258 -0.4192
 5965TIP3    H217860   3.280   4.757   3.322 -1.1688 -0.2530  0.2972
 5966TIP3   OH217861   0.912   4.486   3.618 -0.8444  0.7880 -0.5854
 5966TIP3    H117862   0.903   4.466   3.525 -1.4693 -2.3039  0.0466
 5966TIP3    H217863   0.822   4.487   3.651 -0.5486 -2.5736  0.6996
 5967TIP3   OH217864   5.145   3.341   2.413  0.3980 -0.1644  0.6009
 5967TIP3    H117865   5.112   3.411   2.358 -3.3102 -1.5508  0.8013
 5967TIP3    H217866   5.139   3.376   2.502 -1.7227 -0.7119  0.7272
 5968TIP3   OH217867   0.115   4.291   1.938 -0.2662  0.6601  0.0905
 5968TIP3    H117868   0.092   4.198   1.950 -0.8573  0.7039 -0.5767
 5968TIP3    H217869   0.073   4.314   1.855  4.3964  0.0344 -2.7899
 5969TIP3   OH217870   4.740   3.151   3.816  0.2147  0.3232  0.6482
 5969TIP3    H117871   4.833   3.156   3.836  1.2859  0.5212 -3.4333
 5969TIP3    H217872   4.716   3.239   3.787 -0.4118 -0.3631 -1.0788
 5970TIP3   OH217873   5.646   2.267   0.310 -0.5316  0.5893  0.2482
 5970TIP3    H117874   5.581   2.241   0.375 -0.6365 -0.3498 -0.2132
 5970TIP3    H217875   5.600   2.329   0.254 -2.0160 -2.1318 -1.7902
 5971TIP3   OH217876   5.123   1.538   5.266 -0.2395  0.0897 -0.0836
 5971TIP3    H117877   5.148   1.589   5.343  0.8242 -0.1817 -0.2311
 5971TIP3    H217878   5.031   1.516   5.280 -0.5184  1.4038  0.3402
 5972TIP3   OH217879   4.973   1.947   0.438  0.5409  0.4360  0.2833
 5972TIP3    H117880   4.928   1.916   0.360 -1.2083 -0.7704  1.6785
 5972TIP3    H217881   4.950   2.040   0.444  0.4524  0.4684 -0.4672
 5973TIP3   OH217882   6.536   4.292   0.411 -0.3612 -0.3038 -0.6547
 5973TIP3    H117883   6.549   4.220   0.473  0.7942 -0.4054 -0.9922
 5973TIP3    H217884   6.499   4.250   0.334  0.3117 -0.5547 -0.8519
 5974TIP3   OH217885   1.942   4.025   0.767 -0.5212  0.2322  0.1283
 5974TIP3    H117886   1.985   4.063   0.843  0.2581  1.6756 -0.9710
 5974TIP3    H217887   2.004   3.960   0.734 -0.2486  0.5703 -0.0369
 5975TIP3   OH217888   0.190   6.292   4.349 -0.0573 -0.4338  0.1828
 5975TIP3    H117889   0.176   6.291   4.443  1.1570 -0.8919  0.3706
 5975TIP3    H217890   0.151   6.374   4.319 -1.0162 -0.5827  0.9760
 5976TIP3   OH217891   2.835   2.555   4.957  0.7134 -0.4268 -0.3062
 5976TIP3    H117892   2.909   2.592   5.006  0.6816 -0.7239 -0.0250
 5976TIP3    H217893   2.862   2.559   4.866  0.8316  0.0177 -0.2521
 5977TIP3   OH217894   3.231   0.277   0.435  0.7216 -0.0741  0.3178
 5977TIP3    H117895   3.268   0.204   0.386  0.9263  0.6089 -0.5642
 5977TIP3    H217896   3.136   0.270   0.422  0.7253 -0.2826  0.3948
 5978TIP3   OH217897   1.864   6.720   4.420  0.1514  0.5923 -0.0193
 5978TIP3    H117898   1.916   6.776   4.478  2.8145  0.4384 -2.0665
 5978TIP3    H217899   1.862   6.767   4.337  2.1372 -2.0131 -1.7052
 5979TIP3   OH217900   4.023   5.861   3.279  0.5338  0.3416  0.3794
 5979TIP3    H117901   4.067   5.941   3.249 -1.6140  1.7937  0.8789
 5979TIP3    H217902   4.039   5.798   3.209  0.7574  1.7626 -0.9124
 5980TIP3   OH217903   5.882   5.469   2.941 -0.7263  0.2495  0.1283
 5980TIP3    H117904   5.952   5.500   2.883 -0.0991 -1.0468  0.1660
 5980TIP3    H217905   5.830   5.410   2.886 -0.3731 -0.6602  0.7563
 5981TIP3   OH217906   0.682   0.594   3.235  0.0723  0.1221  0.2930
 5981TIP3    H117907   0.772   0.586   3.202 -0.2141  0.9532 -0.7399
 5981TIP3    H217908   0.681   0.677   3.282 -0.2974  0.3899 -0.1832
 5982TIP3   OH217909   1.173   4.603   4.688  0.4295  0.1551  0.0954
 5982TIP3    H117910   1.184   4.515   4.725 -1.2471  0.7862  2.2946
 5982TIP3    H217911   1.233   4.657   4.740 -0.6379  0.7571  0.7265
 5983TIP3   OH217912   7.048   2.287   0.031  0.1694 -0.3451 -0.1880
 5983TIP3    H117913   7.062   2.368   0.080 -0.6362 -0.3775  0.1131
 5983TIP3    H217914   6.954   2.269   0.040  0.3027 -1.2149 -0.3974
 5984TIP3   OH217915   6.284   1.783   4.344 -0.0561 -0.2490 -0.5780
 5984TIP3    H117916   6.312   1.696   4.317  1.4642 -0.2513  0.8980
 5984TIP3    H217917   6.362   1.824   4.381 -1.2245  0.9805  0.6531
 5985TIP3   OH217918   1.393   3.898   2.695  0.1309  0.1752 -0.0343
 5985TIP3    H117919   1.388   3.918   2.788 -0.4796  1.7833 -0.3721
 5985TIP3    H217920   1.487   3.889   2.678  0.4253  1.9361  0.3847
 5986TIP3   OH217921   6.846   0.699   3.795 -0.2213  0.3867  0.3952
 5986TIP3    H117922   6.907   0.668   3.862 -0.0911 -1.5891 -0.5612
 5986TIP3    H217923   6.782   0.628   3.786 -0.3147  0.6478 -1.4632
 5987TIP3   OH217924   5.945   2.976   4.895 -0.7614  0.0142  0.3174
 5987TIP3    H117925   5.920   3.043   4.958  0.5609  0.0688  0.8068
 5987TIP3    H217926   6.016   3.016   4.844 -0.8598 -0.5390 -0.2627
 5988TIP3   OH217927   6.000   2.287   1.852  0.1518 -0.2789 -0.8531
 5988TIP3    H117928   5.978   2.268   1.761 -1.5609  1.4603 -0.8544
 5988TIP3    H217929   5.929   2.250   1.903 -0.4960  1.3789 -0.4876
 5989TIP3   OH217930   3.826   3.125   0.232  0.2785  0.2021  0.6474
 5989TIP3    H117931   3.915   3.142   0.199  0.2897  2.5863  1.7162
 5989TIP3    H217932   3.772   3.122   0.153  1.3776 -2.5694 -0.1522
 5990TIP3   OH217933   4.578   2.931   3.781 -0.3655 -0.3537  0.8565
 5990TIP3    H117934   4.501   2.960   3.732  0.0890 -2.6042 -1.3864
 5990TIP3    H217935   4.637   3.007   3.779 -0.5225 -0.2089 -1.8887
 5991TIP3   OH217936   6.662   6.161   1.092 -0.0251  0.8829 -0.1584
 5991TIP3    H117937   6.603   6.173   1.167 -0.1276 -1.8435  0.3056
 5991TIP3    H217938   6.731   6.226   1.105  0.7264 -0.3718  3.1648
 5992TIP3   OH217939   1.115   3.841   4.989 -0.6676  0.1295 -0.1530
 5992TIP3    H117940   1.128   3.791   5.070  0.7548  1.3523  0.4496
 5992TIP3    H217941   1.136   3.780   4.919  2.0892  0.0689  0.5892
 5993TIP3   OH217942   5.506   0.539   4.760 -0.8103  0.2695 -0.1565
 5993TIP3    H117943   5.555   0.509   4.684  1.0661  1.2659  0.5906
 5993TIP3    H217944   5.521   0.471   4.826  2.8099  2.1884  1.2844
 5994TIP3   OH217945   1.939   3.455   5.109 -0.4113  0.1516  0.0857
 5994TIP3    H117946   1.882   3.379   5.097  0.9666 -0.8769 -0.2334
 5994TIP3    H217947   1.942   3.469   5.203  0.6062 -1.2604  0.2980
 5995TIP3   OH217948   1.800   3.662   4.971  0.4403 -0.7061  0.2302
 5995TIP3    H117949   1.836   3.583   5.012  0.7711 -0.8658 -0.3542
 5995TIP3    H217950   1.707   3.659   4.992  0.5152 -1.0631  0.5221
 5996TIP3   OH217951   6.992   2.241   1.438  0.0469 -0.3879 -0.0615
 5996TIP3    H117952   7.057   2.194   1.490  0.9903 -1.5443 -2.1620
 5996TIP3    H217953   7.014   2.333   1.451  0.5800 -0.6604  1.1311
 5997TIP3   OH217954   0.436   1.089   3.329 -0.2953  0.2446 -0.0006
 5997TIP3    H117955   0.485   1.008   3.313 -1.4865 -0.1354 -2.0951
 5997TIP3    H217956   0.476   1.153   3.270 -1.9592  0.0287 -1.4564
 5998TIP3   OH217957   6.926   4.955   1.587  0.2384 -0.3109  0.5164
 5998TIP3    H117958   6.933   4.905   1.668 -3.0064 -1.2285  0.3354
 5998TIP3    H217959   6.877   5.033   1.611  0.4039  0.0700 -0.3318
 5999TIP3   OH217960   4.052   2.527   2.989 -0.4029  0.3600 -0.6669
 5999TIP3    H117961   4.030   2.452   2.934  0.1979 -0.1933 -0.1713
 5999TIP3    H217962   4.074   2.596   2.927  2.3134 -0.8519 -1.1970
 6000TIP3   OH217963   3.600   6.727   2.215 -0.2143 -0.3494  0.0665
 6000TIP3    H117964   3.696   6.726   2.213 -0.1554  1.4271 -2.5540
 6000TIP3    H217965   3.576   6.636   2.232  1.9608 -1.2205 -1.0452
 6001TIP3   OH217966   5.920   0.582   1.767  0.1908 -0.4351  0.0746
 6001TIP3    H117967   5.880   0.551   1.685  4.5217 -1.3188 -1.9635
 6001TIP3    H217968   5.923   0.504   1.823  1.0536 -0.9377 -0.6513
 6002TIP3   OH217969   5.080   3.312   2.118  0.1442  0.1806  0.1191
 6002TIP3    H117970   5.114   3.297   2.206 -0.0541 -0.6067  0.0681
 6002TIP3    H217971   5.051   3.403   2.118  0.5434  0.3086  0.7343
 6003TIP3   OH217972   0.392   0.236   4.407 -0.4111  0.4360 -0.2322
 6003TIP3    H117973   0.318   0.203   4.356  0.0278 -0.8301 -0.0953
 6003TIP3    H217974   0.463   0.175   4.387  0.8188  1.9996 -0.8957
 6004TIP3   OH217975   1.916   3.076   4.951 -0.4157  0.3895  0.2031
 6004TIP3    H117976   1.871   3.003   4.992 -1.0433  0.7204  0.1207
 6004TIP3    H217977   1.861   3.152   4.970  0.2049  0.8401  0.2640
 6005TIP3   OH217978   3.446   1.148   1.056 -0.5717  0.6047  0.1960
 6005TIP3    H117979   3.476   1.084   0.992 -1.7136 -0.1913  0.4343
 6005TIP3    H217980   3.369   1.188   1.016 -1.8326 -0.5240  1.4170
 6006TIP3   OH217981   6.733   0.755   3.313  0.2053 -0.8187  0.2817
 6006TIP3    H117982   6.642   0.782   3.302  0.5446  0.2202 -0.0135
 6006TIP3    H217983   6.736   0.718   3.401 -0.2640  0.1251  0.7067
 6007TIP3   OH217984   1.520   1.261   0.497 -0.2033  0.6566 -0.1637
 6007TIP3    H117985   1.520   1.307   0.413 -0.2761  0.7643 -0.1059
 6007TIP3    H217986   1.606   1.220   0.502 -0.5608 -0.1876 -0.7429
 6008TIP3   OH217987   0.049   5.669   4.959 -0.1346  0.0958  0.2267
 6008TIP3    H117988   0.128   5.623   4.932 -0.1164  0.7673 -0.9565
 6008TIP3    H217989   0.018   5.622   5.036 -0.8173 -2.6679 -1.6015
 6009TIP3   OH217990   2.378   4.875   4.129 -0.2041 -0.0277 -0.1473
 6009TIP3    H117991   2.321   4.818   4.180 -0.7590  1.0947  0.5190
 6009TIP3    H217992   2.432   4.815   4.077 -1.6767 -1.1214 -0.4709
 6010TIP3   OH217993   3.221   5.348   5.575 -0.1569  0.2107  0.0766
 6010TIP3    H117994   3.308   5.357   5.536  0.5684 -1.1752  1.2872
 6010TIP3    H217995   3.208   5.430   5.624  0.1047  0.7648 -0.7577
 6011TIP3   OH217996   3.177   6.726   3.846  0.4034 -1.1113 -0.2278
 6011TIP3    H117997   3.198   6.638   3.815  0.9453 -0.4149 -1.9690
 6011TIP3    H217998   3.105   6.755   3.790  1.2075  0.0793 -0.6834
 6012TIP3   OH217999   6.146   2.807   1.003  0.4415 -1.0552  0.4096
 6012TIP3    H118000   6.154   2.902   1.002  0.1359 -1.0217  0.8226
 6012TIP3    H218001   6.192   2.780   1.083  2.2150 -1.4250 -0.6936
 6013TIP3   OH218002   3.773   2.954   0.832 -0.4480  0.4216 -0.2418
 6013TIP3    H118003   3.708   2.907   0.780 -0.8170 -0.1488  0.7049
 6013TIP3    H218004   3.830   2.886   0.867 -1.2750  0.5644  1.5347
 6014TIP3   OH218005   1.687   4.995   3.944  0.3317  0.2025  0.1279
 6014TIP3    H118006   1.758   4.993   4.007  0.4076  0.7550  0.0679
 6014TIP3    H218007   1.659   4.904   3.936  0.0729  0.1609  1.2415
 6015TIP3   OH218008   0.583   5.719   5.427 -0.3337  0.1645 -0.3570
 6015TIP3    H118009   0.613   5.753   5.512  0.1682 -0.2150 -0.3773
 6015TIP3    H218010   0.624   5.776   5.362 -0.5212  0.3027 -0.3560
 6016TIP3   OH218011   7.020  -0.019   2.005 -0.4656  0.1520 -0.3873
 6016TIP3    H118012   7.005   0.066   1.963 -0.0527 -0.3572 -1.6112
 6016TIP3    H218013   7.024   0.001   2.098  1.0756  1.7108 -0.7317
 6017TIP3   OH218014   0.083   5.485   0.060 -0.1216  1.1887 -0.2034
 6017TIP3    H118015   0.139   5.408   0.068  0.0564  1.2535 -0.7921
 6017TIP3    H218016   0.041   5.493   0.146  1.5264  1.7135  0.6134
 6018TIP3   OH218017   2.409   6.416   4.246  0.0346  0.1405  0.1255
 6018TIP3    H118018   2.359   6.435   4.167 -0.3725 -1.8705 -0.1362
 6018TIP3    H218019   2.357   6.454   4.317 -0.1194  1.0320 -0.4466
 6019TIP3   OH218020   1.474   0.572   4.823  0.5933 -0.4503  0.0817
 6019TIP3    H118021   1.428   0.581   4.739  1.2584  0.0984 -0.2354
 6019TIP3    H218022   1.566   0.564   4.798  1.0184  1.6796  0.8285
 6020TIP3   OH218023   5.257   0.349   1.420 -0.0959 -0.0084 -0.1162
 6020TIP3    H118024   5.199   0.356   1.495  0.0862  0.3803 -0.0131
 6020TIP3    H218025   5.307   0.269   1.436 -0.0759  0.0598  0.1618
 6021TIP3   OH218026   2.990   4.432   5.295 -0.2382  0.3805 -0.1241
 6021TIP3    H118027   3.021   4.509   5.341  0.4043  0.1712 -0.2040
 6021TIP3    H218028   2.914   4.463   5.245  0.6493  1.2091 -1.0051
 6022TIP3   OH218029   6.459   5.693   3.898  0.0956  0.4603 -0.5662
 6022TIP3    H118030   6.472   5.783   3.869  2.4449  0.6577  0.7791
 6022TIP3    H218031   6.530   5.644   3.856  0.3240 -0.2513  0.6037
 6023TIP3   OH218032   0.427   5.357   0.898 -0.0681 -0.0518 -0.6168
 6023TIP3    H118033   0.411   5.426   0.963 -1.5559  0.9884 -1.9975
 6023TIP3    H218034   0.522   5.350   0.893  0.0915  0.2229  1.2587
 6024TIP3   OH218035   4.922   3.420   4.784 -0.3850 -0.4869  0.3154
 6024TIP3    H118036   4.961   3.454   4.704 -0.6970  0.0796  0.4044
 6024TIP3    H218037   4.941   3.486   4.850  1.9598 -2.0068  1.2913
 6025TIP3   OH218038   5.609   5.138   3.738 -0.4614 -0.2938  0.7090
 6025TIP3    H118039   5.545   5.088   3.687  0.6473 -1.3462  0.2753
 6025TIP3    H218040   5.557   5.194   3.795 -1.7507 -0.6040 -0.1222
 6026TIP3   OH218041   1.918   4.496   1.590  0.4054  0.3091 -0.5420
 6026TIP3    H118042   1.882   4.527   1.507  0.0656 -0.8454 -0.8430
 6026TIP3    H218043   1.962   4.415   1.568  0.9289  0.3583  0.2969
 6027TIP3   OH218044   0.967   4.738   3.521  0.4951  0.3893  0.1952
 6027TIP3    H118045   1.037   4.777   3.574  0.8450 -0.7937  0.6417
 6027TIP3    H218046   0.930   4.670   3.577 -1.7294  1.6269  0.3737
 6028TIP3   OH218047   3.938   6.137   3.383 -0.2816  0.3528 -0.2338
 6028TIP3    H118048   3.891   6.070   3.334  1.2257 -0.0875 -1.1664
 6028TIP3    H218049   3.985   6.187   3.315 -0.4963  1.6566  0.5350
 6029TIP3   OH218050   2.553   3.862   3.865 -0.1330 -0.4323 -0.2164
 6029TIP3    H118051   2.591   3.903   3.788 -0.1185 -2.9591 -1.6761
 6029TIP3    H218052   2.625   3.812   3.904  0.2917  2.0182  2.4691
 6030TIP3   OH218053   3.457   0.291   1.047 -0.1877  0.0324 -0.6503
 6030TIP3    H118054   3.466   0.199   1.021  1.7875  0.4464 -1.6422
 6030TIP3    H218055   3.500   0.340   0.977  3.7009  1.3919  2.3189
 6031TIP3   OH218056   2.014   3.237   0.868 -0.3293 -0.5545 -0.4577
 6031TIP3    H118057   2.013   3.311   0.929 -0.9001  0.5914 -1.8045
 6031TIP3    H218058   1.954   3.263   0.798  1.6552 -1.0276 -2.4505
 6032TIP3   OH218059   6.170   5.748   4.233 -0.0309 -0.5142 -0.2629
 6032TIP3    H118060   6.260   5.743   4.265 -0.0973 -2.5141 -0.2287
 6032TIP3    H218061   6.178   5.772   4.141  0.6260 -1.6187 -0.5077
 6033TIP3   OH218062   1.572   1.042   5.542 -0.1122  0.1786 -0.0341
 6033TIP3    H118063   1.655   1.087   5.557  0.0984 -0.1714 -0.1248
 6033TIP3    H218064   1.534   1.031   5.629  0.1398 -0.0328  0.0513
 6034TIP3   OH218065   6.423   3.767   1.678  0.2642 -0.3051 -0.4565
 6034TIP3    H118066   6.344   3.721   1.651  0.6797 -0.6780 -1.0646
 6034TIP3    H218067   6.399   3.860   1.675 -0.9424 -0.4430  1.8972
 6035TIP3   OH218068   2.546   2.393   1.354  0.2521  0.1042 -0.1855
 6035TIP3    H118069   2.613   2.460   1.367  0.7770 -0.6553  1.1717
 6035TIP3    H218070   2.594   2.310   1.356 -0.5084 -0.3770 -0.9452
 6036TIP3   OH218071   1.582   6.525   2.161  0.4345 -0.0044  0.8504
 6036TIP3    H118072   1.652   6.467   2.132 -0.5415 -1.0405  0.4957
 6036TIP3    H218073   1.609   6.612   2.132  1.9398 -0.2492  1.4274
 6037TIP3   OH218074   5.807   6.601   5.444  0.4334  0.0139 -0.3437
 6037TIP3    H118075   5.751   6.630   5.372 -0.0154 -1.4794 -0.6307
 6037TIP3    H218076   5.766   6.521   5.476  1.9088 -0.6147  0.0633
 6038TIP3   OH218077   2.607   2.116   3.799  0.3583 -0.3131 -0.1233
 6038TIP3    H118078   2.553   2.162   3.735 -0.4348 -0.5343  0.3829
 6038TIP3    H218079   2.654   2.185   3.845 -0.0036 -0.0839 -0.1012
 6039TIP3   OH218080   2.733   1.768   2.741 -0.8271 -0.9596  0.0230
 6039TIP3    H118081   2.764   1.856   2.764  2.2039 -2.0938  0.7569
 6039TIP3    H218082   2.671   1.782   2.669 -0.0760  1.7105 -0.2128
 6040TIP3   OH218083   1.261   1.711   0.687  0.0448  0.1268 -0.0722
 6040TIP3    H118084   1.345   1.669   0.666 -0.1425  0.1093 -0.8143
 6040TIP3    H218085   1.199   1.638   0.690 -0.1543  0.2702 -0.6699
 6041TIP3   OH218086   0.245   5.514   2.676 -0.1316 -0.1117  0.6545
 6041TIP3    H118087   0.181   5.574   2.638 -1.4039 -2.4855 -1.2769
 6041TIP3    H218088   0.307   5.497   2.604  0.5298 -0.6589  1.3373
 6042TIP3   OH218089   1.315   1.101   1.338 -0.2944  0.0493  0.3542
 6042TIP3    H118090   1.243   1.159   1.312 -0.6587 -0.9636 -0.9708
 6042TIP3    H218091   1.313   1.029   1.275  2.3851  0.3790 -0.2390
 6043TIP3   OH218092   4.124   2.245   2.568 -0.1632  0.4595  0.2392
 6043TIP3    H118093   4.180   2.308   2.613  0.8686 -0.5980  0.5028
 6043TIP3    H218094   4.130   2.270   2.475  0.2967  0.6929  0.3291
 6044TIP3   OH218095   0.168   6.514   5.096 -0.5270 -0.4820 -0.1270
 6044TIP3    H118096   0.232   6.501   5.166  0.9305 -0.6376 -1.4172
 6044TIP3    H218097   0.094   6.458   5.119  0.4567 -1.5018  0.6451
 6045TIP3   OH218098   5.471   3.444   0.316 -0.2860  0.3752  0.2003
 6045TIP3    H118099   5.514   3.369   0.357  0.2016  0.8359  0.5576
 6045TIP3    H218100   5.534   3.474   0.250 -0.2268  0.8097  0.4503
 6046TIP3   OH218101   2.100   5.945   3.146  0.0648 -0.2901  0.2159
 6046TIP3    H118102   2.021   5.940   3.199  1.1509  0.7631  2.0234
 6046TIP3    H218103   2.132   6.034   3.159  0.5171 -0.0570 -2.0710
 6047TIP3   OH218104   3.061   6.418   3.296  0.1199  0.4055 -0.2312
 6047TIP3    H118105   3.129   6.350   3.301 -0.4175 -0.1398 -0.2444
 6047TIP3    H218106   2.987   6.375   3.253 -0.6728  0.6168  0.8790
 6048TIP3   OH218107   5.596   1.156   0.583  0.4524 -0.7458  0.1418
 6048TIP3    H118108   5.672   1.104   0.556  0.0554 -0.9429 -0.6374
 6048TIP3    H218109   5.531   1.140   0.514  0.4895  1.1665 -0.3855
 6049TIP3   OH218110   0.549   5.846   1.563 -0.2465 -0.0013  0.7133
 6049TIP3    H118111   0.501   5.901   1.625 -0.4970 -0.7956  1.2283
 6049TIP3    H218112   0.632   5.892   1.551 -0.5258  0.5897  0.9992
 6050TIP3   OH218113   4.204   3.282   5.823 -0.0194  0.0755 -0.1815
 6050TIP3    H118114   4.218   3.234   5.741  0.2953 -1.3885  0.6825
 6050TIP3    H218115   4.113   3.311   5.819  0.5354  1.7768 -1.8939
 6051TIP3   OH218116   4.030   0.971   3.694 -0.3253 -0.0559 -0.2612
 6051TIP3    H118117   4.030   0.921   3.613 -2.1073 -0.6966  0.0994
 6051TIP3    H218118   4.104   0.936   3.744 -0.5984 -1.2555 -0.6690
 6052TIP3   OH218119   4.324   2.693   0.640  0.2739 -0.5726 -0.4111
 6052TIP3    H118120   4.411   2.663   0.614  0.4693  0.1748 -0.6665
 6052TIP3    H218121   4.335   2.725   0.729  0.2331 -0.5869 -0.4007
 6053TIP3   OH218122   3.034   4.877   5.415 -0.2041  0.5958  0.1323
 6053TIP3    H118123   3.071   4.964   5.400 -0.1237  0.1955 -2.4607
 6053TIP3    H218124   2.960   4.871   5.354 -1.6794 -0.3398  1.8988
 6054TIP3   OH218125   2.680   5.564   4.832  0.7136  0.4043 -0.4695
 6054TIP3    H118126   2.662   5.658   4.826  0.6296  0.2794 -3.2582
 6054TIP3    H218127   2.746   5.547   4.766  1.5868 -1.3590  0.7547
 6055TIP3   OH218128   6.455   1.893   2.763  0.8851  0.1328  0.8561
 6055TIP3    H118129   6.526   1.952   2.791  1.4381  0.7450 -1.6123
 6055TIP3    H218130   6.498   1.831   2.704 -0.6869  0.8764 -1.1634
 6056TIP3   OH218131   6.404   4.873   2.233  0.7265  0.0984 -0.5017
 6056TIP3    H118132   6.368   4.948   2.280  1.7783 -0.8518  2.0130
 6056TIP3    H218133   6.481   4.908   2.188  0.4905  0.7802 -0.3818
 6057TIP3   OH218134   6.522   4.851   1.579  0.3788  0.0632  0.2326
 6057TIP3    H118135   6.513   4.798   1.658 -0.2588 -2.7606 -1.6100
 6057TIP3    H218136   6.587   4.805   1.526  1.3338  2.2732 -0.6631
 6058TIP3   OH218137   2.132   5.573   1.443 -0.1827  0.2273 -0.1387
 6058TIP3    H118138   2.071   5.521   1.497  1.5093 -0.9695  0.7151
 6058TIP3    H218139   2.108   5.551   1.353 -1.4859  0.3577  0.1592
 6059TIP3   OH218140   6.566   4.798   1.278  0.2150 -0.2509  0.3305
 6059TIP3    H118141   6.475   4.828   1.274  0.0048 -0.8748  0.2637
 6059TIP3    H218142   6.618   4.878   1.276 -0.3577  0.1860  1.7262
 6060TIP3   OH218143   5.806   0.296   5.752 -0.3230 -0.4353  0.2593
 6060TIP3    H118144   5.866   0.223   5.772  0.3204  0.1081  0.3452
 6060TIP3    H218145   5.863   0.363   5.715 -1.1623 -0.6064 -1.4290
 6061TIP3   OH218146   2.027   0.957   5.570  0.3022 -0.7010  0.0190
 6061TIP3    H118147   1.942   0.913   5.567 -0.5771  0.8171  1.3015
 6061TIP3    H218148   2.021   1.028   5.507  0.1787  0.0856  0.8831
 6062TIP3   OH218149   5.247   1.733   4.479  0.1420 -0.1776 -0.2064
 6062TIP3    H118150   5.180   1.792   4.443  0.9929 -0.5978 -2.6624
 6062TIP3    H218151   5.225   1.647   4.442  2.4459 -0.1723 -1.7819
 6063TIP3   OH218152   2.944   0.454   0.235 -0.1350 -0.6548 -0.4066
 6063TIP3    H118153   2.989   0.483   0.155 -3.2379  0.2780 -1.9679
 6063TIP3    H218154   2.853   0.476   0.220 -0.9319 -0.9533  3.2574
 6064TIP3   OH218155   4.759   5.070   5.112 -0.2666 -0.3886 -0.5881
 6064TIP3    H118156   4.677   5.097   5.154  0.4681 -0.1375  0.7516
 6064TIP3    H218157   4.821   5.062   5.184  0.7874 -0.9946 -1.5307
 6065TIP3   OH218158   1.952   1.326   1.117 -0.0540  0.0212 -0.0595
 6065TIP3    H118159   1.995   1.242   1.132  0.4537  0.1044 -0.9513
 6065TIP3    H218160   1.891   1.310   1.045  0.3707  0.5075 -0.5415
 6066TIP3   OH218161   7.035   5.792   2.699 -0.3105 -0.0176 -0.3567
 6066TIP3    H118162   7.015   5.760   2.787  1.1847  0.9979  0.4135
 6066TIP3    H218163   7.009   5.721   2.641  1.4846 -2.0570  1.1454
 6067TIP3   OH218164   0.176   0.158   4.623 -0.7281  0.0586 -0.9378
 6067TIP3    H118165   0.085   0.130   4.631 -0.1781 -2.0447 -1.4319
 6067TIP3    H218166   0.225   0.076   4.615  1.3600  1.0812  0.6267
 6068TIP3   OH218167   5.807   2.076   1.970 -0.5654  0.1283  0.0624
 6068TIP3    H118168   5.757   2.046   1.895 -1.0074  2.1278 -0.4890
 6068TIP3    H218169   5.741   2.114   2.029  0.1104  1.4730 -0.0192
 6069TIP3   OH218170   5.037   4.842   3.632  0.4189 -0.5955  0.2527
 6069TIP3    H118171   5.023   4.894   3.711  2.1848  0.6325 -0.1820
 6069TIP3    H218172   5.022   4.751   3.660 -1.2761 -0.0240  1.3863
 6070TIP3   OH218173   0.257   2.339   2.004 -0.5663 -0.5601  0.0028
 6070TIP3    H118174   0.266   2.418   2.057 -3.0580 -0.6676  0.7155
 6070TIP3    H218175   0.210   2.277   2.060 -1.4752 -1.3969 -1.5884
 6071TIP3   OH218176   4.192   5.760   5.306 -0.2653  0.0868  0.2923
 6071TIP3    H118177   4.225   5.802   5.386 -0.1347 -0.0121  0.2898
 6071TIP3    H218178   4.177   5.669   5.332  1.9168 -0.5109 -0.3910
 6072TIP3   OH218179   3.397   4.562   2.754  0.2104  0.1826  0.1139
 6072TIP3    H118180   3.483   4.521   2.742  0.7386  0.5524  2.2856
 6072TIP3    H218181   3.397   4.635   2.691  1.8930  0.7476  0.6958
 6073TIP3   OH218182   1.570   4.187   0.957 -0.6762 -0.1044  0.8055
 6073TIP3    H118183   1.645   4.243   0.972 -2.0307  1.8017  0.8535
 6073TIP3    H218184   1.511   4.204   1.031 -1.0869 -1.7089  0.8935
 6074TIP3   OH218185   6.722   4.370   1.906 -0.0521 -0.1817 -0.0769
 6074TIP3    H118186   6.710   4.406   1.819 -0.5126 -1.4260 -0.5450
 6074TIP3    H218187   6.795   4.308   1.897  1.1225  1.0224  0.8391
 6075TIP3   OH218188   5.290   6.003   4.171 -0.3832  0.3081  0.3694
 6075TIP3    H118189   5.202   6.037   4.185 -0.9551 -0.1642 -1.7037
 6075TIP3    H218190   5.283   5.909   4.186  0.2552  0.5034  2.0990
 6076TIP3   OH218191   1.506   1.596   0.672 -0.0461 -0.7324  0.0032
 6076TIP3    H118192   1.532   1.688   0.679 -0.7324 -0.3435 -1.9174
 6076TIP3    H218193   1.576   1.556   0.621 -0.2995 -1.0261 -0.1153
 6077TIP3   OH218194   2.463   2.826   5.676 -0.2138 -0.0749 -0.2647
 6077TIP3    H118195   2.539   2.768   5.684 -0.4602 -0.1250  3.3463
 6077TIP3    H218196   2.431   2.837   5.766 -0.7940  4.8943 -0.7903
 6078TIP3   OH218197   6.674   3.081   4.993 -0.3887 -0.6888  0.4993
 6078TIP3    H118198   6.710   3.107   4.908  0.4885 -0.0621  1.0437
 6078TIP3    H218199   6.635   3.161   5.027 -1.2402 -1.0778  0.4472
 6079TIP3   OH218200   5.293   6.303   4.834 -0.3511  0.6510  0.3258
 6079TIP3    H118201   5.385   6.298   4.861 -0.6854  0.6815  1.5172
 6079TIP3    H218202   5.293   6.269   4.744  0.6090 -0.6766  0.8005
 6080TIP3   OH218203   1.874   1.985   2.937 -0.6199  0.5292 -0.3108
 6080TIP3    H118204   1.950   2.031   2.902 -0.5555  0.8536  0.2567
 6080TIP3    H218205   1.816   2.054   2.968 -0.7278  0.2498  0.1169
 6081TIP3   OH218206   6.023   1.703   2.894 -0.2608  0.2056 -0.1157
 6081TIP3    H118207   6.051   1.764   2.962 -0.9066  1.3161 -0.8081
 6081TIP3    H218208   5.932   1.727   2.876 -0.3526 -0.5923 -0.8034
 6082TIP3   OH218209   6.361   6.032   4.624 -0.1472 -0.2207  0.2042
 6082TIP3    H118210   6.271   6.050   4.653 -0.3495  0.4435 -0.8070
 6082TIP3    H218211   6.371   6.082   4.544  1.3365  0.1701  0.6122
 6083TIP3   OH218212   4.838   6.581   5.692  0.1754  0.4879  0.3475
 6083TIP3    H118213   4.881   6.539   5.766  0.6077 -0.2645 -0.3203
 6083TIP3    H218214   4.907   6.635   5.653  0.0294  0.6436  0.3060
 6084TIP3   OH218215   3.084   3.084   1.014  0.0205  0.4073  0.1691
 6084TIP3    H118216   2.997   3.071   1.052 -0.4900 -1.0818 -1.3528
 6084TIP3    H218217   3.115   2.995   0.996  0.3975  0.9732 -2.3808
 6085TIP3   OH218218   1.999   0.716   4.915 -0.3874  0.2685  0.0825
 6085TIP3    H118219   1.991   0.647   4.981 -0.7052 -0.5531 -0.7868
 6085TIP3    H218220   1.925   0.700   4.855  0.6570  0.1614 -1.2229
 6086TIP3   OH218221   3.733   6.267   2.857  0.5472  0.9471  0.0208
 6086TIP3    H118222   3.716   6.347   2.808  1.1770  0.7044 -0.6068
 6086TIP3    H218223   3.653   6.253   2.907 -0.1667  1.1387 -1.0272
 6087TIP3   OH218224   5.010   2.704   0.963 -0.4844  0.0698 -0.0190
 6087TIP3    H118225   5.073   2.773   0.939  0.0241 -0.4643 -0.2476
 6087TIP3    H218226   4.925   2.746   0.955 -0.1518  0.8690  0.4771
 6088TIP3   OH218227   1.572   0.215   1.565  0.1279 -0.1973 -0.2827
 6088TIP3    H118228   1.583   0.127   1.602 -2.7587 -1.0213 -1.1346
 6088TIP3    H218229   1.486   0.243   1.594 -0.7195  0.6415 -3.2199
 6089TIP3   OH218230   3.269   2.881   5.039  0.2629 -0.6051 -0.1214
 6089TIP3    H118231   3.237   2.882   5.130  1.4769  0.3344  0.3183
 6089TIP3    H218232   3.364   2.881   5.048  0.4055  0.4715 -1.4052
 6090TIP3   OH218233   2.533   6.394   3.865  0.0570 -0.3865 -0.1645
 6090TIP3    H118234   2.581   6.425   3.941  1.0558  1.4383 -1.4517
 6090TIP3    H218235   2.470   6.464   3.846 -0.1228 -0.7743 -1.0589
 6091TIP3   OH218236   6.120   5.555   5.261  0.0004 -0.0331  0.0486
 6091TIP3    H118237   6.121   5.553   5.356  0.0845  0.2126  0.0542
 6091TIP3    H218238   6.037   5.513   5.237 -0.0268 -0.0844  0.2292
 6092TIP3   OH218239   4.454   3.138   4.312  0.0666  0.0223 -0.3475
 6092TIP3    H118240   4.498   3.080   4.375  1.0294 -1.1597 -2.0017
 6092TIP3    H218241   4.521   3.155   4.245 -0.4834  2.3732 -0.3767
 6093TIP3   OH218242   5.952   4.368   1.111  0.3089 -0.8315 -0.4543
 6093TIP3    H118243   5.866   4.326   1.116 -0.9687  1.5191 -1.3894
 6093TIP3    H218244   5.956   4.424   1.188  0.5540 -0.1242 -0.9739
 6094TIP3   OH218245   3.843   0.264   1.581 -0.1339 -0.2404  0.3892
 6094TIP3    H118246   3.868   0.200   1.514 -0.2327  0.4826 -0.3556
 6094TIP3    H218247   3.925   0.307   1.606  0.0479 -1.1516  1.4377
 6095TIP3   OH218248   6.259   2.788   4.665  0.0012 -0.1403 -0.2411
 6095TIP3    H118249   6.312   2.722   4.621  1.1014  1.8059 -2.0246
 6095TIP3    H218250   6.175   2.744   4.681  0.2290 -1.5843 -2.5222
 6096TIP3   OH218251   4.291   5.036   4.805  0.1614 -0.0634  0.5818
 6096TIP3    H118252   4.205   5.072   4.826  0.0226 -0.3108  0.4451
 6096TIP3    H218253   4.278   4.941   4.808  0.1450 -0.1116 -0.5593
 6097TIP3   OH218254   5.450   0.635   1.660  0.1944 -0.2090  0.0177
 6097TIP3    H118255   5.450   0.721   1.619 -2.1336 -0.6614 -1.0828
 6097TIP3    H218256   5.499   0.647   1.742  1.0129  1.8091 -0.7080
 6098TIP3   OH218257   4.224   6.654   4.659  0.1304 -0.2403 -0.1368
 6098TIP3    H118258   4.254   6.652   4.568  1.7337 -0.9485  0.3816
 6098TIP3    H218259   4.161   6.582   4.665 -2.1554  1.4961 -1.3317
 6099TIP3   OH218260   4.047   0.439   0.870  0.1879  0.0631 -0.8976
 6099TIP3    H118261   4.068   0.462   0.780  1.1141  0.5262 -0.5842
 6099TIP3    H218262   3.971   0.380   0.864  0.8040 -0.6502 -2.0329
 6100TIP3   OH218263   4.162   0.392   3.716  0.4817 -0.2429  0.0424
 6100TIP3    H118264   4.218   0.469   3.706  0.9759 -0.6545 -0.4221
 6100TIP3    H218265   4.085   0.413   3.663  0.4273  0.1095  0.2583
 6101TIP3   OH218266   3.990   1.945   2.335  0.0208  0.0497 -0.2450
 6101TIP3    H118267   4.021   1.927   2.423  1.3809 -0.8762 -0.8738
 6101TIP3    H218268   4.057   2.001   2.296 -0.0472 -0.3834 -1.0127
 6102TIP3   OH218269   6.451   0.447   5.247  0.3902  0.3391 -0.0897
 6102TIP3    H118270   6.357   0.446   5.269  0.6959  1.2185  1.4427
 6102TIP3    H218271   6.453   0.434   5.152 -1.1607 -1.7990  0.0991
 6103TIP3   OH218272   4.546   2.562   4.427  0.7521  0.0419  0.0217
 6103TIP3    H118273   4.492   2.633   4.463  1.0811  1.1453 -1.5586
 6103TIP3    H218274   4.485   2.490   4.414  0.4122 -0.0155  1.6702
 6104TIP3   OH218275   2.482   1.973   5.016  0.1623 -0.1670 -0.7189
 6104TIP3    H118276   2.464   1.935   5.102  1.0355  1.5265  0.2571
 6104TIP3    H218277   2.448   1.908   4.954  0.7383 -2.0612  0.8492
 6105TIP3   OH218278   0.360   5.340   4.348 -0.0263 -0.1169  0.3051
 6105TIP3    H118279   0.312   5.258   4.360  0.1909 -0.6871 -2.2227
 6105TIP3    H218280   0.291   5.407   4.341 -0.3406 -0.4914 -0.2820
 6106TIP3   OH218281   2.244   5.994   1.192 -0.1095 -0.6077 -0.8190
 6106TIP3    H118282   2.213   5.923   1.135 -0.6890 -2.0722  1.2213
 6106TIP3    H218283   2.171   6.056   1.193 -0.4025 -0.9352 -1.0697
 6107TIP3   OH218284   2.996   4.721   3.903  0.4213  0.1166  0.2906
 6107TIP3    H118285   2.964   4.725   3.993 -1.1938 -1.9371 -0.1017
 6107TIP3    H218286   2.923   4.755   3.850  2.0510  3.1494 -0.2240
 6108TIP3   OH218287   0.618   1.132   0.658  0.2082  0.1263 -0.5207
 6108TIP3    H118288   0.671   1.211   0.664  0.5815  0.2292 -3.4747
 6108TIP3    H218289   0.656   1.073   0.723  1.6424  1.4371 -0.1023
 6109TIP3   OH218290   5.887   4.717   0.433 -0.3772  0.2236 -0.1444
 6109TIP3    H118291   5.974   4.677   0.426 -0.7128 -0.6461  0.4896
 6109TIP3    H218292   5.889   4.764   0.517 -0.8130 -0.5754  0.3282
 6110TIP3   OH218293   0.330   5.980   0.162 -0.0433 -0.5415 -0.0102
 6110TIP3    H118294   0.403   5.926   0.132  1.3174  1.2376 -0.1043
 6110TIP3    H218295   0.328   5.968   0.257  0.7178 -0.2282  0.0506
 6111TIP3   OH218296   5.286   5.129   4.258 -0.3175  0.7299  0.4641
 6111TIP3    H118297   5.338   5.080   4.322 -0.6264 -1.0271 -0.5430
 6111TIP3    H218298   5.215   5.168   4.309  0.3072  0.6477  1.4123
 6112TIP3   OH218299   2.760   5.316   0.706  1.1530 -0.4011  0.0509
 6112TIP3    H118300   2.775   5.232   0.662  0.0740  0.6151 -2.4351
 6112TIP3    H218301   2.664   5.323   0.711  1.2370  0.2642  1.1742
 6113TIP3   OH218302   4.926   3.255   2.571 -0.1921  0.6123  0.4548
 6113TIP3    H118303   4.955   3.172   2.610 -0.7930  0.0155 -0.3186
 6113TIP3    H218304   4.971   3.258   2.486 -0.9105  0.5989  0.0659
 6114TIP3   OH218305   1.339   1.793   3.684  0.0600 -0.2146 -0.0761
 6114TIP3    H118306   1.306   1.846   3.611  0.7363  2.1038  1.1887
 6114TIP3    H218307   1.260   1.764   3.730 -0.3443  0.7382 -0.1366
 6115TIP3   OH218308   4.840   3.763   4.378  0.1896  0.6943  0.3943
 6115TIP3    H118309   4.821   3.855   4.365 -1.7234  0.3364  0.3448
 6115TIP3    H218310   4.772   3.733   4.438 -0.9421 -1.2816 -1.7341
 6116TIP3   OH218311   2.287   5.560   4.264  0.5734 -0.4694 -0.2947
 6116TIP3    H118312   2.318   5.650   4.257  2.0694 -0.9326  0.0202
 6116TIP3    H218313   2.235   5.546   4.185  1.1131  0.3675 -0.8159
 6117TIP3   OH218314   7.024   6.454   4.494  0.3239  0.8312  0.0791
 6117TIP3    H118315   7.004   6.376   4.546  1.7503  2.0140  2.6289
 6117TIP3    H218316   6.974   6.443   4.414  0.4951 -2.6990  0.3010
 6118TIP3   OH218317   2.495   5.560   0.652  0.3696 -0.2167  0.4690
 6118TIP3    H118318   2.496   5.556   0.556 -1.9792 -0.9514  0.4064
 6118TIP3    H218319   2.434   5.631   0.673 -0.0170 -0.8029  1.4003
 6119TIP3   OH218320   4.888   5.573   2.821  0.3896  0.3634  0.2685
 6119TIP3    H118321   4.909   5.482   2.804 -0.2312  0.5222 -1.5260
 6119TIP3    H218322   4.973   5.615   2.836  0.9060 -0.0733 -1.2911
 6120TIP3   OH218323   1.382   4.212   4.160  0.3835 -0.1022 -0.1729
 6120TIP3    H118324   1.393   4.252   4.073 -1.1281 -0.5816 -0.6165
 6120TIP3    H218325   1.288   4.205   4.171  0.2743  3.4288  3.1470
 6121TIP3   OH218326   5.204   1.814   4.925  0.0096 -0.4894 -0.5596
 6121TIP3    H118327   5.123   1.838   4.880  0.9572  0.4847 -1.8316
 6121TIP3    H218328   5.192   1.723   4.950 -1.6588 -0.2251 -0.2845
 6122TIP3   OH218329   1.881   3.341   4.542  0.2697  0.3202 -0.1768
 6122TIP3    H118330   1.970   3.307   4.553 -0.8872 -2.4146  1.6128
 6122TIP3    H218331   1.861   3.383   4.626  0.6667  3.2147 -1.4179
 6123TIP3   OH218332   5.006   2.109   1.396 -0.0120 -0.3074 -1.0179
 6123TIP3    H118333   5.050   2.134   1.477  0.0669  1.7433 -1.6480
 6123TIP3    H218334   4.919   2.080   1.423 -0.5731  1.8873 -0.2949
 6124TIP3   OH218335   3.637   6.099   5.675 -0.6270 -0.2300 -0.3142
 6124TIP3    H118336   3.586   6.132   5.601 -0.5353 -0.4169 -0.4627
 6124TIP3    H218337   3.578   6.040   5.721 -0.2503 -1.1650 -1.0175
 6125TIP3   OH218338   3.928   6.658   1.435 -0.4274 -0.1282 -0.0685
 6125TIP3    H118339   4.009   6.655   1.384  0.7436 -0.7791  1.7439
 6125TIP3    H218340   3.889   6.572   1.422 -1.9578  0.8010 -2.5277
 6126TIP3   OH218341   2.550   0.676   0.803 -0.4046 -0.1996 -0.2464
 6126TIP3    H118342   2.623   0.674   0.865 -0.6711  0.3221  0.0999
 6126TIP3    H218343   2.473   0.658   0.857 -0.4277 -1.8859 -0.8002
 6127TIP3   OH218344   3.353   1.917   5.184  0.0701 -0.0468 -0.3526
 6127TIP3    H118345   3.378   1.876   5.266 -2.3166  0.0097  0.4767
 6127TIP3    H218346   3.372   2.010   5.197  1.1193 -0.2310 -0.4755
 6128TIP3   OH218347   4.954   1.070   2.423  0.1069  0.4157  0.1435
 6128TIP3    H118348   4.939   1.123   2.502 -1.0909 -0.5027  0.5686
 6128TIP3    H218349   4.902   1.112   2.355 -0.7240 -0.1069  0.4431
 6129TIP3   OH218350   4.982   1.400   3.558 -0.2498 -0.2965 -0.4837
 6129TIP3    H118351   4.893   1.412   3.526 -0.5101 -0.3412  0.2063
 6129TIP3    H218352   5.016   1.326   3.507 -0.8558 -0.7401 -0.2568
 6130TIP3   OH218353   5.965   1.570   2.510  0.0373 -0.4285  0.3131
 6130TIP3    H118354   5.919   1.642   2.466 -0.1106 -0.5309  0.2988
 6130TIP3    H218355   6.051   1.605   2.530  0.3626 -0.6132 -0.7064
 6131TIP3   OH218356   0.214   3.642   3.528  0.2013 -0.0829 -0.0675
 6131TIP3    H118357   0.233   3.566   3.583 -0.7120  1.5072  2.5993
 6131TIP3    H218358   0.299   3.670   3.495  0.8314 -0.8698  0.8519
 6132TIP3   OH218359   5.684   6.658   1.236 -0.4839  0.4713  0.3673
 6132TIP3    H118360   5.747   6.586   1.242  0.6422  1.5585  2.8168
 6132TIP3    H218361   5.599   6.615   1.231  0.2060 -1.0539  1.1762
 6133TIP3   OH218362   0.050   4.522   3.744 -0.5484  0.2960 -0.6848
 6133TIP3    H118363   0.076   4.435   3.772  0.3203  0.2178 -1.6708
 6133TIP3    H218364   0.097   4.581   3.803 -0.3748  0.1060 -0.6321
 6134TIP3   OH218365   3.735   3.836   2.335  0.5804 -0.0500 -0.3848
 6134TIP3    H118366   3.720   3.918   2.288 -1.6955  0.3143  0.8445
 6134TIP3    H218367   3.787   3.783   2.275  1.7314  2.0838 -1.4015
 6135TIP3   OH218368   5.083   5.521  -0.000 -0.1654  0.1451  0.3477
 6135TIP3    H118369   5.095   5.434   0.037  0.1033  0.7586  1.7905
 6135TIP3    H218370   5.059   5.576   0.075  0.8524  1.5499 -0.3010
 6136TIP3   OH218371   2.275   1.638   1.307 -0.1335  0.5935 -0.3064
 6136TIP3    H118372   2.214   1.564   1.312 -1.0805  1.4278  1.6372
 6136TIP3    H218373   2.303   1.640   1.216 -0.1870 -2.0460 -0.4693
 6137TIP3   OH218374   5.252   2.688   2.897  0.1037  0.2412  0.1072
 6137TIP3    H118375   5.213   2.602   2.882  0.6790  0.3415 -2.4586
 6137TIP3    H218376   5.245   2.701   2.992 -0.4036 -2.4105  0.5250
 6138TIP3   OH218377   1.076   4.208   3.488  0.2739  0.4221 -0.0135
 6138TIP3    H118378   1.017   4.281   3.470 -0.6615 -0.2258  0.3845
 6138TIP3    H218379   1.140   4.211   3.417 -0.9224  0.4278 -1.1299
 6139TIP3   OH218380   1.019   3.171   3.860 -0.4559  0.1133 -0.1746
 6139TIP3    H118381   0.960   3.218   3.920 -1.8248 -0.5681 -0.9570
 6139TIP3    H218382   0.992   3.080   3.867  0.1570 -0.1306 -0.9637
 6140TIP3   OH218383   0.096   4.022   1.358 -0.3061 -0.5426  0.4868
 6140TIP3    H118384   0.171   3.986   1.309  2.1608  3.3970  0.8787
 6140TIP3    H218385   0.101   3.980   1.443  0.1365 -1.8883 -0.1716
 6141TIP3   OH218386   5.371   2.003   5.528 -0.3348  0.6066 -0.2778
 6141TIP3    H118387   5.280   1.977   5.540 -0.7184  0.5480 -2.7846
 6141TIP3    H218388   5.367   2.078   5.469  1.2480  0.6758 -0.3318
 6142TIP3   OH218389   2.143   6.787   2.462 -0.0096  0.0985  0.3685
 6142TIP3    H118390   2.136   6.766   2.369 -0.6855 -1.1212  0.6711
 6142TIP3    H218391   2.056   6.819   2.486  0.0508  0.0425  0.6703
 6143TIP3   OH218392   2.835   0.675   2.183 -0.5318  0.1879 -0.5870
 6143TIP3    H118393   2.825   0.581   2.190 -0.6462  0.1572 -1.0721
 6143TIP3    H218394   2.827   0.693   2.089  1.6950  0.4177 -0.7768
 6144TIP3   OH218395   4.257   0.648   0.145 -0.5276  1.4484 -0.0500
 6144TIP3    H118396   4.330   0.670   0.203 -0.7484 -0.6283  1.1357
 6144TIP3    H218397   4.298   0.638   0.059  0.2361  2.2598  0.2014
 6145TIP3   OH218398   2.410   2.002   1.755 -0.2156 -0.1992 -0.3662
 6145TIP3    H118399   2.482   2.053   1.794  0.1390 -1.6948  1.0712
 6145TIP3    H218400   2.413   2.023   1.662  2.2924 -0.4088 -0.3985
 6146TIP3   OH218401   0.563   3.006   2.636  0.5415  0.1280 -0.0132
 6146TIP3    H118402   0.473   2.974   2.644  0.2061  1.3259  1.3958
 6146TIP3    H218403   0.616   2.936   2.672 -0.0280  0.3482  1.2908
 6147TIP3   OH218404   4.012   1.248   3.728  0.1096 -0.0457  0.1159
 6147TIP3    H118405   4.098   1.274   3.760 -0.3077  0.2969  0.9974
 6147TIP3    H218406   4.018   1.153   3.716  1.6548  0.3218 -3.1643
 6148TIP3   OH218407   1.278   0.380   5.891 -0.1134 -0.5618 -0.1805
 6148TIP3    H118408   1.262   0.377   5.797 -0.6670  2.5297 -0.2752
 6148TIP3    H218409   1.231   0.457   5.922  2.8867  0.6302  1.9872
 6149TIP3   OH218410   5.656   4.325   1.067  0.1285 -0.0269 -0.8017
 6149TIP3    H118411   5.561   4.328   1.054 -0.2285  1.7786  1.5174
 6149TIP3    H218412   5.684   4.416   1.057  1.5196 -0.4429 -0.8377
 6150TIP3   OH218413   0.970   4.077   2.542  0.4526  0.3129  0.1851
 6150TIP3    H118414   0.910   4.019   2.496  2.9726 -0.2041 -2.7717
 6150TIP3    H218415   0.996   4.028   2.620  1.0183 -1.7880 -1.2341
 6151TIP3   OH218416   1.484   4.071   3.653 -0.3719  0.5807 -0.1728
 6151TIP3    H118417   1.432   4.150   3.637  1.7930  2.3383  0.8075
 6151TIP3    H218418   1.496   4.069   3.748  1.9643  0.7769 -0.3894
 6152TIP3   OH218419   0.835   6.033   1.414  0.0367  0.1719  0.3833
 6152TIP3    H118420   0.868   6.011   1.327 -0.6944 -0.4860  0.2639
 6152TIP3    H218421   0.879   5.971   1.473 -0.6874 -0.4610  0.2700
 6153TIP3   OH218422   6.673   1.316   0.336 -0.0579 -0.1620 -0.5206
 6153TIP3    H118423   6.676   1.368   0.255  0.5786 -1.2411 -1.2177
 6153TIP3    H218424   6.716   1.371   0.401 -3.0786  1.9633 -0.1086
 6154TIP3   OH218425   4.125   1.215   2.123  0.1483  0.1882  0.5828
 6154TIP3    H118426   4.108   1.309   2.134  0.7973  0.9044 -3.0077
 6154TIP3    H218427   4.039   1.174   2.126 -0.0423  0.6203  3.4602
 6155TIP3   OH218428   3.512   1.001   2.880 -0.2131  0.3283  0.2370
 6155TIP3    H118429   3.588   0.945   2.866  0.4793  1.1497  0.5985
 6155TIP3    H218430   3.533   1.050   2.960 -0.7977  1.0873 -0.0565
 6156TIP3   OH218431   2.263   2.110   5.749  0.2078 -0.7757 -0.7267
 6156TIP3    H118432   2.233   2.087   5.837 -0.3361  2.7160  0.1596
 6156TIP3    H218433   2.183   2.136   5.703  0.9022  1.3100 -0.8508
 6157TIP3   OH218434   3.724   4.683   3.298  0.1474  0.4451  0.6456
 6157TIP3    H118435   3.791   4.632   3.343  0.3779 -0.5493 -0.7772
 6157TIP3    H218436   3.648   4.624   3.294 -0.2631  0.9546  0.7445
 6158TIP3   OH218437   1.967   0.306   5.372  0.3466 -0.2887 -0.4622
 6158TIP3    H118438   1.961   0.317   5.466  1.0927 -0.7368 -0.3575
 6158TIP3    H218439   1.888   0.348   5.338 -0.8719 -1.7238  0.4747
 6159TIP3   OH218440   6.381   1.079   1.410  0.3202  0.0228 -0.2335
 6159TIP3    H118441   6.426   1.023   1.347  0.1143 -1.2120  0.6685
 6159TIP3    H218442   6.339   1.147   1.357  0.3787 -0.8165 -1.3956
 6160TIP3   OH218443   5.542   1.546   3.125 -0.6005 -0.2300  0.2009
 6160TIP3    H118444   5.596   1.559   3.047 -1.6704 -1.9530 -0.9004
 6160TIP3    H218445   5.458   1.586   3.104 -0.2224  1.2994  1.4056
 6161TIP3   OH218446   5.507   2.472   4.609 -0.2372 -0.0054  0.2295
 6161TIP3    H118447   5.523   2.392   4.658  0.7844 -0.6025 -1.0050
 6161TIP3    H218448   5.413   2.471   4.590 -0.3459 -0.5830  0.7757
 6162TIP3   OH218449   6.169   1.451   0.125 -0.0376  0.7000 -0.1907
 6162TIP3    H118450   6.192   1.537   0.161  0.9299 -1.0837  4.0212
 6162TIP3    H218451   6.089   1.427   0.171 -0.4655 -0.5734 -1.5346
 6163TIP3   OH218452   5.933   3.114   1.609 -0.7436 -0.6594 -0.1368
 6163TIP3    H118453   5.916   3.204   1.634 -0.4176 -1.1364  1.9233
 6163TIP3    H218454   5.849   3.069   1.620 -1.2230 -0.4411 -2.2919
 6164TIP3   OH218455   4.471   6.099   1.879 -0.3167 -0.5608  0.3157
 6164TIP3    H118456   4.420   6.179   1.865 -0.7272 -0.5993  1.5424
 6164TIP3    H218457   4.560   6.123   1.850 -0.6108  0.0749 -0.0975
 6165TIP3   OH218458   3.808   6.497   4.863 -0.0874 -0.2524 -0.6432
 6165TIP3    H118459   3.900   6.474   4.878 -0.0990  1.1646  2.6224
 6165TIP3    H218460   3.759   6.420   4.890  0.1250  0.1226  0.9311
 6166TIP3   OH218461   0.383   1.723   4.864 -0.3854  0.3116 -0.7268
 6166TIP3    H118462   0.416   1.637   4.838  0.7293  0.0486  1.2826
 6166TIP3    H218463   0.412   1.782   4.795  0.5093 -0.6476 -1.2107
 6167TIP3   OH218464   5.786   5.301   0.653  0.2288 -0.2249  0.0271
 6167TIP3    H118465   5.718   5.276   0.716 -0.3780 -1.0380 -0.9169
 6167TIP3    H218466   5.829   5.219   0.630  1.9912  0.3517  1.0683
 6168TIP3   OH218467   1.198   2.873   4.470 -0.1741  0.1054 -0.2257
 6168TIP3    H118468   1.190   2.803   4.406 -1.0381  1.8290 -2.1108
 6168TIP3    H218469   1.281   2.855   4.515  0.3772 -1.2601 -1.7066
 6169TIP3   OH218470   2.205   2.313   0.296 -0.2290 -0.6429  0.2929
 6169TIP3    H118471   2.288   2.353   0.321 -0.5422  1.7162 -2.0724
 6169TIP3    H218472   2.139   2.368   0.337 -0.7195 -1.9740  1.3926
 6170TIP3   OH218473   5.983   1.492   3.262  0.0436  0.6573 -0.0062
 6170TIP3    H118474   6.062   1.447   3.293  0.6423  1.3102 -0.5280
 6170TIP3    H218475   5.931   1.424   3.219  0.8892  0.4276 -0.7036
 6171TIP3   OH218476   3.242   6.090   2.781 -0.2064  0.1249  0.2555
 6171TIP3    H118477   3.179   6.090   2.854  0.1637  2.0484  0.6364
 6171TIP3    H218478   3.261   6.183   2.766  2.9814 -0.3739  0.5312
 6172TIP3   OH218479   2.256   5.324   2.278 -0.3891 -0.1189 -0.5626
 6172TIP3    H118480   2.324   5.261   2.255  0.3560  0.6282 -0.4185
 6172TIP3    H218481   2.218   5.350   2.194 -1.1158 -1.1913 -0.5922
 6173TIP3   OH218482   4.278   1.679   0.820  0.2151  0.0872  0.0975
 6173TIP3    H118483   4.247   1.594   0.789 -1.9319  0.7988  0.0699
 6173TIP3    H218484   4.372   1.678   0.805  0.5654 -2.9750  1.8490
 6174TIP3   OH218485   1.215   1.913   0.869  0.4218  0.2698  0.5822
 6174TIP3    H118486   1.125   1.940   0.852 -0.0408 -0.2533  1.9915
 6174TIP3    H218487   1.232   1.845   0.804 -0.0790  0.5991  0.0943
 6175TIP3   OH218488   0.771   0.985   5.564  0.1370 -0.1413 -0.5120
 6175TIP3    H118489   0.731   0.928   5.630 -0.2792 -0.0802 -0.7080
 6175TIP3    H218490   0.704   1.051   5.546 -0.8508 -1.6811 -2.9479
 6176TIP3   OH218491   4.059   2.440   5.524 -0.3411 -0.4742 -0.5873
 6176TIP3    H118492   4.098   2.462   5.608 -1.2503  0.8880 -0.4941
 6176TIP3    H218493   3.986   2.382   5.545  0.0621 -0.9626 -0.5334
 6177TIP3   OH218494   4.525   6.567   4.567  0.1852  0.6670  0.2121
 6177TIP3    H118495   4.541   6.565   4.661 -0.9365  1.0376  0.4236
 6177TIP3    H218496   4.453   6.506   4.553  1.1118 -0.2781 -0.5841
 6178TIP3   OH218497   0.053   4.875   5.684  0.1737  0.1556 -0.4730
 6178TIP3    H118498   0.098   4.921   5.614  0.8667 -0.5568 -0.5017
 6178TIP3    H218499   0.085   4.785   5.679 -0.0842 -0.0044  0.4832
 6179TIP3   OH218500   4.791   5.556   3.339 -0.0276  0.1646 -0.3877
 6179TIP3    H118501   4.696   5.552   3.352 -0.0199 -0.7673 -0.5331
 6179TIP3    H218502   4.805   5.521   3.250  0.4830 -0.1699 -0.1827
 6180TIP3   OH218503   3.122   2.377   1.748  0.2109 -0.4802  0.0914
 6180TIP3    H118504   3.141   2.461   1.790  0.0492  0.2191 -1.1690
 6180TIP3    H218505   3.119   2.314   1.820 -1.2374  0.8494  1.2851
 6181TIP3   OH218506   2.276   5.239   3.058  0.0068  0.1701  0.2078
 6181TIP3    H118507   2.249   5.315   3.109 -2.4093 -0.3705 -0.1738
 6181TIP3    H218508   2.210   5.172   3.076 -0.7476 -0.2041 -3.2023
 6182TIP3   OH218509   5.642   3.188   5.636  0.1882 -0.3120 -0.7858
 6182TIP3    H118510   5.694   3.258   5.674 -0.3262 -0.3384 -0.0125
 6182TIP3    H218511   5.706   3.131   5.594  0.8277 -0.5284  0.4378
 6183TIP3   OH218512   6.315   6.147   0.826 -0.5788  0.1075 -0.1103
 6183TIP3    H118513   6.281   6.146   0.736 -0.7211 -0.8288 -0.0578
 6183TIP3    H218514   6.382   6.216   0.825 -0.7139  0.2422 -0.8854
 6184TIP3   OH218515   6.156   5.711   4.793  0.3648  0.3836 -0.3916
 6184TIP3    H118516   6.199   5.735   4.875  2.6018 -0.0361 -1.3733
 6184TIP3    H218517   6.226   5.708   4.729 -1.1918 -0.1708 -2.1642
 6185TIP3   OH218518   2.871   0.536   5.097 -0.2547  0.6361 -0.4017
 6185TIP3    H118519   2.787   0.562   5.135  0.9712  0.1293  3.0150
 6185TIP3    H218520   2.884   0.446   5.128  1.6052  0.7479 -0.7397
 6186TIP3   OH218521   4.745   1.692   1.645 -0.3090 -0.4213 -0.1356
 6186TIP3    H118522   4.714   1.781   1.628  1.9311  0.0898 -2.0973
 6186TIP3    H218523   4.753   1.687   1.741  2.2304  2.5779 -0.0284
 6187TIP3   OH218524   6.981   2.915   3.327 -0.2242 -0.0817  0.4758
 6187TIP3    H118525   7.005   2.999   3.366  0.8070 -1.0459  2.0658
 6187TIP3    H218526   7.065   2.874   3.307 -0.5430 -1.9674  2.5916
 6188TIP3   OH218527   5.427   2.783   4.006 -0.3281 -0.2253 -0.1543
 6188TIP3    H118528   5.398   2.794   4.097  0.4641 -0.8528  0.1837
 6188TIP3    H218529   5.348   2.798   3.954 -0.8798 -0.2457  0.6530
 6189TIP3   OH218530   5.695   5.714   3.965  0.0459 -0.7570 -0.0749
 6189TIP3    H118531   5.607   5.750   3.970  0.4116  0.3569 -1.1145
 6189TIP3    H218532   5.686   5.623   3.993 -1.3799 -0.5792  0.0905
 6190TIP3   OH218533   4.570   2.060   3.761 -0.2486  0.6106 -0.4716
 6190TIP3    H118534   4.632   2.062   3.834  1.9131  1.4116 -2.2163
 6190TIP3    H218535   4.617   2.102   3.688 -2.7118  0.8674 -2.0291
 6191TIP3   OH218536   3.552   5.893   2.238 -0.4332  0.2232 -0.2625
 6191TIP3    H118537   3.549   5.987   2.219  2.2918  0.2509 -0.9453
 6191TIP3    H218538   3.621   5.884   2.303 -2.6545 -1.0762  2.1199
 6192TIP3   OH218539   0.833   4.537   1.510  0.0306  0.1855  0.3011
 6192TIP3    H118540   0.797   4.621   1.482 -0.7452  0.0858  0.9609
 6192TIP3    H218541   0.815   4.478   1.438  1.4195  0.7763 -0.5796
 6193TIP3   OH218542   2.805   2.338   1.684 -0.8906 -0.4653  0.3081
 6193TIP3    H118543   2.895   2.316   1.705 -0.7935 -1.1190 -0.7237
 6193TIP3    H218544   2.794   2.427   1.717  1.0527  0.7985 -2.1232
 6194TIP3   OH218545   0.431   5.313   4.891  0.3226  0.5413 -0.3324
 6194TIP3    H118546   0.392   5.248   4.949 -0.2468  1.0155 -0.1687
 6194TIP3    H218547   0.523   5.290   4.887 -0.1554 -1.3381 -1.6751
 6195TIP3   OH218548   6.160   2.335   5.808  0.9098 -0.1097  0.1437
 6195TIP3    H118549   6.106   2.256   5.802  0.7057 -0.0278  0.7729
 6195TIP3    H218550   6.135   2.387   5.733  3.1116 -1.8826 -1.9886
 6196TIP3   OH218551   3.946   2.259   3.667  0.2721  0.2487 -0.0448
 6196TIP3    H118552   4.017   2.312   3.703 -0.7907 -0.1288  2.8687
 6196TIP3    H218553   3.866   2.297   3.703 -0.7597 -1.3089 -0.5678
 6197TIP3   OH218554   0.197   2.321   1.735 -0.1900  0.1227  0.0649
 6197TIP3    H118555   0.130   2.253   1.724  0.1185 -0.2677  0.5643
 6197TIP3    H218556   0.230   2.309   1.824  1.5269 -0.6120 -0.6068
 6198TIP3   OH218557   4.310   5.851   0.981  0.4300  0.0439 -0.0473
 6198TIP3    H118558   4.380   5.826   1.041 -0.1840  0.3100  0.8220
 6198TIP3    H218559   4.248   5.898   1.037 -0.1141  0.3954 -0.9291
 6199TIP3   OH218560   1.698   4.228   0.151 -0.0936 -0.0980  0.7732
 6199TIP3    H118561   1.606   4.224   0.125  0.7181  1.2309 -2.9640
 6199TIP3    H218562   1.704   4.308   0.204 -0.8301  1.0923 -0.8291
 6200TIP3   OH218563   6.533   3.264   1.185 -0.5019 -0.3799 -0.4821
 6200TIP3    H118564   6.624   3.291   1.176 -1.1188  1.4258 -1.8643
 6200TIP3    H218565   6.529   3.220   1.270  1.4576  0.3360  0.0219
 6201TIP3   OH218566   3.653   5.019   1.476 -0.3215 -0.2762 -0.3112
 6201TIP3    H118567   3.674   5.021   1.383 -0.4757 -0.6077 -0.3524
 6201TIP3    H218568   3.624   5.109   1.496 -0.2995 -0.2086 -0.5834
 6202TIP3   OH218569   3.540   4.518   0.056 -0.3881  0.0008  0.0623
 6202TIP3    H118570   3.456   4.519   0.102 -1.1238  0.7952 -1.2253
 6202TIP3    H218571   3.534   4.443  -0.003  0.3364 -0.6932  0.8380
 6203TIP3   OH218572   1.526   1.662   0.365 -0.6245 -0.0590  0.3200
 6203TIP3    H118573   1.482   1.679   0.282 -0.1230  0.3750  0.1364
 6203TIP3    H218574   1.500   1.736   0.421  1.3982  1.2745 -0.4131
 6204TIP3   OH218575   1.835   0.654   3.625  0.1505  0.1393 -0.3832
 6204TIP3    H118576   1.878   0.605   3.696  0.9965  1.2664 -0.0797
 6204TIP3    H218577   1.758   0.601   3.603  0.0393 -0.4090  1.1571
 6205TIP3   OH218578   4.766   3.361   2.200 -0.5692 -0.4921  0.5164
 6205TIP3    H118579   4.752   3.286   2.142 -1.5138 -0.1582  0.2864
 6205TIP3    H218580   4.708   3.429   2.166  0.7852  0.5974  0.2981
 6206TIP3   OH218581   0.175   6.020   0.666 -0.0784 -0.0706 -0.2806
 6206TIP3    H118582   0.188   5.939   0.715  0.4536 -0.5290 -1.1620
 6206TIP3    H218583   0.112   6.070   0.719  0.5248 -0.5112  0.9039
 6207TIP3   OH218584   3.231   2.805   2.574  0.1754  0.2002  0.3272
 6207TIP3    H118585   3.282   2.745   2.519 -1.6064  0.5682 -1.8887
 6207TIP3    H218586   3.140   2.784   2.555 -0.5129  1.2445  2.2369
 6208TIP3   OH218587   4.795   4.662   0.710 -0.4726  0.1706  0.6147
 6208TIP3    H118588   4.866   4.616   0.755  0.2217  1.1605  0.5629
 6208TIP3    H218589   4.783   4.614   0.628  0.2918  0.1321  0.5235
 6209TIP3   OH218590   6.486   0.744   1.478 -0.5023  0.4488 -0.2627
 6209TIP3    H118591   6.560   0.713   1.531 -1.4536  0.3010  1.0293
 6209TIP3    H218592   6.443   0.665   1.448 -0.7267  0.5235 -0.1425
 6210TIP3   OH218593   2.557   2.570   5.093 -0.2722 -0.0751  0.2158
 6210TIP3    H118594   2.548   2.477   5.116 -0.8014 -0.1152 -0.1356
 6210TIP3    H218595   2.619   2.571   5.021 -0.1485 -0.1403  0.3205
 6211TIP3   OH218596   0.642   4.416   3.398  0.7070  0.0048  0.0893
 6211TIP3    H118597   0.649   4.396   3.491  0.8997 -2.1163 -0.3415
 6211TIP3    H218598   0.662   4.334   3.354 -4.4883 -0.6623 -1.7274
 6212TIP3   OH218599   5.311   5.368   2.657  0.4040 -0.5220  0.2752
 6212TIP3    H118600   5.234   5.424   2.641  1.7709  2.0636  1.9393
 6212TIP3    H218601   5.290   5.322   2.738  0.6214  0.2488  0.7764
 6213TIP3   OH218602   1.919   4.852   1.160 -0.6308 -0.6962 -0.1872
 6213TIP3    H118603   2.009   4.853   1.192 -0.6708  0.0005 -0.0691
 6213TIP3    H218604   1.908   4.938   1.120 -1.7842 -0.0914  1.3439
 6214TIP3   OH218605   4.985   0.671   3.118  0.0205 -0.2128  0.1326
 6214TIP3    H118606   4.915   0.646   3.177 -0.9430  0.7159 -0.5709
 6214TIP3    H218607   4.942   0.681   3.033  1.2340 -0.8017 -0.5830
 6215TIP3   OH218608   6.510   2.603   4.875 -0.3802  0.1725 -0.1157
 6215TIP3    H118609   6.500   2.698   4.883  0.5348  0.3316 -0.6922
 6215TIP3    H218610   6.423   2.568   4.895 -1.1489  1.2341 -1.4082
 6216TIP3   OH218611   5.074   4.424   0.573 -0.0126 -0.1740 -0.0526
 6216TIP3    H118612   5.101   4.492   0.635  0.5226 -0.7168  0.3217
 6216TIP3    H218613   4.998   4.461   0.528  1.0433  1.1981 -0.7641
 6217TIP3   OH218614   5.981   5.218   1.827 -0.3953 -0.2960  0.1920
 6217TIP3    H118615   5.983   5.271   1.748  0.5105 -1.2113 -0.4290
 6217TIP3    H218616   5.931   5.140   1.803 -1.1938 -0.0204  0.9096
 6218TIP3   OH218617   3.052   1.314   1.532  0.2641  0.2693  0.0202
 6218TIP3    H118618   3.077   1.406   1.524 -0.5438  0.3799 -1.6434
 6218TIP3    H218619   3.024   1.289   1.443  0.1539 -1.4836  0.5158
 6219TIP3   OH218620   4.568   1.895   1.198  0.1463 -0.6818  0.1476
 6219TIP3    H118621   4.491   1.854   1.238 -0.9996 -0.6203 -1.8622
 6219TIP3    H218622   4.570   1.983   1.235  0.6786 -1.4191  1.9955
 6220TIP3   OH218623   4.741   0.661   2.066 -0.6446  0.2239 -0.3803
 6220TIP3    H118624   4.753   0.618   2.151 -0.4182  0.0092 -0.5201
 6220TIP3    H218625   4.806   0.730   2.064  0.4819 -0.8141 -1.0557
 6221TIP3   OH218626   1.775   2.011   2.139  0.2459 -0.1786  0.6534
 6221TIP3    H118627   1.748   1.968   2.220 -2.7293  0.4833  0.1325
 6221TIP3    H218628   1.845   1.956   2.104  0.2758 -1.5215  2.7032
 6222TIP3   OH218629   5.951   2.677   0.237  0.3024 -0.6230 -0.5937
 6222TIP3    H118630   5.880   2.626   0.277  0.1795  0.1129  0.1493
 6222TIP3    H218631   6.020   2.677   0.303  0.6835 -0.6523 -0.9927
 6223TIP3   OH218632   2.254   2.590   3.268 -0.0258 -0.1385  0.2533
 6223TIP3    H118633   2.214   2.552   3.346 -0.5624  0.2030  0.1509
 6223TIP3    H218634   2.228   2.682   3.270 -0.5975 -0.2624 -0.6652
 6224TIP3   OH218635   1.862   4.628   5.839  0.7025  0.4101  0.4097
 6224TIP3    H118636   1.836   4.714   5.806 -0.8358 -0.2311 -0.1605
 6224TIP3    H218637   1.808   4.614   5.916  3.4677  1.4016  2.7186
 6225TIP3   OH218638   0.039   2.854   2.208  0.2224 -0.0272 -0.0368
 6225TIP3    H118639   0.009   2.945   2.206  0.7730  0.1530 -0.4509
 6225TIP3    H218640   0.090   2.844   2.128 -0.0217 -0.7694 -0.0999
 6226TIP3   OH218641   2.335   4.796   5.075  0.1854 -0.1160  0.9731
 6226TIP3    H118642   2.295   4.882   5.088 -0.9288 -0.0102 -2.1951
 6226TIP3    H218643   2.263   4.734   5.085  0.0030 -0.2589 -0.8053
 6227TIP3   OH218644   5.696   4.389   3.273  0.7842  0.2092 -0.2647
 6227TIP3    H118645   5.700   4.460   3.208  1.1567  1.5629  1.1890
 6227TIP3    H218646   5.772   4.335   3.252  1.2125  0.9286 -0.6304
 6228TIP3   OH218647   1.292   0.178   5.585  0.1361  0.2725 -0.0848
 6228TIP3    H118648   1.238   0.138   5.653  0.1684 -1.0004 -0.7734
 6228TIP3    H218649   1.258   0.267   5.577 -0.2806  0.2468  1.1413
 6229TIP3   OH218650   6.802   0.656   5.805 -0.1570  0.0544 -0.4584
 6229TIP3    H118651   6.727   0.612   5.844  0.7114 -0.9426  0.1564
 6229TIP3    H218652   6.874   0.593   5.813  0.9590  1.2886 -0.2319
 6230TIP3   OH218653   0.223   6.237   1.186 -0.6660  0.7739 -0.2091
 6230TIP3    H118654   0.196   6.326   1.209 -3.2971  0.4223 -1.6305
 6230TIP3    H218655   0.194   6.183   1.259  1.0417  1.0372  0.7120
 6231TIP3   OH218656   5.783   2.260   2.691  0.4695  0.5221  0.9141
 6231TIP3    H118657   5.819   2.334   2.642  0.7650  0.9085  1.6917
 6231TIP3    H218658   5.689   2.275   2.690  0.3369 -0.3170 -0.8523
 6232TIP3   OH218659   1.008   4.963   2.061 -0.0661  0.0852 -0.5525
 6232TIP3    H118660   1.091   4.953   2.014  0.4986  0.5381  0.3217
 6232TIP3    H218661   0.942   4.931   1.999  0.9142 -1.9859 -0.6387
 6233TIP3   OH218662   4.989   5.486   4.757 -0.2553  0.5628 -0.0408
 6233TIP3    H118663   5.024   5.561   4.710 -1.9757  1.3372 -0.1566
 6233TIP3    H218664   4.977   5.418   4.690 -0.4111  0.8216 -0.2753
 6234TIP3   OH218665   6.047   0.141   5.073 -0.3197  0.0294  0.0593
 6234TIP3    H118666   5.952   0.128   5.080 -0.6381  2.1000  0.2594
 6234TIP3    H218667   6.076   0.076   5.010 -1.9268 -0.4230 -0.2477
 6235TIP3   OH218668   0.683   3.749   3.916  0.1740  0.0485  0.1731
 6235TIP3    H118669   0.665   3.843   3.926  2.0058  0.3404  1.1311
 6235TIP3    H218670   0.776   3.745   3.894  0.5299 -1.6223  1.8248
 6236TIP3   OH218671   2.716   1.914   1.898  0.6035  0.1705  0.1315
 6236TIP3    H118672   2.713   1.819   1.888  0.7770  0.3172 -1.5183
 6236TIP3    H218673   2.809   1.934   1.906  0.6097  0.2659 -0.1918
 6237TIP3   OH218674   0.605   2.707   5.632 -0.1278  0.1226  0.0814
 6237TIP3    H118675   0.633   2.641   5.568 -0.2564  1.1245 -1.0375
 6237TIP3    H218676   0.680   2.767   5.639  0.1815 -0.3616  1.4653
 6238TIP3   OH218677   0.651   0.852   0.535 -0.3801 -0.1406 -0.2738
 6238TIP3    H118678   0.712   0.917   0.569 -0.5739  0.5228 -1.1883
 6238TIP3    H218679   0.571   0.865   0.587 -0.3115  0.1274 -0.2333
 6239TIP3   OH218680   2.854   0.310   3.648  0.7399  0.2707 -0.0460
 6239TIP3    H118681   2.811   0.327   3.564  0.8728  0.8055 -0.0091
 6239TIP3    H218682   2.879   0.217   3.644 -0.4997 -0.0718 -0.0269
 6240TIP3   OH218683   2.808   5.216   4.528 -0.0351  0.4080  0.0141
 6240TIP3    H118684   2.834   5.265   4.450 -1.4272 -1.2198 -1.6010
 6240TIP3    H218685   2.835   5.126   4.509 -0.8066 -0.1006  1.2023
 6241TIP3   OH218686   1.230   5.973   4.691  0.3992 -0.2614 -0.5229
 6241TIP3    H118687   1.295   5.903   4.691  2.3555  1.4378 -1.7525
 6241TIP3    H218688   1.193   5.973   4.779  3.8616  0.2279  1.0695
 6242TIP3   OH218689   3.838   0.895   1.580  0.5186 -0.3990  0.1206
 6242TIP3    H118690   3.816   0.814   1.626 -3.3594  0.7863  0.7202
 6242TIP3    H218691   3.755   0.942   1.573  1.6902  1.5243 -4.3297
 6243TIP3   OH218692   2.321   0.463   1.368 -0.0962  0.2353 -0.3054
 6243TIP3    H118693   2.306   0.544   1.415  0.2962  0.8957 -1.2734
 6243TIP3    H218694   2.336   0.397   1.436 -0.2319  1.0115  0.4841
 6244TIP3   OH218695   3.190   3.989   3.681 -0.1275  0.8380  0.0659
 6244TIP3    H118696   3.218   4.079   3.698  1.4248 -0.0413  2.8727
 6244TIP3    H218697   3.272   3.940   3.668 -0.7319 -0.6283  1.4729
 6245TIP3   OH218698   3.400   5.793   0.521 -0.3872 -0.5296  0.3805
 6245TIP3    H118699   3.388   5.699   0.537  0.9597 -1.2477 -2.2539
 6245TIP3    H218700   3.314   5.831   0.541 -1.0825 -2.3538  1.1483
 6246TIP3   OH218701   0.102   3.078   0.653 -0.0266 -0.1776 -0.0952
 6246TIP3    H118702   0.177   3.037   0.694  0.3775  0.4505 -0.1849
 6246TIP3    H218703   0.105   3.049   0.561  0.4574  0.3150 -0.2414
 6247TIP3   OH218704   2.505   5.214   4.602  0.1626  0.0012 -0.1069
 6247TIP3    H118705   2.441   5.266   4.553 -0.5755 -1.2621 -0.5307
 6247TIP3    H218706   2.588   5.227   4.556  1.0803  4.1285  2.1693
 6248TIP3   OH218707   0.761   0.612   0.483  0.7301 -0.4095 -0.5532
 6248TIP3    H118708   0.719   0.585   0.402 -1.6464 -0.8396  0.7386
 6248TIP3    H218709   0.738   0.704   0.492  1.3823 -0.2391 -0.5700
 6249TIP3   OH218710   1.524   3.289   1.794 -0.4986  0.6929  0.7479
 6249TIP3    H118711   1.513   3.206   1.842  0.9113  1.1522  1.9369
 6249TIP3    H218712   1.543   3.262   1.705  1.1174 -0.3373  1.3616
 6250TIP3   OH218713   2.271   0.757   5.028 -0.4480  0.2209 -0.7502
 6250TIP3    H118714   2.195   0.793   5.073 -0.0215  1.3189 -0.8802
 6250TIP3    H218715   2.310   0.697   5.091 -0.4330  0.9678 -0.0376
 6251TIP3   OH218716   6.410   4.540   2.983  0.3257 -0.2166  0.1662
 6251TIP3    H118717   6.338   4.491   2.945  1.1282  0.8603 -3.0842
 6251TIP3    H218718   6.378   4.630   2.989  0.7592 -0.0839  0.6035
 6252TIP3   OH218719   6.429   1.433   4.569  0.6946  0.1666 -0.0207
 6252TIP3    H118720   6.470   1.516   4.595  0.8480  0.1709 -0.2627
 6252TIP3    H218721   6.336   1.445   4.587  0.3805  1.1990 -1.9847
 6253TIP3   OH218722   6.384   0.192   2.741 -0.2029 -0.0968 -0.0690
 6253TIP3    H118723   6.306   0.192   2.797  0.6497  0.8694  1.1573
 6253TIP3    H218724   6.367   0.122   2.678 -2.9261  1.3526 -1.0952
 6254TIP3   OH218725   5.275   5.858   5.124  0.7238 -0.3761  0.1731
 6254TIP3    H118726   5.353   5.906   5.152  1.0482 -1.2120  0.7206
 6254TIP3    H218727   5.208   5.883   5.187  0.6765 -0.0280 -0.0138
 6255TIP3   OH218728   4.767   5.732   2.595 -0.8963 -0.4158  0.0972
 6255TIP3    H118729   4.829   5.733   2.668 -1.5312 -1.2110  0.6683
 6255TIP3    H218730   4.697   5.791   2.623 -0.6302  0.1206 -0.3466
 6256TIP3   OH218731   4.294   2.056   3.617  0.2992  0.2883 -0.1784
 6256TIP3    H118732   4.372   2.066   3.671 -0.5483  1.3733  0.9047
 6256TIP3    H218733   4.234   2.004   3.670 -0.6570  1.6146  0.1093
 6257TIP3   OH218734   2.487   5.605   3.096 -0.4061  0.2413  0.6370
 6257TIP3    H118735   2.512   5.599   3.004 -2.8335 -2.7416  0.0198
 6257TIP3    H218736   2.428   5.680   3.100  0.0387  0.6430 -0.1303
 6258TIP3   OH218737   2.112   3.909   3.838  0.2428 -0.4099 -0.7628
 6258TIP3    H118738   2.187   3.876   3.887  0.9064 -0.0678 -1.5418
 6258TIP3    H218739   2.127   3.881   3.748 -1.7158 -2.3512 -0.5811
 6259TIP3   OH218740   4.069   3.503   0.041  0.3967 -0.0977 -0.8696
 6259TIP3    H118741   3.979   3.523   0.018  0.7710  0.8412 -1.5599
 6259TIP3    H218742   4.101   3.450  -0.032  0.7291  0.4992 -1.1645
 6260TIP3   OH218743   5.539   3.735   4.456 -0.3070  0.3325  0.0919
 6260TIP3    H118744   5.476   3.788   4.505  0.4884  1.3236  0.0679
 6260TIP3    H218745   5.624   3.773   4.476  0.3756 -1.3375  0.5670
 6261TIP3   OH218746   0.146   4.226   2.952 -0.4592 -0.4024  0.1741
 6261TIP3    H118747   0.077   4.282   2.989 -1.4322 -0.6633 -1.1636
 6261TIP3    H218748   0.183   4.278   2.881 -1.8671 -1.6763 -1.5629
 6262TIP3   OH218749   1.091   6.257   2.590 -0.6190 -0.2445 -0.6908
 6262TIP3    H118750   1.045   6.238   2.672 -0.6747 -4.0711 -1.4031
 6262TIP3    H218751   1.173   6.299   2.617 -0.2309 -2.2000  1.5052
 6263TIP3   OH218752   3.638   0.241   2.463 -0.6467  0.3591  0.3364
 6263TIP3    H118753   3.694   0.318   2.453  0.0384 -0.1239  0.4433
 6263TIP3    H218754   3.655   0.188   2.386  0.1178 -0.4652  1.0426
 6264TIP3   OH218755   1.497   4.319   1.178 -0.5197  0.0658 -0.7411
 6264TIP3    H118756   1.516   4.412   1.181 -1.0019  0.2224 -1.9444
 6264TIP3    H218757   1.446   4.302   1.258  0.1771  0.6744 -0.1579
 6265TIP3   OH218758   1.297   2.815   3.853 -0.4009 -0.1050  0.1516
 6265TIP3    H118759   1.254   2.766   3.783  0.6820 -1.3178  0.2978
 6265TIP3    H218760   1.367   2.863   3.809 -0.5953  0.2298  0.2065
 6266TIP3   OH218761   5.575   1.439   0.603  0.0271 -0.7208  0.4148
 6266TIP3    H118762   5.568   1.344   0.593 -2.1131 -0.8067  2.0516
 6266TIP3    H218763   5.665   1.452   0.634  0.2225 -2.2559  0.5938
 6267TIP3   OH218764   6.929   1.356   5.164 -0.3162 -0.4155  0.6947
 6267TIP3    H118765   6.960   1.268   5.184 -0.5906 -0.7880 -0.4272
 6267TIP3    H218766   6.947   1.367   5.070 -1.1958  0.3423  0.6009
 6268TIP3   OH218767   0.460   1.563   3.925  0.1085  0.1104 -0.4069
 6268TIP3    H118768   0.502   1.648   3.933  2.5453 -1.0578  0.3395
 6268TIP3    H218769   0.532   1.500   3.930 -1.4443 -1.9880 -2.1084
 6269TIP3   OH218770   6.679   2.178   0.504  0.3620  0.3040 -0.6509
 6269TIP3    H118771   6.619   2.105   0.486  0.1720  0.2278  0.2425
 6269TIP3    H218772   6.745   2.173   0.435  0.7143 -1.1199 -0.2388
 6270TIP3   OH218773   4.464   0.818   3.095  0.1545 -0.0697 -0.3254
 6270TIP3    H118774   4.513   0.899   3.112 -0.6257  0.0362  1.6536
 6270TIP3    H218775   4.383   0.847   3.055 -0.4821  0.2564  1.1265
 6271TIP3   OH218776   4.844   2.760   1.506  0.3007  0.0288 -0.4952
 6271TIP3    H118777   4.769   2.801   1.550  0.5488 -0.5451  0.5062
 6271TIP3    H218778   4.809   2.680   1.468  0.7186 -1.1999  1.5409
 6272TIP3   OH218779   6.093   2.198   3.505  0.3880  0.1485  0.0855
 6272TIP3    H118780   6.110   2.112   3.467 -2.5479 -0.2191 -0.6040
 6272TIP3    H218781   6.019   2.233   3.456 -0.0793  2.0126  1.9396
 6273TIP3   OH218782   2.812   2.115   0.638 -0.5260 -0.3411 -0.0691
 6273TIP3    H118783   2.799   2.199   0.681 -2.6558 -0.2375 -0.8091
 6273TIP3    H218784   2.896   2.123   0.593 -0.2251  1.0003  0.6856
 6274TIP3   OH218785   2.617   1.518   2.956  0.1850 -0.0713 -0.1357
 6274TIP3    H118786   2.699   1.513   2.907  1.2757  0.3719  1.5327
 6274TIP3    H218787   2.632   1.462   3.032 -1.2567 -0.3672 -0.0467
 6275TIP3   OH218788   1.646   4.555   3.217 -0.2121 -0.1419 -0.4528
 6275TIP3    H118789   1.706   4.482   3.201  0.7276  0.8161 -1.4181
 6275TIP3    H218790   1.622   4.546   3.310  0.8030 -0.9851 -0.2545
 6276TIP3   OH218791   6.986   1.878   3.464 -0.3793 -0.6949  0.5323
 6276TIP3    H118792   6.928   1.831   3.404 -1.8496 -2.0809  2.8874
 6276TIP3    H218793   6.949   1.967   3.467  0.4405 -0.2336 -1.4416
 6277TIP3   OH218794   1.841   0.278   2.861 -0.2276 -0.3668  0.8669
 6277TIP3    H118795   1.815   0.340   2.792 -0.5772 -1.1156  0.3107
 6277TIP3    H218796   1.763   0.267   2.914 -0.1497 -0.2855  0.9980
 6278TIP3   OH218797   1.635   4.492   1.736 -0.1641 -0.5328  0.1999
 6278TIP3    H118798   1.699   4.492   1.665  0.8228  2.2032  0.9776
 6278TIP3    H218799   1.684   4.519   1.813 -2.0122  0.7140  1.0307
 6279TIP3   OH218800   2.913   1.648   3.293 -0.2400 -0.5199  0.2075
 6279TIP3    H118801   2.827   1.635   3.334  0.4840 -1.5567  1.5047
 6279TIP3    H218802   2.928   1.567   3.243 -0.9172  0.5483 -1.8463
 6280TIP3   OH218803   0.748   5.921   3.429 -0.4649 -0.1907 -0.2001
 6280TIP3    H118804   0.684   5.850   3.435 -1.7336  0.6936 -2.4424
 6280TIP3    H218805   0.696   6.001   3.436  0.0313  0.5940 -3.8229
 6281TIP3   OH218806   6.867   1.320   4.889  0.1428  0.1380 -0.4455
 6281TIP3    H118807   6.791   1.377   4.873 -0.3900 -0.2029  0.7639
 6281TIP3    H218808   6.837   1.232   4.867 -0.2218 -0.1668  1.1198
 6282TIP3   OH218809   7.128   5.031   0.750 -0.0210 -0.1069  0.1461
 6282TIP3    H118810   7.173   4.988   0.823 -0.2283  0.8608  0.8640
 6282TIP3    H218811   7.138   4.970   0.677  0.4213 -0.9824  0.9062
 6283TIP3   OH218812   1.053   1.933   0.222  0.2244 -0.8863 -0.1839
 6283TIP3    H118813   1.127   1.926   0.283 -0.6087  0.0418  0.9830
 6283TIP3    H218814   0.979   1.896   0.271 -0.1485 -1.5838 -1.2445
 6284TIP3   OH218815   6.529   5.316   3.558 -0.4061  0.2672 -0.1186
 6284TIP3    H118816   6.521   5.278   3.646 -0.4672 -0.1870 -0.3131
 6284TIP3    H218817   6.514   5.241   3.500 -0.0459  0.5027 -0.5120
 6285TIP3   OH218818   3.384   2.488   3.560 -0.4554  0.1160  0.0595
 6285TIP3    H118819   3.293   2.502   3.533 -0.5441  1.6813  1.0568
 6285TIP3    H218820   3.379   2.474   3.654  0.2824 -0.6655  0.0018
 6286TIP3   OH218821   6.142   1.093   1.662 -0.3777  0.1860  0.2180
 6286TIP3    H118822   6.100   1.010   1.639  0.3503 -0.8071  2.2290
 6286TIP3    H218823   6.109   1.156   1.598 -0.1736 -1.8526 -2.0058
 6287TIP3   OH218824   5.750   2.655   2.370  0.1665 -0.6932 -0.1227
 6287TIP3    H118825   5.655   2.641   2.367  0.2752 -1.5735  0.4509
 6287TIP3    H218826   5.762   2.740   2.327 -0.8499 -0.7091 -0.4733
 6288TIP3   OH218827   2.332   2.444   2.329 -0.2400  0.1854  0.2871
 6288TIP3    H118828   2.293   2.460   2.243 -0.9086  1.0158  0.7425
 6288TIP3    H218829   2.297   2.512   2.385  0.1463 -0.3846  1.2471
 6289TIP3   OH218830   1.360   1.664   4.724  0.2588 -0.2842 -0.0949
 6289TIP3    H118831   1.403   1.601   4.666 -0.9245 -1.1936 -0.0288
 6289TIP3    H218832   1.353   1.618   4.808 -1.5973 -0.5319 -0.3385
 6290TIP3   OH218833   1.542   0.463   5.066  0.7746 -0.2439  0.8926
 6290TIP3    H118834   1.506   0.503   4.987  0.2494 -1.7890  0.3015
 6290TIP3    H218835   1.503   0.512   5.138 -0.4608 -0.1824  0.2160
 6291TIP3   OH218836   4.535   3.721   0.408 -0.3131 -0.1331 -0.1426
 6291TIP3    H118837   4.590   3.734   0.331  0.2472  1.3425  0.4708
 6291TIP3    H218838   4.594   3.686   0.474 -0.3077  0.5470  0.2261
 6292TIP3   OH218839   1.011   0.579   0.636  0.1836  0.8838  0.6462
 6292TIP3    H118840   0.938   0.583   0.574  2.2808 -0.7870 -2.1430
 6292TIP3    H218841   0.972   0.551   0.718 -2.0634 -2.3668 -1.3407
 6293TIP3   OH218842   4.865   0.871   4.369 -0.0164  0.2322  0.0126
 6293TIP3    H118843   4.781   0.914   4.352 -0.6311  0.4439  3.0906
 6293TIP3    H218844   4.930   0.931   4.332 -1.0931  1.1655 -0.4544
 6294TIP3   OH218845   2.579   6.647   1.878 -0.0397  0.5708  0.3206
 6294TIP3    H118846   2.591   6.593   1.957  0.5363 -0.8149 -0.6741
 6294TIP3    H218847   2.664   6.644   1.835  0.2102  2.8863  0.5616
 6295TIP3   OH218848   1.767   4.337   2.806  0.3289  0.6277  0.1167
 6295TIP3    H118849   1.765   4.252   2.762 -0.8204  0.4560  0.4573
 6295TIP3    H218850   1.853   4.339   2.849  0.6872 -0.0147 -0.5344
 6296TIP3   OH218851   2.941   0.349   3.919  0.1603 -0.0145  0.1031
 6296TIP3    H118852   2.967   0.259   3.938 -0.0862  0.1807  1.4693
 6296TIP3    H218853   2.930   0.351   3.824  1.4182 -1.0757 -0.0948
 6297TIP3   OH218854   6.168   6.259   1.475 -0.2978  0.2249 -0.3177
 6297TIP3    H118855   6.105   6.296   1.537  0.8548  0.0297  1.0065
 6297TIP3    H218856   6.116   6.240   1.397 -1.5422  1.6204  0.1314
 6298TIP3   OH218857   5.119   2.028   3.109  0.4567 -0.1569  0.2710
 6298TIP3    H118858   5.072   1.984   3.180 -0.0352  1.0686  0.7389
 6298TIP3    H218859   5.162   2.103   3.152 -2.0729  2.2356 -1.0980
 6299TIP3   OH218860   2.260   2.802   4.555 -0.1181  0.1628  0.2588
 6299TIP3    H118861   2.274   2.716   4.516  1.1930  1.7358 -3.0885
 6299TIP3    H218862   2.166   2.818   4.545 -0.1346 -0.3024 -0.3774
 6300TIP3   OH218863   2.200   1.919   2.454 -0.0285 -0.1578 -0.2071
 6300TIP3    H118864   2.227   1.888   2.368 -1.2733 -0.5703 -0.4728
 6300TIP3    H218865   2.213   2.014   2.450 -0.7513 -0.0785 -1.1197
 6301TIP3   OH218866   4.438   0.131   1.126  0.0061 -0.2305 -0.5628
 6301TIP3    H118867   4.452   0.143   1.220  0.3057  1.5372 -0.8116
 6301TIP3    H218868   4.526   0.126   1.089 -0.0175  2.0306 -1.0625
 6302TIP3   OH218869   2.606   5.023   3.345  0.2249 -0.4717 -0.6978
 6302TIP3    H118870   2.667   5.083   3.303  0.1341 -0.5440 -0.9380
 6302TIP3    H218871   2.661   4.953   3.380  0.3756 -0.0238 -0.0194
 6303TIP3   OH218872   6.219   6.592   0.148 -0.2547 -1.0371 -0.7253
 6303TIP3    H118873   6.138   6.572   0.101 -0.5259  0.2541 -0.8339
 6303TIP3    H218874   6.194   6.597   0.240 -0.2450 -0.8868 -0.7312
 6304TIP3   OH218875   6.775   6.452   0.473  0.2877  0.3112 -0.0192
 6304TIP3    H118876   6.801   6.360   0.476  1.3868  0.5349 -1.5664
 6304TIP3    H218877   6.720   6.464   0.551 -0.8223 -1.9101 -0.3849
 6305TIP3   OH218878   1.246   3.448   0.114  0.2228 -0.2955  0.2063
 6305TIP3    H118879   1.207   3.434   0.028  1.0059 -1.7520  0.0484
 6305TIP3    H218880   1.172   3.468   0.171 -0.2121  1.5899 -0.9427
 6306TIP3   OH218881   5.783   1.165   2.277 -0.3544 -0.4892  0.1031
 6306TIP3    H118882   5.749   1.083   2.313  0.5341 -0.3043  1.4392
 6306TIP3    H218883   5.712   1.227   2.289  0.4579  0.0369  3.3953
 6307TIP3   OH218884   2.278   5.729   3.842 -0.1145  0.1834  0.0151
 6307TIP3    H118885   2.312   5.812   3.876  1.2759  0.0394 -0.9786
 6307TIP3    H218886   2.302   5.729   3.749 -2.7821  0.0265 -0.7556
 6308TIP3   OH218887   4.556   0.142   5.289  0.4508 -0.0844  0.2679
 6308TIP3    H118888   4.522   0.172   5.205  1.1405 -1.9535 -0.7121
 6308TIP3    H218889   4.645   0.177   5.293  0.4030  0.0413  0.2561
 6309TIP3   OH218890   6.777   1.629   4.743 -0.2982 -0.4453 -0.6331
 6309TIP3    H118891   6.809   1.557   4.688  0.8429 -0.7144  0.3500
 6309TIP3    H218892   6.817   1.707   4.705 -0.4918 -0.4769 -0.9105
 6310TIP3   OH218893   3.170   6.044   3.899 -0.6352  0.4742  0.4425
 6310TIP3    H118894   3.247   6.006   3.858 -2.2649  0.1577 -2.6335
 6310TIP3    H218895   3.115   5.969   3.922 -1.1116  0.7675  0.2816
 6311TIP3   OH218896   2.492   0.852   2.274  0.3126 -0.1375  0.7002
 6311TIP3    H118897   2.524   0.937   2.304 -1.7874  0.8507  0.3193
 6311TIP3    H218898   2.529   0.841   2.186 -0.0693  0.7775  0.4233
 6312TIP3   OH218899   4.825   1.603   3.848 -0.1585  0.0261 -0.0279
 6312TIP3    H118900   4.775   1.685   3.857 -0.3814 -0.2418  1.4745
 6312TIP3    H218901   4.770   1.537   3.890  0.2872 -0.7879 -0.7067
 6313TIP3   OH218902   2.205   5.891   1.709 -0.4992 -0.0224 -0.5639
 6313TIP3    H118903   2.224   5.985   1.715  0.2108 -0.1482 -0.7116
 6313TIP3    H218904   2.214   5.871   1.616  0.2653 -0.4179 -0.4101
 6314TIP3   OH218905   0.155   5.905   1.590 -0.3694  0.1059  1.0924
 6314TIP3    H118906   0.064   5.877   1.604 -0.5957  1.0180  1.4745
 6314TIP3    H218907   0.162   5.913   1.495 -0.4510 -0.7168  1.0037
 6315TIP3   OH218908   7.157   2.585   1.886  0.4992 -0.2459 -0.0825
 6315TIP3    H118909   7.121   2.515   1.832  0.4323 -0.8332  0.7102
 6315TIP3    H218910   7.252   2.571   1.884  1.0144  2.2596 -3.5229
 6316TIP3   OH218911   6.756   2.408   2.972 -0.1032 -0.4565 -0.0487
 6316TIP3    H118912   6.782   2.433   2.883  0.5912  1.1077  0.5578
 6316TIP3    H218913   6.669   2.447   2.984 -0.1868 -0.6478 -0.0296
 6317TIP3   OH218914   4.150   0.155   5.706 -0.8709  0.4381 -0.4766
 6317TIP3    H118915   4.135   0.236   5.657 -1.7338  0.8968  0.5100
 6317TIP3    H218916   4.070   0.143   5.757 -0.0572 -0.0776  0.7161
 6318TIP3   OH218917   5.282   6.120   2.788  0.1806  0.2389  0.0000
 6318TIP3    H118918   5.357   6.177   2.802 -0.5908  1.0431  0.9445
 6318TIP3    H218919   5.207   6.169   2.821 -0.3643 -1.7512  1.9755
 6319TIP3   OH218920   6.126   0.964   5.378 -0.3453 -0.0877 -0.1440
 6319TIP3    H118921   6.178   1.045   5.371  0.2725 -0.3827  0.8916
 6319TIP3    H218922   6.058   0.974   5.311  1.3205  0.0957 -1.9003
 6320TIP3   OH218923   4.597   2.040   5.779 -0.1646 -0.4039 -0.1199
 6320TIP3    H118924   4.687   2.013   5.800 -1.0398 -2.4969  1.2956
 6320TIP3    H218925   4.587   2.125   5.821  0.5817 -1.0513  1.4528
 6321TIP3   OH218926   0.915   2.510   4.025  0.1881 -0.1303  0.0972
 6321TIP3    H118927   0.903   2.476   4.114 -0.1792 -1.0952 -0.3040
 6321TIP3    H218928   0.859   2.588   4.021  0.1338 -0.1393  0.6787
 6322TIP3   OH218929   6.839   0.484   3.430 -0.5019 -0.4738 -0.1305
 6322TIP3    H118930   6.813   0.521   3.346  0.0746  1.4357  0.4816
 6322TIP3    H218931   6.934   0.496   3.433 -0.7392  1.5574  1.6674
 6323TIP3   OH218932   3.150   2.055   2.237 -0.4314  0.9709 -0.2278
 6323TIP3    H118933   3.137   1.995   2.164 -0.4495 -0.0109  0.5680
 6323TIP3    H218934   3.082   2.031   2.300  0.8747  0.3941  1.0081
 6324TIP3   OH218935   5.313   4.578   2.489  0.5030  0.5416 -0.0264
 6324TIP3    H118936   5.399   4.541   2.510  0.6776 -0.1943 -1.8236
 6324TIP3    H218937   5.299   4.555   2.397 -2.6436 -1.4094  0.7715
 6325TIP3   OH218938   5.797   3.601   1.840  0.5552  0.5633  0.3085
 6325TIP3    H118939   5.862   3.667   1.812  2.0479 -0.8914  0.1606
 6325TIP3    H218940   5.805   3.600   1.935  1.4497 -0.2524  0.2404
 6326TIP3   OH218941   0.328   2.472   3.690  0.5435  0.0163  0.0963
 6326TIP3    H118942   0.374   2.388   3.686 -0.9664 -0.8125 -0.6168
 6326TIP3    H218943   0.396   2.535   3.712  2.1119 -1.0751 -1.3555
 6327TIP3   OH218944   5.767   1.886   0.650  0.1356 -0.1925  0.5365
 6327TIP3    H118945   5.757   1.830   0.726 -0.9464 -0.8349 -0.0602
 6327TIP3    H218946   5.702   1.955   0.661 -0.9459 -1.0211 -0.4202
 6328TIP3   OH218947   1.061   6.612   4.533  0.0346  0.3823 -0.5948
 6328TIP3    H118948   0.983   6.629   4.481  0.3313  0.6465 -0.9614
 6328TIP3    H218949   1.029   6.599   4.622 -0.4524  0.2026 -0.7931
 6329TIP3   OH218950   4.810   0.464   1.889  0.0321  0.2001  0.4489
 6329TIP3    H118951   4.773   0.545   1.924 -3.3314  0.1098 -2.3801
 6329TIP3    H218952   4.752   0.395   1.921 -0.8756 -0.2724 -1.9719
 6330TIP3   OH218953   0.828   6.393   1.980  0.0980 -0.1400  0.7240
 6330TIP3    H118954   0.771   6.459   2.019 -0.4241 -0.9195  1.2956
 6330TIP3    H218955   0.876   6.356   2.053  0.2560 -0.5239  0.4274
 6331TIP3   OH218956   3.040   4.171   2.336  0.3979  0.0502 -0.3545
 6331TIP3    H118957   3.079   4.254   2.362 -2.5577  1.6733 -0.6299
 6331TIP3    H218958   3.000   4.137   2.416  2.3473 -1.6483 -0.0344
 6332TIP3   OH218959   2.357   2.740   5.166  0.7772 -0.0969 -0.0957
 6332TIP3    H118960   2.358   2.727   5.261  0.4532 -1.0154 -0.2042
 6332TIP3    H218961   2.418   2.675   5.133 -0.8699 -1.4289 -0.6767
 6333TIP3   OH218962   3.395   6.255   4.027  0.4037 -0.3373 -0.1899
 6333TIP3    H118963   3.419   6.225   4.115  0.2040  0.6613  0.2197
 6333TIP3    H218964   3.314   6.208   4.006 -0.5092  0.7107  0.8919
 6334TIP3   OH218965   0.838   5.466   3.882  0.2334 -0.1770  0.0503
 6334TIP3    H118966   0.862   5.455   3.974  2.6410 -0.5650 -0.5687
 6334TIP3    H218967   0.883   5.545   3.854  0.1794 -0.4978 -1.0088
 6335TIP3   OH218968   0.921   3.306   3.625  0.1888  0.4011 -0.8445
 6335TIP3    H118969   0.888   3.259   3.548  0.5399  0.7219 -1.1949
 6335TIP3    H218970   0.944   3.236   3.687  0.6888  0.0978 -1.3552
 6336TIP3   OH218971   1.685   0.760   1.360  0.1339  0.1457 -0.9285
 6336TIP3    H118972   1.776   0.735   1.377 -0.7286 -3.5906 -0.8962
 6336TIP3    H218973   1.642   0.755   1.445 -0.5325 -0.2879 -1.2786
 6337TIP3   OH218974   6.232   5.606   3.123  0.5788  0.2599 -0.4042
 6337TIP3    H118975   6.224   5.536   3.057  1.3865  0.1891 -0.4419
 6337TIP3    H218976   6.288   5.568   3.191  0.0592  0.4665  0.1474
 6338TIP3   OH218977   3.593   0.140   4.349  0.0972  0.1502 -0.5730
 6338TIP3    H118978   3.531   0.163   4.280 -0.0149  0.5348 -0.3435
 6338TIP3    H218979   3.607   0.046   4.338  0.7041  0.3427 -1.6270
 6339TIP3   OH218980   3.531   6.459   4.307 -0.5536 -0.6196  0.4820
 6339TIP3    H118981   3.601   6.395   4.293 -0.3023 -0.2963  0.2619
 6339TIP3    H218982   3.574   6.531   4.354 -0.4232  0.1763 -0.8263
 6340TIP3   OH218983   1.064   4.188   4.131  0.2655  0.5944  0.3078
 6340TIP3    H118984   1.039   4.279   4.147 -1.1922  0.1857  0.5291
 6340TIP3    H218985   1.086   4.153   4.217 -0.2151  0.4609  0.3816
 6341TIP3   OH218986   3.525   3.864   4.529 -0.6771 -1.0503 -0.1040
 6341TIP3    H118987   3.450   3.896   4.479  0.0202 -0.2324 -0.6531
 6341TIP3    H218988   3.587   3.937   4.527  0.6550 -2.1652 -0.7620
 6342TIP3   OH218989   5.871   1.014   4.199 -0.1150 -0.0220 -0.0049
 6342TIP3    H118990   5.864   1.109   4.184 -0.1696  0.1313  0.9472
 6342TIP3    H218991   5.965   0.999   4.212  0.1001 -0.3557 -1.6840
 6343TIP3   OH218992   6.939   0.862   3.184  0.3790 -0.6858 -0.2796
 6343TIP3    H118993   6.879   0.828   3.250 -0.3990  1.5758  0.2714
 6343TIP3    H218994   7.013   0.897   3.233  0.1435  0.3414 -0.6209
 6344TIP3   OH218995   2.367   6.786   1.958  0.0248  0.6590  0.4401
 6344TIP3    H118996   2.441   6.729   1.936 -0.4103  0.7704 -1.5388
 6344TIP3    H218997   2.408   6.871   1.977  0.4490  0.5650 -0.0352
 6345TIP3   OH218998   4.378   6.181   5.553 -0.4370  0.0355  0.3045
 6345TIP3    H118999   4.436   6.242   5.509 -2.7900  1.5744 -0.8551
 6345TIP3    H219000   4.303   6.171   5.494 -1.1568 -2.2955  1.4580
 6346TIP3   OH219001   5.058   3.167   4.740  0.0472 -0.0247  0.3197
 6346TIP3    H119002   5.000   3.234   4.776 -0.3112  0.0402 -0.3718
 6346TIP3    H219003   5.115   3.214   4.680 -1.5309 -0.6059 -1.7458
 6347TIP3   OH219004   0.050   1.898   1.503  0.7033  0.1042 -0.0244
 6347TIP3    H119005   0.132   1.862   1.537 -0.0476 -1.4340  0.2355
 6347TIP3    H219006   0.073   1.928   1.415  2.2344  2.4899  1.0669
 6348TIP3   OH219007   5.211   5.443   5.616  0.0201 -0.3535 -0.7005
 6348TIP3    H119008   5.168   5.528   5.604  0.2736 -0.5019 -3.1940
 6348TIP3    H219009   5.297   5.465   5.653 -0.9431  0.1871  1.3512
 6349TIP3   OH219010   0.056   1.828   3.641 -0.1422 -0.0354 -0.1962
 6349TIP3    H119011   0.020   1.750   3.683 -0.9154  0.4201  0.0030
 6349TIP3    H219012  -0.019   1.870   3.600  0.4401  0.0366 -1.2474
 6350TIP3   OH219013   3.497   1.462   2.503 -0.1842  0.6526 -0.0414
 6350TIP3    H119014   3.567   1.422   2.554 -1.0835 -1.5255 -0.4250
 6350TIP3    H219015   3.540   1.535   2.457  1.3166  0.7200  1.3813
 6351TIP3   OH219016   4.258   4.827   0.238  0.2361 -0.1817  0.2384
 6351TIP3    H119017   4.204   4.899   0.271 -1.0580 -0.6956 -0.7046
 6351TIP3    H219018   4.264   4.766   0.311  1.8027  1.0634  1.2447
 6352TIP3   OH219019   0.442   5.831   0.695  0.1121 -0.0576  0.0943
 6352TIP3    H119020   0.349   5.838   0.716  0.0165 -1.1861  0.1244
 6352TIP3    H219021   0.453   5.739   0.670  1.5971 -0.4312  1.9461
 6353TIP3   OH219022   2.410   4.783   1.517 -0.4975  0.1722 -0.2295
 6353TIP3    H119023   2.319   4.772   1.545 -0.8808  1.2543 -0.9801
 6353TIP3    H219024   2.456   4.811   1.595 -1.4376  2.5993 -0.4350
 6354TIP3   OH219025   1.543   2.201   0.566 -0.3216 -0.7328  0.3478
 6354TIP3    H119026   1.588   2.262   0.508  0.6460 -0.7170  1.0889
 6354TIP3    H219027   1.570   2.228   0.654 -0.9828 -1.3702  0.7529
 6355TIP3   OH219028   0.401   3.954   1.278 -0.2785  0.3894  0.0606
 6355TIP3    H119029   0.416   4.017   1.349 -0.1449 -1.9985  2.2788
 6355TIP3    H219030   0.464   3.884   1.294 -1.3070 -0.9771 -1.5042
 6356TIP3   OH219031   2.538   1.821   2.541 -0.0516 -0.1810 -0.3181
 6356TIP3    H119032   2.572   1.889   2.483  0.7663  0.0863  0.4470
 6356TIP3    H219033   2.513   1.749   2.483 -1.1217  0.8313 -1.1654
 6357TIP3   OH219034   4.230   4.635   2.664  0.4897  0.3162 -0.2567
 6357TIP3    H119035   4.268   4.559   2.619 -2.0174 -0.1297 -1.8468
 6357TIP3    H219036   4.287   4.708   2.639  1.1318 -0.5163 -1.3596
 6358TIP3   OH219037   6.984   2.839   2.320 -0.2905 -0.2543 -0.1936
 6358TIP3    H119038   7.070   2.801   2.301 -0.0568  0.0272  0.2770
 6358TIP3    H219039   6.928   2.810   2.248  0.6100  0.9231 -1.4184
 6359TIP3   OH219040   5.656   4.721   5.252  0.7710  1.1198 -0.1420
 6359TIP3    H119041   5.689   4.732   5.162 -0.3560 -1.1964 -0.9123
 6359TIP3    H219042   5.574   4.673   5.241 -0.1428  2.0594  2.0723
 6360TIP3   OH219043   6.306   2.111   1.117  0.1516 -0.4856 -0.2996
 6360TIP3    H119044   6.232   2.132   1.059 -0.3259 -0.9030  0.1467
 6360TIP3    H219045   6.314   2.016   1.112 -1.1878 -0.7730  1.8291
 6361TIP3   OH219046   3.667   3.352   2.397 -0.2870  0.9961  0.3990
 6361TIP3    H119047   3.759   3.326   2.388 -0.8256 -1.2436  0.6741
 6361TIP3    H219048   3.650   3.404   2.318  1.3433  1.9791  0.6405
 6362TIP3   OH219049   4.312  -0.008   0.787 -0.4004 -0.1233  0.4003
 6362TIP3    H119050   4.396  -0.027   0.745  0.1778 -1.1541  1.9122
 6362TIP3    H219051   4.321   0.081   0.820  0.2869 -0.3893  0.9455
 6363TIP3   OH219052   6.448   2.528   0.719 -0.2544 -0.2296  0.4002
 6363TIP3    H119053   6.501   2.508   0.642 -0.2127 -2.8569  1.0260
 6363TIP3    H219054   6.473   2.617   0.743  0.0978  0.4934 -2.2813
 6364TIP3   OH219055   1.090   3.514   2.815 -0.5071  0.0586 -0.4269
 6364TIP3    H119056   1.104   3.476   2.901 -0.4087 -0.8791 -0.8402
 6364TIP3    H219057   1.134   3.599   2.818 -0.0510 -0.2012  0.2731
 6365TIP3   OH219058   5.740   5.344   2.450 -0.7248 -0.3826 -0.2896
 6365TIP3    H119059   5.672   5.396   2.493  1.6800 -0.3132  4.1571
 6365TIP3    H219060   5.733   5.258   2.490  1.3811 -0.4962 -0.0332
 6366TIP3   OH219061   4.765   6.333   4.024  0.2844 -0.7191  0.1195
 6366TIP3    H119062   4.763   6.269   3.953 -1.2640 -0.4311 -0.1386
 6366TIP3    H219063   4.806   6.410   3.986  1.4119 -1.2688  0.1906
 6367TIP3   OH219064   3.401   2.072   3.490  0.5374  0.5545 -0.5013
 6367TIP3    H119065   3.390   2.088   3.397  2.1109 -1.4181 -1.0997
 6367TIP3    H219066   3.472   2.129   3.517  0.8588  0.2882 -0.7844
 6368TIP3   OH219067   4.132   3.010   1.493 -0.5042 -0.6665 -0.0544
 6368TIP3    H119068   4.060   2.975   1.545 -1.6270  1.4821 -0.0462
 6368TIP3    H219069   4.107   2.993   1.402 -0.9822 -0.0416 -0.0469
 6369TIP3   OH219070   4.224   5.972   4.144  0.2880 -0.0692 -0.0082
 6369TIP3    H119071   4.139   6.013   4.161  0.8693  1.6710 -0.9700
 6369TIP3    H219072   4.247   6.001   4.055  1.7235 -0.7956  0.0972
 6370TIP3   OH219073   4.820   3.351   1.619 -0.0648 -0.4165  0.5318
 6370TIP3    H119074   4.863   3.266   1.626  0.3983 -0.1876  0.4779
 6370TIP3    H219075   4.828   3.374   1.526 -2.6824 -1.6143 -0.0883
 6371TIP3   OH219076   2.841   6.464   5.749 -0.1292  0.3058  0.0339
 6371TIP3    H119077   2.878   6.455   5.661 -1.0705 -0.3487 -0.3113
 6371TIP3    H219078   2.847   6.376   5.787 -2.1357 -0.0745 -0.3869
 6372TIP3   OH219079   2.401   4.391   3.553  0.1627  0.3876  0.0772
 6372TIP3    H119080   2.322   4.402   3.499  0.4263 -0.4094 -0.4891
 6372TIP3    H219081   2.423   4.480   3.581 -1.0572  0.6029  0.4251
 6373TIP3   OH219082   2.156   3.182   5.735  0.5964  0.5429  0.1641
 6373TIP3    H119083   2.199   3.125   5.672 -0.3605  1.7022 -1.6194
 6373TIP3    H219084   2.063   3.163   5.725  0.4446  0.4712  1.5412
 6374TIP3   OH219085   0.452   0.966   0.940  0.0775  0.3581 -0.4188
 6374TIP3    H119086   0.540   0.988   0.972 -0.1062  2.8809 -1.4809
 6374TIP3    H219087   0.394   1.026   0.985 -1.0068 -0.5672 -0.5406
 6375TIP3   OH219088   1.588   3.508   1.293 -0.4065  0.1926 -0.2049
 6375TIP3    H119089   1.577   3.599   1.323 -0.3919  0.0302  0.3039
 6375TIP3    H219090   1.633   3.516   1.209 -2.3434  0.7634 -1.2281
 6376TIP3   OH219091   1.372   4.535   0.421  0.4610  0.1163  0.2718
 6376TIP3    H119092   1.394   4.593   0.348  2.1843 -2.5953 -1.5367
 6376TIP3    H219093   1.277   4.527   0.418  0.4466  0.5100 -1.3637
 6377TIP3   OH219094   1.502   4.463   4.807 -0.5860  0.2471 -0.2948
 6377TIP3    H119095   1.570   4.396   4.810 -0.1735  0.6781  0.2087
 6377TIP3    H219096   1.550   4.546   4.809 -1.0987  0.5612 -0.6887
 6378TIP3   OH219097   6.670   4.620   5.498 -0.4779  0.1111 -0.2144
 6378TIP3    H119098   6.727   4.642   5.572 -0.1861  0.6266 -0.5864
 6378TIP3    H219099   6.651   4.705   5.457 -0.6535 -0.1707 -0.7150
 6379TIP3   OH219100   1.770   6.494   4.536  0.4525  0.5911 -0.3236
 6379TIP3    H119101   1.749   6.442   4.459  0.0786  1.2897 -0.7069
 6379TIP3    H219102   1.801   6.578   4.501  2.6376  0.1008  0.2313
 6380TIP3   OH219103   0.211   5.692   5.585 -0.4217 -0.4331  0.4679
 6380TIP3    H119104   0.227   5.697   5.679 -0.5630 -0.7463  0.5083
 6380TIP3    H219105   0.184   5.781   5.561  0.2677 -0.1807  0.6002
 6381TIP3   OH219106   7.025   6.411   0.791  0.8828  0.0926 -0.4019
 6381TIP3    H119107   7.092   6.433   0.855 -1.0629 -1.1897  2.2930
 6381TIP3    H219108   6.972   6.491   0.784  1.5247  0.4753 -1.0377
 6382TIP3   OH219109   6.999   2.345   4.082  0.3394  0.0084  0.2550
 6382TIP3    H119110   6.934   2.358   4.151  0.4758  0.0306  0.3790
 6382TIP3    H219111   7.082   2.335   4.128  0.5064  0.5121  0.0784
 6383TIP3   OH219112   2.249   3.461   1.892 -0.2296  0.2185 -0.5442
 6383TIP3    H119113   2.329   3.452   1.945  0.0014  2.9647 -0.2866
 6383TIP3    H219114   2.281   3.475   1.803 -0.2065  3.2647 -0.1702
 6384TIP3   OH219115   5.172   4.750   0.584 -0.2934 -0.1731 -0.5378
 6384TIP3    H119116   5.086   4.791   0.580 -0.5756 -0.5797  0.7686
 6384TIP3    H219117   5.195   4.731   0.493 -1.1338  0.8433 -0.9743
 6385TIP3   OH219118   0.264   6.683   3.916  0.1165  0.0907  0.4667
 6385TIP3    H119119   0.332   6.622   3.888  0.3338  0.4189  0.2820
 6385TIP3    H219120   0.195   6.626   3.953  0.9226 -0.1837  1.6195
 6386TIP3   OH219121   6.196   1.312   3.276  0.0326  0.2264  0.1702
 6386TIP3    H119122   6.289   1.317   3.297 -0.0864  0.6191  0.6294
 6386TIP3    H219123   6.160   1.250   3.339 -0.0926  0.3967  0.2661
 6387TIP3   OH219124   2.150   5.136   1.837 -0.1625  1.0748  0.1666
 6387TIP3    H119125   2.124   5.173   1.753  0.7983 -0.6378 -0.9256
 6387TIP3    H219126   2.068   5.115   1.881 -0.7332 -0.7282 -1.6210
 6388TIP3   OH219127   1.467   2.232   1.641 -0.7492  0.8112  0.5053
 6388TIP3    H119128   1.534   2.234   1.709  0.4425  0.3444 -0.5998
 6388TIP3    H219129   1.486   2.152   1.591 -0.3527  2.1133 -1.5381
 6389TIP3   OH219130   2.345   6.688   4.637 -0.4767 -0.2458  0.6086
 6389TIP3    H119131   2.275   6.641   4.592  1.2500 -2.0904 -0.2898
 6389TIP3    H219132   2.326   6.780   4.621 -1.1705 -0.7756 -2.0035
 6390TIP3   OH219133   6.669   3.343   4.818 -1.0373  0.1118 -0.3138
 6390TIP3    H119134   6.580   3.319   4.845 -0.5258  0.7258  2.1711
 6390TIP3    H219135   6.684   3.429   4.857  1.0238 -0.4661  0.3077
 6391TIP3   OH219136   0.612   5.302   3.230 -0.1883 -0.1770  0.0382
 6391TIP3    H119137   0.554   5.325   3.302  1.8085  0.4714  1.5185
 6391TIP3    H219138   0.631   5.385   3.186  0.8711 -0.1160  0.5763
 6392TIP3   OH219139   6.496   4.585   3.352  0.0312  0.0843 -0.1918
 6392TIP3    H119140   6.550   4.530   3.296 -1.4597  0.5438 -2.2094
 6392TIP3    H219141   6.546   4.666   3.362  1.3293 -0.8310  1.1095
 6393TIP3   OH219142   6.708   1.649   4.061  0.3672  0.1465 -0.8473
 6393TIP3    H119143   6.692   1.573   4.004  0.3084 -0.2808 -0.2654
 6393TIP3    H219144   6.700   1.614   4.150 -0.4995  1.0143 -0.5735
 6394TIP3   OH219145   1.549   0.981   0.807 -0.1584 -0.3547  0.3204
 6394TIP3    H119146   1.568   0.916   0.875  0.7133  0.3752  0.7896
 6394TIP3    H219147   1.629   0.985   0.755  0.9297  2.3823  1.9992
 6395TIP3   OH219148   4.236   0.784   0.792 -0.0466  0.0785  0.3046
 6395TIP3    H119149   4.293   0.710   0.773 -0.0238  0.1386  0.1409
 6395TIP3    H219150   4.295   0.857   0.809 -0.0784  0.3280 -0.6111
 6396TIP3   OH219151   0.357   1.265   4.261  0.0807  0.4043  0.2218
 6396TIP3    H119152   0.402   1.247   4.179 -1.1495  0.9880 -0.6154
 6396TIP3    H219153   0.270   1.296   4.235  0.4822  3.0512  1.6744
 6397TIP3   OH219154   5.379   3.856   2.133 -0.3474 -0.3749  0.0307
 6397TIP3    H119155   5.390   3.951   2.123  1.4304 -0.6987 -1.8087
 6397TIP3    H219156   5.293   3.839   2.094 -0.4517  0.4193 -0.1216
 6398TIP3   OH219157   0.899   2.171   0.381  0.4700  0.3136  0.1478
 6398TIP3    H119158   0.942   2.183   0.296  0.9988 -0.0439  0.3584
 6398TIP3    H219159   0.971   2.164   0.444  0.1082 -0.2394  0.5123
 6399TIP3   OH219160   5.985   3.670   1.198 -0.3946  0.5946 -0.4334
 6399TIP3    H119161   6.063   3.617   1.215 -0.3135  1.4646  2.4484
 6399TIP3    H219162   5.940   3.623   1.128  1.9105 -0.7803 -1.1192
 6400TIP3   OH219163   5.736   5.691   0.668  0.5322  0.2591  0.1491
 6400TIP3    H119164   5.753   5.782   0.640 -0.1797  0.7890  1.3881
 6400TIP3    H219165   5.698   5.699   0.755 -0.2507 -1.2100 -0.0279
 6401TIP3   OH219166   4.174   4.360   3.295 -0.0759 -0.2016  0.7992
 6401TIP3    H119167   4.097   4.304   3.287  0.5432 -0.9657 -0.0675
 6401TIP3    H219168   4.139   4.449   3.290 -0.9044 -0.5305  0.4439
 6402TIP3   OH219169   1.957   1.023   0.300 -0.0533  0.2350  0.0224
 6402TIP3    H119170   1.939   0.984   0.214  1.7023 -0.1558 -0.2052
 6402TIP3    H219171   2.052   1.031   0.303 -0.0865  0.3195  1.9074
 6403TIP3   OH219172   0.873   2.777   0.806 -0.2455 -0.0477  0.1788
 6403TIP3    H119173   0.803   2.723   0.770 -0.5640 -0.4744  1.3895
 6403TIP3    H219174   0.934   2.789   0.733 -0.7296 -1.1027 -0.4254
 6404TIP3   OH219175   3.170   3.389   2.097 -0.1194  0.5219 -0.3082
 6404TIP3    H119176   3.143   3.348   2.180 -1.3121  0.1225 -0.8672
 6404TIP3    H219177   3.128   3.475   2.098 -0.6699  0.2717 -0.7544
 6405TIP3   OH219178   1.097   3.410   4.137  0.4214  0.4587  1.2452
 6405TIP3    H119179   1.148   3.391   4.059  0.1118  1.5378  0.7477
 6405TIP3    H219180   1.156   3.459   4.194  0.8848 -0.9872  2.0428
 6406TIP3   OH219181   6.053   4.667   4.926  0.3653 -0.1168 -0.0599
 6406TIP3    H119182   6.126   4.686   4.867  1.1170 -2.3358  0.0816
 6406TIP3    H219183   6.087   4.682   5.014  0.2895 -0.0510 -0.0414
 6407TIP3   OH219184   3.236   0.579   4.804  0.4237  0.1128 -0.0859
 6407TIP3    H119185   3.199   0.609   4.721 -2.9296 -3.0893 -0.0118
 6407TIP3    H219186   3.200   0.639   4.870 -1.3056 -0.4346 -0.4847
 6408TIP3   OH219187   6.876   6.094   2.518 -0.0618 -0.1655 -0.8092
 6408TIP3    H119188   6.826   6.013   2.527 -0.1413  0.0946  2.7035
 6408TIP3    H219189   6.941   6.090   2.588  0.7864  2.2513 -1.3535
 6409TIP3   OH219190   0.303   0.149   4.063  0.3546  0.3082 -0.0311
 6409TIP3    H119191   0.255   0.125   4.142 -0.8593  1.9900 -0.2088
 6409TIP3    H219192   0.243   0.203   4.013  2.0726  1.6563 -0.7617
 6410TIP3   OH219193   1.667   1.296   3.910  0.6352  0.2947 -0.2334
 6410TIP3    H119194   1.665   1.310   4.004 -1.5826  0.6520 -0.2741
 6410TIP3    H219195   1.719   1.216   3.899 -1.5012 -1.5187  1.6207
 6411TIP3   OH219196   3.992   3.545   4.973 -0.2211 -0.1364  0.3370
 6411TIP3    H119197   3.919   3.607   4.974  1.6082  2.1839 -0.3377
 6411TIP3    H219198   4.024   3.544   5.063 -0.4830 -0.3905  0.4270
 6412TIP3   OH219199   4.738   0.441   2.940 -0.0639 -0.5216 -0.5826
 6412TIP3    H119200   4.797   0.378   2.900 -0.5382 -0.9219 -0.6686
 6412TIP3    H219201   4.695   0.393   3.011  0.0187 -0.1171 -0.2556
 6413TIP3   OH219202   3.083   5.932   2.577 -0.5081 -0.5205 -0.4174
 6413TIP3    H119203   3.148   5.995   2.611 -1.2933 -0.1017  0.3547
 6413TIP3    H219204   3.039   5.980   2.506  0.1636 -0.8853 -1.0931
 6414TIP3   OH219205   1.481   1.545   3.213 -0.0708 -0.1346 -0.2602
 6414TIP3    H119206   1.562   1.595   3.227 -0.1838  0.0539 -0.2636
 6414TIP3    H219207   1.436   1.548   3.297  0.5685 -1.4334  0.1542
 6415TIP3   OH219208   4.446   2.238   2.470  0.2054 -0.0478  0.1326
 6415TIP3    H119209   4.393   2.179   2.416  0.4130 -1.4269  1.3907
 6415TIP3    H219210   4.471   2.186   2.546  0.6324  1.5905  1.1650
 6416TIP3   OH219211   4.128   5.975   1.571  0.9438  0.6980  0.5106
 6416TIP3    H119212   4.218   6.007   1.567  1.2383 -0.1671  0.0293
 6416TIP3    H219213   4.075   6.050   1.544  1.6717  0.5774 -1.3392
 6417TIP3   OH219214   6.191   4.695   3.706  0.7410  0.7257 -0.1539
 6417TIP3    H119215   6.171   4.789   3.697 -0.2570  0.4467 -0.9669
 6417TIP3    H219216   6.117   4.651   3.665  0.3731 -0.4808  1.7196
 6418TIP3   OH219217   2.479   6.701   3.721  0.0781 -0.1768 -0.0074
 6418TIP3    H119218   2.437   6.713   3.806  0.6528 -1.0584  0.4159
 6418TIP3    H219219   2.570   6.723   3.736 -0.0580  0.9230 -0.7227
 6419TIP3   OH219220   6.085   1.304   1.498 -0.4154  0.4917 -0.3136
 6419TIP3    H119221   6.100   1.295   1.404  0.8686 -2.0041  0.0552
 6419TIP3    H219222   6.157   1.360   1.528 -1.2909  1.9864 -0.8702
 6420TIP3   OH219223   2.892   0.194   1.220  0.7421  0.2055 -0.1457
 6420TIP3    H119224   2.851   0.279   1.208  0.9420  0.6303  1.8117
 6420TIP3    H219225   2.986   0.212   1.227  0.7610 -0.1071  0.5843
 6421TIP3   OH219226   7.004   5.307   4.848 -0.2017 -0.1424 -0.2520
 6421TIP3    H119227   6.948   5.361   4.904 -0.1112  0.1596 -0.4515
 6421TIP3    H219228   6.945   5.238   4.816 -0.6861  0.6455 -1.1208
 6422TIP3   OH219229   2.080   2.961   3.969 -0.7556  0.1519 -0.3021
 6422TIP3    H119230   2.079   3.056   3.974 -2.3258  0.1336  0.1327
 6422TIP3    H219231   2.055   2.932   4.057 -1.0773 -0.6542 -0.6442
 6423TIP3   OH219232   7.226   1.930   3.350 -0.3554 -0.0567  0.2949
 6423TIP3    H119233   7.135   1.930   3.379 -0.5422 -0.3909 -0.2828
 6423TIP3    H219234   7.224   1.892   3.262  0.4369 -0.7608  0.5699
 6424TIP3   OH219235   5.209   6.539   1.342  0.2165  0.9446  0.3644
 6424TIP3    H119236   5.266   6.490   1.401  0.4979  1.6159  0.6614
 6424TIP3    H219237   5.247   6.627   1.339 -0.0236  1.0320 -0.4990
 6425TIP3   OH219238   1.518   3.619   4.496  0.0972 -0.0206 -0.1844
 6425TIP3    H119239   1.490   3.617   4.588  2.9178 -1.0747  0.7860
 6425TIP3    H219240   1.541   3.528   4.477  0.7100  0.3944 -1.5277
 6426TIP3   OH219241   6.903   6.156   3.637 -0.4077 -0.4807 -0.4734
 6426TIP3    H119242   6.917   6.224   3.702  0.5777 -0.9032 -0.2155
 6426TIP3    H219243   6.902   6.074   3.687 -0.0593 -0.7789 -0.9373
 6427TIP3   OH219244   5.431   3.560   3.236  0.5862  0.4233 -0.0698
 6427TIP3    H119245   5.497   3.561   3.305  0.5780 -0.4288 -0.0433
 6427TIP3    H219246   5.354   3.520   3.275  0.8594 -0.8701 -0.8001
 6428TIP3   OH219247   1.711   1.777   5.826  0.2202  0.0305 -0.9397
 6428TIP3    H119248   1.788   1.789   5.881  1.1164 -4.1241 -0.9601
 6428TIP3    H219249   1.739   1.803   5.738  0.6698  1.0900 -0.4982
 6429TIP3   OH219250   0.195   1.788   5.063  0.0665 -0.1808 -0.3859
 6429TIP3    H119251   0.124   1.725   5.060 -0.6799  0.6471 -0.6713
 6429TIP3    H219252   0.254   1.762   4.992 -0.1353 -0.6578 -0.3794
 6430TIP3   OH219253   3.822   6.412   4.084  0.3131 -0.3120 -0.4243
 6430TIP3    H119254   3.811   6.321   4.112 -1.1780 -0.2839 -0.8545
 6430TIP3    H219255   3.868   6.406   4.001 -1.4259 -0.8163 -1.3934
 6431TIP3   OH219256   6.817   3.569   4.950 -0.0063  0.2763  0.0962
 6431TIP3    H119257   6.907   3.558   4.981 -0.2608  0.4624  0.9164
 6431TIP3    H219258   6.797   3.661   4.964 -0.4587  0.1530  0.2966
 6432TIP3   OH219259   4.379   2.091   4.838  0.3475 -0.5096  0.0331
 6432TIP3    H119260   4.385   2.000   4.809  0.5753 -0.9725  1.4518
 6432TIP3    H219261   4.329   2.135   4.770 -0.5645 -1.9038 -0.2285
 6433TIP3   OH219262   1.424   3.520   1.953  0.0743 -0.4944  0.3761
 6433TIP3    H119263   1.437   3.486   2.041  1.3200 -0.2410  0.3019
 6433TIP3    H219264   1.487   3.472   1.899 -1.1508 -1.1470 -0.5192
 6434TIP3   OH219265   1.608   0.070   2.374  0.0843 -0.0442 -0.2301
 6434TIP3    H119266   1.574   0.158   2.356 -0.2537 -0.0815  0.2024
 6434TIP3    H219267   1.635   0.037   2.289  2.1802  1.2664 -0.1745
 6435TIP3   OH219268   0.748   1.369   4.616  0.5824  0.4063 -0.0659
 6435TIP3    H119269   0.718   1.285   4.651 -0.5794  0.4214 -0.9266
 6435TIP3    H219270   0.815   1.345   4.552  1.8541  0.3037  1.2782
 6436TIP3   OH219271   5.742   3.304   1.465  0.2606  0.1361  0.1033
 6436TIP3    H119272   5.779   3.349   1.540  0.4612  0.3823 -0.1422
 6436TIP3    H219273   5.807   3.238   1.441 -0.3476 -0.7878  0.9097
 6437TIP3   OH219274   0.178   0.775   2.689  0.1984  0.4468  0.9028
 6437TIP3    H119275   0.180   0.716   2.764  2.6404  2.1616  2.3493
 6437TIP3    H219276   0.270   0.783   2.663 -0.6399 -1.6658 -3.7397
 6438TIP3   OH219277   0.511   0.084   4.617  0.6517  0.0591  0.6463
 6438TIP3    H119278   0.477   0.002   4.653 -0.8007  1.1522  1.9525
 6438TIP3    H219279   0.437   0.119   4.567  2.0871 -0.6008 -2.1234
 6439TIP3   OH219280   3.494   4.785   4.229  0.4860  0.2465  0.5895
 6439TIP3    H119281   3.455   4.873   4.229  1.6339  0.7777  1.1417
 6439TIP3    H219282   3.452   4.741   4.302 -2.1592 -0.6745 -1.3271
 6440TIP3   OH219283   3.205   2.724   3.874  0.1809  0.6248  0.1877
 6440TIP3    H119284   3.226   2.809   3.913 -1.0638  0.7808  0.5495
 6440TIP3    H219285   3.231   2.734   3.782  1.7188  0.7677  0.6026
 6441TIP3   OH219286   6.465   1.829   1.375 -0.0383 -1.1160  0.3470
 6441TIP3    H119287   6.384   1.828   1.424 -0.2268  0.3715  0.1167
 6441TIP3    H219288   6.510   1.908   1.404  0.1685 -0.5695 -1.3169
 6442TIP3   OH219289   2.825   1.652   1.241 -0.4186  0.1349  0.0271
 6442TIP3    H119290   2.798   1.742   1.222  0.3570  0.6376  1.1655
 6442TIP3    H219291   2.903   1.639   1.188 -0.3708  0.2401  0.0697
 6443TIP3   OH219292   4.291   5.491   1.206 -0.3977 -0.0822  0.0492
 6443TIP3    H119293   4.335   5.535   1.279 -0.0759 -1.1781  0.5219
 6443TIP3    H219294   4.362   5.466   1.147 -0.0756 -3.5208  1.6932
 6444TIP3   OH219295   5.203   0.136   5.842  0.2435 -0.1769  0.1492
 6444TIP3    H119296   5.133   0.194   5.874 -0.0115 -0.8208  0.7958
 6444TIP3    H219297   5.176   0.049   5.870  1.3528 -0.4255  0.4974
 6445TIP3   OH219298   2.756   3.790   2.326 -0.0805  1.0106  0.5260
 6445TIP3    H119299   2.849   3.810   2.334  0.1460  1.0058 -1.4465
 6445TIP3    H219300   2.713   3.875   2.330  0.3829  1.4717 -2.1345
 6446TIP3   OH219301   0.471   3.614   1.132  0.1286 -0.7532 -0.2726
 6446TIP3    H119302   0.427   3.657   1.059 -1.2551 -1.2463  0.2378
 6446TIP3    H219303   0.564   3.620   1.111 -0.1396  0.6511 -1.2174
 6447TIP3   OH219304   2.471   6.695   5.649 -0.5745  0.3013 -0.0382
 6447TIP3    H119305   2.463   6.670   5.741 -1.0001 -1.6539 -0.5665
 6447TIP3    H219306   2.565   6.709   5.637 -0.3202 -0.8712  0.3828
 6448TIP3   OH219307   2.764   0.109   5.817  0.5396 -0.0429  0.1179
 6448TIP3    H119308   2.671   0.127   5.830  0.6943  0.0500  1.1501
 6448TIP3    H219309   2.804   0.196   5.809  0.3372 -0.0831 -2.0467
 6449TIP3   OH219310   3.353   5.515   0.567  0.0598  0.5528 -0.6052
 6449TIP3    H119311   3.430   5.525   0.623 -0.6259  0.8842  0.3097
 6449TIP3    H219312   3.366   5.431   0.523 -0.4013 -0.8548  1.7321
 6450TIP3   OH219313   0.300   3.943   5.025 -0.4639  0.0292  0.0518
 6450TIP3    H119314   0.269   3.864   4.982 -0.2434 -0.0690  0.0709
 6450TIP3    H219315   0.329   4.000   4.954 -3.4175  1.3589 -0.2242
 6451TIP3   OH219316   1.332   0.517   0.321 -0.1175  0.4511 -0.1101
 6451TIP3    H119317   1.358   0.534   0.230  2.6545  0.1211  0.5281
 6451TIP3    H219318   1.307   0.603   0.355  1.6186  1.1215 -0.4241
 6452TIP3   OH219319   4.523   4.227   4.543  0.0437  0.8148  0.0426
 6452TIP3    H119320   4.495   4.282   4.616 -0.7298  1.2045 -0.5221
 6452TIP3    H219321   4.614   4.252   4.527 -0.0052  1.2399  0.4175
 6453TIP3   OH219322   6.932   3.582   0.574 -0.7959  0.5467  0.3019
 6453TIP3    H119323   7.008   3.622   0.532  1.5484 -1.7017  2.0196
 6453TIP3    H219324   6.910   3.508   0.518 -0.6241  0.2303  0.6474
 6454TIP3   OH219325   5.321   2.401   3.620  0.2297  0.1860 -0.4849
 6454TIP3    H119326   5.352   2.469   3.560  1.7476 -0.3880 -0.3739
 6454TIP3    H219327   5.360   2.424   3.704 -1.4671  0.6909  0.2091
 6455TIP3   OH219328   1.442   4.665   4.410 -0.1598 -0.0543  0.1890
 6455TIP3    H119329   1.363   4.624   4.376 -0.1625  0.8200 -0.9141
 6455TIP3    H219330   1.514   4.616   4.370 -0.1535  1.5392 -1.9302
 6456TIP3   OH219331   3.641   4.990   4.588  0.0134  0.4408 -0.4810
 6456TIP3    H119332   3.672   4.967   4.675  0.2041  0.8535 -0.4391
 6456TIP3    H219333   3.663   4.914   4.534  0.3583  0.3953 -0.2776
 6457TIP3   OH219334   2.457   3.333   5.365 -0.3285 -0.3266  0.2995
 6457TIP3    H119335   2.519   3.406   5.362 -0.4696 -0.0162  2.7922
 6457TIP3    H219336   2.510   3.257   5.385 -0.5354 -0.3241  0.8921
 6458TIP3   OH219337   3.997   4.730   0.561 -0.0357 -0.3682  0.1148
 6458TIP3    H119338   3.977   4.716   0.654 -1.3389 -0.9433 -0.2248
 6458TIP3    H219339   4.080   4.777   0.561 -0.2273  0.0228  1.5859
 6459TIP3   OH219340   6.685   0.555   4.219  0.1820 -0.2909 -0.1897
 6459TIP3    H119341   6.674   0.649   4.233 -0.3552 -0.0044 -2.2024
 6459TIP3    H219342   6.600   0.517   4.242 -0.0021 -0.1147 -0.5716
 6460TIP3   OH219343   2.650   4.138   0.393 -0.1672  0.4935  0.0321
 6460TIP3    H119344   2.680   4.075   0.328 -0.6461  0.0753  0.2157
 6460TIP3    H219345   2.562   4.161   0.366 -0.2758  0.5070  0.3909
 6461TIP3   OH219346   4.226   0.464   1.966  0.0199  0.5265  0.1246
 6461TIP3    H119347   4.249   0.404   2.037  1.7705  1.0019  0.0080
 6461TIP3    H219348   4.310   0.498   1.935 -0.7284  0.7820 -1.7859
 6462TIP3   OH219349   0.490   3.202   5.039 -0.0690  0.1880  0.1139
 6462TIP3    H119350   0.552   3.220   5.110 -0.6014 -1.8351  1.1623
 6462TIP3    H219351   0.545   3.194   4.961  0.7414  0.4761  0.6333
 6463TIP3   OH219352   5.779   5.772   2.650  0.0061 -0.1580  0.2537
 6463TIP3    H119353   5.701   5.781   2.705  0.6940  1.7799  0.9980
 6463TIP3    H219354   5.807   5.862   2.633  2.1342 -0.7934  0.0653
 6464TIP3   OH219355   6.067   5.896   1.661  0.1591  0.3202  0.8645
 6464TIP3    H119356   6.011   5.830   1.621  0.5804  0.8963 -0.7453
 6464TIP3    H219357   6.008   5.968   1.681  0.2660  0.9046 -0.7762
 6465TIP3   OH219358   0.143   1.787   4.483 -0.1032  0.1994 -0.1784
 6465TIP3    H119359   0.232   1.757   4.468  0.3200  1.3364 -0.0645
 6465TIP3    H219360   0.137   1.798   4.578  0.1369  1.5301 -0.2965
 6466TIP3   OH219361   1.070   5.623   4.492  0.0801 -0.2913  0.1209
 6466TIP3    H119362   1.104   5.534   4.488  0.2869 -0.1989 -0.2245
 6466TIP3    H219363   1.140   5.677   4.453  0.3520  0.1333  1.1527
 6467TIP3   OH219364   4.309   2.449   2.199 -0.5846  0.4387 -0.3781
 6467TIP3    H119365   4.259   2.374   2.232  0.1403 -0.9890 -2.2479
 6467TIP3    H219366   4.263   2.526   2.232 -1.7895 -0.8224  1.0489
 6468TIP3   OH219367   1.678   3.284   0.979  0.5919 -0.1467  0.5274
 6468TIP3    H119368   1.593   3.326   0.968  0.7244  0.3273  1.2159
 6468TIP3    H219369   1.680   3.215   0.913 -1.0833 -1.3715  1.6853
 6469TIP3   OH219370   3.670   2.297   2.099  0.1814  0.0090  0.0070
 6469TIP3    H119371   3.717   2.238   2.157  1.2974 -0.1962 -1.0607
 6469TIP3    H219372   3.656   2.247   2.019  0.7105  1.0016 -0.7345
 6470TIP3   OH219373   6.192   1.492   5.127  0.2099 -0.3404  0.0275
 6470TIP3    H119374   6.180   1.581   5.094  0.0517 -0.0586  0.8336
 6470TIP3    H219375   6.114   1.475   5.180  1.6220  0.2213  2.4561
 6471TIP3   OH219376   0.950   4.003   3.635 -0.3601 -0.2982 -0.0248
 6471TIP3    H119377   1.012   3.994   3.707 -0.9027  1.5419  0.7175
 6471TIP3    H219378   0.971   4.087   3.595  0.4872 -1.6324 -2.6111
 6472TIP3   OH219379   6.537   2.356   4.407 -0.2971  0.5089 -0.2843
 6472TIP3    H119380   6.465   2.416   4.426 -0.5588  0.1155 -0.0316
 6472TIP3    H219381   6.542   2.299   4.483 -0.2939 -0.0349 -0.6877
 6473TIP3   OH219382   4.160   0.346   2.591 -0.0629  0.0338  0.0008
 6473TIP3    H119383   4.084   0.353   2.533  0.7107  0.8837 -0.9369
 6473TIP3    H219384   4.206   0.268   2.561  2.1050  2.1814 -2.7981
 6474TIP3   OH219385   2.781   5.490   2.187  0.1403 -0.0016 -0.1868
 6474TIP3    H119386   2.862   5.536   2.164 -0.2031  0.6323 -0.1759
 6474TIP3    H219387   2.713   5.534   2.134  0.0389 -1.6385 -1.5004
 6475TIP3   OH219388   4.466   4.240   2.323  0.1371 -0.1761 -0.0118
 6475TIP3    H119389   4.469   4.259   2.229 -0.9980 -0.4933 -0.1319
 6475TIP3    H219390   4.485   4.147   2.330 -1.3834 -0.5117 -0.0927
 6476TIP3   OH219391   4.795   6.304   3.283  0.5602 -0.2882 -0.0814
 6476TIP3    H119392   4.766   6.395   3.292  2.1436  0.1794  0.6470
 6476TIP3    H219393   4.775   6.281   3.192  0.6032  0.9676 -0.4276
 6477TIP3   OH219394   0.289   4.523   2.639 -0.1919  0.1535  0.6913
 6477TIP3    H119395   0.224   4.561   2.580 -0.4923 -1.1583  0.1420
 6477TIP3    H219396   0.262   4.552   2.726  0.2438  2.0843  0.2082
 6478TIP3   OH219397   3.899   0.719   3.956  0.2121 -0.2009 -0.4184
 6478TIP3    H119398   3.956   0.789   3.987  0.9487  0.4621 -2.9990
 6478TIP3    H219399   3.817   0.762   3.934 -0.1017 -0.5563  0.0202
 6479TIP3   OH219400   1.327   0.745   2.031  0.0883 -0.2078  0.0397
 6479TIP3    H119401   1.310   0.820   1.974  1.1476 -0.1015 -0.1647
 6479TIP3    H219402   1.407   0.768   2.077 -1.0394 -0.0545  2.0186
 6480TIP3   OH219403   3.515   5.690   3.392  0.4507  0.6720 -0.3895
 6480TIP3    H119404   3.602   5.731   3.393  0.7288  0.2235  2.2471
 6480TIP3    H219405   3.454   5.764   3.382  1.0626  1.3334  0.5891
 6481TIP3   OH219406   4.600   0.721   0.620  0.2293 -0.4013  0.0226
 6481TIP3    H119407   4.518   0.672   0.613 -0.4982  0.6224  0.9772
 6481TIP3    H219408   4.660   0.677   0.560 -0.6080 -1.9967  0.3046
 6482TIP3   OH219409   6.413   2.061   4.158 -0.6335 -0.1985  0.5693
 6482TIP3    H119410   6.432   1.967   4.164  0.3547 -0.1236 -0.8603
 6482TIP3    H219411   6.495   2.100   4.125 -1.7714  0.8259 -1.2083
 6483TIP3   OH219412   3.550   1.022   0.829  0.1504 -0.1605  0.1075
 6483TIP3    H119413   3.625   1.020   0.769 -0.1395 -3.0687 -0.3042
 6483TIP3    H219414   3.475   1.045   0.775  0.5490  2.0899  0.3955
 6484TIP3   OH219415   6.490   0.109   1.367 -0.8343  0.3987  0.5915
 6484TIP3    H119416   6.546   0.164   1.312 -2.9268  0.1430 -1.9849
 6484TIP3    H219417   6.512   0.019   1.340 -1.1117  0.1999  1.0140
 6485TIP3   OH219418   2.583   6.705   5.029 -0.0832  0.7528 -0.0194
 6485TIP3    H119419   2.540   6.731   5.110 -1.4295  1.1187 -0.8287
 6485TIP3    H219420   2.512   6.679   4.971  0.9460 -0.8080 -0.6483
 6486TIP3   OH219421   6.540   0.655   2.477  0.0324  0.1905 -0.2067
 6486TIP3    H119422   6.549   0.564   2.504 -0.1989 -0.4146 -1.9829
 6486TIP3    H219423   6.610   0.702   2.522  1.0700 -1.1553 -0.3730
 6487TIP3   OH219424   0.661   5.446   5.744 -0.0068 -0.1947  0.2202
 6487TIP3    H119425   0.628   5.386   5.811  0.9008 -0.9734 -0.0175
 6487TIP3    H219426   0.665   5.393   5.664  2.0859 -0.2295  0.3006
 6488TIP3   OH219427   4.377   1.905   0.630 -0.1398  0.1186  0.6485
 6488TIP3    H119428   4.473   1.912   0.627 -0.2466  2.0856  0.4648
 6488TIP3    H219429   4.353   1.938   0.716 -0.6869  0.0215  0.5364
 6489TIP3   OH219430   3.522   2.017   1.033 -0.7068  0.2846  0.1570
 6489TIP3    H119431   3.585   2.034   0.962 -1.0598 -0.5704 -0.3723
 6489TIP3    H219432   3.575   1.983   1.105 -0.2459  1.7865  0.5776
 6490TIP3   OH219433   5.104   3.775   5.577 -0.0684 -0.4220 -0.5569
 6490TIP3    H119434   5.085   3.845   5.515  0.3733  0.4078  0.2224
 6490TIP3    H219435   5.126   3.700   5.522 -0.8044 -0.0363 -1.4072
 6491TIP3   OH219436   1.754  -0.010   0.681 -0.2767 -0.3969 -0.2109
 6491TIP3    H119437   1.778   0.038   0.602  0.5951  0.1595  0.3764
 6491TIP3    H219438   1.729   0.057   0.744  1.7777 -0.5740  0.8980
 6492TIP3   OH219439   4.348   4.796   5.904  0.3714  0.3473 -0.2031
 6492TIP3    H119440   4.290   4.873   5.900  1.9670  1.5797 -1.2160
 6492TIP3    H219441   4.316   4.739   5.835 -0.0593  0.7027 -0.3033
 6493TIP3   OH219442   3.292   5.777   0.816 -0.2654  0.0290 -0.1433
 6493TIP3    H119443   3.227   5.739   0.875  1.3098 -0.7660  1.1497
 6493TIP3    H219444   3.324   5.855   0.862  1.2374 -0.7996  0.2655
 6494TIP3   OH219445   0.703   1.072   4.666 -0.5522  0.0563  0.0543
 6494TIP3    H119446   0.772   1.027   4.617  0.3899 -0.3051  1.6467
 6494TIP3    H219447   0.668   1.006   4.725 -1.3065  0.6176  0.2569
 6495TIP3   OH219448   4.397   1.575   2.011  0.3634 -0.2716 -0.1604
 6495TIP3    H119449   4.366   1.499   1.960  1.4478 -2.0239  1.6485
 6495TIP3    H219450   4.471   1.609   1.961  2.2706 -2.7866  0.7197
 6496TIP3   OH219451   2.636   4.111   1.230  0.2250  0.1280 -0.4315
 6496TIP3    H119452   2.635   4.145   1.320 -2.2488  1.0524 -0.7462
 6496TIP3    H219453   2.554   4.064   1.221  0.4403  0.0182 -2.2158
 6497TIP3   OH219454   5.305   3.386   2.869  0.2315  0.0656 -0.1700
 6497TIP3    H119455   5.386   3.421   2.832 -0.3513  0.8695 -0.7288
 6497TIP3    H219456   5.330   3.353   2.956  1.3373 -0.5734 -0.7068
 6498TIP3   OH219457   5.373   5.079   1.585 -0.0870  0.7246  0.3755
 6498TIP3    H119458   5.321   5.147   1.543  0.6464  0.5023 -0.9210
 6498TIP3    H219459   5.463   5.095   1.556  0.2578 -0.1572  0.9131
 6499TIP3   OH219460   3.304   4.967   4.328  0.1612  0.2656  0.4605
 6499TIP3    H119461   3.321   5.050   4.284 -0.6683  1.6556  2.5885
 6499TIP3    H219462   3.212   4.948   4.307  0.9046 -1.2672 -1.7112
 6500TIP3   OH219463   1.843   5.696   1.351  0.7387 -0.5720 -0.2750
 6500TIP3    H119464   1.787   5.732   1.421  0.7848  1.4528 -1.2045
 6500TIP3    H219465   1.887   5.773   1.314  0.9147 -1.6153 -2.3583
 6501TIP3   OH219466   6.346   3.656   4.107 -0.1544 -0.0480 -0.2518
 6501TIP3    H119467   6.312   3.736   4.146  2.6652  1.3307 -0.4149
 6501TIP3    H219468   6.337   3.670   4.013  3.1817  1.6474 -0.4817
 6502TIP3   OH219469   2.308   0.136   2.675  0.0596  0.2137 -0.1501
 6502TIP3    H119470   2.368   0.062   2.669 -0.2311 -0.1688  1.3465
 6502TIP3    H219471   2.324   0.187   2.595  0.3862 -1.3534 -1.1123
 6503TIP3   OH219472   3.024   1.670   2.407 -0.6633  0.0226  0.1781
 6503TIP3    H119473   2.955   1.736   2.399 -1.2466 -0.7698 -2.5464
 6503TIP3    H219474   2.982   1.597   2.452 -1.3030 -0.0361 -0.4889
 6504TIP3   OH219475   4.816   1.894   2.746  0.4269  0.2077 -0.2597
 6504TIP3    H119476   4.788   1.806   2.722  0.7761  0.3517 -1.2695
 6504TIP3    H219477   4.794   1.902   2.838  0.2818 -0.8912 -0.1839
 6505TIP3   OH219478   1.416   6.733   3.677  0.3278  0.0339  0.0746
 6505TIP3    H119479   1.466   6.666   3.631  1.9143  0.3819  1.1652
 6505TIP3    H219480   1.331   6.735   3.634  0.6688 -1.7954 -0.7741
 6506TIP3   OH219481   6.414   5.474   2.247  0.3064 -0.4204 -0.0172
 6506TIP3    H119482   6.404   5.470   2.151  0.0403 -0.2154  0.0028
 6506TIP3    H219483   6.358   5.545   2.274  0.2679 -0.5762  0.3129
 6507TIP3   OH219484   0.192   5.135   3.673  0.2110  0.2299  0.1343
 6507TIP3    H119485   0.277   5.104   3.641  0.5417  1.0451  0.1907
 6507TIP3    H219486   0.127   5.086   3.623  0.6918  1.7601 -2.1404
 6508TIP3   OH219487   4.088   2.477   5.791 -0.0864  0.1120  0.1392
 6508TIP3    H119488   4.093   2.525   5.874 -0.5869  1.8950 -0.8085
 6508TIP3    H219489   4.124   2.390   5.811  1.4498  1.0728  1.7868
 6509TIP3   OH219490   1.623   0.282   3.027  0.2377  0.2431 -0.0931
 6509TIP3    H119491   1.609   0.377   3.030 -2.2835 -0.0316 -0.6787
 6509TIP3    H219492   1.544   0.245   3.066  0.5910 -1.6407 -1.0398
 6510TIP3   OH219493   4.575   0.527   2.468 -0.5318  0.2687  0.1718
 6510TIP3    H119494   4.508   0.528   2.399 -1.7657  1.6590  1.3305
 6510TIP3    H219495   4.601   0.618   2.478  0.9595 -0.1534  0.3253
 6511TIP3   OH219496   1.257   6.131   3.348  0.2880 -0.3278 -0.0348
 6511TIP3    H119497   1.267   6.158   3.257  0.4949 -0.2877 -0.0005
 6511TIP3    H219498   1.340   6.089   3.370  1.1689  1.6871  0.8208
 6512TIP3   OH219499   3.732   1.411   1.328  0.2210  0.5368 -0.2800
 6512TIP3    H119500   3.677   1.418   1.250  2.3198 -0.0405 -1.9057
 6512TIP3    H219501   3.692   1.341   1.380 -1.8929  1.7257 -0.1879
 6513TIP3   OH219502   6.743   1.476   2.672 -0.2817 -0.6528 -0.1799
 6513TIP3    H119503   6.801   1.500   2.600 -1.4398  1.1179 -0.5817
 6513TIP3    H219504   6.702   1.394   2.644 -0.0970 -0.4172 -1.1580
 6514TIP3   OH219505   7.059   6.668   2.461 -0.2012 -0.6988  0.2807
 6514TIP3    H119506   7.102   6.601   2.513  0.3248  0.0243  0.8088
 6514TIP3    H219507   6.972   6.677   2.500  0.0315 -0.4767  0.7554
 6515TIP3   OH219508   1.061   5.753   1.370  0.2252 -0.0219  0.2488
 6515TIP3    H119509   1.015   5.799   1.299  0.7826 -1.7579 -1.3369
 6515TIP3    H219510   1.116   5.820   1.410 -1.6332  1.4864  0.4321
 6516TIP3   OH219511   5.580   0.191   5.636  0.2966  0.7843 -0.2949
 6516TIP3    H119512   5.560   0.124   5.701 -0.7805  0.7925 -0.6080
 6516TIP3    H219513   5.667   0.223   5.661  0.5162 -0.2108  0.2834
 6517TIP3   OH219514   1.753   2.884   0.818  0.4401  0.3501 -0.6178
 6517TIP3    H119515   1.704   2.966   0.825 -0.2992 -0.2128  1.1005
 6517TIP3    H219516   1.814   2.886   0.893  0.8652 -0.3877 -0.9301
 6518TIP3   OH219517   2.888   3.364   3.249  0.0586  0.1281 -0.0301
 6518TIP3    H119518   2.801   3.378   3.285 -0.5329 -1.1389 -0.8784
 6518TIP3    H219519   2.913   3.277   3.281  1.4455  0.8793  1.0046
 6519TIP3   OH219520   5.026   0.240   5.476  0.0208 -0.3130 -0.5142
 6519TIP3    H119521   4.976   0.298   5.533 -1.1765 -1.2837 -0.5325
 6519TIP3    H219522   5.118   0.258   5.498 -0.2856  1.7254 -0.6868
 6520TIP3   OH219523   6.939   1.437   4.641 -0.0824 -0.7140 -1.0397
 6520TIP3    H119524   6.929   1.396   4.727 -0.3908  0.8824 -0.2791
 6520TIP3    H219525   6.967   1.366   4.583  1.6697 -1.5222  0.7012
 6521TIP3   OH219526   2.121   5.255   5.448 -0.6310 -0.2331 -0.6735
 6521TIP3    H119527   2.204   5.249   5.495 -0.7236 -0.4037 -0.5318
 6521TIP3    H219528   2.098   5.164   5.427 -1.2047 -0.2585  0.0285
 6522TIP3   OH219529   6.436   2.174   5.513  0.0413  0.3086  0.4276
 6522TIP3    H119530   6.417   2.228   5.436  2.9549 -2.3228 -2.4123
 6522TIP3    H219531   6.355   2.124   5.528 -0.6576  1.0452 -0.7635
 6523TIP3   OH219532   3.593   1.560   1.535 -0.3456  0.0816 -0.0420
 6523TIP3    H119533   3.629   1.501   1.468 -0.0934  1.1449 -0.8652
 6523TIP3    H219534   3.612   1.515   1.618  3.8933  0.9533 -0.2954
 6524TIP3   OH219535   6.763   0.662   4.673 -0.0462  0.5020  0.3213
 6524TIP3    H119536   6.779   0.591   4.612 -1.1428 -1.1375  1.8550
 6524TIP3    H219537   6.668   0.675   4.672 -0.0489  0.7114  1.3603
 6525TIP3   OH219538   3.001   5.957   3.280  0.0835 -0.2401  0.3133
 6525TIP3    H119539   3.078   6.014   3.270  1.7033 -1.9157  2.2278
 6525TIP3    H219540   3.008   5.894   3.209  0.6701 -0.5436  0.6282
 6526TIP3   OH219541   1.830   2.128   1.563  0.0084  0.1267  0.1212
 6526TIP3    H119542   1.914   2.173   1.576  1.3855 -1.9153 -1.1545
 6526TIP3    H219543   1.820   2.073   1.642 -0.9339  1.4664  0.9786
 6527TIP3   OH219544   5.120   5.972   4.438  0.2861 -0.1185  0.1449
 6527TIP3    H119545   5.045   5.913   4.442 -0.5577  0.8642 -0.4543
 6527TIP3    H219546   5.197   5.915   4.445 -0.4981 -1.2738 -0.3637
 6528TIP3   OH219547   5.115   6.621   5.681  0.7251  0.4459  0.1196
 6528TIP3    H119548   5.195   6.664   5.651  1.0656  0.0419  0.4320
 6528TIP3    H219549   5.115   6.634   5.776 -0.3405  1.7087 -0.0176
 6529TIP3   OH219550   4.065   6.643   3.989 -0.4350 -0.6351 -0.4908
 6529TIP3    H119551   4.134   6.583   4.016  0.1530 -0.3993 -1.4587
 6529TIP3    H219552   4.086   6.668   3.899 -1.0448  0.4823 -0.3569
 6530TIP3   OH219553   3.249   3.200   5.704 -0.4874 -0.4058  0.7304
 6530TIP3    H119554   3.158   3.181   5.681 -0.9487  0.0835  2.0686
 6530TIP3    H219555   3.286   3.116   5.729 -0.8083 -0.4827  0.9493
 6531TIP3   OH219556   4.679   3.297   2.796  0.0725  0.0287  0.0579
 6531TIP3    H119557   4.583   3.302   2.792  0.0961 -0.4425 -1.7301
 6531TIP3    H219558   4.708   3.382   2.764  0.2496 -0.4165 -0.9887
 6532TIP3   OH219559   0.456   1.008   4.390 -0.2257  0.6584 -0.2625
 6532TIP3    H119560   0.549   0.991   4.377 -0.5478 -0.9588 -0.7605
 6532TIP3    H219561   0.438   1.086   4.338  0.9581  1.3803  0.3612
 6533TIP3   OH219562   1.167   3.775   4.301 -0.6427  0.4535  0.3826
 6533TIP3    H119563   1.179   3.836   4.228 -1.9550  0.0123 -0.2216
 6533TIP3    H219564   1.212   3.696   4.273 -0.6950  0.4580  0.2875
 6534TIP3   OH219565   1.712   5.834   5.133 -0.1074  0.0578 -0.3047
 6534TIP3    H119566   1.776   5.886   5.182  0.2564 -0.0293 -0.6857
 6534TIP3    H219567   1.756   5.811   5.051 -0.6150 -0.0240 -0.5644
 6535TIP3   OH219568   5.596   3.888   0.911  0.2213 -0.2833 -0.0463
 6535TIP3    H119569   5.601   3.938   0.830 -0.7665  0.6040  0.4270
 6535TIP3    H219570   5.641   3.806   0.891  1.0126  0.3858 -1.1315
 6536TIP3   OH219571   0.208   3.921   0.850 -0.1276  0.4533 -0.0344
 6536TIP3    H119572   0.131   3.912   0.793 -0.5883  2.5654  0.1664
 6536TIP3    H219573   0.238   4.010   0.835  2.2069 -0.2662  0.0501
 6537TIP3   OH219574   3.555   1.276   4.981 -0.0144  0.0685  0.2086
 6537TIP3    H119575   3.604   1.355   4.958 -1.2728  0.5905 -0.8426
 6537TIP3    H219576   3.473   1.309   5.017  0.3922 -0.7875  2.0331
 6538TIP3   OH219577   4.926   5.521   0.363 -0.4457  0.2078 -0.0155
 6538TIP3    H119578   4.919   5.553   0.273 -1.3342 -1.0756 -0.4352
 6538TIP3    H219579   5.002   5.566   0.399  0.9796 -0.5078 -1.9541
 6539TIP3   OH219580   3.881   0.768   0.681 -0.2969 -0.2530 -0.2976
 6539TIP3    H119581   3.824   0.745   0.754 -0.7446  0.9871 -0.2449
 6539TIP3    H219582   3.855   0.856   0.656  2.0591  0.6707  0.1935
 6540TIP3   OH219583   4.189   3.560   0.733  0.1471 -0.1333 -0.0324
 6540TIP3    H119584   4.125   3.579   0.664 -1.1507  3.3570  1.8903
 6540TIP3    H219585   4.197   3.465   0.733 -1.0642 -0.4107 -3.7792
 6541TIP3   OH219586   5.901   5.717   5.420  0.0795  0.1012  0.1229
 6541TIP3    H119587   5.982   5.757   5.452  0.5430 -0.1103 -0.7440
 6541TIP3    H219588   5.883   5.647   5.483 -0.1092  0.9137  0.9987
 6542TIP3   OH219589   3.881   5.237   2.075 -0.4926 -0.0263  0.0621
 6542TIP3    H119590   3.810   5.276   2.026  0.1971  0.1643 -0.8162
 6542TIP3    H219591   3.940   5.310   2.095 -1.3363  0.1402  2.2845
 6543TIP3   OH219592   1.098   6.072   0.227  0.2693  0.0021 -0.8534
 6543TIP3    H119593   1.053   6.127   0.291  1.4587 -0.6683  0.6327
 6543TIP3    H219594   1.118   5.992   0.274  1.1137 -0.5566 -2.1096
 6544TIP3   OH219595   6.768   1.175   2.875  0.5243  0.1645  0.3224
 6544TIP3    H119596   6.742   1.145   2.962 -0.4233 -3.6573 -1.0589
 6544TIP3    H219597   6.694   1.150   2.818  1.6531  1.3367 -1.7936
 6545TIP3   OH219598   6.370   1.033   3.650  0.5618 -0.6248  0.5725
 6545TIP3    H119599   6.401   1.094   3.583  0.2627  0.8734  1.7471
 6545TIP3    H219600   6.402   1.070   3.732 -3.1526  0.2909  1.7555
 6546TIP3   OH219601   2.323   2.808   3.892 -0.4196  0.5385 -0.0466
 6546TIP3    H119602   2.280   2.850   3.967  1.3806  1.5029  0.4906
 6546TIP3    H219603   2.274   2.839   3.816 -1.0679  1.0919  0.5750
 6547TIP3   OH219604   3.600   0.717   0.321  0.2670  0.0676  0.3769
 6547TIP3    H119605   3.619   0.627   0.292 -1.6406  0.1864 -1.5445
 6547TIP3    H219606   3.505   0.718   0.334  0.2355  1.8455  0.2374
 6548TIP3   OH219607   3.630   0.224   5.029  0.1534 -0.0673  0.4128
 6548TIP3    H119608   3.693   0.225   4.956 -0.0008  0.4662  0.2822
 6548TIP3    H219609   3.551   0.265   4.993 -0.3413 -0.9175  0.5145
 6549TIP3   OH219610   5.162   0.658   2.453 -0.3473 -0.1487  0.0915
 6549TIP3    H119611   5.128   0.613   2.376  1.5792  0.2432 -1.0218
 6549TIP3    H219612   5.221   0.595   2.494  0.8116  0.6360 -0.3485
 6550TIP3   OH219613   0.781   3.502   5.407 -0.1785  0.3224  0.4978
 6550TIP3    H119614   0.845   3.437   5.380  0.1230  0.6610  0.3918
 6550TIP3    H219615   0.708   3.451   5.443 -0.1812 -0.0931 -0.0910
 6551TIP3   OH219616   2.263   1.220   0.357  0.4733  0.0275  0.6215
 6551TIP3    H119617   2.281   1.134   0.318  3.5226  0.6581  0.4279
 6551TIP3    H219618   2.285   1.209   0.450 -0.9222  0.1662  0.9984
 6552TIP3   OH219619   3.448   5.625   4.344  0.0863  0.7371 -0.0422
 6552TIP3    H119620   3.509   5.687   4.385 -1.0463  0.9681  1.3949
 6552TIP3    H219621   3.504   5.556   4.309  1.2799  1.8309 -0.3702
 6553TIP3   OH219622   0.755   5.702   2.584 -0.1107  0.0910  0.0910
 6553TIP3    H119623   0.752   5.619   2.631 -0.4111 -0.0444 -0.1690
 6553TIP3    H219624   0.740   5.768   2.651 -1.2508 -0.1400  0.0772
 6554TIP3   OH219625   0.232   3.682   2.362  0.4111  0.3012 -0.0723
 6554TIP3    H119626   0.295   3.617   2.394 -0.0689  0.4621  1.2458
 6554TIP3    H219627   0.257   3.763   2.405  0.0362  0.6387 -0.4806
 6555TIP3   OH219628   1.161   5.064   5.150  0.3119  0.7896  0.1565
 6555TIP3    H119629   1.227   5.084   5.084  1.9211 -0.5467  1.2574
 6555TIP3    H219630   1.209   5.068   5.233 -0.3370 -2.4362  0.8323
 6556TIP3   OH219631   6.903   6.728   1.527  0.3488 -0.2270  0.4252
 6556TIP3    H119632   6.966   6.661   1.501 -0.6208 -0.6359 -0.9361
 6556TIP3    H219633   6.856   6.690   1.601  0.9628 -0.3424  0.7638
 6557TIP3   OH219634   0.020   3.021   4.265 -0.2775  0.1018  0.1783
 6557TIP3    H119635   0.022   3.115   4.247  1.5225  0.1494  0.4031
 6557TIP3    H219636   0.031   3.015   4.360  2.2228 -0.3234 -0.0611
 6558TIP3   OH219637   5.937   3.723   2.758  0.2024  0.2129 -0.2911
 6558TIP3    H119638   5.998   3.719   2.684  1.8183 -0.4358  1.0180
 6558TIP3    H219639   5.969   3.795   2.812 -0.0178 -0.2976  0.5412
 6559TIP3   OH219640   0.664   6.220   2.305  0.5720 -0.0673 -0.2329
 6559TIP3    H119641   0.744   6.180   2.338 -0.1841 -1.4834 -0.0284
 6559TIP3    H219642   0.594   6.167   2.344 -0.4226  0.2829 -1.4979
 6560TIP3   OH219643   6.981   6.287   1.212 -0.4340  0.1875  0.0478
 6560TIP3    H119644   6.939   6.202   1.199 -3.1650  1.3835  0.2000
 6560TIP3    H219645   6.994   6.293   1.306 -5.0290  1.7582  0.8728
 6561TIP3   OH219646   5.347   5.495   4.993  0.1990  0.1228  0.6928
 6561TIP3    H119647   5.366   5.508   4.900  0.7861  0.6264  0.8784
 6561TIP3    H219648   5.266   5.545   5.008  0.9746  1.3919  0.7978
 6562TIP3   OH219649   1.988   4.932   2.622  0.2440 -0.1540  0.3615
 6562TIP3    H119650   1.969   5.017   2.584  0.3976 -0.6530 -0.8802
 6562TIP3    H219651   2.070   4.944   2.669 -0.2358  0.6158  1.0076
 6563TIP3   OH219652   5.508   2.565   3.450  0.5977 -0.2074 -0.2949
 6563TIP3    H119653   5.563   2.642   3.466  0.3215  0.0487 -0.5676
 6563TIP3    H219654   5.551   2.494   3.499  0.0028  0.4608  1.2754
 6564TIP3   OH219655   4.971   5.757   2.095  0.0124  0.1610 -0.5392
 6564TIP3    H119656   4.880   5.759   2.126  0.7393  0.7037  1.7529
 6564TIP3    H219657   4.972   5.687   2.029 -1.4368 -2.0635  1.5982
 6565TIP3   OH219658   0.111   2.995   2.455 -0.0964 -0.7713 -0.3698
 6565TIP3    H119659   0.193   3.028   2.419 -0.1424  0.6469  0.7305
 6565TIP3    H219660   0.071   2.947   2.383  0.1334  1.3450 -2.0191
 6566TIP3   OH219661   0.256   1.574   4.195 -0.1970  0.4076  0.5964
 6566TIP3    H119662   0.167   1.548   4.173  0.0837  0.2557 -0.4340
 6566TIP3    H219663   0.271   1.538   4.282 -0.8500 -0.3048  0.4226
 6567TIP3   OH219664   1.360   0.490   0.843  0.0612 -0.2660  0.1967
 6567TIP3    H119665   1.308   0.436   0.784  1.3053 -1.3997  0.1013
 6567TIP3    H219666   1.307   0.495   0.923 -0.5623 -0.7002 -0.1799
 6568TIP3   OH219667   2.487   3.422   4.601  0.4379 -0.0542  0.2958
 6568TIP3    H119668   2.440   3.370   4.535  0.2418  0.4888  0.0079
 6568TIP3    H219669   2.566   3.450   4.556  0.3701  0.2009  0.3381
 6569TIP3   OH219670   0.943   5.689   5.164 -0.8231 -0.3489 -0.9095
 6569TIP3    H119671   0.876   5.750   5.195  1.5926  4.3058 -3.7531
 6569TIP3    H219672   0.900   5.641   5.093 -2.0421  0.1304 -0.5223
 6570TIP3   OH219673   2.877   5.985   4.607  0.5918 -0.0459  0.1181
 6570TIP3    H119674   2.787   5.988   4.574  0.4301 -0.1440  0.5394
 6570TIP3    H219675   2.927   5.945   4.536  0.2160 -0.4306  0.0622
 6571TIP3   OH219676   3.870   0.381   5.710  0.6025 -0.4122  0.1338
 6571TIP3    H119677   3.890   0.474   5.709  0.5598 -0.4050 -0.6383
 6571TIP3    H219678   3.822   0.366   5.629 -2.1395 -0.5190  1.6631
 6572TIP3   OH219679   1.628   3.253   2.808  0.2004  0.0808  0.0705
 6572TIP3    H119680   1.578   3.274   2.887 -1.3584 -0.2202 -0.8000
 6572TIP3    H219681   1.624   3.332   2.755 -0.2908 -0.3000 -0.4740
 6573TIP3   OH219682   5.477   3.392   0.951  0.2789 -0.3220  0.0558
 6573TIP3    H119683   5.528   3.351   1.022 -0.4192 -0.7721  0.3013
 6573TIP3    H219684   5.466   3.323   0.886  3.3515  0.8173 -1.8896
 6574TIP3   OH219685   2.862   5.373   0.081  0.1194 -0.1931 -0.7992
 6574TIP3    H119686   2.803   5.444   0.107 -0.1139  0.0143 -1.8498
 6574TIP3    H219687   2.810   5.294   0.090  0.1380 -0.1610 -0.3642
 6575TIP3   OH219688   6.564   5.901   0.178 -0.2211 -0.4119  0.1139
 6575TIP3    H119689   6.552   5.850   0.258 -1.4416 -0.2570  0.0510
 6575TIP3    H219690   6.582   5.990   0.209  0.9342 -0.6726  0.2172
 6576TIP3   OH219691   6.041   2.586   1.287  0.4595 -0.3315 -0.4077
 6576TIP3    H119692   6.104   2.527   1.246 -0.5533 -1.6153 -0.1917
 6576TIP3    H219693   6.045   2.564   1.381 -1.0808 -1.2383 -0.5224
 6577TIP3   OH219694   3.031   1.346   4.424  0.4326  0.0423 -0.9265
 6577TIP3    H119695   3.088   1.413   4.388 -0.1859  0.8333 -0.4516
 6577TIP3    H219696   2.958   1.394   4.463  0.0591 -0.8915 -0.4398
 6578TIP3   OH219697   5.809   4.666   3.431  0.1469  0.2236 -0.4161
 6578TIP3    H119698   5.855   4.587   3.404  0.2356  0.4719 -0.9990
 6578TIP3    H219699   5.847   4.687   3.517  0.5975  0.0115 -0.5607
 6579TIP3   OH219700   4.373   6.247   3.000 -0.3188  0.0986  0.2183
 6579TIP3    H119701   4.386   6.319   3.061  1.7916 -0.5264  0.5748
 6579TIP3    H219702   4.386   6.286   2.913  0.5638  0.2102  0.3957
 6580TIP3   OH219703   1.068   6.442   3.832 -0.6689 -0.1956  0.0102
 6580TIP3    H119704   1.043   6.355   3.865  2.3217 -0.7057  1.2832
 6580TIP3    H219705   1.085   6.494   3.910 -0.4544  0.9032 -0.7434
 6581TIP3   OH219706   5.604   5.495   3.653  0.2099 -0.8868  0.0724
 6581TIP3    H119707   5.563   5.581   3.654  0.0727 -0.9022  2.1929
 6581TIP3    H219708   5.531   5.433   3.657  0.3248 -1.0866 -0.8132
 6582TIP3   OH219709   5.626   1.215   0.017 -0.3112  0.8800  0.3490
 6582TIP3    H119710   5.674   1.298   0.012  0.8764  0.1340 -2.9483
 6582TIP3    H219711   5.694   1.149   0.028 -0.6751 -0.0160 -2.2184
 6583TIP3   OH219712   1.631   1.886   2.336 -0.2002 -0.0685  0.3654
 6583TIP3    H119713   1.608   1.933   2.416  0.3790  1.6767 -0.4539
 6583TIP3    H219714   1.715   1.844   2.357 -1.1649 -1.6057  1.4061
 6584TIP3   OH219715   6.683   1.788   1.747  0.4608  0.2858  0.2334
 6584TIP3    H119716   6.679   1.729   1.671 -2.1201 -0.8624  1.1398
 6584TIP3    H219717   6.603   1.841   1.741  0.4956  0.5773  1.8277
 6585TIP3   OH219718   1.345   0.562   2.232 -0.0284 -0.6848 -0.0417
 6585TIP3    H119719   1.353   0.626   2.302  1.6038 -1.1164  0.2021
 6585TIP3    H219720   1.319   0.613   2.155  1.1611  0.2667  0.1727
 6586TIP3   OH219721   6.871   2.236   4.809  0.5004  0.1369  0.5587
 6586TIP3    H119722   6.796   2.180   4.828 -1.8928  2.9117  0.0408
 6586TIP3    H219723   6.834   2.324   4.803  3.1234  1.2646 -3.4519
 6587TIP3   OH219724   0.969   5.679   3.764 -0.3539 -0.2635 -0.1039
 6587TIP3    H119725   1.019   5.636   3.694  2.4044 -1.3284  2.3260
 6587TIP3    H219726   0.955   5.768   3.732  1.1159 -0.6104 -1.8961
 6588TIP3   OH219727   1.609   0.273   1.294  0.6674  0.8132 -0.2213
 6588TIP3    H119728   1.594   0.277   1.388  0.0267 -0.2636 -0.2724
 6588TIP3    H219729   1.675   0.205   1.283 -1.1269 -0.9389 -0.7282
 6589TIP3   OH219730   6.706   6.005   1.866 -0.0783  0.1026 -0.1001
 6589TIP3    H119731   6.690   5.911   1.877  3.4864 -0.4529  1.8998
 6589TIP3    H219732   6.681   6.044   1.950 -0.2662  0.7347 -0.4442
 6590TIP3   OH219733   3.276   1.904   0.648 -0.4623 -0.0777 -0.5453
 6590TIP3    H119734   3.216   1.882   0.719  1.1570 -0.4543  0.7341
 6590TIP3    H219735   3.362   1.906   0.688  0.5779 -0.8207 -2.5924
 6591TIP3   OH219736   6.364   1.365   1.487 -0.4683 -0.7013  0.1404
 6591TIP3    H119737   6.352   1.388   1.579 -3.6051  0.0814 -0.3187
 6591TIP3    H219738   6.404   1.279   1.488 -0.7778 -0.8558  2.2524
 6592TIP3   OH219739   3.764   5.849   4.167 -0.1279 -0.3271 -0.0829
 6592TIP3    H119740   3.854   5.860   4.196 -0.6130  0.2861  1.2465
 6592TIP3    H219741   3.766   5.867   4.073  1.0987 -0.1822 -0.0331
 6593TIP3   OH219742   5.412   2.161   2.759 -0.4563  0.4018  0.4490
 6593TIP3    H119743   5.411   2.066   2.763  1.6846  0.3583  2.2985
 6593TIP3    H219744   5.332   2.189   2.803 -0.6643 -0.5393  0.6745
 6594TIP3   OH219745   3.308   6.365   5.853 -0.6061 -0.1405  0.1615
 6594TIP3    H119746   3.383   6.327   5.900 -0.8404 -0.7707  0.0323
 6594TIP3    H219747   3.289   6.302   5.783 -0.6088  0.5275 -0.4392
 6595TIP3   OH219748   3.247   1.558   4.821  0.4910 -0.3162 -0.2592
 6595TIP3    H119749   3.337   1.563   4.790  0.4377 -0.0502 -0.3703
 6595TIP3    H219750   3.247   1.606   4.903 -0.3272  2.9821 -2.0117
 6596TIP3   OH219751   3.715   0.922   5.361  0.1304 -0.1121  0.0040
 6596TIP3    H119752   3.746   0.936   5.272  2.5931  1.8063  1.0562
 6596TIP3    H219753   3.620   0.911   5.352  0.5385 -2.0587 -2.9995
 6597TIP3   OH219754   2.516   3.079   4.204 -0.0011 -0.0951  0.2322
 6597TIP3    H119755   2.456   3.006   4.196 -1.4908  1.2832 -3.0516
 6597TIP3    H219756   2.585   3.048   4.263 -0.7046 -3.9540 -0.7522
 6598TIP3   OH219757   2.332   3.746   5.334  0.0498 -0.4280 -0.8058
 6598TIP3    H119758   2.266   3.805   5.296  0.0282 -1.2065 -2.0563
 6598TIP3    H219759   2.390   3.725   5.260  0.9908 -0.7089 -0.0054
 6599TIP3   OH219760   2.195   2.659   0.150  0.1747 -0.1239 -0.6903
 6599TIP3    H119761   2.153   2.705   0.078  0.1001 -0.8585 -1.1270
 6599TIP3    H219762   2.123   2.618   0.198  0.2434  0.1612 -0.3390
 6600TIP3   OH219763   7.051   1.431   4.234  0.2413 -0.4160  0.0127
 6600TIP3    H119764   7.020   1.513   4.272  0.2269 -0.6701  0.5549
 6600TIP3    H219765   7.111   1.395   4.299 -0.3337 -1.2098  0.1108
 6601TIP3   OH219766   3.695   3.181   0.984  0.1455  0.1725 -0.0593
 6601TIP3    H119767   3.717   3.109   0.925 -0.0509  0.5842 -0.6488
 6601TIP3    H219768   3.701   3.143   1.072 -0.0999 -0.5979 -0.3679
 6602TIP3   OH219769   5.491   6.425   5.728  0.2080 -0.4707 -0.1727
 6602TIP3    H119770   5.450   6.507   5.701  1.2426  0.9129  2.1665
 6602TIP3    H219771   5.418   6.365   5.741 -0.8858  1.0718  1.1639
 6603TIP3   OH219772   4.308   0.691   4.856 -0.3869  0.0136  0.0026
 6603TIP3    H119773   4.233   0.685   4.916  0.5778 -0.3844  1.2008
 6603TIP3    H219774   4.319   0.602   4.822 -0.3120  0.0151  0.0222
 6604TIP3   OH219775   2.989   1.702   1.715  0.9401  0.2150 -1.1443
 6604TIP3    H119776   2.928   1.671   1.649  1.0874 -1.7778 -0.4099
 6604TIP3    H219777   2.977   1.643   1.789 -0.0348  3.0383  1.1241
 6605TIP3   OH219778   4.893   4.072   2.686 -0.2568  0.3636  0.1492
 6605TIP3    H119779   4.925   4.161   2.704 -1.0220  0.8692 -0.8655
 6605TIP3    H219780   4.870   4.074   2.594  0.1065 -1.0370  0.0166
 6606TIP3   OH219781   1.063   1.692   1.792 -0.3591 -0.1586  0.1689
 6606TIP3    H119782   1.036   1.601   1.786  1.4340 -0.6792 -0.7766
 6606TIP3    H219783   1.059   1.724   1.702  0.5218  0.2124  0.2515
 6607TIP3   OH219784   5.436   1.438   1.946  0.1925 -0.6899 -0.4420
 6607TIP3    H119785   5.505   1.450   2.011  1.3382  0.7122 -1.8353
 6607TIP3    H219786   5.357   1.474   1.988  1.0211  0.6967  0.0088
 6608TIP3   OH219787   2.244   4.942   0.271  0.0689 -0.0983  0.6214
 6608TIP3    H119788   2.158   4.966   0.237  0.9218  1.8796 -0.2704
 6608TIP3    H219789   2.247   4.981   0.358  1.2763  2.9290 -0.6488
 6609TIP3   OH219790   4.596   5.453   5.468 -0.5293 -0.2790 -0.7854
 6609TIP3    H119791   4.567   5.441   5.378 -2.3651 -2.9133  0.0219
 6609TIP3    H219792   4.642   5.537   5.468  0.4020 -0.6242 -4.3457
 6610TIP3   OH219793   3.384   0.342   2.361  0.9365 -0.0654 -0.3278
 6610TIP3    H119794   3.456   0.282   2.376 -0.5675 -1.8954 -0.0657
 6610TIP3    H219795   3.377   0.346   2.265  0.1651 -1.4829 -0.3594
 6611TIP3   OH219796   5.853   5.012   1.714  0.6534 -0.1934  0.3592
 6611TIP3    H119797   5.931   4.957   1.706  0.1330 -1.1687  1.6678
 6611TIP3    H219798   5.780   4.950   1.708 -0.1534  0.8681 -2.4834
 6612TIP3   OH219799   4.088   0.537   0.618 -0.4098  0.3517  0.0595
 6612TIP3    H119800   4.065   0.603   0.683  2.6786  1.4387  0.2371
 6612TIP3    H219801   4.033   0.558   0.542 -2.4969  0.4266  1.5096
 6613TIP3   OH219802   5.846   5.254   3.894  0.7252 -0.0254 -0.7956
 6613TIP3    H119803   5.798   5.237   3.813  2.7921 -0.4871 -2.0031
 6613TIP3    H219804   5.835   5.348   3.910 -0.8891 -0.1955 -0.7758
 6614TIP3   OH219805   3.492   3.001   4.811  0.3989  0.1580 -0.0985
 6614TIP3    H119806   3.554   3.067   4.843  0.4814 -1.4121  3.5191
 6614TIP3    H219807   3.523   2.919   4.850 -4.1240 -0.6591  2.5192
 6615TIP3   OH219808   5.190   2.071   0.591 -0.1026 -0.0998 -0.2022
 6615TIP3    H119809   5.119   2.117   0.547  0.2929  0.0314 -0.7189
 6615TIP3    H219810   5.199   1.989   0.543 -0.5804 -0.5779  0.5051
 6616TIP3   OH219811   1.496   1.393   2.578  0.2051  0.0005 -0.1993
 6616TIP3    H119812   1.434   1.448   2.625  1.2612 -0.0013  1.2380
 6616TIP3    H219813   1.507   1.438   2.494 -0.6964  0.7220  0.0399
 6617TIP3   OH219814   4.896   1.567   1.455  0.5660 -0.0950 -0.3160
 6617TIP3    H119815   4.843   1.493   1.425  0.7864 -0.1902 -0.4762
 6617TIP3    H219816   4.834   1.625   1.499  0.3744 -0.3307 -0.2730
 6618TIP3   OH219817   0.662   1.359   2.957  0.1627 -0.1866 -0.2765
 6618TIP3    H119818   0.680   1.443   2.999  1.0334 -0.5381  0.0868
 6618TIP3    H219819   0.614   1.381   2.877 -1.0753  0.5333  0.6245
 6619TIP3   OH219820   3.157   6.011   5.822 -0.3029  0.5468 -0.3981
 6619TIP3    H119821   3.173   6.066   5.745 -0.1650  0.6297 -0.3126
 6619TIP3    H219822   3.065   5.989   5.818  0.2011 -1.5632 -1.9919
 6620TIP3   OH219823   4.653   3.784   5.698 -0.7298 -0.3060  0.2862
 6620TIP3    H119824   4.601   3.793   5.778 -1.5371 -0.5016 -0.2055
 6620TIP3    H219825   4.715   3.714   5.718 -1.2813 -0.7320  0.5741
 6621TIP3   OH219826   1.684   1.677   1.580  0.1112 -0.4531 -0.7178
 6621TIP3    H119827   1.773   1.643   1.589  0.1646  0.0194  0.9049
 6621TIP3    H219828   1.693   1.752   1.522  0.9438  0.0905  0.0710
 6622TIP3   OH219829   0.708   3.586   0.444 -0.1876  0.1550  0.1074
 6622TIP3    H119830   0.756   3.538   0.375 -0.9106 -0.0438 -0.2747
 6622TIP3    H219831   0.736   3.677   0.434 -1.1041  0.3299 -1.2031
 6623TIP3   OH219832   3.632   6.531   0.254 -0.7040 -0.2601 -0.3980
 6623TIP3    H119833   3.646   6.499   0.343  1.5514 -0.8772 -0.9203
 6623TIP3    H219834   3.644   6.626   0.261 -0.6986 -0.2863 -0.0217
 6624TIP3   OH219835   6.478   2.951   0.994  0.2631 -0.0340  0.2413
 6624TIP3    H119836   6.556   2.940   1.049  0.1078 -1.2410  0.2388
 6624TIP3    H219837   6.409   2.978   1.055  0.6180  0.8226  0.2777
 6625TIP3   OH219838   3.083   0.393   5.402 -0.4528  0.0952 -0.6177
 6625TIP3    H119839   3.096   0.484   5.430  1.0479  0.7363 -3.0392
 6625TIP3    H219840   3.156   0.346   5.442 -1.0361 -0.0032  0.3608
 6626TIP3   OH219841   3.757   2.725   1.981 -0.3673  0.5498 -0.0581
 6626TIP3    H119842   3.745   2.693   2.071  2.1076  0.2605  0.2482
 6626TIP3    H219843   3.770   2.646   1.929 -1.1808  0.7475 -0.5695
 6627TIP3   OH219844   4.557   4.811   3.503  0.0453 -0.3656 -0.2633
 6627TIP3    H119845   4.598   4.784   3.585  1.2780  0.5842 -0.5223
 6627TIP3    H219846   4.630   4.817   3.441 -0.3980  1.7350 -0.6676
 6628TIP3   OH219847   3.348   3.117   0.937 -0.1842  0.1330 -0.0024
 6628TIP3    H119848   3.342   3.045   0.874  0.4778 -0.7188  0.8764
 6628TIP3    H219849   3.274   3.103   0.996  1.9470 -2.0969  2.4054
 6629TIP3   OH219850   1.977   3.917   3.041 -0.5313 -0.2802  0.5233
 6629TIP3    H119851   2.070   3.900   3.059 -0.6327 -2.5175 -0.6665
 6629TIP3    H219852   1.965   3.895   2.949 -2.4568 -1.2833  0.9385
 6630TIP3   OH219853   0.433   1.396   5.697 -0.0340 -0.1709 -0.5001
 6630TIP3    H119854   0.374   1.427   5.627 -0.0261 -1.5410 -1.1313
 6630TIP3    H219855   0.432   1.301   5.689  0.9701 -0.2876  0.5685
 6631TIP3   OH219856   3.706   4.347   3.082  0.3087 -0.1422  0.5908
 6631TIP3    H119857   3.650   4.419   3.110  0.7253 -0.2858  1.8561
 6631TIP3    H219858   3.759   4.383   3.011 -0.0825  0.5344  0.6391
 6632TIP3   OH219859   7.196   2.727   2.831 -0.0256  0.1799  0.4618
 6632TIP3    H119860   7.115   2.745   2.784 -0.3389 -1.9520  0.0699
 6632TIP3    H219861   7.253   2.686   2.766  0.7351  0.0997  1.1565
 6633TIP3   OH219862   4.832   0.542   2.289 -0.8721 -0.1038  0.1100
 6633TIP3    H119863   4.833   0.552   2.384 -0.0729  0.6525  0.0390
 6633TIP3    H219864   4.923   0.558   2.263 -1.3515  1.1704 -0.9060
 6634TIP3   OH219865   4.538   1.119   5.696 -0.1297  0.6023  0.1640
 6634TIP3    H119866   4.582   1.075   5.623 -0.7182 -2.4927  1.5150
 6634TIP3    H219867   4.608   1.137   5.759 -0.1186 -0.0434  0.3417
 6635TIP3   OH219868   4.291   6.541   0.143 -0.1746  0.3959  0.1476
 6635TIP3    H119869   4.322   6.512   0.229  2.6940  1.4549 -0.4167
 6635TIP3    H219870   4.300   6.463   0.087 -1.4770 -0.1282  0.6457
 6636TIP3   OH219871   3.801   0.790   3.036  0.2002 -0.1489  0.0724
 6636TIP3    H119872   3.807   0.880   3.067  1.8073 -0.2408  0.1176
 6636TIP3    H219873   3.853   0.739   3.098  1.7758 -0.6420 -1.5391
 6637TIP3   OH219874   4.238   3.934   5.657  0.7732  0.3311 -0.4171
 6637TIP3    H119875   4.334   3.929   5.647  1.1902  3.1046  1.1716
 6637TIP3    H219876   4.221   3.905   5.746 -0.4637 -3.7787 -1.7459
 6638TIP3   OH219877   4.932   4.933   0.119 -0.2380 -0.0891  0.2469
 6638TIP3    H119878   4.963   4.843   0.114 -1.0977 -0.3384 -1.1762
 6638TIP3    H219879   4.883   4.946   0.038  2.3396  2.5799 -1.0887
 6639TIP3   OH219880   7.198   1.423   4.908  0.2253  0.3561  0.0509
 6639TIP3    H119881   7.198   1.442   4.814 -0.8846  1.4160  0.2396
 6639TIP3    H219882   7.175   1.330   4.914 -1.3520  0.6782 -0.6840
 6640TIP3   OH219883   4.949   1.321   2.577 -0.1366 -0.2005 -0.0982
 6640TIP3    H119884   4.944   1.300   2.671 -1.4213  0.8367  0.0919
 6640TIP3    H219885   5.035   1.362   2.567 -0.0026 -0.2745  0.6429
 6641TIP3   OH219886   5.203   3.231   1.109  0.2717  0.1685 -0.0719
 6641TIP3    H119887   5.242   3.246   1.022  1.1450 -0.0362  0.2688
 6641TIP3    H219888   5.277   3.206   1.164 -0.2296  0.5829  0.8100
 6642TIP3   OH219889   5.342   6.586   4.245 -0.1516  0.0474 -0.2575
 6642TIP3    H119890   5.273   6.629   4.194  0.9299  0.8363 -1.0788
 6642TIP3    H219891   5.353   6.500   4.204 -1.4174 -0.5538  0.5898
 6643TIP3   OH219892   1.405   6.259   1.389  0.2124  0.6180  0.1784
 6643TIP3    H119893   1.476   6.308   1.431 -1.5577  3.1594  0.4097
 6643TIP3    H219894   1.328   6.279   1.441 -1.0498 -0.5063 -1.1772
 6644TIP3   OH219895   2.374   3.008   5.284  0.1391  0.0777 -0.5716
 6644TIP3    H119896   2.363   2.926   5.237  1.4917 -0.0323 -0.7241
 6644TIP3    H219897   2.320   3.071   5.236 -0.0172 -0.4583 -1.1074
 6645TIP3   OH219898   7.046   3.035   2.579 -0.4447  0.7278 -0.2195
 6645TIP3    H119899   6.971   2.980   2.554 -0.2952  0.0978  0.6715
 6645TIP3    H219900   7.114   3.013   2.515 -0.3109 -0.3079  0.2616
 6646TIP3   OH219901   1.578   0.788   2.119 -0.3494  0.2619 -0.0080
 6646TIP3    H119902   1.640   0.855   2.090 -0.7967  0.4410 -0.5607
 6646TIP3    H219903   1.628   0.735   2.181  0.4157  0.3065 -0.5729
 6647TIP3   OH219904   7.058   4.404   1.888 -0.2667 -0.3523 -0.4928
 6647TIP3    H119905   7.023   4.451   1.963  2.1400 -0.7400  0.9901
 6647TIP3    H219906   7.015   4.318   1.891 -0.6180 -0.1617  0.0739
 6648TIP3   OH219907   2.467   0.255   2.440 -0.3201 -0.5508 -0.6953
 6648TIP3    H119908   2.524   0.255   2.516 -1.2489 -0.5770  0.0151
 6648TIP3    H219909   2.486   0.337   2.395  0.7850 -0.8893 -0.8743
 6649TIP3   OH219910   3.680   2.894   1.785  0.6654 -0.5917 -0.1480
 6649TIP3    H119911   3.704   2.841   1.862  2.7165 -0.1441 -0.4122
 6649TIP3    H219912   3.622   2.962   1.820 -0.0729 -1.5786  0.6133
 6650TIP3   OH219913   5.650   6.070   3.204 -0.9760 -0.1070 -0.2411
 6650TIP3    H119914   5.595   6.051   3.128 -0.2057 -2.6527 -0.2539
 6650TIP3    H219915   5.606   6.027   3.277 -0.4725  0.2503  0.2831
 6651TIP3   OH219916   0.041   0.830   2.193  0.5560 -0.1483 -0.6246
 6651TIP3    H119917   0.035   0.747   2.241  0.2628  1.7399  2.9150
 6651TIP3    H219918   0.135   0.841   2.177  0.6765 -0.7556 -0.3642
 6652TIP3   OH219919   1.834   0.425   4.778 -0.0118  0.1073 -0.7527
 6652TIP3    H119920   1.788   0.501   4.742 -0.5587  0.3559  0.4255
 6652TIP3    H219921   1.870   0.380   4.701  0.5548  1.6919 -1.4668
 6653TIP3   OH219922   5.813   6.628   1.633  0.1176 -0.1584 -0.0419
 6653TIP3    H119923   5.835   6.551   1.580  0.1187 -0.2234  0.0528
 6653TIP3    H219924   5.788   6.695   1.569  0.6187 -0.0752 -0.1500
 6654TIP3   OH219925   3.946   3.811   0.075 -0.1260  0.3001  0.0132
 6654TIP3    H119926   3.991   3.738   0.117  0.6884  0.0340 -1.2714
 6654TIP3    H219927   3.858   3.777   0.056 -0.8711  0.7498  2.3226
 6655TIP3   OH219928   0.573   4.743   4.083 -0.1419 -0.4177  0.0581
 6655TIP3    H119929   0.503   4.690   4.122  1.8092 -3.2322 -0.0115
 6655TIP3    H219930   0.534   4.779   4.003 -2.4578  0.8536  1.6338
 6656TIP3   OH219931   1.583   3.777   2.011  0.0837 -0.8903  0.0924
 6656TIP3    H119932   1.560   3.687   1.987  2.7294 -0.9215 -3.2041
 6656TIP3    H219933   1.678   3.775   2.025  0.4869  1.5295 -1.5022
 6657TIP3   OH219934   4.387   3.795   1.736 -1.0037 -0.2803  0.2985
 6657TIP3    H119935   4.375   3.819   1.644  0.5023 -0.2002  0.0923
 6657TIP3    H219936   4.450   3.859   1.769 -2.0516  0.1377  1.6043
 6658TIP3   OH219937   7.201   5.446   4.690  0.0336  0.0485 -0.1255
 6658TIP3    H119938   7.191   5.434   4.596 -0.2906 -0.0359 -0.0807
 6658TIP3    H219939   7.125   5.403   4.729  0.7983 -1.0387  0.2498
 6659TIP3   OH219940   0.106   4.502   4.130 -0.2002 -0.2471  0.4078
 6659TIP3    H119941   0.092   4.583   4.081 -1.4084  0.8599  2.4506
 6659TIP3    H219942   0.023   4.487   4.175  0.9902 -0.9096  2.4922
 6660TIP3   OH219943   1.522   3.362   4.225 -0.0621 -1.3033 -0.5455
 6660TIP3    H119944   1.609   3.335   4.254 -0.4863 -1.8255  0.2967
 6660TIP3    H219945   1.466   3.286   4.244 -0.7037 -0.9744 -1.0633
 6661TIP3   OH219946   4.815   6.123   3.846 -0.3712  0.8149 -0.8388
 6661TIP3    H119947   4.794   6.115   3.753  0.4374 -2.0640 -0.8543
 6661TIP3    H219948   4.902   6.084   3.855 -1.4593 -1.3751  1.4668
 6662TIP3   OH219949   6.882   4.688   3.332  0.5592  0.5635  0.0761
 6662TIP3    H119950   6.929   4.611   3.365  0.0745  0.8027  1.3988
 6662TIP3    H219951   6.942   4.761   3.349 -0.0069  0.7889  1.1959
 6663TIP3   OH219952   0.366   5.766   3.978  0.4549  0.1761  0.1535
 6663TIP3    H119953   0.330   5.682   3.950  0.9517  0.3289 -0.9664
 6663TIP3    H219954   0.437   5.743   4.038  0.4481 -0.1938  0.0196
 6664TIP3   OH219955   1.268   3.873   4.720  0.6534  0.5314 -0.3524
 6664TIP3    H119956   1.306   3.838   4.800 -1.0601 -0.9506 -0.0982
 6664TIP3    H219957   1.304   3.961   4.712  1.6307  0.3517  1.5037
 6665TIP3   OH219958   1.365   1.278   3.718  0.6371  0.1488 -0.0749
 6665TIP3    H119959   1.376   1.218   3.645 -2.4930 -0.5117 -0.1375
 6665TIP3    H219960   1.354   1.221   3.795 -1.1760  0.5851  0.0457
 6666TIP3   OH219961   4.159   2.436   3.745 -0.0509 -0.4442 -0.3531
 6666TIP3    H119962   4.240   2.405   3.705  0.3796  0.0711  0.1075
 6666TIP3    H219963   4.178   2.440   3.839 -1.2872 -2.3507  0.0286
 6667TIP3   OH219964   5.610   5.538   0.462 -0.4723 -0.4036  0.0778
 6667TIP3    H119965   5.634   5.614   0.514 -1.9102 -0.5235  0.9645
 6667TIP3    H219966   5.672   5.470   0.487  0.5871  0.3380 -0.4491
 6668TIP3   OH219967   2.366   1.842   0.823 -0.4330  0.2685  0.2485
 6668TIP3    H119968   2.414   1.921   0.798 -2.0846  1.1222 -0.4072
 6668TIP3    H219969   2.350   1.797   0.740  0.6850 -0.9039  0.6390
 6669TIP3   OH219970   6.043   2.453   3.994  0.5539 -0.7890  0.1322
 6669TIP3    H119971   6.083   2.415   3.916  1.9108  0.6251  0.0857
 6669TIP3    H219972   5.978   2.515   3.960  0.8095 -0.5242  0.1187
 6670TIP3   OH219973   2.526   3.360   0.076  0.2091  0.2804 -0.1420
 6670TIP3    H119974   2.589   3.296   0.042 -1.7663 -0.5412 -2.5956
 6670TIP3    H219975   2.509   3.331   0.166  0.7612 -1.5713 -0.5770
 6671TIP3   OH219976   6.782   0.977   0.644 -0.2067 -0.3430  0.3245
 6671TIP3    H119977   6.723   1.020   0.705 -0.5159  2.0586 -1.5345
 6671TIP3    H219978   6.727   0.954   0.569  0.7785 -0.1735 -0.4655
 6672TIP3   OH219979   6.349   2.962   5.757 -0.3880 -0.0015  0.1487
 6672TIP3    H119980   6.409   2.965   5.683 -0.4868  1.1831  0.0919
 6672TIP3    H219981   6.355   2.872   5.789  0.0785 -0.3747 -0.9384
 6673TIP3   OH219982   4.795   1.293   4.750  0.5620  0.7533 -0.0046
 6673TIP3    H119983   4.868   1.270   4.807  0.8531  2.3160  0.2904
 6673TIP3    H219984   4.718   1.293   4.807  0.6839  1.2542  0.1637
 6674TIP3   OH219985   3.311   4.560   1.973  0.0528 -0.4014  0.0950
 6674TIP3    H119986   3.290   4.636   1.918 -3.5482  0.8244  2.8233
 6674TIP3    H219987   3.239   4.499   1.959  0.0195 -0.8554  2.0142
 6675TIP3   OH219988   2.528   6.628   1.203 -0.1772  0.3243 -0.0581
 6675TIP3    H119989   2.494   6.544   1.234  1.7481  0.1015  1.6825
 6675TIP3    H219990   2.560   6.610   1.115  0.6087 -0.9155  0.4548
 6676TIP3   OH219991   2.350   0.009   4.467  0.0066 -0.3570 -0.5279
 6676TIP3    H119992   2.256  -0.010   4.475  0.2556 -1.0904  1.1964
 6676TIP3    H219993   2.354   0.089   4.415 -1.4625 -1.2748 -2.1425
 6677TIP3   OH219994   0.934   1.888   0.591  0.1823  0.0177 -0.0478
 6677TIP3    H119995   1.008   1.948   0.599  0.0738 -0.0064  1.2849
 6677TIP3    H219996   0.917   1.883   0.497  1.1818  0.8608 -0.2847
 6678TIP3   OH219997   3.286   1.833   5.442  0.0854 -0.6283 -0.1676
 6678TIP3    H119998   3.243   1.886   5.509  1.3674 -0.7495  0.7917
 6678TIP3    H219999   3.218   1.817   5.376 -1.2817 -0.6971  1.2066
 6679TIP3   OH220000   1.889   2.543   3.008  0.0928 -0.0602  0.2623
 6679TIP3    H120001   1.862   2.554   3.099 -1.1350 -3.7209  0.4862
 6679TIP3    H220002   1.808   2.541   2.959  0.5706 -0.8568 -0.5181
 6680TIP3   OH220003   1.124   0.378   5.335  0.0581 -0.1781 -0.4085
 6680TIP3    H120004   1.127   0.286   5.361  2.6720  0.2850  1.2683
 6680TIP3    H220005   1.202   0.390   5.281 -0.5571  0.9527 -1.0824
 6681TIP3   OH220006   5.143   4.401   3.722 -0.2649  0.2759  0.0952
 6681TIP3    H120007   5.222   4.454   3.730  0.9275 -1.4200  0.1723
 6681TIP3    H220008   5.146   4.367   3.633  0.2684 -1.5041  0.7543
 6682TIP3   OH220009   4.811   5.030   2.808  0.2379 -0.0304 -0.5275
 6682TIP3    H120010   4.857   4.954   2.772  2.2615  1.4845 -1.2795
 6682TIP3    H220011   4.814   5.017   2.903  1.1708 -0.5576 -0.6147
 6683TIP3   OH220012   2.993   0.493   3.223  1.1174 -0.3838  0.1100
 6683TIP3    H120013   2.978   0.421   3.162  0.7384  0.1568 -0.4432
 6683TIP3    H220014   3.018   0.568   3.167  0.0822  0.3061  0.5485
 6684TIP3   OH220015   5.359   3.987   4.151 -0.0259 -0.0918  0.4680
 6684TIP3    H120016   5.270   4.017   4.171 -0.9868 -0.7349 -2.4176
 6684TIP3    H220017   5.415   4.046   4.201 -2.0266  0.7595  1.8628
 6685TIP3   OH220018   0.997   3.849   0.286 -0.0656  0.1018  0.4466
 6685TIP3    H120019   0.961   3.825   0.201  2.8767 -0.4442 -0.7819
 6685TIP3    H220020   0.993   3.944   0.289 -0.2982  0.1157 -0.2590
 6686TIP3   OH220021   0.874   4.571   5.508 -0.0266 -0.0984  0.3191
 6686TIP3    H120022   0.930   4.574   5.586  1.4962 -1.7206 -0.6210
 6686TIP3    H220023   0.894   4.652   5.461  0.4521  0.0150  0.7063
 6687TIP3   OH220024   0.972   1.888   4.461  0.2869 -0.0300  0.1316
 6687TIP3    H120025   0.955   1.795   4.451  2.7181 -0.3377 -2.5239
 6687TIP3    H220026   0.937   1.927   4.381  2.0009  0.8061 -0.2669
 6688TIP3   OH220027   0.939   6.094   4.172  0.1296  0.0245 -0.3939
 6688TIP3    H120028   0.929   6.177   4.218  2.2677  0.5566 -0.7803
 6688TIP3    H220029   0.869   6.039   4.207 -1.0131  1.7921  0.2655
 6689TIP3   OH220030   6.062   0.023   5.357 -0.6165  0.4171  0.1852
 6689TIP3    H120031   6.095   0.112   5.340 -2.1499  0.9889  0.0635
 6689TIP3    H220032   5.987   0.036   5.414 -1.5533 -0.7015 -0.7432
 6690TIP3   OH220033   0.733   0.373   4.932  0.2427  0.0153  0.4573
 6690TIP3    H120034   0.696   0.289   4.904 -2.1667  0.6467  1.5380
 6690TIP3    H220035   0.767   0.355   5.020  2.8448 -0.5859 -0.5587
 6691TIP3   OH220036   1.547   1.836   5.361 -0.4325  0.3480 -0.0906
 6691TIP3    H120037   1.466   1.789   5.340  1.2601 -2.6398 -0.5065
 6691TIP3    H220038   1.587   1.786   5.432  2.1481  0.2860 -1.4609
 6692TIP3   OH220039   2.463   0.233   0.631  0.4573  0.1801  0.0254
 6692TIP3    H120040   2.388   0.258   0.684 -1.0365  0.2305 -2.0072
 6692TIP3    H220041   2.469   0.138   0.641 -0.6288  0.0215 -0.6993
 6693TIP3   OH220042   2.246   3.191   0.642 -0.0048  0.1916  0.0699
 6693TIP3    H120043   2.204   3.117   0.686 -0.3031  0.1651 -0.2534
 6693TIP3    H220044   2.182   3.219   0.577  1.1744 -1.0038 -1.7043
 6694TIP3   OH220045   6.975   3.520   4.382  0.3580 -1.1726  0.0702
 6694TIP3    H120046   6.982   3.427   4.362 -1.4129 -1.0704 -1.2261
 6694TIP3    H220047   6.997   3.564   4.300 -1.9295 -0.5898 -0.2984
 6695TIP3   OH220048   5.239   3.771   5.137  0.6412  0.2557 -0.3864
 6695TIP3    H120049   5.152   3.774   5.178  0.7106 -0.6741 -0.1557
 6695TIP3    H220050   5.232   3.831   5.064  0.2443  1.2835  0.4682
 6696TIP3   OH220051   6.057   1.486   5.576  0.4295  0.2122  0.3252
 6696TIP3    H120052   5.966   1.466   5.600 -0.6653  2.1303 -1.8087
 6696TIP3    H220053   6.073   1.572   5.615  1.1802  0.0695  0.3289
 6697TIP3   OH220054   2.945   6.592   1.035  0.0230  0.0326  0.2682
 6697TIP3    H120055   2.936   6.528   0.965 -0.1582 -1.3458  1.4991
 6697TIP3    H220056   3.036   6.583   1.064  0.1483  0.7205  0.1101
 6698TIP3   OH220057   6.674   4.244   5.588 -0.1529  0.1142 -0.1327
 6698TIP3    H120058   6.612   4.311   5.616  0.0894 -0.4747  1.9686
 6698TIP3    H220059   6.627   4.161   5.601  0.7143 -0.2814  0.5638
 6699TIP3   OH220060   6.925   3.392   2.736 -0.6728  0.1541 -0.0791
 6699TIP3    H120061   6.996   3.328   2.736  0.0075  0.8821  0.5331
 6699TIP3    H220062   6.920   3.421   2.827  0.6677  2.7112 -0.7147
 6700TIP3   OH220063   1.900   2.779   1.431 -0.4758 -0.0850  0.0129
 6700TIP3    H120064   1.864   2.862   1.463  0.2463 -0.1552  1.0585
 6700TIP3    H220065   1.842   2.754   1.359 -0.8130  1.2295 -0.1957
 6701TIP3   OH220066   3.667   0.652   5.086 -0.0089  0.7910  0.1019
 6701TIP3    H120067   3.747   0.675   5.040 -0.0840  1.6456  0.3732
 6701TIP3    H220068   3.598   0.665   5.021  0.0473  0.2486 -0.0719
 6702TIP3   OH220069   2.922   5.070   1.237  0.1597  0.0038 -0.1150
 6702TIP3    H120070   2.978   5.088   1.161  0.7369 -2.7180 -0.4354
 6702TIP3    H220071   2.980   5.032   1.302 -0.6829  0.5999  1.0372
 6703TIP3   OH220072   0.134   4.045   2.639  0.0869 -0.2228  0.1806
 6703TIP3    H120073   0.075   4.118   2.621  0.4292 -0.0196 -0.1067
 6703TIP3    H220074   0.078   3.967   2.632 -0.2317 -0.0042  0.2870
 6704TIP3   OH220075   3.455   6.092   4.256  0.5098 -0.5365 -0.0516
 6704TIP3    H120076   3.513   6.016   4.247  0.1997 -0.8574  0.6393
 6704TIP3    H220077   3.367   6.055   4.257  0.4132 -0.3365  1.9676
 6705TIP3   OH220078   2.296   2.027   2.945  0.4322  0.8919  0.0448
 6705TIP3    H120079   2.309   1.943   2.901  0.2188  1.5352 -1.2677
 6705TIP3    H220080   2.384   2.055   2.970  0.7389  1.2543 -1.3729
 6706TIP3   OH220081   1.872   4.208   5.027 -0.0881  0.8175 -1.0716
 6706TIP3    H120082   1.880   4.116   5.002  2.6970  0.6394  0.0871
 6706TIP3    H220083   1.865   4.206   5.122  0.7926  1.8034 -0.9682
 6707TIP3   OH220084   1.785   3.752   3.707  0.4656 -0.0864  0.2037
 6707TIP3    H120085   1.776   3.845   3.729 -0.6906 -0.8310  3.3182
 6707TIP3    H220086   1.698   3.727   3.674  0.8833 -0.0372 -0.9971
 6708TIP3   OH220087   3.164   6.761   0.883 -0.1144 -0.6613  0.0465
 6708TIP3    H120088   3.150   6.848   0.920 -0.2701 -0.6460 -0.0490
 6708TIP3    H220089   3.084   6.742   0.834  0.5204 -0.2165 -1.1993
 6709TIP3   OH220090   2.295   4.746   5.694  1.1195 -0.0447  0.1273
 6709TIP3    H120091   2.353   4.817   5.665  1.1195  0.2986  0.9306
 6709TIP3    H220092   2.255   4.713   5.614  1.2532  0.7568 -0.2790
 6710TIP3   OH220093   0.500   5.153   3.014 -0.0239  0.2678 -0.3741
 6710TIP3    H120094   0.514   5.187   3.102 -0.6288  1.9124 -0.8760
 6710TIP3    H220095   0.581   5.107   2.992  0.2102  0.0235  0.9495
 6711TIP3   OH220096   1.789   4.862   5.698  0.3048  0.0559 -0.5875
 6711TIP3    H120097   1.868   4.868   5.644  0.5785  1.4547 -0.0676
 6711TIP3    H220098   1.718   4.854   5.634  0.9046 -2.6627 -1.0431
 6712TIP3   OH220099   2.392   1.732   4.567  0.6435  0.2024 -0.1847
 6712TIP3    H120100   2.306   1.735   4.610  1.2367  0.8123  1.0322
 6712TIP3    H220101   2.373   1.710   4.476 -0.8276  0.5630  0.0065
 6713TIP3   OH220102   6.445   1.541   3.570  0.2171  0.2866  0.5738
 6713TIP3    H120103   6.366   1.567   3.617 -0.7738  1.6061 -1.6235
 6713TIP3    H220104   6.441   1.590   3.487  1.2708 -2.6517 -1.3894
 6714TIP3   OH220105   3.845   1.649   0.265  0.5043  0.0541  0.2855
 6714TIP3    H120106   3.936   1.627   0.285  0.8386  0.2679 -0.8937
 6714TIP3    H220107   3.843   1.659   0.170 -0.6752  0.4262  0.3251
 6715TIP3   OH220108   2.300   3.944   1.629  0.3142 -0.1269  0.1920
 6715TIP3    H120109   2.314   3.886   1.555 -0.7830  0.2948 -0.3649
 6715TIP3    H220110   2.209   3.930   1.654  0.3873  0.4542  0.8290
 6716TIP3   OH220111   4.749   3.815   3.260  0.4948  0.7041  0.1278
 6716TIP3    H120112   4.663   3.823   3.219  0.6294 -0.7677 -0.4980
 6716TIP3    H220113   4.802   3.768   3.196  0.3305 -2.9036  2.3558
 6717TIP3   OH220114   6.753   3.654   4.484 -0.1134  0.1295 -0.1715
 6717TIP3    H120115   6.844   3.629   4.466 -0.5307 -1.1936 -0.5774
 6717TIP3    H220116   6.719   3.680   4.399  0.0343  1.1903  0.0822
 6718TIP3   OH220117   5.115   3.292   5.265 -0.3590  0.2638  0.1223
 6718TIP3    H120118   5.119   3.209   5.312 -0.1208  0.8973  1.2804
 6718TIP3    H220119   5.207   3.317   5.253 -0.4226  1.0993  1.1956
 6719TIP3   OH220120   5.928   4.332   2.052  0.2203 -0.0193  0.2872
 6719TIP3    H120121   6.012   4.343   2.096  0.7729  1.0969 -0.9805
 6719TIP3    H220122   5.892   4.251   2.089  2.8190 -1.7433 -0.6674
 6720TIP3   OH220123   6.864   1.029   5.624 -0.6922  0.2266  0.5388
 6720TIP3    H120124   6.781   1.009   5.581 -0.5787  0.6545  0.1093
 6720TIP3    H220125   6.859   1.122   5.644 -0.1966  0.3225  0.2388
 6721TIP3   OH220126   0.420   2.247   3.091  0.5218  0.0546 -0.8109
 6721TIP3    H120127   0.445   2.184   3.159 -1.3673 -1.1752 -1.1733
 6721TIP3    H220128   0.433   2.200   3.009  1.6916  1.1337 -1.2849
 6722TIP3   OH220129   5.753   4.111   5.850  0.2923  0.1867 -0.1818
 6722TIP3    H120130   5.672   4.161   5.837 -0.0888  0.1562  1.8247
 6722TIP3    H220131   5.748   4.040   5.787 -1.3177  0.1236 -0.0061
 6723TIP3   OH220132   1.987   0.343   3.070 -0.1705 -0.2694  0.0659
 6723TIP3    H120133   1.932   0.331   2.993 -0.3969  2.1260 -0.2454
 6723TIP3    H220134   2.048   0.413   3.045  1.2035 -0.9554  1.3360
 6724TIP3   OH220135   2.975   6.552   1.507  0.3606  0.2215  0.1099
 6724TIP3    H120136   3.047   6.589   1.558  0.2236  0.5177  0.0884
 6724TIP3    H220137   2.978   6.598   1.424 -0.6456  1.1612  0.5642
 6725TIP3   OH220138   2.505   4.419   4.921 -0.0111  0.3472 -0.0514
 6725TIP3    H120139   2.596   4.449   4.923  0.3672 -0.8139  0.6825
 6725TIP3    H220140   2.500   4.350   4.987 -1.7339  1.2295  0.8250
 6726TIP3   OH220141   6.895   3.837   0.262 -0.3865 -0.1632  0.0007
 6726TIP3    H120142   6.953   3.911   0.241  2.7322 -2.2514  0.6211
 6726TIP3    H220143   6.833   3.833   0.189  0.6230  1.8202 -1.0397
 6727TIP3   OH220144   1.920   2.931   3.762 -0.4186 -0.0728 -0.3238
 6727TIP3    H120145   1.990   2.925   3.697  0.0301  0.3905  0.1105
 6727TIP3    H220146   1.965   2.931   3.846 -0.7465  2.5442 -0.0604
 6728TIP3   OH220147   0.933   3.953   5.655 -0.1202 -0.2556  0.6840
 6728TIP3    H120148   0.965   3.878   5.605 -0.4196  0.4799 -0.6819
 6728TIP3    H220149   0.839   3.938   5.665 -0.1528 -0.1498  0.5474
 6729TIP3   OH220150   3.583   2.374   2.792 -0.2536 -0.4003  0.0793
 6729TIP3    H120151   3.556   2.436   2.860 -0.7981  1.9385 -2.0887
 6729TIP3    H220152   3.638   2.427   2.733 -0.9023 -1.9011 -1.9965
 6730TIP3   OH220153   0.491   3.378   0.425  0.1070 -0.5113 -0.3483
 6730TIP3    H120154   0.490   3.374   0.520  0.0321 -1.4615 -0.3861
 6730TIP3    H220155   0.574   3.423   0.405  0.0089 -0.0881  0.1606
 6731TIP3   OH220156   1.076   3.355   0.503  0.5136  0.0291 -0.3767
 6731TIP3    H120157   1.087   3.359   0.598  0.5965 -1.0609 -0.3302
 6731TIP3    H220158   1.018   3.429   0.482 -1.3407 -1.0288  0.8072
 6732TIP3   OH220159   0.343   0.019   3.243 -0.3099  0.2398  0.9673
 6732TIP3    H120160   0.261   0.052   3.279 -0.6750  1.3530 -0.7451
 6732TIP3    H220161   0.362   0.078   3.169  1.2072 -0.9410  0.3623
 6733TIP3   OH220162   6.706   5.227   0.548  0.1149  0.3057 -0.1660
 6733TIP3    H120163   6.714   5.168   0.623  0.8182 -0.6537 -0.9625
 6733TIP3    H220164   6.650   5.180   0.486 -0.0104  0.8458 -0.4713
 6734TIP3   OH220165   4.835   2.438   2.165  0.3523 -0.8433  0.0325
 6734TIP3    H120166   4.768   2.389   2.117  0.1443 -1.0579  0.5374
 6734TIP3    H220167   4.864   2.506   2.104 -2.5461  1.3056  0.8387
 6735TIP3   OH220168   0.582   0.667   1.276 -0.5976  0.5816  0.1534
 6735TIP3    H120169   0.578   0.673   1.180  0.1404  0.9988  0.1404
 6735TIP3    H220170   0.675   0.680   1.296 -0.9767  2.1301  1.0375
 6736TIP3   OH220171   4.580   3.377   1.927 -0.3489  0.1175 -0.2000
 6736TIP3    H120172   4.504   3.433   1.939 -1.3618 -1.4858  1.6658
 6736TIP3    H220173   4.560   3.324   1.850 -2.1518 -1.6342  1.3434
 6737TIP3   OH220174   6.675   4.340   4.277  0.4008 -0.1730 -0.6179
 6737TIP3    H120175   6.768   4.329   4.295  0.4828 -0.7960 -1.3641
 6737TIP3    H220176   6.671   4.360   4.183 -0.3077 -1.7258 -0.9488
 6738TIP3   OH220177   2.802   3.311   0.047 -0.4848  0.4585  0.3629
 6738TIP3    H120178   2.815   3.399   0.014 -0.8222  0.0429 -0.9172
 6738TIP3    H220179   2.848   3.310   0.131 -2.1754  2.4646  1.4082
 6739TIP3   OH220180   5.132   1.086   3.056  0.2151 -0.0729 -1.1297
 6739TIP3    H120181   5.064   1.138   3.098  1.0491  0.3734 -0.3092
 6739TIP3    H220182   5.086   1.010   3.021 -0.5197 -0.4351  0.5401
 6740TIP3   OH220183   4.445   1.314   2.605 -0.1034  0.2447 -0.5369
 6740TIP3    H120184   4.400   1.235   2.576 -0.1479 -0.0450  0.3068
 6740TIP3    H220185   4.420   1.380   2.541  1.7691 -0.9398 -2.6310
 6741TIP3   OH220186   2.678   3.518   0.599 -0.1077  0.3385  0.2411
 6741TIP3    H120187   2.745   3.452   0.615 -0.6056  0.1945  1.9712
 6741TIP3    H220188   2.595   3.471   0.608 -0.5286  0.3578 -2.5146
 6742TIP3   OH220189   1.207   2.453   4.911  0.0105 -0.2063 -0.6816
 6742TIP3    H120190   1.197   2.476   4.819  0.2191 -0.1596 -0.6924
 6742TIP3    H220191   1.301   2.438   4.923  0.2428  1.5329 -0.0639
 6743TIP3   OH220192   2.012   4.339   2.968  0.3127  0.2783  0.6843
 6743TIP3    H120193   2.092   4.287   2.977 -0.4962 -1.4186 -1.1739
 6743TIP3    H220194   2.041   4.430   2.978  2.2774 -0.3379  1.0839
 6744TIP3   OH220195   6.548   3.745   5.257  0.6750  0.4353  0.0941
 6744TIP3    H120196   6.474   3.723   5.201  0.7916 -0.6139  0.3296
 6744TIP3    H220197   6.521   3.719   5.345  1.7304 -1.0393  0.0170
 6745TIP3   OH220198   6.058   1.964   4.683 -0.5509  0.3642  0.2812
 6745TIP3    H120199   6.106   2.024   4.626  2.0193 -0.9190  0.9258
 6745TIP3    H220200   6.076   1.996   4.772  0.8518 -1.2285  0.6348
 6746TIP3   OH220201   3.470   0.971   2.210 -0.0445 -0.1478  0.0862
 6746TIP3    H120202   3.392   0.924   2.180  0.3660 -0.9569  0.2360
 6746TIP3    H220203   3.459   0.977   2.305  0.0934 -0.3202  0.1157
 6747TIP3   OH220204   2.160   6.627   1.523 -0.5366 -0.2344 -0.0498
 6747TIP3    H120205   2.196   6.541   1.546  1.2239  0.8457  1.5431
 6747TIP3    H220206   2.163   6.677   1.605 -0.1998  1.7850 -1.2282
 6748TIP3   OH220207   0.282   5.180   1.156 -0.5366  0.0754 -0.0839
 6748TIP3    H120208   0.225   5.207   1.227 -1.1658  0.5473 -0.7569
 6748TIP3    H220209   0.361   5.233   1.167 -0.3982 -0.2578  0.5841
 6749TIP3   OH220210   2.045   6.320   2.754  0.7048 -0.0191  0.1402
 6749TIP3    H120211   2.103   6.288   2.684  1.6655  0.8067  0.5310
 6749TIP3    H220212   2.053   6.416   2.749  0.8207  0.0461  1.3957
 6750TIP3   OH220213   2.851   2.177   3.210 -0.6946 -0.1206  0.4564
 6750TIP3    H120214   2.769   2.213   3.242 -0.5369  1.2411 -0.5914
 6750TIP3    H220215   2.833   2.083   3.197 -1.7899 -0.0152  1.1056
 6751TIP3   OH220216   4.751   4.146   5.075  0.0988  0.2578  0.1789
 6751TIP3    H120217   4.742   4.149   4.980  1.5322 -3.0576 -0.1868
 6751TIP3    H220218   4.836   4.104   5.090  0.5462  1.8987  2.9795
 6752TIP3   OH220219   6.778   2.857   2.489  0.5463 -0.2258  0.2112
 6752TIP3    H120220   6.865   2.868   2.450  0.7709  1.7307  1.1503
 6752TIP3    H220221   6.785   2.776   2.539  1.4047 -0.7998 -0.7931
 6753TIP3   OH220222   4.825   3.188   0.617  0.3530 -0.2917  0.1097
 6753TIP3    H120223   4.824   3.278   0.584  0.7401  0.0525  0.9938
 6753TIP3    H220224   4.830   3.198   0.712 -0.7374 -1.2557  0.2795
 6754TIP3   OH220225   0.114   1.527   0.245 -0.3914 -0.6588 -0.0275
 6754TIP3    H120226   0.155   1.480   0.317  0.3449 -0.3845 -0.2558
 6754TIP3    H220227   0.180   1.525   0.175  0.0720  1.5250  0.2768
 6755TIP3   OH220228   1.827   1.666   0.798  1.1160 -0.3494 -0.1274
 6755TIP3    H120229   1.833   1.572   0.784  0.0477 -0.2633 -1.3244
 6755TIP3    H220230   1.802   1.675   0.890 -1.8723 -1.3957 -0.7162
 6756TIP3   OH220231   4.172   5.785   2.901  0.0157 -0.8381 -0.7646
 6756TIP3    H120232   4.120   5.854   2.859 -0.1443 -0.1503  0.4957
 6756TIP3    H220233   4.116   5.751   2.970  1.1381 -0.2005  0.5164
 6757TIP3   OH220234   0.937   1.945   3.660  0.0767  0.1780  0.4631
 6757TIP3    H120235   0.932   1.925   3.566  0.5862 -0.1902  0.5089
 6757TIP3    H220236   0.933   2.041   3.663 -0.7844  0.1596  0.1297
 6758TIP3   OH220237   3.311   4.995   2.274  0.1670  0.6356 -0.4406
 6758TIP3    H120238   3.250   4.941   2.223  0.3148 -0.0743  0.1062
 6758TIP3    H220239   3.348   5.057   2.211 -1.3801  1.3170 -0.7030
 6759TIP3   OH220240   4.313   4.036   3.726  0.3264 -0.1949  0.1495
 6759TIP3    H120241   4.339   3.992   3.644  0.7967  0.0179  0.1817
 6759TIP3    H220242   4.287   4.123   3.699 -3.2788 -1.2634 -0.3086
 6760TIP3   OH220243   5.194   2.116   4.569  0.0835  0.0461 -0.3851
 6760TIP3    H120244   5.247   2.127   4.491 -0.2557  1.3068 -0.4590
 6760TIP3    H220245   5.107   2.094   4.536 -0.1454  0.9227 -0.3958
 6761TIP3   OH220246   4.794   3.655   0.823  0.6038 -0.4915  0.4448
 6761TIP3    H120247   4.764   3.700   0.902  4.7470  0.2379  1.8405
 6761TIP3    H220248   4.851   3.719   0.780  2.1612 -2.4840 -0.5897
 6762TIP3   OH220249   5.974   3.802   5.250  0.2310  0.3443 -0.8130
 6762TIP3    H120250   5.975   3.865   5.323  0.1220 -0.4377 -0.1163
 6762TIP3    H220251   5.949   3.719   5.291 -1.1017  0.1453 -1.9528
 6763TIP3   OH220252   4.389   3.317   5.331  0.4279  1.0429 -0.2190
 6763TIP3    H120253   4.479   3.286   5.339  0.2183  0.3802 -0.3548
 6763TIP3    H220254   4.386   3.359   5.245  0.2090 -0.3687 -0.9423
 6764TIP3   OH220255   5.885   0.063   1.691  0.8670 -0.0941  0.2540
 6764TIP3    H120256   5.943   0.138   1.700 -0.3231  1.3788 -3.0324
 6764TIP3    H220257   5.941  -0.006   1.654  0.8920  0.9527 -1.8016
 6765TIP3   OH220258   6.501   2.387   3.332  0.0466 -0.2628 -0.3635
 6765TIP3    H120259   6.452   2.322   3.383  0.1111  1.1596  1.6061
 6765TIP3    H220260   6.585   2.345   3.316  1.0029  0.1057  2.9681
 6766TIP3   OH220261   1.467   6.618   4.318  0.0157  0.0085  0.4988
 6766TIP3    H120262   1.518   6.606   4.238  0.7232 -1.1012  1.0928
 6766TIP3    H220263   1.492   6.705   4.349 -1.2074  1.0023 -1.1016
 6767TIP3   OH220264   5.072   5.859   5.290 -0.2331  0.4043 -0.6965
 6767TIP3    H120265   5.049   5.767   5.307 -2.7178  1.1587  0.4183
 6767TIP3    H220266   4.989   5.902   5.271  1.0820  2.1177 -3.1915
 6768TIP3   OH220267   7.053   3.696   3.448 -0.5063 -0.0141 -0.3524
 6768TIP3    H120268   7.081   3.724   3.535  0.9011  0.1152 -0.8261
 6768TIP3    H220269   7.115   3.738   3.388 -2.1824  0.8912 -1.5290
 6769TIP3   OH220270   3.220   5.110   0.276  0.4571  0.8241  0.3612
 6769TIP3    H120271   3.139   5.142   0.316  0.8920 -0.1138  2.1271
 6769TIP3    H220272   3.192   5.055   0.204 -0.4453  1.2298  0.3867
 6770TIP3   OH220273   5.129   4.800   1.786 -0.4913  0.4951 -0.5451
 6770TIP3    H120274   5.083   4.796   1.870 -0.9204 -0.6095 -0.8143
 6770TIP3    H220275   5.062   4.825   1.723 -0.0054  2.1042 -0.4744
 6771TIP3   OH220276   5.892   0.576   4.797 -0.7429  0.2457 -0.2679
 6771TIP3    H120277   5.887   0.527   4.880 -0.6122  1.0378  0.2171
 6771TIP3    H220278   5.957   0.528   4.745  1.7490  1.5906  1.3914
 6772TIP3   OH220279   3.854   0.958   0.021  0.5369 -0.5379  0.1626
 6772TIP3    H120280   3.778   0.933   0.075  0.7498  1.3062  1.4002
 6772TIP3    H220281   3.930   0.940   0.076  0.8425  0.1318 -0.0300
 6773TIP3   OH220282   7.011   4.811   2.074  0.7626  0.2435 -0.2081
 6773TIP3    H120283   7.093   4.859   2.087  0.7108  0.4110 -0.4920
 6773TIP3    H220284   7.037   4.719   2.072  1.0168  0.3244 -0.8340
 6774TIP3   OH220285   3.478   6.747   3.817  0.0998 -0.2963  0.0334
 6774TIP3    H120286   3.479   6.662   3.860  1.1942 -0.1576  0.3191
 6774TIP3    H220287   3.406   6.743   3.756 -0.6054 -1.0113  0.8874
 6775TIP3   OH220288   4.390   6.151   2.663  0.2332  0.3849 -0.4327
 6775TIP3    H120289   4.486   6.155   2.662  0.2167  0.8954 -0.0789
 6775TIP3    H220290   4.362   6.239   2.689 -0.2920 -0.2317  1.2132
 6776TIP3   OH220291   4.584   4.805   0.511  0.4139 -0.3457 -0.4878
 6776TIP3    H120292   4.606   4.722   0.468  0.6527 -1.2184  1.2427
 6776TIP3    H220293   4.574   4.867   0.438  0.8437 -1.7279 -1.7921
 6777TIP3   OH220294   1.859   5.624   4.009 -0.1121 -0.2440  0.2302
 6777TIP3    H120295   1.823   5.622   4.097 -1.0628  0.3683 -0.1300
 6777TIP3    H220296   1.824   5.545   3.967  0.8461 -0.8721  0.5757
 6778TIP3   OH220297   1.996   0.622   2.213  0.3773  0.1823  0.1995
 6778TIP3    H120298   1.962   0.644   2.126 -0.0607 -0.4511  0.2033
 6778TIP3    H220299   2.077   0.672   2.220  0.1922  0.5790 -0.3996
 6779TIP3   OH220300   4.086   6.109   1.946  0.5814  0.0681 -0.3335
 6779TIP3    H120301   4.066   6.016   1.937  1.6249 -0.3072  0.8383
 6779TIP3    H220302   4.008   6.154   1.914  0.7051 -1.1502 -2.5362
 6780TIP3   OH220303   6.814   2.334   2.100 -0.5156 -0.6156 -0.2010
 6780TIP3    H120304   6.904   2.364   2.111 -0.9045  0.0151  1.5341
 6780TIP3    H220305   6.823   2.244   2.066  0.8029 -1.0507  1.1862
 6781TIP3   OH220306   5.951   5.301   5.800 -0.3036  0.1997 -0.2370
 6781TIP3    H120307   5.979   5.324   5.711 -0.4583  1.6420  0.0599
 6781TIP3    H220308   6.031   5.271   5.843 -0.1584 -0.1692 -0.7664
 6782TIP3   OH220309   4.781   4.163   1.116  0.1970  0.5746  0.3097
 6782TIP3    H120310   4.764   4.129   1.028 -1.4084  1.4268  0.2606
 6782TIP3    H220311   4.876   4.154   1.127  0.1545 -1.6628 -0.5961
 6783TIP3   OH220312   6.954   3.017   3.023  0.8776  0.5932 -0.3213
 6783TIP3    H120313   6.867   2.983   3.000  0.4027  1.4241  0.1612
 6783TIP3    H220314   6.998   2.944   3.067 -0.1697  0.6217  0.8353
 6784TIP3   OH220315   5.203   4.931   5.773 -0.0091 -1.1725 -0.5329
 6784TIP3    H120316   5.126   4.988   5.776  0.7087 -0.2391  0.9268
 6784TIP3    H220317   5.201   4.894   5.685 -0.3152  1.3868 -1.7022
 6785TIP3   OH220318   1.104   5.646   1.090 -0.4097 -0.0377  0.0982
 6785TIP3    H120319   1.112   5.661   1.184  1.2840 -3.1374  0.5936
 6785TIP3    H220320   1.165   5.709   1.050 -1.2192  1.3713  1.0019
 6786TIP3   OH220321   3.314   0.183   0.679 -0.2905  0.5402 -0.0029
 6786TIP3    H120322   3.251   0.237   0.727 -1.3262 -0.5750 -0.0700
 6786TIP3    H220323   3.313   0.218   0.590  2.1552  3.0846  0.8075
 6787TIP3   OH220324   3.848   4.770   1.574 -0.0672 -0.4229  0.0892
 6787TIP3    H120325   3.801   4.854   1.571  1.3733  0.4084 -0.1952
 6787TIP3    H220326   3.831   4.731   1.488  0.4736  0.2892 -0.3557
 6788TIP3   OH220327   3.574   5.547   3.160 -0.8727 -0.0433  0.1883
 6788TIP3    H120328   3.547   5.606   3.231 -1.3971  0.1046 -0.1313
 6788TIP3    H220329   3.519   5.572   3.086 -0.1137  0.0069 -0.3674
 6789TIP3   OH220330   1.594   5.480   3.827  0.1620 -0.2190 -0.2063
 6789TIP3    H120331   1.574   5.399   3.874  0.8334 -0.5050 -0.4007
 6789TIP3    H220332   1.518   5.536   3.844  0.5048 -0.1940  1.4787
 6790TIP3   OH220333   3.220   4.835   0.932 -0.4607  0.0492 -0.3191
 6790TIP3    H120334   3.175   4.917   0.910  0.9313  0.7707 -0.5847
 6790TIP3    H220335   3.241   4.796   0.847 -0.0126  0.0454 -0.2084
 6791TIP3   OH220336   2.463   6.771   1.628 -0.2679  0.3044 -0.6891
 6791TIP3    H120337   2.493   6.728   1.709 -0.0222  1.4303 -0.1715
 6791TIP3    H220338   2.533   6.753   1.565 -0.4142 -0.4975 -0.6423
 6792TIP3   OH220339   3.754   1.511   4.661  0.2818 -0.0145 -0.2844
 6792TIP3    H120340   3.822   1.452   4.627  2.9697  2.0327  1.2327
 6792TIP3    H220341   3.748   1.489   4.754 -1.6924 -0.6010 -0.5102
 6793TIP3   OH220342   0.993   5.395   2.720 -0.3342 -0.2988 -0.0393
 6793TIP3    H120343   1.009   5.343   2.799 -0.2642 -0.5537 -0.2200
 6793TIP3    H220344   1.023   5.339   2.648  0.9694  0.4952 -0.1488
 6794TIP3   OH220345   7.041   4.106   1.363  0.3564  0.3044  0.6836
 6794TIP3    H120346   7.128   4.073   1.339 -0.0744 -1.5384  1.4545
 6794TIP3    H220347   6.996   4.030   1.400 -0.5368  1.9253  3.1642
 6795TIP3   OH220348   4.488   0.830   3.946 -0.2583 -0.2180  0.1535
 6795TIP3    H120349   4.548   0.773   3.898 -1.0728 -0.5777 -0.4546
 6795TIP3    H220350   4.426   0.769   3.987  0.9992 -0.0120  2.5496
 6796TIP3   OH220351   3.580   5.135   4.193  0.1370  0.1359 -0.5889
 6796TIP3    H120352   3.563   5.093   4.277  3.9176 -1.5142 -0.4723
 6796TIP3    H220353   3.535   5.080   4.128 -0.5892 -0.0996  0.1046
 6797TIP3   OH220354   1.864   4.024   3.758 -0.1825 -0.2025  0.1436
 6797TIP3    H120355   1.944   3.972   3.745 -1.2460 -2.0197  0.6175
 6797TIP3    H220356   1.874   4.061   3.846 -0.2312 -1.1199  0.5424
 6798TIP3   OH220357   5.112   1.807   1.616 -0.1713  0.5477  0.6049
 6798TIP3    H120358   5.029   1.793   1.570 -0.5777 -0.8141  1.7080
 6798TIP3    H220359   5.177   1.763   1.561 -0.9395 -2.9007  2.2445
 6799TIP3   OH220360   2.568   2.086   3.024  0.2269  0.0562  0.2146
 6799TIP3    H120361   2.590   2.003   3.068  2.0687  0.7720  0.7497
 6799TIP3    H220362   2.613   2.080   2.939 -0.1431  0.2630  0.0019
 6800TIP3   OH220363   0.947   3.707   5.508  0.0888  0.8006 -0.6503
 6800TIP3    H120364   1.009   3.696   5.435  0.8253 -2.5135  0.2819
 6800TIP3    H220365   0.882   3.637   5.495 -0.6354  1.1037  1.0398
 6801TIP3   OH220366   1.520   2.978   3.361 -0.4400  0.1476  0.2630
 6801TIP3    H120367   1.433   2.960   3.398  0.1318 -2.1822  0.6324
 6801TIP3    H220368   1.516   3.070   3.336 -2.9107  0.2044  0.5508
 6802TIP3   OH220369   3.032   3.246   0.783  0.5528 -0.0764  0.6055
 6802TIP3    H120370   3.081   3.212   0.858  0.5957  0.5181  0.8570
 6802TIP3    H220371   3.083   3.321   0.753  0.4439 -0.2078  0.0893
 6803TIP3   OH220372   6.511   6.700   5.725 -0.0672  0.9081 -0.0264
 6803TIP3    H120373   6.606   6.690   5.727 -0.2125 -0.8739 -0.5444
 6803TIP3    H220374   6.490   6.724   5.635 -0.2416 -0.7030 -0.4449
 6804TIP3   OH220375   2.927   3.630   5.811  0.2400 -0.0080 -0.0488
 6804TIP3    H120376   2.916   3.655   5.719 -0.5192  1.0848  0.3106
 6804TIP3    H220377   2.853   3.671   5.856  1.0050  0.1072  1.1648
 6805TIP3   OH220378   2.585   3.061   2.170 -0.0226 -0.1639 -0.4941
 6805TIP3    H120379   2.540   2.991   2.122  0.3237 -0.7914  0.0848
 6805TIP3    H220380   2.646   3.015   2.227  0.5832  0.6440 -0.4886
 6806TIP3   OH220381   5.145   0.195   3.872  0.2520 -0.4111  0.3989
 6806TIP3    H120382   5.058   0.229   3.849  0.4937  0.8589  1.2474
 6806TIP3    H220383   5.205   0.250   3.822  0.5946 -0.8815  0.2908
 6807TIP3   OH220384   3.001   6.702   2.639 -0.1735  0.2472 -0.3482
 6807TIP3    H120385   3.085   6.732   2.606  0.3240 -0.0268  0.6468
 6807TIP3    H220386   2.955   6.782   2.665  0.0119  0.3497 -0.3376
 6808TIP3   OH220387   0.213   5.495   0.449  0.0246 -0.1414  0.4663
 6808TIP3    H120388   0.211   5.439   0.526 -1.4680 -0.4833  0.2094
 6808TIP3    H220389   0.135   5.471   0.400 -0.0929  1.4307 -0.1728
 6809TIP3   OH220390   6.003  -0.016   0.331  0.0623  0.3551 -0.2518
 6809TIP3    H120391   5.916  -0.044   0.360  0.6700 -0.6800  0.6525
 6809TIP3    H220392   5.988   0.065   0.283 -1.4779 -0.1493 -0.6770
 6810TIP3   OH220393   6.283   3.255   5.227  0.3450 -0.0742 -0.3927
 6810TIP3    H120394   6.217   3.207   5.277  0.6527 -0.8588 -0.7287
 6810TIP3    H220395   6.238   3.334   5.197 -0.3253 -0.4161 -0.3016
 6811TIP3   OH220396   4.602   1.913   5.437  0.3302 -0.0997  0.7963
 6811TIP3    H120397   4.658   1.979   5.478 -2.3946  2.7680  0.2037
 6811TIP3    H220398   4.519   1.919   5.483 -0.6228 -1.7925 -0.5643
 6812TIP3   OH220399   2.996   0.523   5.791  0.3824  0.6502  0.1143
 6812TIP3    H120400   2.905   0.502   5.812  0.6136 -0.7410 -0.1593
 6812TIP3    H220401   3.022   0.588   5.856 -0.6727  0.7282  0.4687
 6813TIP3   OH220402   4.791   4.300   4.503 -0.0080 -0.0072  0.3274
 6813TIP3    H120403   4.875   4.264   4.533  0.8668 -0.5005 -2.4301
 6813TIP3    H220404   4.805   4.319   4.411 -2.4848  1.4350  0.1632
 6814TIP3   OH220405   4.686   6.586   5.441 -0.4619  0.2120  0.7636
 6814TIP3    H120406   4.750   6.534   5.490  1.0604  0.8333 -0.4478
 6814TIP3    H220407   4.710   6.677   5.460 -0.6697  0.4506 -0.0905
 6815TIP3   OH220408   0.146   0.139   4.281 -0.0286  0.1958  0.1296
 6815TIP3    H120409   0.087   0.087   4.335 -0.2244  1.1738  0.9089
 6815TIP3    H220410   0.099   0.221   4.266 -0.0129 -0.0722 -1.6367
 6816TIP3   OH220411   1.615   2.400   1.084 -0.2232 -0.0268 -0.0586
 6816TIP3    H120412   1.603   2.479   1.031 -0.6884 -0.3512 -0.4431
 6816TIP3    H220413   1.678   2.347   1.034 -0.9790 -0.5199 -0.5107
 6817TIP3   OH220414   2.601   1.867   1.434  0.0200  0.0849  1.1581
 6817TIP3    H120415   2.593   1.780   1.473 -0.1029  0.6443  2.4528
 6817TIP3    H220416   2.689   1.896   1.459  1.1039 -0.6690 -1.4847
 6818TIP3   OH220417   5.923   0.681   3.365  0.0346 -0.9914 -0.0301
 6818TIP3    H120418   5.964   0.713   3.285 -1.9063  1.9558  0.0148
 6818TIP3    H220419   5.987   0.697   3.434  0.3528 -0.2212 -0.4994
 6819TIP3   OH220420   4.485   5.640   2.891 -0.2722  0.0066 -0.7248
 6819TIP3    H120421   4.485   5.730   2.859  0.6326 -0.2743 -1.5373
 6819TIP3    H220422   4.541   5.592   2.831  1.7071 -0.5182  1.3834
 6820TIP3   OH220423   1.672   4.235   4.828  0.5647 -0.0615 -1.1887
 6820TIP3    H120424   1.717   4.236   4.912 -1.1048  1.4958 -0.2316
 6820TIP3    H220425   1.741   4.246   4.763  1.7612  0.0178  0.0560
 6821TIP3   OH220426   5.728   1.806   2.834  0.3095  0.6048 -0.2227
 6821TIP3    H120427   5.711   1.725   2.785 -0.3349 -0.3886  1.5361
 6821TIP3    H220428   5.756   1.869   2.768  1.6188 -1.2722 -1.5747
 6822TIP3   OH220429   0.929   6.171   3.887  0.0276 -0.2129 -0.4988
 6822TIP3    H120430   0.956   6.136   3.972  0.6431  2.0685  0.3459
 6822TIP3    H220431   0.837   6.195   3.899 -0.2176 -0.9495 -0.8702
 6823TIP3   OH220432   0.820   0.382   1.824 -0.6593 -0.3220 -0.2365
 6823TIP3    H120433   0.795   0.372   1.733 -2.5853 -1.1895  0.3363
 6823TIP3    H220434   0.772   0.314   1.870  0.5197 -0.1169  1.3987
 6824TIP3   OH220435   5.108   3.140   3.420 -0.0664  1.0146  0.1609
 6824TIP3    H120436   5.190   3.090   3.415 -0.6667  0.2013 -2.7755
 6824TIP3    H220437   5.050   3.099   3.357 -3.7495  0.0374  3.7542
 6825TIP3   OH220438   2.476   1.909   3.926  0.0733  0.0303  0.2061
 6825TIP3    H120439   2.546   1.857   3.965  0.4136  1.3808  1.4711
 6825TIP3    H220440   2.521   1.975   3.874 -0.2357  0.8023  0.8938
 6826TIP3   OH220441   3.806   4.726   4.797  0.0605  0.4735 -0.2518
 6826TIP3    H120442   3.804   4.675   4.716  1.6354  0.3402 -0.2459
 6826TIP3    H220443   3.886   4.697   4.842 -0.5454  0.8641  1.1451
 6827TIP3   OH220444   6.646   0.779   2.087  0.1560  0.0316 -0.3321
 6827TIP3    H120445   6.629   0.691   2.053 -1.5775  0.5903 -1.0186
 6827TIP3    H220446   6.588   0.787   2.163  0.3454  0.5635 -0.2415
 6828TIP3   OH220447   0.806   0.196   0.194  0.1978  0.4773  0.2804
 6828TIP3    H120448   0.807   0.223   0.285 -1.2884  1.5447  0.0106
 6828TIP3    H220449   0.887   0.233   0.157  1.1809 -0.5717  1.2791
 6829TIP3   OH220450   2.352   1.643   4.009 -0.2493  0.2906 -0.8352
 6829TIP3    H120451   2.391   1.665   4.094 -1.1276  0.8922 -0.5727
 6829TIP3    H220452   2.361   1.723   3.958  0.2377 -0.0586 -1.3042
 6830TIP3   OH220453   5.455   4.027   5.420  0.5404  0.3017 -0.4935
 6830TIP3    H120454   5.513   4.007   5.346  2.1302 -0.0001  0.7841
 6830TIP3    H220455   5.456   4.122   5.426  0.7285  0.3065 -0.6005
 6831TIP3   OH220456   6.996   0.362   3.880 -0.6013  0.1053 -0.2256
 6831TIP3    H120457   6.935   0.322   3.942 -0.5644  0.4663  0.0538
 6831TIP3    H220458   6.954   0.352   3.795 -1.8470  1.7702  0.1323
 6832TIP3   OH220459   5.501   5.286   0.208  0.5180  0.5844  0.6496
 6832TIP3    H120460   5.532   5.363   0.161  1.3286 -0.1228  0.0048
 6832TIP3    H220461   5.561   5.278   0.282  1.3594 -0.2699 -0.1057
 6833TIP3   OH220462   4.143   5.075   1.098 -0.5478  0.2398 -0.1846
 6833TIP3    H120463   4.195   5.120   1.032  1.6328 -0.4097  1.0142
 6833TIP3    H220464   4.171   5.113   1.181 -2.8188  0.6320  0.4695
 6834TIP3   OH220465   6.119   2.683   0.471 -0.0178 -0.2745 -0.9099
 6834TIP3    H120466   6.127   2.588   0.468  0.3878 -0.4292  2.0838
 6834TIP3    H220467   6.208   2.716   0.463  0.3218 -0.4058  1.5572
 6835TIP3   OH220468   0.992   0.696   5.572 -0.5224  0.1616 -0.5383
 6835TIP3    H120469   1.082   0.687   5.540 -0.3761 -0.5604  0.0766
 6835TIP3    H220470   0.939   0.655   5.504 -0.1892 -1.6269  0.2165
 6836TIP3   OH220471   4.293   3.484   1.006 -0.1649  0.2669  0.0747
 6836TIP3    H120472   4.291   3.542   1.083  2.7238 -0.1027  0.5512
 6836TIP3    H220473   4.267   3.541   0.933 -0.8089  1.2131  1.0066
 6837TIP3   OH220474   0.763   1.947   5.574 -0.9032 -0.1225  0.2730
 6837TIP3    H120475   0.690   2.001   5.606 -1.1898 -0.2731 -0.1143
 6837TIP3    H220476   0.827   2.010   5.541 -1.0681 -0.0052  0.1763
 6838TIP3   OH220477   3.838   5.046   5.735  0.3566  0.1914  0.3159
 6838TIP3    H120478   3.878   4.978   5.681  0.1267 -0.9736  1.5524
 6838TIP3    H220479   3.744   5.031   5.727  0.3219 -0.1419  1.1803
 6839TIP3   OH220480   5.831   0.284   4.107  0.3671 -0.1704 -0.5522
 6839TIP3    H120481   5.815   0.190   4.121  0.2500 -0.1003 -0.2231
 6839TIP3    H220482   5.855   0.290   4.014 -1.4220 -0.2882 -1.0533
 6840TIP3   OH220483   0.392   0.688   5.793  0.5295 -0.1065 -0.3176
 6840TIP3    H120484   0.455   0.710   5.862  1.3962 -0.8320 -0.8645
 6840TIP3    H220485   0.379   0.594   5.802 -1.8220  0.2552  0.8808
 6841TIP3   OH220486   3.859   6.172   1.826  0.9242 -0.3015 -0.1207
 6841TIP3    H120487   3.815   6.138   1.748  2.6792 -0.5039 -1.0600
 6841TIP3    H220488   3.791   6.172   1.893 -1.1142  1.4013 -2.0215
 6842TIP3   OH220489   5.270   5.420   1.718  0.5115 -0.2796 -0.1767
 6842TIP3    H120490   5.352   5.439   1.672 -1.1475  3.8903 -1.8927
 6842TIP3    H220491   5.215   5.377   1.653  0.0416  0.5716 -0.3607
 6843TIP3   OH220492   4.600   5.984   5.574  0.4118 -0.0522  0.4793
 6843TIP3    H120493   4.687   6.011   5.604  1.3598 -0.9680 -1.2719
 6843TIP3    H220494   4.549   6.065   5.574  1.6301  0.7459  0.3835
 6844TIP3   OH220495   5.319   0.223   2.787  0.1484  0.2228  0.4675
 6844TIP3    H120496   5.263   0.283   2.837 -0.3776  2.0555 -2.1405
 6844TIP3    H220497   5.353   0.276   2.715  1.3220 -2.1271 -0.8231
 6845TIP3   OH220498   3.876   2.265   5.620  0.3728  0.0854  0.3100
 6845TIP3    H120499   3.794   2.310   5.598  0.5675 -0.1405 -0.9508
 6845TIP3    H220500   3.866   2.241   5.712 -1.0391 -0.0724  0.1324
 6846TIP3   OH220501   3.337   6.155   4.912 -0.2512  0.2243  0.6937
 6846TIP3    H120502   3.271   6.091   4.886  1.6362 -1.3445 -0.5836
 6846TIP3    H220503   3.420   6.108   4.904  1.4664  3.3212 -2.2711
 6847TIP3   OH220504   5.579   6.038   5.568 -0.2169  0.3900 -0.2080
 6847TIP3    H120505   5.572   6.028   5.663 -2.4265  1.4961 -0.1885
 6847TIP3    H220506   5.563   6.131   5.552 -2.7914 -0.2341 -1.8153
 6848TIP3   OH220507   1.106   3.205   2.492  0.7044 -0.0014 -0.1838
 6848TIP3    H120508   1.081   3.139   2.427 -1.5060 -0.3445  0.9234
 6848TIP3    H220509   1.113   3.287   2.443  1.2740 -0.6511 -1.2046
 6849TIP3   OH220510   6.315   6.691   3.123 -0.1428  0.3631 -0.2173
 6849TIP3    H120511   6.226   6.674   3.093 -0.7960 -0.9311  2.2147
 6849TIP3    H220512   6.310   6.779   3.161 -1.0117 -0.5168  1.8481
 6850TIP3   OH220513   5.725   0.872   4.931  0.4292  0.5073 -0.3959
 6850TIP3    H120514   5.724   0.851   4.838 -0.6853  1.2750 -0.5693
 6850TIP3    H220515   5.803   0.927   4.943  1.0242 -0.2477 -0.7079
 6851TIP3   OH220516   2.659   4.145   0.954 -0.3190 -0.8319 -0.0251
 6851TIP3    H120517   2.648   4.240   0.943  0.8511 -0.4894  1.4239
 6851TIP3    H220518   2.689   4.135   1.044  0.6364 -2.4986 -0.4975
 6852TIP3   OH220519   3.010   5.306   4.393 -0.4069 -0.2004 -0.4292
 6852TIP3    H120520   3.073   5.234   4.402 -0.8677 -0.7343 -1.3783
 6852TIP3    H220521   3.063   5.385   4.403 -0.0137 -0.6403  1.4403
 6853TIP3   OH220522   1.469   2.019   4.070 -1.0219  0.0975  0.1481
 6853TIP3    H120523   1.410   2.019   4.145 -1.5900  0.0021 -0.2849
 6853TIP3    H220524   1.462   1.930   4.034  0.0362 -0.1679  0.5828
 6854TIP3   OH220525   1.369   4.588   1.925  0.3134 -0.1638  0.0023
 6854TIP3    H120526   1.289   4.602   1.875  0.2890  0.9024  0.3049
 6854TIP3    H220527   1.432   4.553   1.862 -0.4699 -1.2936 -0.1713
 6855TIP3   OH220528   6.476   0.295   0.316 -0.4934 -0.9548 -0.2608
 6855TIP3    H120529   6.453   0.327   0.229  0.8918 -2.4743 -1.2363
 6855TIP3    H220530   6.438   0.208   0.321 -0.3173 -0.9907  0.5594
 6856TIP3   OH220531   1.576   1.393   0.263  0.0737  0.2614 -0.7396
 6856TIP3    H120532   1.531   1.470   0.297 -2.2150  0.2085 -3.2901
 6856TIP3    H220533   1.596   1.414   0.172  0.5293 -1.6857 -1.1547
 6857TIP3   OH220534   0.528   5.980   4.674  0.1773  0.3173 -0.0671
 6857TIP3    H120535   0.568   5.981   4.761  2.9441 -2.5420 -1.1044
 6857TIP3    H220536   0.509   6.072   4.656  4.3363  1.7418  1.5917
 6858TIP3   OH220537   0.794   1.759   4.249  0.0560 -0.1217  0.3825
 6858TIP3    H120538   0.792   1.829   4.184 -0.0704 -0.7129 -0.2629
 6858TIP3    H220539   0.778   1.679   4.199  1.1831 -0.7291  0.9451
 6859TIP3   OH220540   2.691   3.546   4.464 -0.3011 -0.1929  0.6777
 6859TIP3    H120541   2.782   3.553   4.493  0.1118 -0.0285 -0.5788
 6859TIP3    H220542   2.697   3.520   4.372 -1.5993 -3.8858  1.4816
 6860TIP3   OH220543   0.667   5.449   2.685 -0.4666  0.3421 -0.3060
 6860TIP3    H120544   0.584   5.401   2.684  0.3023 -1.0381 -0.1436
 6860TIP3    H220545   0.723   5.401   2.624  0.5219  0.6878  0.3171
 6861TIP3   OH220546   3.358   0.345   4.919  0.1777 -0.0769 -0.3740
 6861TIP3    H120547   3.331   0.435   4.899 -0.4656  0.0761  1.0486
 6861TIP3    H220548   3.310   0.292   4.855 -0.7287  0.4796 -0.1814
 6862TIP3   OH220549   5.015   4.187   2.201 -0.2613  0.2336  0.6955
 6862TIP3    H120550   5.025   4.261   2.260 -1.3664  0.6558  0.3689
 6862TIP3    H220551   5.060   4.115   2.246  1.2825  1.1927  0.7787
 6863TIP3   OH220552   4.017   1.052   5.240 -0.5178  0.5136  0.1088
 6863TIP3    H120553   4.006   1.124   5.301  0.4039  0.0688  0.8120
 6863TIP3    H220554   3.951   1.068   5.172 -0.8598  1.5658  0.6735
 6864TIP3   OH220555   3.902   1.371   0.083  0.4413 -0.2729  0.3404
 6864TIP3    H120556   3.822   1.327   0.114  0.5363 -2.4539 -2.2022
 6864TIP3    H220557   3.971   1.305   0.093  2.0095  1.5481  2.4062
 6865TIP3   OH220558   7.146   0.908   5.288 -0.6733  0.3885  0.8601
 6865TIP3    H120559   7.062   0.863   5.296 -1.6775  2.3977  2.5224
 6865TIP3    H220560   7.203   0.865   5.352 -0.2565 -1.2233 -0.5287
 6866TIP3   OH220561   5.443   6.201   2.095  0.4521 -0.0354  0.0302
 6866TIP3    H120562   5.520   6.249   2.064 -0.5509  0.5286 -1.7086
 6866TIP3    H220563   5.386   6.268   2.133  0.5694 -0.3715  0.8147
 6867TIP3   OH220564   2.717   5.257   5.322 -0.1032 -0.2920  0.2329
 6867TIP3    H120565   2.674   5.338   5.294  2.7812  0.4449 -2.7099
 6867TIP3    H220566   2.695   5.194   5.253  0.8608 -0.8176  0.3913
 6868TIP3   OH220567   0.631   5.654   4.472  0.1620  0.1098 -0.3065
 6868TIP3    H120568   0.578   5.646   4.392  0.4716  0.4347 -0.5498
 6868TIP3    H220569   0.720   5.632   4.444  0.8248  2.8547 -0.7276
 6869TIP3   OH220570   2.008   2.239   2.225 -0.1335 -0.7040  0.0731
 6869TIP3    H120571   1.926   2.249   2.273 -0.0055 -0.8702  0.3240
 6869TIP3    H220572   1.984   2.256   2.133 -0.0748  1.1901  0.3641
 6870TIP3   OH220573   1.679   2.436   5.818 -0.0016  0.2603  0.4716
 6870TIP3    H120574   1.739   2.455   5.746  0.3953  0.9865  0.9756
 6870TIP3    H220575   1.645   2.522   5.844  0.9965  0.1926  2.1126
 6871TIP3   OH220576   6.832   2.046   3.097  0.6509  0.3296 -0.6075
 6871TIP3    H120577   6.918   2.087   3.098  0.0873  1.5416 -0.3415
 6871TIP3    H220578   6.803   2.048   3.188  0.1454  0.3603 -0.7647
 6872TIP3   OH220579   6.709   3.300   0.041 -0.3283  0.0091  0.1123
 6872TIP3    H120580   6.619   3.270   0.031 -0.5419  0.4898  0.4960
 6872TIP3    H220581   6.726   3.351  -0.038  0.5736 -2.3364 -1.3121
 6873TIP3   OH220582   6.355   2.482   3.082 -0.8635  1.0671  0.1264
 6873TIP3    H120583   6.413   2.416   3.121 -1.1285  0.3451 -0.6549
 6873TIP3    H220584   6.290   2.430   3.033 -1.4936  1.8945  0.0679
 6874TIP3   OH220585   6.784   0.870   1.877  0.3558  0.3036 -0.0746
 6874TIP3    H120586   6.715   0.911   1.825  0.1057 -1.9887 -1.7409
 6874TIP3    H220587   6.740   0.839   1.956  0.2127  1.7217  0.4220
 6875TIP3   OH220588   0.557   4.342   2.550  0.4483 -0.1174 -0.0473
 6875TIP3    H120589   0.547   4.437   2.554 -1.2587 -0.2126 -0.8830
 6875TIP3    H220590   0.502   4.309   2.621 -0.7142 -0.5061 -1.0761
 6876TIP3   OH220591   5.276   0.962   1.173  0.0356 -0.2353  0.0565
 6876TIP3    H120592   5.290   1.046   1.216  1.1418  0.2046 -1.1008
 6876TIP3    H220593   5.328   0.899   1.224  0.2840  0.0269  0.1234
 6877TIP3   OH220594   6.887   0.728   2.939  0.1258 -0.0882  0.0529
 6877TIP3    H120595   6.956   0.767   2.884 -0.0195 -0.1268 -0.1586
 6877TIP3    H220596   6.910   0.754   3.028  0.3049  0.0646 -0.0367
 6878TIP3   OH220597   3.497   0.384   3.310  0.2862 -0.0476 -0.0039
 6878TIP3    H120598   3.465   0.296   3.329 -0.3668  0.3611  0.8923
 6878TIP3    H220599   3.418   0.438   3.305  0.6842  0.5216 -0.3876
 6879TIP3   OH220600   3.046   6.152   2.972  0.1327  0.3340  0.1718
 6879TIP3    H120601   3.067   6.074   3.024  1.2386  0.0616 -0.6626
 6879TIP3    H220602   2.978   6.197   3.023  0.4201 -0.4884  1.3133
 6880TIP3   OH220603   0.269   2.088   2.182 -0.2979  0.0070  0.4105
 6880TIP3    H120604   0.210   2.157   2.212  1.3751  0.7408  2.2104
 6880TIP3    H220605   0.262   2.019   2.248  0.9064  0.1552  0.7148
 6881TIP3   OH220606   0.360   0.083   3.587  0.2342  0.2812 -0.1700
 6881TIP3    H120607   0.270   0.057   3.603  0.3227  0.5848  0.9448
 6881TIP3    H220608   0.399   0.009   3.541 -0.7952  0.4944 -1.4258
 6882TIP3   OH220609   1.409   3.668   1.619  0.2693 -0.5296  0.0170
 6882TIP3    H120610   1.405   3.751   1.668  0.2439 -0.6973  0.3001
 6882TIP3    H220611   1.415   3.695   1.527  2.0269 -0.1817  0.2048
 6883TIP3   OH220612   5.434   6.222   1.805  0.1467 -0.0340  0.4634
 6883TIP3    H120613   5.340   6.214   1.822 -0.5398  3.0953 -0.9967
 6883TIP3    H220614   5.476   6.194   1.886 -2.0600 -0.7622  1.4364
 6884TIP3   OH220615   4.960   2.758   5.608  0.6793  0.2574  0.6788
 6884TIP3    H120616   4.971   2.680   5.663  0.9945  0.7689  1.3513
 6884TIP3    H220617   5.016   2.824   5.648 -1.1247  1.4636  1.3099
 6885TIP3   OH220618   0.953   1.575   0.111  0.1768  0.5784 -0.2253
 6885TIP3    H120619   0.896   1.576   0.034 -0.9737  0.8883  0.6027
 6885TIP3    H220620   0.894   1.554   0.184  1.4361 -0.9457  0.4296
 6886TIP3   OH220621   0.102   0.722   4.884 -0.3024  0.5441  0.4853
 6886TIP3    H120622   0.059   0.746   4.966 -1.5536  1.0673 -0.3087
 6886TIP3    H220623   0.049   0.650   4.849 -0.7283  1.3663 -0.6328
 6887TIP3   OH220624   3.923   0.556   3.158  0.2534 -0.1453  0.1078
 6887TIP3    H120625   3.863   0.537   3.086  0.7254  0.3507 -0.4340
 6887TIP3    H220626   3.955   0.470   3.186 -0.6141 -0.4024  0.3307
 6888TIP3   OH220627   1.422   4.120   4.972 -0.1216  0.5036  0.2060
 6888TIP3    H120628   1.460   4.135   5.058 -0.3830 -0.3734  0.4826
 6888TIP3    H220629   1.329   4.105   4.989 -0.8489  3.4568 -0.5223
 6889TIP3   OH220630   0.272   5.436   5.764  0.1471 -0.0157 -0.5660
 6889TIP3    H120631   0.345   5.380   5.791  0.7254  0.8997 -0.1510
 6889TIP3    H220632   0.305   5.483   5.687 -0.2409 -0.0813 -0.7707
 6890TIP3   OH220633   0.454   2.538   1.078 -0.7061 -0.2895 -0.3957
 6890TIP3    H120634   0.515   2.559   1.149 -1.5834  0.0636  0.2634
 6890TIP3    H220635   0.405   2.619   1.064 -0.2327 -0.2026 -1.7373
 6891TIP3   OH220636   5.159   0.197   2.325 -0.0209 -0.3175 -0.9360
 6891TIP3    H120637   5.098   0.247   2.379  0.3774  0.1665 -0.9256
 6891TIP3    H220638   5.119   0.111   2.316 -0.1243 -0.3872  0.0790
 6892TIP3   OH220639   1.106   0.147   3.953  0.0668  0.0363  0.1195
 6892TIP3    H120640   1.046   0.092   4.002 -1.4850  1.8343  0.3293
 6892TIP3    H220641   1.193   0.116   3.979 -0.7311 -1.6125  0.9736
 6893TIP3   OH220642   1.986   4.519   4.465  0.0624 -0.2705 -0.2878
 6893TIP3    H120643   2.022   4.446   4.415 -1.6721 -0.9142 -0.6498
 6893TIP3    H220644   2.062   4.573   4.486  1.3315 -1.9364 -0.3889
 6894TIP3   OH220645   0.629   0.547   1.621  0.0326 -0.3714  0.0408
 6894TIP3    H120646   0.635   0.617   1.555  3.8198 -1.1705 -0.7100
 6894TIP3    H220647   0.628   0.594   1.704 -1.0836  0.5936 -0.4813
 6895TIP3   OH220648   0.479   2.976   0.538 -0.0367  0.0705 -0.3762
 6895TIP3    H120649   0.567   2.947   0.513 -0.2354  0.4981 -1.6415
 6895TIP3    H220650   0.483   2.984   0.634  1.6717  1.2376 -0.5027
 6896TIP3   OH220651   4.986   4.663   1.158 -0.3583 -0.0409 -0.2312
 6896TIP3    H120652   4.963   4.753   1.134 -0.9672  0.5112  2.1340
 6896TIP3    H220653   5.065   4.672   1.211 -0.3433 -0.9060 -0.0901
 6897TIP3   OH220654   0.177   0.760   0.812  0.0425  0.0584  0.0358
 6897TIP3    H120655   0.158   0.853   0.806  0.0431  0.0990  0.6670
 6897TIP3    H220656   0.187   0.743   0.905 -1.9085 -0.9717  0.0957
 6898TIP3   OH220657   6.342   3.741   0.092 -0.3865  0.1795 -0.4162
 6898TIP3    H120658   6.406   3.800   0.132 -0.0072  0.1389 -0.9450
 6898TIP3    H220659   6.304   3.792   0.020 -2.2089  0.8190  0.9232
 6899TIP3   OH220660   2.692   0.741   5.208  0.2445  0.2210 -0.2219
 6899TIP3    H120661   2.699   0.781   5.122  0.7400  0.5765 -0.0186
 6899TIP3    H220662   2.633   0.799   5.257  1.8923  1.4040  0.4547
 6900TIP3   OH220663   3.886   1.226   2.932 -0.8488  0.2372 -0.2939
 6900TIP3    H120664   3.878   1.175   2.851  1.4900  1.6078 -1.4995
 6900TIP3    H220665   3.973   1.265   2.927 -0.4515  0.0772  3.1022
 6901TIP3   OH220666   5.272   0.434   4.283  0.1674  0.5948  0.6757
 6901TIP3    H120667   5.264   0.340   4.265  0.0485  0.7658 -0.2045
 6901TIP3    H220668   5.332   0.466   4.216 -0.9503  1.4091  0.0379
 6902TIP3   OH220669   5.113   1.484   0.122  0.3043  0.2716 -0.0023
 6902TIP3    H120670   5.040   1.539   0.095  0.3299  0.5600  0.5029
 6902TIP3    H220671   5.093   1.398   0.086 -1.1527 -0.0954  1.5191
 6903TIP3   OH220672   3.538   3.359   2.825 -0.8152  0.1239  0.4693
 6903TIP3    H120673   3.546   3.289   2.760 -1.0219  0.1249  0.4428
 6903TIP3    H220674   3.444   3.365   2.842 -0.7675  0.1770  0.7106
 6904TIP3   OH220675   5.104   5.493   3.626  0.2310 -0.5747 -0.6673
 6904TIP3    H120676   5.171   5.493   3.695 -0.8663  1.5368  0.5036
 6904TIP3    H220677   5.153   5.512   3.545  1.2937 -1.1939 -0.1912
 6905TIP3   OH220678   5.728   0.294   1.900  0.0467  0.0965 -0.5789
 6905TIP3    H120679   5.816   0.258   1.897 -0.6266 -1.5573 -1.4534
 6905TIP3    H220680   5.696   0.289   1.810 -1.2049 -0.0315 -0.1532
 6906TIP3   OH220681   4.165   5.658   0.622  0.0752 -0.1962  0.2399
 6906TIP3    H120682   4.200   5.703   0.545  0.2745  2.0052  1.5494
 6906TIP3    H220683   4.240   5.649   0.681 -0.4728 -0.1673  0.9442
 6907TIP3   OH220684   4.033   0.659   1.228 -0.2714 -0.0950 -0.1160
 6907TIP3    H120685   4.111   0.695   1.270 -1.0792  0.8904  0.6092
 6907TIP3    H220686   4.025   0.570   1.264  1.1652 -0.6645 -1.1277
 6908TIP3   OH220687   3.608   6.327   5.140 -0.2018 -0.3460 -0.2918
 6908TIP3    H120688   3.531   6.317   5.197 -0.8002  1.0773 -0.7985
 6908TIP3    H220689   3.636   6.417   5.154  0.3827 -0.3524 -1.3296
 6909TIP3   OH220690   3.188   2.833   0.965  0.5818 -0.2737 -0.0633
 6909TIP3    H120691   3.218   2.766   0.904  1.6588 -0.6247  0.8151
 6909TIP3    H220692   3.210   2.798   1.052 -0.5023  0.4115  0.5139
 6910TIP3   OH220693   0.162   3.640   5.713 -0.4843  0.3354 -0.0568
 6910TIP3    H120694   0.138   3.682   5.795 -0.4824  1.4678 -0.6122
 6910TIP3    H220695   0.237   3.690   5.682  0.6745 -1.2053  0.1215
 6911TIP3   OH220696   7.206   3.546   1.890 -0.5232 -0.5030 -0.4207
 6911TIP3    H120697   7.241   3.591   1.967 -0.1710 -0.7792 -0.4190
 6911TIP3    H220698   7.148   3.479   1.925  0.5349 -1.3973 -0.3496
 6912TIP3   OH220699   1.464   0.798   0.607 -0.3572  0.1663  0.0791
 6912TIP3    H120700   1.368   0.792   0.607 -0.4088  0.7122 -1.3680
 6912TIP3    H220701   1.484   0.866   0.672 -0.9576  0.2206  0.2153
 6913TIP3   OH220702   3.796   6.656   3.632 -0.2412 -0.0980 -0.3667
 6913TIP3    H120703   3.720   6.714   3.623  1.0844  1.7746  0.0178
 6913TIP3    H220704   3.759   6.572   3.661 -2.2469  0.4337 -1.2285
 6914TIP3   OH220705   4.252   6.267   3.391 -0.1104  0.3229  0.1800
 6914TIP3    H120706   4.339   6.225   3.386  0.2059  1.1069 -2.4518
 6914TIP3    H220707   4.205   6.232   3.316 -2.2108 -0.2115  1.6629
 6915TIP3   OH220708   1.605   0.042   4.379  0.1646  0.2828 -0.7905
 6915TIP3    H120709   1.631   0.085   4.461 -1.8608  0.1447 -0.0019
 6915TIP3    H220710   1.680  -0.011   4.354 -0.4013 -2.8503  3.1760
 6916TIP3   OH220711   3.175   3.952   5.706  0.2999  0.3177 -0.2941
 6916TIP3    H120712   3.207   3.866   5.730 -0.9259 -0.3218 -0.8806
 6916TIP3    H220713   3.119   3.937   5.630 -2.4126  1.1351  1.3685
 6917TIP3   OH220714   3.229   2.214   0.832 -0.3973 -0.6311 -0.4926
 6917TIP3    H120715   3.255   2.141   0.777  0.7423  0.5420 -1.5469
 6917TIP3    H220716   3.210   2.285   0.771 -0.5653  0.2462  0.5523
 6918TIP3   OH220717   3.631   2.646   1.559  0.0378  0.1724 -0.0352
 6918TIP3    H120718   3.615   2.739   1.543  0.5831  0.4416  0.9106
 6918TIP3    H220719   3.587   2.628   1.642  1.3568  0.0065  0.6509
 6919TIP3   OH220720   5.245   1.433   0.436 -0.0595  0.1575  0.7148
 6919TIP3    H120721   5.269   1.404   0.524  1.3363 -0.7061  0.0829
 6919TIP3    H220722   5.150   1.426   0.433 -0.0388 -0.8357  1.7979
 6920TIP3   OH220723   0.525   6.188   0.217  0.1597  0.1074 -0.0837
 6920TIP3    H120724   0.475   6.112   0.188 -0.7910 -0.4942  2.8261
 6920TIP3    H220725   0.506   6.255   0.152 -1.5466 -1.1968 -1.0183
 6921TIP3   OH220726   6.102   5.175   3.902 -0.3497 -0.2837 -0.3460
 6921TIP3    H120727   6.145   5.219   3.975 -0.4950  1.1776 -1.0915
 6921TIP3    H220728   6.010   5.203   3.907 -0.6591 -1.2838 -0.2839
 6922TIP3   OH220729   6.502   2.873   4.928  0.1940 -0.0137  0.6218
 6922TIP3    H120730   6.444   2.931   4.879 -0.8065  0.2356  2.0402
 6922TIP3    H220731   6.572   2.931   4.958 -1.3390  0.7802  2.9148
 6923TIP3   OH220732   6.510   5.621   5.570  0.0811 -0.0570  0.0706
 6923TIP3    H120733   6.551   5.665   5.645 -0.1705 -0.7805  0.6393
 6923TIP3    H220734   6.460   5.691   5.527  1.1331  0.6271 -0.1014
 6924TIP3   OH220735   0.273   1.012   1.362  0.3738  0.3464 -0.0125
 6924TIP3    H120736   0.183   1.036   1.386  0.3809 -1.2712  1.8828
 6924TIP3    H220737   0.325   1.089   1.385 -0.3383  0.8040  0.1303
 6925TIP3   OH220738   2.319   1.543   5.819  0.3719 -0.1486  0.4738
 6925TIP3    H120739   2.285   1.632   5.808  1.3299  0.5132  2.3299
 6925TIP3    H220740   2.268   1.490   5.758 -1.4323  1.3648  0.5621
 6926TIP3   OH220741   5.121   6.744   5.264 -0.2293  0.1512 -0.4915
 6926TIP3    H120742   5.077   6.778   5.342  0.5656  1.1053 -0.4548
 6926TIP3    H220743   5.118   6.648   5.275 -0.3097  0.2685  0.6021
 6927TIP3   OH220744   5.557   0.504   4.467  0.4197 -0.1333  0.2915
 6927TIP3    H120745   5.548   0.441   4.395  1.9673  0.4461 -0.4674
 6927TIP3    H220746   5.469   0.511   4.503 -0.1537 -1.3858 -0.7400
 6928TIP3   OH220747   2.665   0.403   0.730  0.0653 -0.2428  0.3621
 6928TIP3    H120748   2.603   0.450   0.785  1.2714  1.4194  0.3743
 6928TIP3    H220749   2.612   0.364   0.661 -1.1734 -0.3496  1.3379
 6929TIP3   OH220750   4.704   5.634   4.601 -0.2602  0.0021 -0.0435
 6929TIP3    H120751   4.647   5.561   4.624 -0.5518  0.7363  1.7552
 6929TIP3    H220752   4.655   5.712   4.628  0.7240  0.7736 -0.3976
 6930TIP3   OH220753   6.252   2.012   4.462  0.2139  0.5107 -0.8659
 6930TIP3    H120754   6.186   2.073   4.427 -1.7179 -0.5257  0.7703
 6930TIP3    H220755   6.248   1.937   4.402 -1.7193 -0.4585  0.3958
 6931TIP3   OH220756   5.170   0.315   4.692 -0.3549 -0.6032 -0.0607
 6931TIP3    H120757   5.261   0.290   4.674  0.1839 -0.3407  2.0675
 6931TIP3    H220758   5.172   0.411   4.689 -0.5306 -0.5947  0.1811
 6932TIP3   OH220759   7.070   2.158   2.068 -0.0476 -0.6020 -0.2508
 6932TIP3    H120760   7.127   2.234   2.064  0.7468 -1.1906 -0.3371
 6932TIP3    H220761   7.031   2.153   1.980 -1.6593  0.8442  0.3258
 6933TIP3   OH220762   1.733   3.967   0.019  0.0676  0.4340  0.9210
 6933TIP3    H120763   1.738   4.056   0.053 -1.4803 -0.2516  3.1683
 6933TIP3    H220764   1.667   3.924   0.073 -1.2550 -1.3338 -1.8606
 6934TIP3   OH220765  -0.022   6.468   4.001  0.5587 -0.2209  0.7119
 6934TIP3    H120766   0.009   6.383   3.970 -0.7031 -0.1918 -0.7510
 6934TIP3    H220767   0.022   6.481   4.085  1.4509 -1.9052  0.5387
 6935TIP3   OH220768   0.964   6.197   2.830  0.5502 -0.0118 -0.0724
 6935TIP3    H120769   1.011   6.134   2.885 -0.3451 -0.7745 -0.1608
 6935TIP3    H220770   0.937   6.266   2.891 -0.0289 -0.6190  0.3640
 6936TIP3   OH220771   4.331   1.722   4.364 -0.5820 -0.3104  0.0166
 6936TIP3    H120772   4.337   1.806   4.409  0.5496 -0.1585 -0.3759
 6936TIP3    H220773   4.322   1.745   4.271  0.0348 -0.6056 -0.1265
 6937TIP3   OH220774   5.332   0.565   1.030 -0.3797 -0.5894  0.4482
 6937TIP3    H120775   5.260   0.502   1.035 -0.7801 -0.1858 -0.0766
 6937TIP3    H220776   5.361   0.575   1.120 -0.1040 -1.7558  0.5111
 6938TIP3   OH220777   2.499   0.773   0.311 -0.1742  0.2198  0.7161
 6938TIP3    H120778   2.561   0.833   0.269  0.3957 -0.2409  0.8867
 6938TIP3    H220779   2.425   0.769   0.251 -0.1170  0.9159  0.5945
 6939TIP3   OH220780   5.091   5.791   1.136  0.5026  0.2828 -0.0528
 6939TIP3    H120781   5.035   5.816   1.062  1.5082  0.4180 -0.7918
 6939TIP3    H220782   5.127   5.873   1.167  0.4672  0.1717  0.2811
 6940TIP3   OH220783   1.318   4.408   0.740 -0.4639 -0.1223  0.1221
 6940TIP3    H120784   1.372   4.335   0.710  0.3327  0.7621 -0.6921
 6940TIP3    H220785   1.381   4.477   0.759 -1.2116  0.4054  0.7357
 6941TIP3   OH220786   5.555   5.464   4.060  0.2628 -0.2134  0.5778
 6941TIP3    H120787   5.459   5.469   4.064  0.2390 -0.8166  0.9459
 6941TIP3    H220788   5.579   5.409   4.134  0.9468  0.4567  0.8666
 6942TIP3   OH220789   6.611   1.607   2.155 -0.4399  0.6193  0.4071
 6942TIP3    H120790   6.664   1.598   2.077  1.7780  0.2225  1.8682
 6942TIP3    H220791   6.542   1.541   2.145 -0.6252  1.0416 -1.4735
 6943TIP3   OH220792   5.909   0.997   3.070  0.0800  0.5040 -0.3453
 6943TIP3    H120793   5.904   0.906   3.039  2.2014  0.5453 -0.9668
 6943TIP3    H220794   5.932   0.989   3.163  2.8626  0.3156 -0.9575
 6944TIP3   OH220795   1.087   5.785   5.798  0.2739 -0.3891  0.3367
 6944TIP3    H120796   1.097   5.733   5.878  0.0552 -2.1700 -0.7255
 6944TIP3    H220797   1.002   5.758   5.763 -0.2708  1.4181  0.2171
 6945TIP3   OH220798   2.868   1.769   3.723  0.4055  0.0883  0.3835
 6945TIP3    H120799   2.918   1.702   3.677  0.1018  0.0935  0.0347
 6945TIP3    H220800   2.862   1.841   3.660 -0.6094 -0.1728  0.1578
 6946TIP3   OH220801   0.875   5.674   4.326 -0.2389 -0.0139  0.4611
 6946TIP3    H120802   0.915   5.656   4.241 -0.8196  0.8783 -0.0207
 6946TIP3    H220803   0.928   5.624   4.389  2.2187  1.7937 -0.0257
 6947TIP3   OH220804   5.619   4.829   0.176  0.3954 -0.3328 -0.2238
 6947TIP3    H120805   5.567   4.907   0.196  0.3549 -0.7223  1.3031
 6947TIP3    H220806   5.604   4.770   0.251  1.6268 -1.1761 -0.6149
 6948TIP3   OH220807   3.119   3.649   2.892 -0.1704 -0.4757 -0.0723
 6948TIP3    H120808   3.048   3.613   2.946 -1.9917 -0.1693 -2.1071
 6948TIP3    H220809   3.173   3.573   2.869 -1.3671 -1.2147 -0.5901
 6949TIP3   OH220810   6.083   5.187   1.254 -0.5215  1.1312 -0.1294
 6949TIP3    H120811   6.037   5.219   1.177  0.0876  0.2766 -0.8637
 6949TIP3    H220812   6.031   5.113   1.285 -0.0745  0.6481 -0.5080
 6950TIP3   OH220813   3.376   6.406   4.816 -0.2057 -0.2753  0.1777
 6950TIP3    H120814   3.365   6.314   4.843 -1.8704 -0.4518 -0.9165
 6950TIP3    H220815   3.327   6.412   4.734 -2.6131  2.2416  1.6431
 6951TIP3   OH220816   5.337   2.212   2.069  0.3334 -0.1207 -0.0523
 6951TIP3    H120817   5.287   2.293   2.060 -0.3071 -0.5865 -0.9036
 6951TIP3    H220818   5.427   2.241   2.083 -0.0849  0.7315  0.9785
 6952TIP3   OH220819   5.022   2.565   5.787 -0.6254 -0.4997  0.0425
 6952TIP3    H120820   5.038   2.565   5.882 -0.4740 -2.9084  0.0711
 6952TIP3    H220821   5.077   2.495   5.754 -0.2771  0.6516 -1.9449
 6953TIP3   OH220822   2.277   0.437   0.182  0.4211 -0.3957  0.0085
 6953TIP3    H120823   2.304   0.399   0.266  2.7410 -1.1006 -0.9927
 6953TIP3    H220824   2.240   0.364   0.133  1.4138 -0.5686 -0.5062
 6954TIP3   OH220825   0.053   5.246   2.043  0.5340 -0.1749  0.2667
 6954TIP3    H120826   0.025   5.324   2.090 -0.0346 -0.0987 -0.1799
 6954TIP3    H220827   0.132   5.272   1.996  1.2780 -0.3374  1.4030
 6955TIP3   OH220828   6.180   1.423   4.387  0.4437  0.8193  0.1014
 6955TIP3    H120829   6.121   1.459   4.453 -0.6429 -1.1068  0.2550
 6955TIP3    H220830   6.135   1.436   4.304  0.2431  0.2365  0.1133
 6956TIP3   OH220831   6.771   2.309   3.487  0.2037  0.1918 -0.2703
 6956TIP3    H120832   6.722   2.377   3.533  2.7084  0.9825  1.4421
 6956TIP3    H220833   6.784   2.240   3.552 -0.2859 -0.8856 -1.2840
 6957TIP3   OH220834   3.414   3.850   3.599  0.4611  0.8830  0.1720
 6957TIP3    H120835   3.465   3.849   3.680 -0.5290 -0.9072  0.8389
 6957TIP3    H220836   3.444   3.774   3.550  0.0216  1.1141 -0.4838
 6958TIP3   OH220837   0.700   3.947   0.224  0.3358 -0.3703 -0.2046
 6958TIP3    H120838   0.723   3.901   0.304  0.2926  0.0929  0.0809
 6958TIP3    H220839   0.640   4.016   0.252 -1.4287 -1.5354 -0.9318
 6959TIP3   OH220840   1.492   4.808   2.791 -0.6758 -0.0688 -0.2473
 6959TIP3    H120841   1.454   4.825   2.877 -0.9807  0.6795 -0.5182
 6959TIP3    H220842   1.560   4.743   2.807 -0.7425  0.0488  0.5556
 6960TIP3   OH220843   7.159   6.353   3.257  0.4576  0.4138  0.2495
 6960TIP3    H120844   7.106   6.379   3.182  0.3222 -1.8055 -0.5323
 6960TIP3    H220845   7.242   6.324   3.217  0.2561 -1.1277  0.8541
 6961TIP3   OH220846   2.273   5.469   3.200 -0.1030 -0.5360 -0.7838
 6961TIP3    H120847   2.357   5.505   3.171  0.1810  0.3384  1.0004
 6961TIP3    H220848   2.213   5.543   3.197 -0.3221 -0.6855 -0.1715
 6962TIP3   OH220849   6.113   6.751   3.415  0.1791 -1.0116  0.4662
 6962TIP3    H120850   6.083   6.795   3.495 -0.3088  3.3510 -1.8294
 6962TIP3    H220851   6.035   6.705   3.383 -0.3241 -0.7004  1.2046
 6963TIP3   OH220852   3.783   5.240   0.281 -0.1288 -0.2023  0.2588
 6963TIP3    H120853   3.736   5.323   0.274 -1.8367 -1.0151  1.4873
 6963TIP3    H220854   3.857   5.249   0.220 -0.8727  1.7881 -0.4234
 6964TIP3   OH220855   0.226   1.201   0.941  0.7276 -0.1082  0.9533
 6964TIP3    H120856   0.179   1.270   0.989 -0.4927 -0.2513 -0.0001
 6964TIP3    H220857   0.275   1.248   0.874  1.0077 -0.0599  1.1892
 6965TIP3   OH220858   3.904   6.150   4.179  0.1535  0.3189 -0.2600
 6965TIP3    H120859   3.974   6.204   4.216 -0.6418  1.5147 -0.4315
 6965TIP3    H220860   3.909   6.068   4.228  1.3384  0.5654  0.0762
 6966TIP3   OH220861   3.515   6.211   5.444  0.4739 -0.1074 -0.5991
 6966TIP3    H120862   3.529   6.305   5.447 -0.0138 -0.0462  0.5437
 6966TIP3    H220863   3.495   6.192   5.353  3.2733  0.4569 -1.4361
 6967TIP3   OH220864   4.369   3.858   1.458  0.2428  0.0994 -0.0566
 6967TIP3    H120865   4.446   3.877   1.404 -0.2616 -0.9451 -1.2051
 6967TIP3    H220866   4.294   3.876   1.400 -0.4554  2.2166  1.4058
 6968TIP3   OH220867   2.667   6.144   5.309  0.1414  0.3272 -0.3767
 6968TIP3    H120868   2.617   6.163   5.388 -1.0584  1.2890 -1.3222
 6968TIP3    H220869   2.729   6.077   5.336 -0.6832  0.1387  1.2104
 6969TIP3   OH220870   2.815   1.280   3.492  0.4059  0.2951  0.2426
 6969TIP3    H120871   2.889   1.332   3.523  1.7287 -1.7829  0.7820
 6969TIP3    H220872   2.822   1.198   3.541 -1.8656 -0.2237 -0.2195
 6970TIP3   OH220873   0.090   0.744   3.582 -0.1572  0.4501 -0.4631
 6970TIP3    H120874   0.011   0.726   3.531 -0.1257  0.3579 -0.4810
 6970TIP3    H220875   0.059   0.784   3.662 -0.2000  0.6900 -0.6005
 6971TIP3   OH220876   1.658   6.094   3.062 -0.1551 -0.1218  0.4638
 6971TIP3    H120877   1.698   6.009   3.045 -0.2781  0.0227 -0.6478
 6971TIP3    H220878   1.728   6.158   3.046 -0.2668  0.0239  0.5498
 6972TIP3   OH220879   0.049   3.339   1.462 -0.1431  0.2091 -0.3506
 6972TIP3    H120880   0.100   3.369   1.386  1.8487  0.6771  1.0848
 6972TIP3    H220881   0.054   3.411   1.524 -2.1251  0.0058  0.1104
 6973TIP3   OH220882   0.311   6.651   5.430 -0.0386  0.0801 -0.2849
 6973TIP3    H120883   0.331   6.565   5.394 -0.6602 -0.5007  0.7109
 6973TIP3    H220884   0.390   6.703   5.413  1.1397 -1.2579  0.8527
 6974TIP3   OH220885   5.867   5.517   3.681  0.0768 -0.0601  0.0294
 6974TIP3    H120886   5.779   5.491   3.652 -0.0414 -0.7319  0.9538
 6974TIP3    H220887   5.921   5.510   3.602 -0.2497 -1.7684 -0.0917
 6975TIP3   OH220888   6.951   5.607   3.739 -0.0856 -0.2193 -1.2468
 6975TIP3    H120889   6.985   5.597   3.650  2.2560 -0.2650 -0.4039
 6975TIP3    H220890   7.004   5.677   3.777 -0.1868 -1.0506  0.5019
 6976TIP3   OH220891   6.276   4.637   2.340 -0.1377 -0.2637 -0.1639
 6976TIP3    H120892   6.315   4.703   2.283 -0.7912 -0.2765 -0.6448
 6976TIP3    H220893   6.215   4.686   2.395 -2.9772 -0.7631 -2.6062
 6977TIP3   OH220894   6.102   1.146   2.209 -0.2886 -0.3779 -0.0040
 6977TIP3    H120895   6.015   1.151   2.168 -1.0509  2.9810  1.6268
 6977TIP3    H220896   6.107   1.225   2.263  1.5682 -3.1910  4.4961
 6978TIP3   OH220897   5.799   1.803   2.417 -0.2569 -0.1086 -0.2442
 6978TIP3    H120898   5.802   1.814   2.322  0.6866  1.1953 -0.0862
 6978TIP3    H220899   5.801   1.892   2.451  0.6048 -0.5858  1.0152
 6979TIP3   OH220900   2.411   2.802   1.109  0.0044 -0.0039 -0.1133
 6979TIP3    H120901   2.327   2.755   1.105 -0.5863  0.7541  1.9566
 6979TIP3    H220902   2.459   2.760   1.180  0.2707  1.2274  0.4659
 6980TIP3   OH220903   2.326   3.088   4.477  0.5649  0.3885 -0.8252
 6980TIP3    H120904   2.405   3.102   4.425  1.4164 -0.8566  0.0751
 6980TIP3    H220905   2.313   2.993   4.476 -0.6784  0.5329 -0.5876
 6981TIP3   OH220906   1.652   4.031   2.093  0.3420 -0.3833 -0.8061
 6981TIP3    H120907   1.607   3.947   2.091 -0.6441  0.1411 -1.4520
 6981TIP3    H220908   1.650   4.058   2.185  0.0590 -0.7497 -0.7054
 6982TIP3   OH220909   4.595   0.315   4.006 -0.1591 -0.5658 -0.4398
 6982TIP3    H120910   4.668   0.377   3.999  0.6101 -1.2351  1.1351
 6982TIP3    H220911   4.549   0.323   3.922 -0.2986  2.3353 -0.1691
 6983TIP3   OH220912   2.215   2.232   0.780 -0.0905 -0.2261 -0.4650
 6983TIP3    H120913   2.186   2.318   0.812  0.7250  0.3533 -1.2324
 6983TIP3    H220914   2.148   2.171   0.812  0.0859  0.4717  1.3671
 6984TIP3   OH220915   3.459   4.363   3.515 -0.8474 -0.8101 -0.5119
 6984TIP3    H120916   3.416   4.436   3.561 -1.7176 -1.3639 -0.4221
 6984TIP3    H220917   3.401   4.289   3.530 -0.0996 -1.4636 -0.8267
 6985TIP3   OH220918   0.548   3.167   0.236  0.2811  0.1848  0.0201
 6985TIP3    H120919   0.632   3.210   0.221  1.0444 -0.8427  1.1087
 6985TIP3    H220920   0.526   3.189   0.326 -0.7411  0.6258 -0.3281
 6986TIP3   OH220921   2.697   0.430   1.746 -0.2328 -0.1266 -0.2300
 6986TIP3    H120922   2.672   0.343   1.715  0.5152 -0.2517 -0.5062
 6986TIP3    H220923   2.739   0.471   1.671  0.7559 -0.0822  0.3370
 6987TIP3   OH220924   6.309   0.380   1.142  0.0329 -0.1713  0.0142
 6987TIP3    H120925   6.322   0.422   1.226 -2.2665 -1.3450  1.0445
 6987TIP3    H220926   6.294   0.452   1.081  2.8299  0.7613  0.2726
 6988TIP3   OH220927   6.559   4.983   3.185  0.4814  0.8933  0.1878
 6988TIP3    H120928   6.631   4.975   3.122  0.3970 -1.1650  0.2764
 6988TIP3    H220929   6.580   4.919   3.253 -0.9434  0.9595  0.7105
 6989TIP3   OH220930   1.577   6.128   0.075  0.0736  0.2360  0.1914
 6989TIP3    H120931   1.593   6.039   0.108 -0.2809 -0.4417 -1.4013
 6989TIP3    H220932   1.616   6.185   0.142  0.1460 -1.0981  1.3320
 6990TIP3   OH220933   5.051   4.572   4.336  0.7082 -0.2934  0.2397
 6990TIP3    H120934   5.116   4.549   4.269  0.1686 -0.6803 -0.1695
 6990TIP3    H220935   4.991   4.498   4.337 -3.0098  2.1878 -3.4467
 6991TIP3   OH220936   4.777   2.455   1.740  0.2190  0.4339  0.2646
 6991TIP3    H120937   4.822   2.520   1.794  0.8642  1.1508 -1.0910
 6991TIP3    H220938   4.783   2.489   1.651 -0.5765 -0.8502 -0.3126
 6992TIP3   OH220939   5.395   3.766   4.008  0.2321 -0.5218  0.2269
 6992TIP3    H120940   5.349   3.837   4.053 -0.8275 -1.2272  0.2781
 6992TIP3    H220941   5.374   3.778   3.915 -0.8315 -1.3805  0.3426
 6993TIP3   OH220942   1.259   6.276   1.149  0.0542  0.0644  0.1661
 6993TIP3    H120943   1.319   6.261   1.222 -0.5054 -2.3481  0.2308
 6993TIP3    H220944   1.222   6.363   1.165  2.5311  1.0721  0.8010
 6994TIP3   OH220945   2.108   1.383   0.585 -0.5685  0.7454 -0.8182
 6994TIP3    H120946   2.196   1.348   0.570 -1.3512 -0.6965 -2.2484
 6994TIP3    H220947   2.101   1.389   0.680  0.2041 -1.4870 -0.5656
 6995TIP3   OH220948   4.746   4.741   2.481  0.6028 -0.0677  0.7008
 6995TIP3    H120949   4.773   4.766   2.393  1.6571 -0.0450  1.0217
 6995TIP3    H220950   4.750   4.645   2.482  0.0326 -0.0967  0.5564
 6996TIP3   OH220951   6.057   1.904   3.074 -0.5848 -0.0357 -0.0016
 6996TIP3    H120952   6.099   1.893   3.159  0.1001 -0.3117 -0.3665
 6996TIP3    H220953   5.967   1.928   3.095 -0.1154  1.1492  0.8002
 6997TIP3   OH220954   3.862   2.333   0.872  0.1532  0.0346 -0.0095
 6997TIP3    H120955   3.879   2.331   0.778  1.5064 -1.0589  0.2351
 6997TIP3    H220956   3.778   2.379   0.880 -0.2582 -0.3464 -1.7765
 6998TIP3   OH220957   0.492   5.790   1.308 -0.0332  0.3060  0.2269
 6998TIP3    H120958   0.521   5.828   1.391  2.0639  1.0528 -0.7642
 6998TIP3    H220959   0.425   5.726   1.332  1.0447 -0.0354  2.5823
 6999TIP3   OH220960   5.126   3.645   0.869 -0.3475 -1.0298  0.6841
 6999TIP3    H120961   5.123   3.630   0.775 -1.1970  1.3642  0.2544
 6999TIP3    H220962   5.220   3.644   0.890 -0.0716 -0.4684 -0.4282
 7000TIP3   OH220963   5.615   4.543   3.055  0.4726  0.2778  0.3590
 7000TIP3    H120964   5.541   4.492   3.023 -0.5827  0.9986  1.5664
 7000TIP3    H220965   5.646   4.591   2.978 -1.5177  1.3755  0.1785
 7001TIP3   OH220966   2.783   5.186   3.233 -0.1711  0.1383 -0.2438
 7001TIP3    H120967   2.802   5.255   3.297 -1.1566 -0.2236  0.4529
 7001TIP3    H220968   2.732   5.229   3.164  0.6845  0.4729 -0.6837
 7002TIP3   OH220969   0.954   6.557   3.242 -0.4335  0.3525 -0.0385
 7002TIP3    H120970   0.874   6.594   3.280  0.9356  0.0530  3.5202
 7002TIP3    H220971   0.950   6.464   3.265 -0.6249 -0.4818 -2.9685
 7003TIP3   OH220972   5.083   2.370   2.542 -0.1190  0.1462  0.2598
 7003TIP3    H120973   5.134   2.364   2.461 -0.3122 -0.6745  0.1915
 7003TIP3    H220974   5.044   2.283   2.553 -1.1494  0.6287  0.5482
 7004TIP3   OH220975   0.562   6.691   3.143 -0.1593 -0.3230  0.1316
 7004TIP3    H120976   0.496   6.622   3.145 -1.0101  0.4777  0.4117
 7004TIP3    H220977   0.540   6.743   3.066  0.8711 -0.7127 -0.4561
 7005TIP3   OH220978   4.720   4.300   2.528  0.3248 -0.3438  0.3019
 7005TIP3    H120979   4.684   4.213   2.511 -0.1684 -0.0704 -0.0827
 7005TIP3    H220980   4.651   4.361   2.499 -0.7997  0.1826  3.6017
 7006TIP3   OH220981   0.197   3.875   1.130  0.1121  0.4899 -0.5876
 7006TIP3    H120982   0.224   3.858   1.039  2.0079 -1.1921  0.2370
 7006TIP3    H220983   0.277   3.905   1.173 -0.3513 -0.4208  0.9455
 7007TIP3   OH220984   0.477   3.715   3.732  1.1794  0.7902  0.4247
 7007TIP3    H120985   0.524   3.679   3.657  1.0879 -0.2177  0.8379
 7007TIP3    H220986   0.546   3.737   3.795  1.2530  1.5962  0.0816
 7008TIP3   OH220987   4.585   3.256   5.637  0.1725  0.5586 -0.1662
 7008TIP3    H120988   4.536   3.265   5.719 -0.8649  1.0504 -0.8132
 7008TIP3    H220989   4.659   3.200   5.659 -0.9545 -0.6247  0.7341
 7009TIP3   OH220990   1.530   1.040   4.434 -0.1109  0.0186 -0.4355
 7009TIP3    H120991   1.502   0.961   4.479 -1.4697  1.3148  1.1712
 7009TIP3    H220992   1.448   1.083   4.409  0.5547  1.3694 -0.3825
 7010TIP3   OH220993   1.411   3.591   4.747 -0.8249  0.5613  0.0283
 7010TIP3    H120994   1.349   3.540   4.799 -0.0432  0.9719  1.4065
 7010TIP3    H220995   1.459   3.644   4.811  0.6798  0.5497 -1.0286
 7011TIP3   OH220996   5.805   0.782   1.253 -0.3861  0.1930 -0.0307
 7011TIP3    H120997   5.867   0.848   1.283  1.1029 -1.0904 -0.1822
 7011TIP3    H220998   5.782   0.808   1.164  0.3644  0.3959 -0.1703
 7012TIP3   OH220999   3.026   1.015   5.712  0.0049 -0.3269  0.2966
 7012TIP3    H121000   3.069   0.978   5.635 -0.7642 -0.4434 -0.0878
 7012TIP3    H221001   3.019   1.109   5.693  1.1606 -0.0982  0.8894
 7013TIP3   OH221002   5.093   1.651   3.528  0.1941  0.1098 -0.1873
 7013TIP3    H121003   5.050   1.567   3.537  2.1339 -1.0479 -1.0850
 7013TIP3    H221004   5.128   1.671   3.615 -0.8430  0.3631  0.1896
 7014TIP3   OH221005   7.148   5.555   3.079  0.1467 -0.1106 -0.1534
 7014TIP3    H121006   7.118   5.632   3.128 -0.3533 -0.1447 -0.4016
 7014TIP3    H221007   7.241   5.571   3.066  0.2776 -0.0598  0.7330
 7015TIP3   OH221008   1.986   0.977   3.534  0.7292 -0.6673  0.7897
 7015TIP3    H121009   1.993   0.898   3.481  0.4962 -0.6630  0.7498
 7015TIP3    H221010   1.897   0.975   3.568 -0.2802  0.9453 -1.4501
 7016TIP3   OH221011   0.474   6.517   3.846 -0.3294  0.1418  0.1910
 7016TIP3    H121012   0.555   6.544   3.801 -2.3767  1.7115 -2.9259
 7016TIP3    H221013   0.487   6.423   3.862  1.6988  0.1022 -1.2141
 7017TIP3   OH221014   7.148   6.746   0.648  0.6684 -0.5266  0.0442
 7017TIP3    H121015   7.193   6.707   0.723  0.1966  0.7729  1.0406
 7017TIP3    H221016   7.056   6.748   0.673  0.7976  2.6321  0.8074
 7018TIP3   OH221017   4.825   5.953   0.527 -0.3017  0.3496  0.2672
 7018TIP3    H121018   4.911   5.963   0.568 -0.5224 -0.6519  0.9972
 7018TIP3    H221019   4.830   6.007   0.448  1.5932 -1.0289 -0.6307
 7019TIP3   OH221020   1.242   4.556   3.677 -0.3232 -0.2920  0.0005
 7019TIP3    H121021   1.213   4.496   3.609 -0.4801  1.4569 -1.5608
 7019TIP3    H221022   1.303   4.505   3.730 -1.2111 -2.0850 -0.6404
 7020TIP3   OH221023   3.772   4.058   2.863 -0.3295 -0.1259  0.1078
 7020TIP3    H121024   3.778   4.089   2.773  0.0086  0.6000  0.3755
 7020TIP3    H221025   3.810   3.970   2.861  0.6397  0.2897 -0.2619
 7021TIP3   OH221026   5.728   3.023   0.087  0.2837  0.4245  0.0545
 7021TIP3    H121027   5.807   3.058   0.045  0.6081  0.9265  1.0491
 7021TIP3    H221028   5.671   2.998   0.015  2.0084 -1.5180 -0.7455
 7022TIP3   OH221029   4.439   2.746   5.287  0.3997  0.1474 -0.4113
 7022TIP3    H121030   4.456   2.835   5.256  0.0075 -0.5118 -2.7237
 7022TIP3    H221031   4.392   2.704   5.215  1.6785 -2.3105  0.0491
 7023TIP3   OH221032   0.240   5.092   0.720  0.3270 -0.6652 -0.1770
 7023TIP3    H121033   0.212   5.134   0.801 -0.4723  1.2297 -1.3631
 7023TIP3    H221034   0.335   5.106   0.718  0.4276 -1.1746  0.6569
 7024TIP3   OH221035   2.562   1.276   5.050 -0.3217  0.1152  0.6486
 7024TIP3    H121036   2.538   1.364   5.078  2.8555  0.5658  2.4800
 7024TIP3    H221037   2.554   1.278   4.955 -1.1073  2.0902  0.7078
 7025TIP3   OH221038   3.507   6.445   5.618 -0.2939 -0.5210 -0.0525
 7025TIP3    H121039   3.447   6.374   5.641 -1.1309  1.2188  4.0109
 7025TIP3    H221040   3.451   6.522   5.610  1.0355  0.5982  0.8345
 7026TIP3   OH221041   5.194   0.549   0.550 -0.3880 -0.1209 -0.0688
 7026TIP3    H121042   5.255   0.480   0.525 -0.3225 -0.9005  2.0881
 7026TIP3    H221043   5.125   0.545   0.483 -0.6096 -2.5827  0.2254
 7027TIP3   OH221044   0.404   4.821   5.174  0.0173 -0.2826 -0.3682
 7027TIP3    H121045   0.379   4.817   5.266 -0.8666  2.1006 -0.4337
 7027TIP3    H221046   0.493   4.784   5.171 -0.0608 -0.6667  1.3713
 7028TIP3   OH221047   1.493   0.847   4.977 -0.0086  0.1219 -0.0154
 7028TIP3    H121048   1.568   0.902   4.955 -1.2097  1.3720 -1.1751
 7028TIP3    H221049   1.490   0.782   4.907 -0.2728  0.3657 -0.2334
 7029TIP3   OH221050   1.849   2.404   4.772  0.9792 -0.3806  0.0128
 7029TIP3    H121051   1.930   2.383   4.725  0.8476 -1.4140  0.2461
 7029TIP3    H221052   1.785   2.341   4.740  0.2316  0.4512 -0.2000
 7030TIP3   OH221053   3.918   2.529   5.145 -0.1130 -0.5544  0.0393
 7030TIP3    H121054   3.859   2.577   5.086  1.4571  1.2980 -0.1511
 7030TIP3    H221055   3.871   2.448   5.166 -3.2647  1.3011  0.8933
 7031TIP3   OH221056   1.449   2.239   3.894  0.4135 -0.3437 -0.4163
 7031TIP3    H121057   1.462   2.188   3.815  3.3684 -0.1324 -0.1633
 7031TIP3    H221058   1.442   2.173   3.964 -0.9690 -0.4889 -0.6624
 7032TIP3   OH221059   5.740   6.593   2.162 -0.1840  0.0229  0.1578
 7032TIP3    H121060   5.690   6.531   2.107  1.0881 -0.5048 -0.4461
 7032TIP3    H221061   5.696   6.590   2.247  0.6391 -2.8148  0.5865
 7033TIP3   OH221062   2.121   1.210   4.262 -0.1958  0.3587  0.1297
 7033TIP3    H121063   2.155   1.289   4.220  0.1479 -0.3390 -0.9697
 7033TIP3    H221064   2.185   1.188   4.329 -0.2946  1.0043  0.4418
 7034TIP3   OH221065   4.287   5.659   3.413  0.2929  0.5707  0.0978
 7034TIP3    H121066   4.282   5.754   3.417 -2.1559  0.5549 -0.7422
 7034TIP3    H221067   4.296   5.639   3.320 -0.4370 -0.0101  0.1389
 7035TIP3   OH221068   5.828   5.691   0.022  0.0252  0.0371  0.2142
 7035TIP3    H121069   5.877   5.721  -0.055 -0.8125  0.7459 -0.0581
 7035TIP3    H221070   5.766   5.762   0.040  0.6221  0.1563  1.9258
 7036TIP3   OH221071   6.676   1.426   0.972  0.1156 -0.0446 -0.1354
 7036TIP3    H121072   6.607   1.366   0.943  0.2702  0.5467 -1.8466
 7036TIP3    H221073   6.641   1.513   0.954  1.1227  0.2747 -0.6492
 7037TIP3   OH221074   5.661   6.386   5.512  0.5055  0.2346 -0.2457
 7037TIP3    H121075   5.611   6.387   5.594  0.3466 -0.6041 -0.3185
 7037TIP3    H221076   5.603   6.341   5.450  1.2344 -0.5006 -0.4057
 7038TIP3   OH221077   3.982   6.015   2.208  0.1025  0.3226 -0.1514
 7038TIP3    H121078   3.959   6.047   2.121  1.0920  1.1272 -0.1337
 7038TIP3    H221079   4.064   5.967   2.196 -0.0616 -0.0671  0.2455
 7039TIP3   OH221080   1.335   5.986   3.623  0.0958 -0.2852  0.5816
 7039TIP3    H121081   1.277   6.056   3.652 -0.7328 -0.2938 -0.9518
 7039TIP3    H221082   1.423   6.016   3.646 -0.4492 -0.1110  2.6194
 7040TIP3   OH221083   5.259   4.697   4.451  0.0096 -0.3353  0.0880
 7040TIP3    H121084   5.253   4.689   4.546  0.0491  0.1274  0.1300
 7040TIP3    H221085   5.181   4.652   4.418  0.5103 -1.3883  0.2902
 7041TIP3   OH221086   4.679   5.625   4.016 -0.1796 -0.0348 -0.1458
 7041TIP3    H121087   4.595   5.605   3.977  0.8301  0.2829 -2.6581
 7041TIP3    H221088   4.742   5.617   3.944  1.9616 -0.3114  1.6334
 7042TIP3   OH221089   1.601   4.143   1.634 -0.4035  0.0045  0.2235
 7042TIP3    H121090   1.543   4.212   1.667 -1.8144 -0.9855 -0.1015
 7042TIP3    H221091   1.659   4.124   1.707 -1.0481  0.4338  0.8697
 7043TIP3   OH221092   1.377   0.565   4.318 -0.5020  0.4492  0.2363
 7043TIP3    H121093   1.308   0.629   4.335 -0.6825  0.0708  0.9364
 7043TIP3    H221094   1.416   0.594   4.235 -0.9955  1.0999  0.2238
 7044TIP3   OH221095   0.437   2.652   2.740  0.4521 -0.2081  0.2098
 7044TIP3    H121096   0.382   2.718   2.698  0.3261 -0.1729  0.4275
 7044TIP3    H221097   0.375   2.585   2.768  0.4760 -0.0110  0.7520
 7045TIP3   OH221098   5.559   2.965   3.632  0.0673  0.0840  0.9665
 7045TIP3    H121099   5.505   2.958   3.553 -0.1519  0.8949  1.0356
 7045TIP3    H221100   5.502   3.008   3.696  0.7354  0.7987  1.0979
 7046TIP3   OH221101   6.607   4.104   2.994 -0.3129  0.5108 -0.2096
 7046TIP3    H121102   6.603   4.008   2.990  1.8938  0.3962 -1.2823
 7046TIP3    H221103   6.636   4.123   3.084  0.3175  0.0856 -0.3115
 7047TIP3   OH221104   0.302   0.308   0.062  0.6717 -0.0806  0.4332
 7047TIP3    H121105   0.218   0.264   0.050 -0.0704  0.9633  1.4721
 7047TIP3    H221106   0.279   0.393   0.099  2.2842 -0.5348  2.6956
 7048TIP3   OH221107   4.064   1.092   4.381 -0.4200 -0.3830  0.3598
 7048TIP3    H121108   3.988   1.135   4.341  0.0573  1.4746  1.3365
 7048TIP3    H221109   4.110   1.162   4.427  1.9151 -1.4572 -0.2014
 7049TIP3   OH221110   4.319   6.365   4.760 -0.3152  0.3904 -0.1972
 7049TIP3    H121111   4.351   6.455   4.772 -0.2557  0.3136  0.2691
 7049TIP3    H221112   4.230   6.367   4.794 -1.2711  0.8883 -2.5808
 7050TIP3   OH221113   6.595   5.259   3.247 -0.5566 -0.1079  0.1382
 7050TIP3    H121114   6.669   5.298   3.201 -2.2101 -0.1536 -2.8332
 7050TIP3    H221115   6.587   5.171   3.208 -2.0442 -0.1623  0.5131
 7051TIP3   OH221116   4.599   5.521   1.945  0.3370 -0.2867  0.1247
 7051TIP3    H121117   4.521   5.505   1.893  0.8789 -0.2366 -0.7195
 7051TIP3    H221118   4.566   5.555   2.028 -0.5359 -0.3514 -0.1894
 7052TIP3   OH221119   1.828   1.963   3.241 -0.3000 -0.4728 -0.4124
 7052TIP3    H121120   1.922   1.981   3.243 -0.1805 -0.9531 -1.0886
 7052TIP3    H221121   1.821   1.869   3.256 -0.6215 -0.5512 -1.0074
 7053TIP3   OH221122   0.050   6.124   5.795 -0.1701 -0.1477 -0.0568
 7053TIP3    H121123  -0.012   6.078   5.739 -0.9587  1.3843 -0.4897
 7053TIP3    H221124   0.071   6.204   5.747  0.0544  0.6370  1.2874
 7054TIP3   OH221125   4.448   2.928   4.763 -0.0872 -0.4183 -0.0147
 7054TIP3    H121126   4.495   2.844   4.763 -1.4651 -1.2395  1.4440
 7054TIP3    H221127   4.482   2.973   4.840 -1.0912 -0.6951  0.6063
 7055TIP3   OH221128   0.733   2.009   2.004 -0.0812 -0.5734  0.6006
 7055TIP3    H121129   0.790   1.935   2.025 -2.4335 -2.9770 -0.8421
 7055TIP3    H221130   0.650   1.988   2.047  0.0253  2.9929  2.9656
 7056TIP3   OH221131   3.431   5.000   4.028 -0.0698  0.4592  0.4895
 7056TIP3    H121132   3.465   5.013   3.940  2.0969  0.0906  1.2284
 7056TIP3    H221133   3.336   5.002   4.017  0.0042 -2.9422 -2.3769
 7057TIP3   OH221134   6.417   4.547   4.247 -0.1932 -0.5136  0.4762
 7057TIP3    H121135   6.431   4.616   4.182  0.3235 -0.5156  0.5842
 7057TIP3    H221136   6.426   4.466   4.198 -1.0688 -0.5143  0.2918
 7058TIP3   OH221137   3.617   4.003   4.273 -0.2670 -0.0574 -0.1247
 7058TIP3    H121138   3.596   3.910   4.280  1.1804 -0.4343 -0.4007
 7058TIP3    H221139   3.591   4.027   4.184  0.8027 -0.6166 -0.6077
 7059TIP3   OH221140   2.362   2.955   4.777 -0.2101  0.0061 -1.2595
 7059TIP3    H121141   2.307   2.928   4.704 -0.2174 -1.7003 -0.6912
 7059TIP3    H221142   2.369   3.050   4.769 -1.6221  0.0490 -2.4629
 7060TIP3   OH221143   4.040   6.659   0.138  0.3121 -0.3240  0.3974
 7060TIP3    H121144   4.042   6.711   0.219 -0.4203 -0.4380  0.4905
 7060TIP3    H221145   4.128   6.622   0.131  0.3872 -0.2897  1.1324
 7061TIP3   OH221146   5.643   4.447   4.164  0.7716  0.6715  0.1882
 7061TIP3    H121147   5.646   4.400   4.081 -1.7735  0.8433 -0.0934
 7061TIP3    H221148   5.692   4.392   4.225  1.9642  0.1198 -1.1917
 7062TIP3   OH221149   2.808   3.910   4.450  0.1921  0.0318 -0.3761
 7062TIP3    H121150   2.790   3.865   4.533 -0.5861  1.0664  0.0337
 7062TIP3    H221151   2.900   3.892   4.433 -0.0472 -1.5720 -0.1487
 7063TIP3   OH221152   6.464   2.811   3.366 -0.0843  0.3979 -0.2718
 7063TIP3    H121153   6.533   2.748   3.343  0.6886  0.5076  1.5960
 7063TIP3    H221154   6.439   2.850   3.283 -1.0868 -2.8252 -1.6692
 7064TIP3   OH221155   5.867   1.579   1.450  0.0710 -0.8309  0.2574
 7064TIP3    H121156   5.865   1.575   1.545  1.1560 -2.9590  0.2445
 7064TIP3    H221157   5.844   1.491   1.421  1.9982 -0.8700 -1.3721
 7065TIP3   OH221158   5.275   1.729   3.329 -0.5703 -0.0685 -0.1631
 7065TIP3    H121159   5.227   1.702   3.251 -1.2560 -1.7049  0.7779
 7065TIP3    H221160   5.235   1.680   3.400  2.2927 -1.3394  0.7317
 7066TIP3   OH221161   6.380   1.218   1.044  0.7029 -0.3795 -0.1453
 7066TIP3    H121162   6.399   1.312   1.047  1.3608 -0.5298  1.4716
 7066TIP3    H221163   6.321   1.208   0.970  1.6383  1.1162 -1.1448
 7067TIP3   OH221164   0.810   4.750   0.465 -0.1151 -0.7428  0.5580
 7067TIP3    H121165   0.850   4.679   0.515  2.2826  1.7416  2.5351
 7067TIP3    H221166   0.750   4.792   0.527  1.2098  1.0354  0.7314
 7068TIP3   OH221167   5.032   6.037   3.601  0.0526  0.1965  0.2821
 7068TIP3    H121168   4.980   6.039   3.522  0.1085  1.1948  0.2661
 7068TIP3    H221169   5.112   5.991   3.576  0.8843  2.1146 -0.7652
 7069TIP3   OH221170   3.571   5.998   0.725 -0.3359  0.3208  0.7531
 7069TIP3    H121171   3.495   5.943   0.706 -0.9478  1.0297  1.1172
 7069TIP3    H221172   3.604   5.965   0.809 -1.7897  1.6349  1.8991
 7070TIP3   OH221173   0.523   2.548   1.819  0.3722  0.0793 -0.2008
 7070TIP3    H121174   0.479   2.485   1.877  0.4952  1.7250  1.7988
 7070TIP3    H221175   0.607   2.506   1.799  0.5277 -0.3435  1.2252
 7071TIP3   OH221176   5.259   5.647   1.460 -0.4673  0.1272  0.7350
 7071TIP3    H121177   5.245   5.734   1.423  0.2086 -0.0711 -0.0165
 7071TIP3    H221178   5.249   5.659   1.554  1.4731  1.4365  0.8385
 7072TIP3   OH221179   6.923   2.270   2.473  0.3768 -0.0070  0.4303
 7072TIP3    H121180   6.951   2.195   2.420 -0.0522  0.2220 -0.1265
 7072TIP3    H221181   7.002   2.297   2.520  0.5281 -0.8269  0.6647
 7073TIP3   OH221182   6.150   6.060   3.347  0.1702  0.1447  0.1388
 7073TIP3    H121183   6.072   6.053   3.292  0.1493 -0.8511  0.2694
 7073TIP3    H221184   6.185   5.971   3.351  0.9342  0.4491  0.6377
 7074TIP3   OH221185   4.379   2.269   0.955 -0.1038  0.9510 -0.1858
 7074TIP3    H121186   4.426   2.353   0.947  1.9017 -0.0298  0.6133
 7074TIP3    H221187   4.292   2.294   0.985  0.9921  2.7049  1.8427
 7075TIP3   OH221188   6.354   1.213   3.030 -0.5548  0.5857 -0.3793
 7075TIP3    H121189   6.375   1.132   2.983 -1.4484  1.6499 -2.7749
 7075TIP3    H221190   6.312   1.184   3.111 -0.0897 -1.3317 -0.7811
 7076TIP3   OH221191   4.906   2.968   4.653  0.8525 -0.2069 -0.2335
 7076TIP3    H121192   4.901   2.953   4.559  0.0547  0.3730 -0.2932
 7076TIP3    H221193   4.966   3.042   4.663  0.4453  0.1320 -0.3247
 7077TIP3   OH221194   5.447   5.490   4.742  0.2629 -0.4144  0.2528
 7077TIP3    H121195   5.497   5.560   4.700  0.6793  0.6327  2.3553
 7077TIP3    H221196   5.473   5.410   4.695 -1.2355  0.9122 -3.1089
 7078TIP3   OH221197   0.891   3.808   4.198  0.5051  0.0908 -0.3449
 7078TIP3    H121198   0.955   3.784   4.265  0.7345 -0.1690 -0.6549
 7078TIP3    H221199   0.897   3.738   4.133  1.8023  1.4220 -1.7109
 7079TIP3   OH221200   0.280   5.789   0.380 -0.5454 -0.2431  0.2140
 7079TIP3    H121201   0.260   5.703   0.419 -1.3528  0.1981  0.8262
 7079TIP3    H221202   0.347   5.826   0.437 -0.2856 -0.4187  0.0217
 7080TIP3   OH221203   4.465   5.043   3.125 -0.1008  0.0561  0.0673
 7080TIP3    H121204   4.527   4.982   3.087 -0.0761  0.9208 -1.3505
 7080TIP3    H221205   4.402   5.060   3.055 -2.1097 -0.9586  1.5029
 7081TIP3   OH221206   2.642   6.553   2.135  0.2711 -0.0376  0.1359
 7081TIP3    H121207   2.592   6.603   2.200 -0.2097 -1.5095  0.9337
 7081TIP3    H221208   2.705   6.503   2.187  1.4399  0.4812 -0.7372
 7082TIP3   OH221209   2.100   2.094   3.740  0.5573  0.6310  0.2262
 7082TIP3    H121210   2.136   2.182   3.731 -1.1789  1.3753  0.2169
 7082TIP3    H221211   2.006   2.104   3.728  0.2762 -1.1930  0.4845
 7083TIP3   OH221212   3.711   3.730   5.226  0.2112  0.6983  0.0982
 7083TIP3    H121213   3.759   3.734   5.143 -1.7140 -0.5577 -1.1541
 7083TIP3    H221214   3.699   3.822   5.251 -1.5508  1.2927 -2.5271
 7084TIP3   OH221215   2.096   4.337   4.297  0.2042 -0.2720  0.3607
 7084TIP3    H121216   2.033   4.283   4.249 -0.1595  0.5753 -0.1585
 7084TIP3    H221217   2.182   4.307   4.266  0.1116 -1.7591  1.4285
 7085TIP3   OH221218   4.288   0.034   2.964  0.3432  0.3665  0.2314
 7085TIP3    H121219   4.374   0.033   2.921 -0.0637 -0.6807 -0.5901
 7085TIP3    H221220   4.228   0.066   2.897  0.1707  1.7408  1.0109
 7086TIP3   OH221221   3.453   5.630   5.248 -0.1363  0.9405 -0.6226
 7086TIP3    H121222   3.445   5.643   5.153  0.8054  0.9858 -0.7028
 7086TIP3    H221223   3.468   5.717   5.283 -0.6529  0.9459 -0.4049
 7087TIP3   OH221224   4.017   5.983   5.578 -0.1035  0.3353  0.6761
 7087TIP3    H121225   4.030   5.931   5.657  0.2728 -1.7837 -0.6840
 7087TIP3    H221226   3.930   5.960   5.547 -0.2456  1.1294  0.4696
 7088TIP3   OH221227   3.152   3.573   1.526  0.0570  0.2104  0.6593
 7088TIP3    H121228   3.159   3.541   1.617  1.1895  1.1437  0.9302
 7088TIP3    H221229   3.136   3.667   1.535 -3.1379 -0.1457 -0.1351
 7089TIP3   OH221230   5.392   1.239   1.732 -0.4128 -0.2415 -0.6835
 7089TIP3    H121231   5.396   1.296   1.809 -3.6018 -0.5316 -0.1318
 7089TIP3    H221232   5.303   1.253   1.697 -0.5369 -3.1977 -1.8323
 7090TIP3   OH221233   5.559   5.950   4.466  0.3980 -0.6840  0.2269
 7090TIP3    H121234   5.500   6.014   4.427  0.2143 -0.0706  1.4698
 7090TIP3    H221235   5.641   5.961   4.418  0.2685  0.2441  0.1941
 7091TIP3   OH221236   3.857   5.803   4.584 -0.3118  0.0416  0.4216
 7091TIP3    H121237   3.926   5.736   4.579 -0.4691 -0.0245 -1.8838
 7091TIP3    H221238   3.898   5.883   4.551 -1.1086  0.1893 -0.2519
 7092TIP3   OH221239   6.297   2.055   5.190  0.6506 -0.5419  0.0448
 7092TIP3    H121240   6.297   2.131   5.248 -1.7060 -0.4281 -0.0099
 7092TIP3    H221241   6.379   2.010   5.210  1.6901  1.5057  0.7172
 7093TIP3   OH221242   3.118   2.796   2.872  0.4482 -0.1046 -0.4403
 7093TIP3    H121243   3.138   2.840   2.789 -0.1685 -0.1964 -0.6512
 7093TIP3    H221244   3.141   2.859   2.940  3.0633 -0.8390 -0.5609
 7094TIP3   OH221245   4.125   0.174   1.814  0.0728  0.9249 -0.3774
 7094TIP3    H121246   4.109   0.231   1.739 -0.4335  0.4177 -0.6631
 7094TIP3    H221247   4.057   0.196   1.877 -0.0187  0.7580 -0.4173
 7095TIP3   OH221248   6.629   3.420   1.786 -0.1373  0.5912  0.2603
 7095TIP3    H121249   6.652   3.341   1.836 -1.0452  0.6511  0.7772
 7095TIP3    H221250   6.642   3.394   1.694 -1.1698 -0.4204  0.3734
 7096TIP3   OH221251   2.990   2.173   5.380  0.1047  0.4702  0.4793
 7096TIP3    H121252   2.995   2.108   5.310 -0.9715 -0.5653  1.3241
 7096TIP3    H221253   2.966   2.255   5.336  0.2559  0.0198 -0.4507
 7097TIP3   OH221254   5.325   4.371   0.727  0.6358 -0.5593 -0.5861
 7097TIP3    H121255   5.389   4.301   0.718  0.0648 -0.9066 -2.4424
 7097TIP3    H221256   5.264   4.357   0.654 -1.1433  0.1758  0.6864
 7098TIP3   OH221257   5.929   2.756   4.571 -0.5455  0.2218 -0.2197
 7098TIP3    H121258   5.835   2.761   4.556 -0.9522  1.1289  2.2071
 7098TIP3    H221259   5.962   2.843   4.548 -0.5266  0.3315  0.2157
 7099TIP3   OH221260   6.898   4.609   5.346 -0.2188  0.1306 -0.4786
 7099TIP3    H121261   6.956   4.536   5.369  1.2895  1.2087 -0.6564
 7099TIP3    H221262   6.816   4.591   5.392  0.3485 -1.3131  0.0244
 7100TIP3   OH221263   6.775   2.242   0.067  0.8885  0.3401  0.1966
 7100TIP3    H121264   6.763   2.147   0.063  0.9191  0.2385  2.0031
 7100TIP3    H221265   6.734   2.274  -0.014  2.2589 -1.3058 -1.2340
 7101TIP3   OH221266   1.228   2.577   5.398  0.5349  0.2635 -0.1625
 7101TIP3    H121267   1.299   2.629   5.362  0.6567  0.7272  0.7265
 7101TIP3    H221268   1.188   2.534   5.322 -0.5863  2.8559 -1.1529
 7102TIP3   OH221269   6.261   1.836   1.555  0.5461 -0.0473 -0.0824
 7102TIP3    H121270   6.200   1.785   1.503  1.0156  0.9847 -1.7340
 7102TIP3    H221271   6.205   1.896   1.605  0.0248 -1.8214  1.5528
 7103TIP3   OH221272   0.644   6.755   1.974 -0.1171  0.0325  0.0919
 7103TIP3    H121273   0.629   6.717   2.060 -1.5516  0.5476  0.1050
 7103TIP3    H221274   0.728   6.799   1.981  0.1516 -0.5931  0.9791
 7104TIP3   OH221275   1.157   6.581   0.903 -0.5997 -0.1714 -0.0056
 7104TIP3    H121276   1.139   6.675   0.907  0.6797  0.1165 -0.4796
 7104TIP3    H221277   1.095   6.542   0.964  0.0104  1.1574  1.5328
 7105TIP3   OH221278   2.385   1.155   3.466  0.6678  0.5294 -0.4263
 7105TIP3    H121279   2.309   1.169   3.522  0.5279  3.1244 -1.1219
 7105TIP3    H221280   2.349   1.136   3.380  0.8523 -0.3658 -0.3143
 7106TIP3   OH221281   3.481   0.695   4.881  1.2064  0.7089  0.1571
 7106TIP3    H121282   3.418   0.655   4.820  2.2070  0.3099 -0.6516
 7106TIP3    H221283   3.426   0.735   4.948  0.0444  1.2930 -1.0782
 7107TIP3   OH221284   2.586   1.448   1.451  0.9020 -1.0415 -0.7253
 7107TIP3    H121285   2.632   1.400   1.382  0.4089 -0.6357 -1.3473
 7107TIP3    H221286   2.540   1.518   1.405 -0.5505 -1.5853 -0.1578
 7108TIP3   OH221287   2.119   2.176   4.027 -0.3511 -0.2769 -0.2465
 7108TIP3    H121288   2.104   2.115   3.954  0.9190 -0.9675  0.0419
 7108TIP3    H221289   2.191   2.231   3.998  1.5460 -1.8690  1.2161
 7109TIP3   OH221290   3.262   2.932   5.813  0.4195 -0.5865 -0.4311
 7109TIP3    H121291   3.288   2.842   5.835 -1.6546 -1.2755 -0.6151
 7109TIP3    H221292   3.251   2.975   5.897  1.0742 -0.5920 -0.3350
 7110TIP3   OH221293   0.629   6.644   0.903  0.1868 -0.2637 -0.7290
 7110TIP3    H121294   0.627   6.733   0.868  1.9612  1.2176  2.4286
 7110TIP3    H221295   0.540   6.630   0.935 -0.0682  0.4804 -1.0735
 7111TIP3   OH221296   3.169   4.650   5.413 -0.9325  1.1089 -0.0216
 7111TIP3    H121297   3.259   4.679   5.402 -1.1351  0.9514 -3.4959
 7111TIP3    H221298   3.116   4.729   5.401 -1.2793  0.8639 -0.1353
 7112TIP3   OH221299   3.890   2.654   0.538 -0.3824 -0.0048  0.1501
 7112TIP3    H121300   3.933   2.675   0.456 -0.7199 -0.6643 -0.2042
 7112TIP3    H221301   3.959   2.612   0.591 -0.4843 -0.7294 -0.2781
 7113TIP3   OH221302   1.717   6.469   5.830  0.2480  0.3340  0.0517
 7113TIP3    H121303   1.739   6.387   5.784  0.4376  0.3826  0.0543
 7113TIP3    H221304   1.741   6.451   5.921 -0.1752  0.2194  0.1415
 7114TIP3   OH221305   2.153   6.529   4.515  0.5440 -0.0777 -0.0375
 7114TIP3    H121306   2.178   6.438   4.498 -1.5008 -0.6260 -0.3774
 7114TIP3    H221307   2.171   6.574   4.433  3.1204  0.2429  0.6348
 7115TIP3   OH221308   6.765   3.985   3.714 -0.4679  0.3787 -0.0723
 7115TIP3    H121309   6.746   4.044   3.786  0.7054  0.9271 -0.2067
 7115TIP3    H221310   6.706   3.910   3.728 -3.1296  2.1900 -0.7533
 7116TIP3   OH221311   3.741   6.010   1.073  0.5823 -0.0904  0.5924
 7116TIP3    H121312   3.806   6.016   1.143  0.4782  0.6786  0.6285
 7116TIP3    H221313   3.738   6.098   1.035 -2.0837  0.6089  2.0893
 7117TIP3   OH221314   5.928   5.517   0.591 -0.0636 -0.3443  0.0838
 7117TIP3    H121315   5.862   5.584   0.576 -0.2099 -0.8815 -2.1196
 7117TIP3    H221316   5.879   5.442   0.625  0.1190  0.6288  2.6628
 7118TIP3   OH221317   4.547   4.895   1.499  0.4151  0.4477  0.6963
 7118TIP3    H121318   4.523   4.814   1.454 -0.2653  1.1238 -0.1983
 7118TIP3    H221319   4.583   4.866   1.582 -0.4235 -0.7543  0.6695
 7119TIP3   OH221320   0.039   0.861   3.049  0.3235 -0.3643 -0.2096
 7119TIP3    H121321   0.127   0.894   3.064  0.7728 -1.0065 -1.3447
 7119TIP3    H221322  -0.005   0.931   3.000  0.2076 -0.0637  0.3177
 7120TIP3   OH221323   1.468   1.339   5.715  0.0333  0.0832  0.8254
 7120TIP3    H121324   1.518   1.381   5.785 -0.2989 -3.7788  3.7729
 7120TIP3    H221325   1.379   1.332   5.750 -0.1886 -1.8223  0.0309
 7121TIP3   OH221326   3.543   3.641   3.489  0.6258 -0.9153  0.1718
 7121TIP3    H121327   3.565   3.562   3.538  2.1557 -0.2978  0.5353
 7121TIP3    H221328   3.608   3.644   3.418  0.3022 -0.2132 -0.1027
 7122TIP3   OH221329   5.154   3.100   4.442  0.5884 -0.6213  0.1586
 7122TIP3    H121330   5.069   3.142   4.431  1.5220  1.9442  1.8933
 7122TIP3    H221331   5.217   3.172   4.442  2.5967 -2.2720  0.6631
 7123TIP3   OH221332   6.687   1.583   4.336  0.2207  1.0001  0.3801
 7123TIP3    H121333   6.660   1.492   4.349  1.1352  0.4634 -1.1638
 7123TIP3    H221334   6.754   1.598   4.402 -0.5120  0.8331  1.1808
 7124TIP3   OH221335   3.090   6.506   3.581 -0.7959  0.5161  0.0609
 7124TIP3    H121336   3.011   6.498   3.634 -1.9408 -2.3179 -1.8291
 7124TIP3    H221337   3.060   6.490   3.491  2.0684 -2.0202 -0.5912
 7125TIP3   OH221338   4.589   5.369   0.747 -0.5775 -0.1181 -0.1799
 7125TIP3    H121339   4.655   5.417   0.699  2.4581 -1.6066  2.1632
 7125TIP3    H221340   4.564   5.297   0.689 -1.8281  1.5869 -1.8967
 7126TIP3   OH221341   3.642   2.500   0.490 -0.0778  0.1562  0.1593
 7126TIP3    H121342   3.604   2.442   0.557 -1.1709  0.3041 -0.3245
 7126TIP3    H221343   3.726   2.527   0.528 -0.3468 -0.3453  1.1572
 7127TIP3   OH221344   4.790   0.751   3.573 -0.2927  0.2204  0.0303
 7127TIP3    H121345   4.876   0.709   3.578  1.1402  3.0619  1.8198
 7127TIP3    H221346   4.734   0.700   3.631  0.0615 -1.7708 -1.2903
 7128TIP3   OH221347   6.177   3.162   3.833  0.2817  0.4556 -0.3185
 7128TIP3    H121348   6.122   3.171   3.755  2.4274  1.0229 -1.8737
 7128TIP3    H221349   6.240   3.094   3.810  0.9527  0.6266  0.9431
 7129TIP3   OH221350   3.755   0.677   1.078 -0.3244 -0.2094  0.0851
 7129TIP3    H121351   3.841   0.715   1.097  0.2004 -1.3143  0.0228
 7129TIP3    H221352   3.729   0.717   0.995  0.5410 -0.5131 -0.3436
 7130TIP3   OH221353   4.351   2.644   5.523 -0.6409 -0.6055 -0.4783
 7130TIP3    H121354   4.333   2.575   5.460 -0.1773 -0.3558 -0.8938
 7130TIP3    H221355   4.387   2.716   5.471  0.1840 -0.5645  0.1193
 7131TIP3   OH221356   0.244   0.179   1.958  0.7032  0.0922  0.2208
 7131TIP3    H121357   0.338   0.197   1.961  1.0180 -0.7399 -2.1126
 7131TIP3    H221358   0.238   0.085   1.942 -0.4073  0.3888 -1.4092
 7132TIP3   OH221359   2.866   4.324   0.279  0.5973 -0.7636  0.4385
 7132TIP3    H121360   2.850   4.417   0.262  0.5757 -0.8850 -0.2393
 7132TIP3    H221361   2.791   4.296   0.332  0.9466 -0.2431  1.2359
 7133TIP3   OH221362   4.932   1.019   3.846  0.6016  0.6186 -0.3929
 7133TIP3    H121363   4.950   1.104   3.888 -1.0372  1.0442 -0.4602
 7133TIP3    H221364   4.955   0.954   3.913  0.7002  1.1763  0.1297
 7134TIP3   OH221365   5.045   2.015   3.640 -0.2601 -0.3492 -0.1213
 7134TIP3    H121366   4.963   2.064   3.647 -0.2340 -0.3327  0.1069
 7134TIP3    H221367   5.112   2.083   3.626 -0.1951 -0.2941  0.4159
 7135TIP3   OH221368   3.540   1.828   1.936 -0.2581 -0.2965 -0.5583
 7135TIP3    H121369   3.489   1.903   1.965 -0.5365 -0.7822  0.2329
 7135TIP3    H221370   3.608   1.817   2.003 -0.7181 -1.2412 -0.2274
 7136TIP3   OH221371   2.106   3.773   3.565 -0.5242 -0.9164  0.1726
 7136TIP3    H121372   2.152   3.704   3.517  0.3942 -0.3383  0.2020
 7136TIP3    H221373   2.051   3.816   3.500 -0.2723 -0.9719 -0.0731
 7137TIP3   OH221374   0.176   5.938   2.225 -0.3879 -0.3048  0.3230
 7137TIP3    H121375   0.260   5.971   2.194  0.7947 -1.9103  1.6427
 7137TIP3    H221376   0.124   5.926   2.145  0.9060 -0.0326 -0.5938
 7138TIP3   OH221377   5.946   5.846   2.918 -0.3340 -0.0090 -0.0194
 7138TIP3    H121378   5.934   5.784   2.989 -0.5137 -0.5694 -0.5336
 7138TIP3    H221379   5.869   5.834   2.862 -0.2563  0.5131 -0.2468
 7139TIP3   OH221380   1.240   4.464   2.309 -0.0396 -0.2250 -0.3400
 7139TIP3    H121381   1.269   4.403   2.241 -1.3147  0.1412 -1.2427
 7139TIP3    H221382   1.156   4.430   2.339  0.6325 -0.5505  1.3148
 7140TIP3   OH221383   1.606   2.178   2.714  0.2001  0.0848 -0.1974
 7140TIP3    H121384   1.701   2.178   2.698  0.1860  1.8084 -0.5151
 7140TIP3    H221385   1.595   2.236   2.789 -0.5242 -1.0951  0.6430
 7141TIP3   OH221386   1.931   5.815   4.500  0.5056  0.2814 -0.5883
 7141TIP3    H121387   1.953   5.752   4.431 -1.0633  1.0640 -1.8539
 7141TIP3    H221388   2.015   5.836   4.541  1.4838 -0.1371 -2.3158
 7142TIP3   OH221389   7.046   6.470   3.457  0.3255  0.2603  0.0071
 7142TIP3    H121390   6.956   6.438   3.465  0.1304  1.0152  1.1381
 7142TIP3    H221391   7.076   6.437   3.373 -1.9894  2.3514 -1.7651
 7143TIP3   OH221392   7.039   5.881   1.351 -0.2874  0.4247 -0.9607
 7143TIP3    H121393   7.085   5.818   1.406 -1.1224 -0.5764 -1.3672
 7143TIP3    H221394   6.951   5.885   1.389 -0.0488  1.9106 -0.5089
 7144TIP3   OH221395   0.786   6.559   2.945  0.1289  0.0322 -0.5385
 7144TIP3    H121396   0.831   6.587   3.025  0.1195  2.0182 -1.1594
 7144TIP3    H221397   0.856   6.534   2.885  0.2417  0.1662 -0.4638
 7145TIP3   OH221398   3.786   4.625   4.542  0.0937  0.3712 -0.1193
 7145TIP3    H121399   3.824   4.558   4.485 -1.8889 -0.2422 -0.7831
 7145TIP3    H221400   3.772   4.700   4.485  0.7172  0.7731  0.2398
 7146TIP3   OH221401   5.644   3.335   2.920 -0.3411 -0.1832  0.5238
 7146TIP3    H121402   5.625   3.299   3.006  1.5257  1.1766  1.5836
 7146TIP3    H221403   5.737   3.316   2.906 -0.8242 -1.3044 -1.7089
 7147TIP3   OH221404   6.260   4.042   4.713  0.2732 -0.3967  0.3929
 7147TIP3    H121405   6.199   3.974   4.742 -1.1613  0.6992  0.0791
 7147TIP3    H221406   6.303   4.005   4.636  0.8108 -1.5990  1.2499
 7148TIP3   OH221407   2.301   2.625   0.663 -0.6911  0.4980 -0.2174
 7148TIP3    H121408   2.218   2.673   0.661 -0.1300  1.6252  1.3417
 7148TIP3    H221409   2.339   2.638   0.577 -3.2725 -2.2788 -2.0078
 7149TIP3   OH221410   1.882   5.392   5.362 -0.2785 -0.2591  0.1729
 7149TIP3    H121411   1.957   5.364   5.415  1.0386  1.4955 -0.6702
 7149TIP3    H221412   1.841   5.309   5.335  0.9558 -1.2596  1.1941
 7150TIP3   OH221413   0.112   5.815   2.927  0.1823 -0.2618 -0.0410
 7150TIP3    H121414   0.146   5.763   2.999 -0.5107  0.1710  0.6184
 7150TIP3    H221415   0.172   5.799   2.855  1.1550 -0.3441  0.7685
 7151TIP3   OH221416   5.735   4.727   4.970 -0.2695  0.1805  0.4276
 7151TIP3    H121417   5.826   4.699   4.963 -0.6282 -0.6975 -0.9245
 7151TIP3    H221418   5.739   4.822   4.960  0.3885  0.0347 -0.8700
 7152TIP3   OH221419   4.092   1.345   4.816  0.1708  0.0222  0.7278
 7152TIP3    H121420   4.158   1.411   4.838  1.3702 -0.2421 -1.7905
 7152TIP3    H221421   4.140   1.263   4.809 -0.5198 -0.3161 -0.3865
 7153TIP3   OH221422   5.288   1.409   3.836 -0.5811  0.0820  0.2439
 7153TIP3    H121423   5.209   1.463   3.827 -0.0819  1.0373  1.3103
 7153TIP3    H221424   5.351   1.466   3.880  0.4137 -0.9634  0.2253
 7154TIP3   OH221425   6.312   5.151   2.014 -0.0536  0.5415 -0.1645
 7154TIP3    H121426   6.333   5.087   1.946  0.1881  3.0384 -2.6476
 7154TIP3    H221427   6.218   5.142   2.028  0.2500 -1.4983  0.8857
 7155TIP3   OH221428   3.358   4.157   0.015 -0.1299  0.2696  0.1131
 7155TIP3    H121429   3.318   4.239   0.041  0.0211 -0.0617  1.4517
 7155TIP3    H221430   3.296   4.090   0.043  0.2771 -0.1231  0.0929
 7156TIP3   OH221431   3.325   5.204   2.953 -0.0918  0.1157 -0.4278
 7156TIP3    H121432   3.419   5.187   2.942 -0.1218 -0.6547  0.3814
 7156TIP3    H221433   3.282   5.135   2.904 -0.2196 -0.5241  0.5533
 7157TIP3   OH221434   6.134   6.562   0.745  0.4595 -0.1734 -0.1231
 7157TIP3    H121435   6.155   6.648   0.709 -1.5736  1.7098  2.7353
 7157TIP3    H221436   6.041   6.550   0.726  0.8222 -2.0314 -0.9093
 7158TIP3   OH221437   5.583   4.553   5.468 -0.7001  0.1036 -0.0116
 7158TIP3    H121438   5.645   4.588   5.404  1.4625 -2.4451  0.5021
 7158TIP3    H221439   5.532   4.629   5.496  0.0636  1.7781 -2.7425
 7159TIP3   OH221440   6.395   2.863   0.436  0.3871 -0.1813  0.1034
 7159TIP3    H121441   6.343   2.905   0.505  2.5279  2.0018  0.5127
 7159TIP3    H221442   6.483   2.855   0.473  1.2366 -0.3797 -1.8108
 7160TIP3   OH221443   2.850   2.866   2.004 -0.5634  0.2674  0.1394
 7160TIP3    H121444   2.757   2.872   1.982 -0.6855  1.4641  0.8871
 7160TIP3    H221445   2.853   2.810   2.082 -0.4923 -0.9979 -0.7540
 7161TIP3   OH221446   2.375   3.833   1.374  0.1179  0.1083 -0.3803
 7161TIP3    H121447   2.285   3.834   1.341  0.4760  0.8135 -1.4079
 7161TIP3    H221448   2.427   3.869   1.302  1.3428 -1.0990 -0.1397
 7162TIP3   OH221449   6.820   1.711   1.967 -0.0417 -0.4038 -0.2439
 7162TIP3    H121450   6.834   1.799   2.001  1.2749 -0.6080 -0.2352
 7162TIP3    H221451   6.784   1.725   1.879  0.0080  0.1422 -0.1788
 7163TIP3   OH221452   1.007   4.890   2.624 -0.6770 -0.4364  0.0141
 7163TIP3    H121453   1.098   4.898   2.652 -0.4025 -1.4363 -0.5479
 7163TIP3    H221454   0.995   4.963   2.563 -0.5004  0.1870  0.7181
 7164TIP3   OH221455   4.608   5.329   2.970 -0.1331 -0.4644  0.5676
 7164TIP3    H121456   4.662   5.251   2.982 -1.2204 -1.4139 -0.4809
 7164TIP3    H221457   4.557   5.336   3.051  1.0443  0.0635  1.2891
 7165TIP3   OH221458   6.637   6.135   0.807 -0.1307  0.5014  0.4445
 7165TIP3    H121459   6.578   6.073   0.764  0.3336  1.6837 -2.1096
 7165TIP3    H221460   6.627   6.118   0.900 -2.3903 -1.2213 -0.0359
 7166TIP3   OH221461   3.572   1.962   2.810 -0.0572  0.9165 -0.3549
 7166TIP3    H121462   3.525   1.929   2.887  0.2224  0.5176 -0.3570
 7166TIP3    H221463   3.641   2.017   2.847  0.5669  0.1006 -0.2879
 7167TIP3   OH221464   2.641   0.611   3.796  0.5070 -0.2336  0.3034
 7167TIP3    H121465   2.660   0.526   3.836  3.1275 -0.6621 -1.6047
 7167TIP3    H221466   2.611   0.590   3.708 -0.8725  0.8059  0.4960
 7168TIP3   OH221467   0.473   6.104   3.447  0.3051  0.0357  0.0911
 7168TIP3    H121468   0.387   6.119   3.409  0.8914  1.5128 -0.7386
 7168TIP3    H221469   0.456   6.049   3.524 -1.4050  0.6438  0.1850
 7169TIP3   OH221470   5.054   3.493   3.004  0.4316 -0.3183  0.6052
 7169TIP3    H121471   4.982   3.430   3.010 -1.3512  1.5686  0.4873
 7169TIP3    H221472   5.121   3.448   2.953 -0.4817 -2.3294  1.0874
 7170TIP3   OH221473   7.203   1.903   0.528  0.1330  0.1971  0.0960
 7170TIP3    H121474   7.124   1.955   0.516  1.6971  2.5995 -0.4116
 7170TIP3    H221475   7.202   1.878   0.620 -1.2352  0.0707  0.0744
 7171TIP3   OH221476   4.150   4.573   3.688  0.3858  0.1142  0.4326
 7171TIP3    H121477   4.141   4.595   3.595 -1.8886 -1.0783  0.2866
 7171TIP3    H221478   4.115   4.649   3.734  0.3215  0.1980  0.2470
 7172TIP3   OH221479   0.594   4.318   2.021 -0.5761  0.1205 -0.0142
 7172TIP3    H121480   0.651   4.381   1.977  0.5798 -0.6003  0.4134
 7172TIP3    H221481   0.567   4.258   1.951 -1.0793  0.6255 -0.2728
 7173TIP3   OH221482   0.533   2.061   5.070 -0.1067  0.4955  0.0144
 7173TIP3    H121483   0.572   2.023   4.991 -0.7428 -0.9087  0.3537
 7173TIP3    H221484   0.492   1.987   5.115 -1.0423  1.5196  0.9110
 7174TIP3   OH221485   4.312   3.950   4.686  0.9559  0.0589  0.2420
 7174TIP3    H121486   4.333   3.945   4.593  0.1764 -1.3578  0.1087
 7174TIP3    H221487   4.342   3.867   4.723  0.9630  0.4613  1.1916
 7175TIP3   OH221488   5.412   5.312   3.591 -0.3770 -0.5239 -0.1333
 7175TIP3    H121489   5.412   5.228   3.547 -0.9393 -0.8452  0.4592
 7175TIP3    H221490   5.397   5.291   3.683 -0.3753  0.2071  0.0425
 7176TIP3   OH221491   0.893   6.270   3.236  0.1347  0.2717  0.4980
 7176TIP3    H121492   0.802   6.296   3.222  0.2945  0.2541 -0.6701
 7176TIP3    H221493   0.888   6.177   3.258 -0.2343  0.6316  1.9927
 7177TIP3   OH221494   5.703   1.875   4.923 -0.2002 -0.1657 -0.2159
 7177TIP3    H121495   5.661   1.862   4.838 -0.0068 -0.8949 -0.2039
 7177TIP3    H221496   5.633   1.862   4.987  0.2486 -2.5822 -0.1380
 7178TIP3   OH221497   2.191   3.408   3.618  0.0258 -0.9304 -0.2897
 7178TIP3    H121498   2.097   3.391   3.618 -0.0535 -0.7328  1.9637
 7178TIP3    H221499   2.231   3.323   3.636  0.1454 -0.6259  0.9470
 7179TIP3   OH221500   1.246   4.954   2.882  0.8465  0.0899  0.2969
 7179TIP3    H121501   1.244   4.988   2.971 -0.0131 -0.6486  0.5741
 7179TIP3    H221502   1.264   4.861   2.891  0.0975 -0.1221 -0.2524
 7180TIP3   OH221503   3.756   2.165   0.004 -0.3071  0.0415  0.0074
 7180TIP3    H121504   3.790   2.217   0.077  0.2861 -0.1898 -0.1015
 7180TIP3    H221505   3.758   2.075   0.035  0.0276 -0.0677 -0.3215
 7181TIP3   OH221506   0.673   2.296   3.580 -0.8677  0.5887 -0.2127
 7181TIP3    H121507   0.704   2.371   3.630 -0.4243  0.6673 -0.5919
 7181TIP3    H221508   0.580   2.289   3.601 -0.8233  1.0010  0.1300
 7182TIP3   OH221509   3.043   4.561   0.486 -0.5980 -0.0254  0.0795
 7182TIP3    H121510   3.068   4.502   0.415 -1.5102 -0.7376  0.3312
 7182TIP3    H221511   3.044   4.506   0.564 -2.0955  0.1159  0.2249
 7183TIP3   OH221512   6.956   0.699   1.749 -0.2631 -0.4877  0.3160
 7183TIP3    H121513   6.926   0.624   1.800 -0.2436 -0.3772  0.4886
 7183TIP3    H221514   6.941   0.775   1.806  0.6919 -0.4691  0.5614
 7184TIP3   OH221515   5.860   5.263   2.194  0.2194  0.0363 -0.4826
 7184TIP3    H121516   5.818   5.219   2.120 -0.6548  2.1163 -1.3047
 7184TIP3    H221517   5.787   5.287   2.251  0.8773 -1.3970  1.0204
 7185TIP3   OH221518   1.327   4.367   4.560 -0.0843  0.1722  0.1297
 7185TIP3    H121519   1.385   4.407   4.624  0.8320  1.0585 -1.2111
 7185TIP3    H221520   1.364   4.390   4.475 -0.9524 -1.4128 -0.7415
 7186TIP3   OH221521   6.354   3.994   3.107  0.2674 -0.1882  0.1845
 7186TIP3    H121522   6.387   3.912   3.144  1.1025  0.7232  1.5053
 7186TIP3    H221523   6.429   4.053   3.108 -0.7580  1.1474  0.8844
 7187TIP3   OH221524   2.495   2.239   4.927  0.5121 -0.3666 -0.4565
 7187TIP3    H121525   2.485   2.144   4.927  2.1188 -0.5590  0.4195
 7187TIP3    H221526   2.586   2.254   4.905  0.3563  0.9680 -0.2648
 7188TIP3   OH221527   6.749   3.238   3.903  0.2054 -0.0424  0.3565
 7188TIP3    H121528   6.764   3.158   3.854  1.9971  1.4961 -1.8607
 7188TIP3    H221529   6.654   3.243   3.914  0.1173 -2.8822  1.4506
 7189TIP3   OH221530   0.709   5.423   0.340  0.3732 -0.2626 -0.0037
 7189TIP3    H121531   0.730   5.470   0.259 -0.4976  0.4647  0.1753
 7189TIP3    H221532   0.791   5.422   0.390  0.7589 -0.1783 -0.6227
 7190TIP3   OH221533   5.654   3.763   2.201  0.0186  0.3639 -0.0199
 7190TIP3    H121534   5.584   3.787   2.140 -1.4692  2.3707  2.3127
 7190TIP3    H221535   5.699   3.845   2.220 -0.2773  0.0308  2.4049
 7191TIP3   OH221536   5.129   5.533   3.351 -0.9809  0.1028  0.0457
 7191TIP3    H121537   5.186   5.608   3.329 -0.0806 -0.0701  1.6800
 7191TIP3    H221538   5.040   5.568   3.342 -0.6498  0.5677 -1.9057
 7192TIP3   OH221539   5.578   5.592   1.231  0.2111  0.0870  0.0685
 7192TIP3    H121540   5.515   5.659   1.204  1.8985  0.1776 -4.5054
 7192TIP3    H221541   5.650   5.641   1.271  1.0948  1.0744 -2.5653
 7193TIP3   OH221542   1.833   6.727   2.630 -0.2610 -0.0159  0.0634
 7193TIP3    H121543   1.825   6.811   2.584  3.6171 -0.6772 -2.2565
 7193TIP3    H221544   1.829   6.661   2.561  2.6168 -1.2751  0.9609
 7194TIP3   OH221545   2.300   1.109   1.725  0.1055 -0.0200 -0.3319
 7194TIP3    H121546   2.354   1.170   1.673  1.3643  1.3892  2.4058
 7194TIP3    H221547   2.270   1.162   1.799 -3.0398 -1.4870 -0.4397
 7195TIP3   OH221548   2.886   5.349   1.015 -0.3217 -0.6400  0.1364
 7195TIP3    H121549   2.837   5.413   0.964 -0.1006 -0.3975  0.2304
 7195TIP3    H221550   2.828   5.272   1.018 -0.8590 -0.2177  0.5872
 7196TIP3   OH221551   2.063   3.711   0.361 -0.0370 -0.2792  0.0041
 7196TIP3    H121552   1.973   3.727   0.332 -0.0151  1.5446  0.8235
 7196TIP3    H221553   2.114   3.780   0.319  0.7328 -0.3577  0.7880
 7197TIP3   OH221554   4.742   1.706   3.540 -0.4008 -0.5226 -0.8785
 7197TIP3    H121555   4.680   1.672   3.604  0.7096 -0.5071  0.2479
 7197TIP3    H221556   4.824   1.660   3.559  0.0019 -0.3800 -2.1766
 7198TIP3   OH221557   0.608   6.688   2.251 -0.1133 -0.1477  0.0082
 7198TIP3    H121558   0.551   6.702   2.328 -0.1950 -0.8625  0.0840
 7198TIP3    H221559   0.658   6.609   2.272 -2.3090 -2.2028 -1.8999
 7199TIP3   OH221560   4.094   2.524   0.690  0.3576  0.1520 -0.5136
 7199TIP3    H121561   4.128   2.439   0.665 -0.6701 -0.1745 -0.8822
 7199TIP3    H221562   4.171   2.580   0.697  0.9243 -0.4149 -1.8540
 7200TIP3   OH221563   4.965   0.291   2.879  1.1392 -0.4259 -0.3549
 7200TIP3    H121564   5.029   0.352   2.916 -0.7454  1.0015  0.7653
 7200TIP3    H221565   4.980   0.209   2.926  0.5477  0.6039  1.7319
 7201TIP3   OH221566   3.671   3.474   3.785  0.7631 -0.2352 -0.6166
 7201TIP3    H121567   3.657   3.395   3.838 -0.5227  0.2105 -0.2626
 7201TIP3    H221568   3.684   3.441   3.696 -1.8568 -0.7852 -0.8584
 7202TIP3   OH221569   5.770   0.706   2.694 -0.3707  0.2698  0.1999
 7202TIP3    H121570   5.689   0.747   2.662 -0.5047 -0.5739 -0.5816
 7202TIP3    H221571   5.839   0.767   2.668 -0.6460  0.4124 -0.2155
 7203TIP3   OH221572   0.117   6.753   2.680  0.0264 -0.0248 -0.5842
 7203TIP3    H121573   0.146   6.706   2.602  0.8414  0.7001 -0.7392
 7203TIP3    H221574   0.131   6.692   2.752  0.2995 -0.3107 -0.8759
 7204TIP3   OH221575   1.096   0.501   3.635 -0.2015 -0.9028 -0.0248
 7204TIP3    H121576   1.162   0.529   3.699 -1.1405 -0.6832  0.8848
 7204TIP3    H221577   1.103   0.565   3.564  1.5221 -1.7188 -0.6275
 7205TIP3   OH221578   4.770   2.125   5.500 -1.1768  0.3387 -0.1849
 7205TIP3    H121579   4.822   2.150   5.423 -1.6375  2.3039  0.1023
 7205TIP3    H221580   4.774   2.201   5.557 -2.4721 -0.3652  0.8805
 7206TIP3   OH221581   0.270   2.958   1.687 -0.0894 -0.7528  0.5209
 7206TIP3    H121582   0.186   2.984   1.650  0.6556 -0.9216 -1.3722
 7206TIP3    H221583   0.328   3.033   1.673  0.8457 -1.6887 -0.8726
 7207TIP3   OH221584   3.799   1.057   5.064  1.0515  0.3459 -0.3171
 7207TIP3    H121585   3.703   1.050   5.067  1.0410  0.5247 -0.2113
 7207TIP3    H221586   3.823   1.022   4.978  1.1560 -2.6103  0.8189
 7208TIP3   OH221587   5.851   4.734   4.328 -0.1834 -0.1426  0.1091
 7208TIP3    H121588   5.766   4.695   4.346 -0.1982 -0.1926 -0.0722
 7208TIP3    H221589   5.898   4.727   4.411 -0.1225 -0.7027  0.0329
 7209TIP3   OH221590   6.965   2.510   0.827 -0.0361 -0.1292  0.1860
 7209TIP3    H121591   6.957   2.585   0.885 -0.0488  0.4028 -0.4913
 7209TIP3    H221592   6.875   2.485   0.807 -0.0314 -0.2599  0.3237
 7210TIP3   OH221593   3.913   3.600   1.512 -0.4930  0.0906  1.1041
 7210TIP3    H121594   4.000   3.640   1.505 -0.2346 -0.0455  2.9710
 7210TIP3    H221595   3.852   3.673   1.500 -0.0547  0.6251  1.9878
 7211TIP3   OH221596   5.552   6.608   3.758  0.2485 -0.3933  0.2129
 7211TIP3    H121597   5.545   6.659   3.677 -2.1336  1.5213  1.4900
 7211TIP3    H221598   5.536   6.518   3.730 -0.6880  0.2336 -1.4597
 7212TIP3   OH221599   5.443   3.866   3.289  0.5940 -0.1285  0.0322
 7212TIP3    H121600   5.380   3.806   3.249  0.9177 -1.9625  2.0732
 7212TIP3    H221601   5.528   3.824   3.275  0.9024  0.1863  0.8965
 7213TIP3   OH221602   5.904   0.168   1.239  0.0784 -0.1716  0.4086
 7213TIP3    H121603   5.943   0.216   1.166  0.1156  0.2820  0.7279
 7213TIP3    H221604   5.977   0.122   1.279  0.1453  0.0011  0.4851
 7214TIP3   OH221605   1.641   3.389   5.512 -0.6535 -0.2074 -0.2892
 7214TIP3    H121606   1.663   3.474   5.550 -0.6094  0.0889 -0.9541
 7214TIP3    H221607   1.545   3.386   5.512 -0.7146  0.5823 -1.7954
 7215TIP3   OH221608   0.767   0.278   4.206  0.0217  0.2435  0.6142
 7215TIP3    H121609   0.823   0.202   4.189  0.2501 -0.1179  2.7351
 7215TIP3    H221610   0.688   0.261   4.154  0.1543 -1.3460  0.8737
 7216TIP3   OH221611   3.966   1.013   2.348 -0.4940 -0.3261  0.0594
 7216TIP3    H121612   3.941   1.045   2.261  0.1417  1.6988  0.5811
 7216TIP3    H221613   3.925   0.927   2.354 -1.3765 -0.0914 -1.8589
 7217TIP3   OH221614   3.921   1.883   3.347 -0.0626  0.6566  0.4162
 7217TIP3    H121615   3.830   1.894   3.322 -0.0315  0.6677  0.3093
 7217TIP3    H221616   3.948   1.969   3.381  0.3985  1.1466 -1.1094
 7218TIP3   OH221617   4.844   4.313   3.262 -0.4677  0.3106 -0.0505
 7218TIP3    H121618   4.837   4.300   3.168 -1.1879 -0.6111  0.1191
 7218TIP3    H221619   4.886   4.233   3.294  0.2416  0.8318  0.3646
 7219TIP3   OH221620   6.497   3.585   5.480  0.4462  0.3649  0.1654
 7219TIP3    H121621   6.453   3.501   5.469  0.0140  0.4787  0.9251
 7219TIP3    H221622   6.553   3.573   5.557 -0.6178  1.1539  1.0926
 7220TIP3   OH221623   1.101   4.838   4.970 -0.1467 -0.2096 -0.4520
 7220TIP3    H121624   1.104   4.907   5.036 -2.4449 -0.8520  0.4303
 7220TIP3    H221625   1.158   4.769   5.004 -2.3221 -1.0987  1.6501
 7221TIP3   OH221626   2.300   1.189   4.799  0.2275 -0.2291 -0.3088
 7221TIP3    H121627   2.236   1.143   4.744  2.3571 -1.5456 -1.8495
 7221TIP3    H221628   2.341   1.119   4.850  1.5309  0.3599 -0.5231
 7222TIP3   OH221629   5.736   2.353   1.220 -0.3645 -0.0578  0.3915
 7222TIP3    H121630   5.682   2.430   1.236 -3.9159 -2.3790  0.8195
 7222TIP3    H221631   5.763   2.324   1.307 -1.0410 -0.5769  0.4331
 7223TIP3   OH221632   0.591   0.532   3.631 -0.5136 -0.5248  0.7521
 7223TIP3    H121633   0.575   0.619   3.594 -2.5623 -0.2571  2.1177
 7223TIP3    H221634   0.680   0.535   3.664  0.0515  0.4529 -0.7843
 7224TIP3   OH221635   0.294   1.954   3.706 -0.7211  0.6013 -0.7378
 7224TIP3    H121636   0.229   1.896   3.743 -1.7536  0.8544 -2.0559
 7224TIP3    H221637   0.251   1.993   3.630  1.2132  0.1845 -2.1444
 7225TIP3   OH221638   1.825   3.384   2.095 -0.1298 -0.2644 -0.2094
 7225TIP3    H121639   1.745   3.340   2.124  0.1106 -0.9821 -0.6004
 7225TIP3    H221640   1.862   3.325   2.029  0.6712  0.1045 -0.1045
 7226TIP3   OH221641   2.405   0.535   5.867 -0.0920  0.4642 -0.1621
 7226TIP3    H121642   2.456   0.488   5.802  0.2479  1.7327 -0.8306
 7226TIP3    H221643   2.449   0.619   5.877  0.5020 -0.0733  2.5235
 7227TIP3   OH221644   2.804   5.261   1.468 -0.2845 -0.0584 -0.5552
 7227TIP3    H121645   2.840   5.200   1.532  0.0514  1.3260  0.6016
 7227TIP3    H221646   2.739   5.312   1.516 -0.1039  0.9331 -1.3332
 7228TIP3   OH221647   6.746   6.288   1.977  0.0786 -0.8919  0.1998
 7228TIP3    H121648   6.673   6.348   1.963 -0.0540 -1.2496 -0.7090
 7228TIP3    H221649   6.748   6.233   1.898  2.5708  0.4229 -0.7555
 7229TIP3   OH221650   7.184   3.048   3.722 -0.5240 -0.3162 -0.2358
 7229TIP3    H121651   7.132   3.112   3.770 -1.9222 -1.5654 -0.0134
 7229TIP3    H221652   7.142   2.964   3.740  1.8145 -1.4820  0.3160
 7230TIP3   OH221653   5.039   2.044   2.817 -0.1641 -0.7899  0.2457
 7230TIP3    H121654   4.973   1.976   2.806 -0.9590 -0.2192  1.2371
 7230TIP3    H221655   5.065   2.038   2.909 -1.1134  0.9743  0.6854
 7231TIP3   OH221656   1.533   4.582   0.887 -0.5360 -0.7049  0.1528
 7231TIP3    H121657   1.577   4.652   0.936 -0.2667 -0.8884  0.1736
 7231TIP3    H221658   1.560   4.595   0.797 -2.1702  0.5287 -0.2271
 7232TIP3   OH221659   1.414   6.570   3.904  0.2550  0.4372  0.1873
 7232TIP3    H121660   1.485   6.570   3.968  1.1429 -0.8382 -0.7262
 7232TIP3    H221661   1.436   6.641   3.843 -0.5664  1.6205  1.2267
 7233TIP3   OH221662   6.043   0.739   5.043 -0.3451 -0.4638 -0.0620
 7233TIP3    H121663   6.051   0.648   5.017  0.1663 -0.2366 -0.7296
 7233TIP3    H221664   6.078   0.789   4.969 -1.1575  0.2955  0.0427
 7234TIP3   OH221665   5.354   4.377   1.024 -0.4743  0.3618  0.1672
 7234TIP3    H121666   5.280   4.317   1.028 -1.4848  1.5664  0.4546
 7234TIP3    H221667   5.378   4.381   0.932 -0.6474 -0.1847  0.1000
 7235TIP3   OH221668   0.216   1.151   2.888 -0.2571  0.0292  0.1276
 7235TIP3    H121669   0.202   1.200   2.969 -0.9488  1.2777 -0.7133
 7235TIP3    H221670   0.137   1.167   2.836  0.9950  0.9239 -1.6066
 7236TIP3   OH221671   3.943   1.793   5.887 -0.1022 -0.1620  0.1361
 7236TIP3    H121672   3.995   1.860   5.843 -0.3909 -0.8148 -1.2348
 7236TIP3    H221673   3.863   1.787   5.835 -1.1527  0.1427  1.6540
 7237TIP3   OH221674   0.886   2.491   2.882 -0.1674 -0.2773 -0.0509
 7237TIP3    H121675   0.922   2.550   2.948 -0.8114  2.1540 -1.7482
 7237TIP3    H221676   0.798   2.469   2.914 -0.0356 -0.0895  0.4463
 7238TIP3   OH221677   4.611   0.399   1.666  0.4830  0.4138  0.1295
 7238TIP3    H121678   4.668   0.432   1.597  1.1662 -1.8978 -0.5294
 7238TIP3    H221679   4.671   0.360   1.730 -0.2051  1.4100  1.4181
 7239TIP3   OH221680   1.893   1.572   1.258  0.2714 -0.1465 -0.1100
 7239TIP3    H121681   1.863   1.484   1.238 -2.0239 -0.1585  2.6836
 7239TIP3    H221682   1.911   1.571   1.352  1.5298  2.0408 -0.2378
 7240TIP3   OH221683   0.577   5.442   4.182 -0.3775  0.5495  0.3161
 7240TIP3    H121684   0.519   5.375   4.218  0.9827 -2.4696 -2.5746
 7240TIP3    H221685   0.664   5.418   4.212  0.2106  0.6115 -1.2599
 7241TIP3   OH221686   3.095   4.683   1.863  0.9025  0.4222 -0.2797
 7241TIP3    H121687   3.009   4.643   1.873  0.6326  0.5399 -1.8984
 7241TIP3    H221688   3.100   4.708   1.771  2.8490  0.0108 -0.3271
 7242TIP3   OH221689   1.376   6.621   2.476 -0.4226  0.0352 -0.8180
 7242TIP3    H121690   1.337   6.679   2.542  2.0637  0.1773  0.7056
 7242TIP3    H221691   1.371   6.534   2.515 -0.6248 -0.1721 -1.3054
 7243TIP3   OH221692   1.773   2.274   4.207  0.0974  0.9474 -0.4068
 7243TIP3    H121693   1.700   2.332   4.183  0.2299  1.9703  1.4967
 7243TIP3    H221694   1.832   2.329   4.257  0.5376 -0.6815  0.9620
 7244TIP3   OH221695   2.253   3.870   3.073  0.4022  0.4512 -0.6033
 7244TIP3    H121696   2.314   3.927   3.120  1.4935 -0.9436 -0.2675
 7244TIP3    H221697   2.280   3.875   2.982  0.8157  0.0975 -0.5024
 7245TIP3   OH221698   0.225   2.249   4.745 -0.0648 -0.4898  0.0596
 7245TIP3    H121699   0.213   2.178   4.683 -1.2025 -1.2823  1.1293
 7245TIP3    H221700   0.147   2.304   4.733  0.7587  0.5696 -0.6983
 7246TIP3   OH221701   3.993   0.739   5.286 -0.0527 -0.4213 -0.0425
 7246TIP3    H121702   3.940   0.817   5.271  0.2080 -0.3676 -0.7481
 7246TIP3    H221703   4.080   0.762   5.253 -0.3196 -1.4611 -1.5922
 7247TIP3   OH221704   0.375   3.086   3.214  0.3528 -0.0181  0.6226
 7247TIP3    H121705   0.465   3.119   3.215  0.3042  0.1247  0.3755
 7247TIP3    H221706   0.384   2.994   3.191  0.5508 -0.3915  2.1042
 7248TIP3   OH221707   5.542   0.489   5.368  0.0569  0.6463 -0.0542
 7248TIP3    H121708   5.481   0.423   5.336 -0.4272  1.1997 -0.3043
 7248TIP3    H221709   5.543   0.556   5.299 -0.0223  1.2435  0.5140
 7249TIP3   OH221710   5.751   3.431   2.464  0.4821 -0.3031 -0.4473
 7249TIP3    H121711   5.841   3.405   2.445  1.2678  1.4332  0.6490
 7249TIP3    H221712   5.703   3.413   2.383  1.1996 -3.5939 -0.3023
 7250TIP3   OH221713   7.182   1.429   5.657  0.3792  0.1496  0.2860
 7250TIP3    H121714   7.120   1.497   5.685  0.3920  0.0407  0.5860
 7250TIP3    H221715   7.134   1.378   5.593  0.4251  0.5449 -0.0673
 7251TIP3   OH221716   2.099   2.195   2.824  0.0778  0.1041 -0.4003
 7251TIP3    H121717   2.137   2.235   2.746 -0.1824 -1.7754 -1.5604
 7251TIP3    H221718   2.172   2.145   2.862  0.0533  0.5590  0.2570
 7252TIP3   OH221719   6.703   2.551   3.901  0.2752 -0.5182  0.4753
 7252TIP3    H121720   6.799   2.543   3.898  0.1598 -2.0117 -0.2825
 7252TIP3    H221721   6.675   2.534   3.812 -0.6706  0.7154  0.5232
 7253TIP3   OH221722   2.887   1.085   4.786  0.6620  0.3069  0.3948
 7253TIP3    H121723   2.810   1.133   4.816  1.3262  1.0349  0.9489
 7253TIP3    H221724   2.884   1.094   4.690  0.3526  0.7760  0.4463
 7254TIP3   OH221725   6.869   3.035   0.338 -0.7932  0.2576  0.1232
 7254TIP3    H121726   6.937   2.989   0.387 -2.1600 -0.5885  1.2962
 7254TIP3    H221727   6.913   3.066   0.259  0.2244 -3.0584 -0.7709
 7255TIP3   OH221728   6.809   5.828   0.123 -0.0633 -0.2889  0.2242
 7255TIP3    H121729   6.809   5.883   0.044  0.5497 -1.5964 -0.7132
 7255TIP3    H221730   6.719   5.835   0.157  0.4131  2.7665  1.2479
 7256TIP3   OH221731   6.993   6.138   4.967  0.4551 -0.0111  0.6981
 7256TIP3    H121732   7.014   6.069   5.031  0.7052 -0.2264  0.3852
 7256TIP3    H221733   6.922   6.101   4.915 -1.2825  1.0128  2.2466
 7257TIP3   OH221734   6.436   0.557   5.527  0.0527 -0.1246 -0.5398
 7257TIP3    H121735   6.369   0.522   5.586 -1.7976  0.5018 -2.1601
 7257TIP3    H221736   6.410   0.648   5.512  1.0944  0.0533 -1.4565
 7258TIP3   OH221737   3.636   3.389   3.531 -0.2120 -0.1774  0.6191
 7258TIP3    H121738   3.614   3.297   3.543 -2.0897 -0.0672 -1.3985
 7258TIP3    H221739   3.713   3.388   3.473  0.3636 -0.4516  1.3666
 7259TIP3   OH221740   2.272   6.136   2.301 -0.8091  0.0981  0.0028
 7259TIP3    H121741   2.271   6.048   2.338 -0.3048 -0.2777 -0.8551
 7259TIP3    H221742   2.364   6.162   2.305 -0.4193 -0.6365 -2.5263
 7260TIP3   OH221743   5.714   0.857   2.043  0.3710  0.0905 -0.6996
 7260TIP3    H121744   5.652   0.926   2.020  0.2111 -0.5097 -2.1823
 7260TIP3    H221745   5.800   0.899   2.036  0.2657  0.2023 -1.4112
 7261TIP3   OH221746   3.748   6.254   0.225  0.3281  0.8133  0.2594
 7261TIP3    H121747   3.671   6.310   0.227  1.1136  2.0950 -1.9912
 7261TIP3    H221748   3.818   6.311   0.194  1.4869 -1.0643 -0.7666
 7262TIP3   OH221749   4.029   1.517   5.108  0.3795 -0.3616 -0.7075
 7262TIP3    H121750   3.945   1.474   5.120  0.5002 -0.4346 -0.0707
 7262TIP3    H221751   4.010   1.594   5.054 -0.5956  1.1536  1.6416
 7263TIP3   OH221752   1.732   0.889   0.588  0.1222 -0.2190 -0.1996
 7263TIP3    H121753   1.813   0.860   0.630  0.5609  1.1426 -0.0487
 7263TIP3    H221754   1.708   0.817   0.529  1.7061 -0.4529 -0.6072
 7264TIP3   OH221755   1.975   4.507   4.855 -0.0165  0.0039 -0.9919
 7264TIP3    H121756   1.961   4.426   4.805 -0.4228 -0.4927 -0.1112
 7264TIP3    H221757   2.022   4.565   4.795 -2.1765  0.1736 -2.6667
 7265TIP3   OH221758   2.315   0.628   1.594  0.7735 -0.2627 -0.0832
 7265TIP3    H121759   2.324   0.720   1.621  0.4922 -0.2994  0.1324
 7265TIP3    H221760   2.389   0.584   1.635 -0.5015 -0.6306  1.9741
 7266TIP3   OH221761   5.020   6.162   5.826  0.5814  0.4157  0.3113
 7266TIP3    H121762   5.021   6.131   5.917  0.2584 -1.3136 -0.2534
 7266TIP3    H221763   4.929   6.155   5.799  0.1274  3.5366  0.6537
 7267TIP3   OH221764   4.733   6.533   0.671 -0.2614 -0.1971 -0.3257
 7267TIP3    H121765   4.784   6.459   0.639  1.3951  0.6911  0.1211
 7267TIP3    H221766   4.792   6.579   0.731 -1.2837  1.3972 -0.4675
 7268TIP3   OH221767   5.848   4.195   0.028 -0.1275  0.0208  0.2467
 7268TIP3    H121768   5.907   4.249   0.080  0.6529  0.1232 -0.7209
 7268TIP3    H221769   5.799   4.144   0.093 -1.0066  1.9759  1.2095
 7269TIP3   OH221770   2.798   3.693   1.423  0.0875 -0.2132 -0.7979
 7269TIP3    H121771   2.811   3.747   1.345  1.5967 -0.6289 -0.8792
 7269TIP3    H221772   2.821   3.751   1.496  0.5123 -0.3638 -0.8057
 7270TIP3   OH221773   2.722   0.907   4.954  0.2729  0.1433  0.5691
 7270TIP3    H121774   2.749   0.841   4.890  1.0235  1.6904 -0.7693
 7270TIP3    H221775   2.803   0.954   4.975 -0.3971  1.2315  0.7728
 7271TIP3   OH221776   0.761   5.902   4.244 -0.2792  0.1320 -0.4880
 7271TIP3    H121777   0.721   5.951   4.316 -0.3336  0.6194 -0.8479
 7271TIP3    H221778   0.813   5.833   4.288  1.4158  1.7050  0.1113
 7272TIP3   OH221779   6.540   2.468   5.915  0.2531  0.1900  0.0273
 7272TIP3    H121780   6.513   2.379   5.893  2.0713  0.1712 -2.5286
 7272TIP3    H221781   6.523   2.519   5.836  1.5549  1.5495  0.5759
 7273TIP3   OH221782   2.685   4.969   0.884  0.6735 -0.6618 -0.0285
 7273TIP3    H121783   2.647   5.039   0.937  1.5166  0.8668 -1.3721
 7273TIP3    H221784   2.708   4.901   0.947  0.3433  0.4868  1.3868
 7274TIP3   OH221785   6.320   3.012   1.945 -0.1843 -0.0382 -0.0699
 7274TIP3    H121786   6.317   3.071   2.020  1.6254 -0.5820  0.4856
 7274TIP3    H221787   6.229   2.983   1.933 -0.8338  1.6334  0.6072
 7275TIP3   OH221788   4.382   0.846   5.181 -0.1410  0.1526 -0.1211
 7275TIP3    H121789   4.478   0.845   5.192 -0.2672 -1.1898  1.2179
 7275TIP3    H221790   4.348   0.847   5.270 -1.3974  1.1797 -0.6014
 7276TIP3   OH221791   3.833   2.838   3.194 -0.6639 -0.2164  0.1034
 7276TIP3    H121792   3.820   2.805   3.283 -0.3951  0.2892  0.3355
 7276TIP3    H221793   3.746   2.844   3.157 -0.8543  0.3359  0.6168
 7277TIP3   OH221794   2.878   0.092   2.754  0.8193 -0.3450 -0.3833
 7277TIP3    H121795   2.966   0.082   2.792 -0.2766 -1.0442  2.2108
 7277TIP3    H221796   2.821   0.107   2.830 -1.0519  2.2665 -2.1420
 7278TIP3   OH221797   3.522   5.892   5.350 -0.1660 -0.5742  0.4144
 7278TIP3    H121798   3.451   5.953   5.328 -0.3823 -1.3952 -1.3405
 7278TIP3    H221799   3.600   5.946   5.353 -0.6443  0.1063  0.8825
 7279TIP3   OH221800   6.028   4.208   3.800  0.3494 -0.7879 -0.5038
 7279TIP3    H121801   5.973   4.158   3.739  0.1301 -0.7544 -0.3350
 7279TIP3    H221802   6.117   4.180   3.780  0.1138 -3.1028  1.2108
 7280TIP3   OH221803   1.226   1.865   0.423  0.5035 -0.0893 -0.6699
 7280TIP3    H121804   1.281   1.943   0.423  0.0911  0.3164 -3.7634
 7280TIP3    H221805   1.242   1.825   0.508  3.5805  1.3813 -0.4124
 7281TIP3   OH221806   2.083   3.547   4.015  0.3979 -0.3467 -0.2006
 7281TIP3    H121807   2.003   3.538   3.964 -0.1208  2.4849 -0.0388
 7281TIP3    H221808   2.151   3.506   3.961 -0.7890 -0.9522 -1.2746
 7282TIP3   OH221809   5.527   1.287   3.211  0.1833 -0.1919  0.3762
 7282TIP3    H121810   5.554   1.375   3.185  0.9787 -0.7339 -0.7193
 7282TIP3    H221811   5.563   1.229   3.143 -1.9631 -1.1890 -0.0048
 7283TIP3   OH221812   5.382   4.475   2.965  0.2349 -0.6988 -0.0364
 7283TIP3    H121813   5.317   4.489   3.034  0.2345  4.0185 -0.6574
 7283TIP3    H221814   5.332   4.439   2.892 -0.8684 -0.8457  0.7638
 7284TIP3   OH221815   4.176   5.536   3.698 -0.3656  0.8026  0.2457
 7284TIP3    H121816   4.244   5.553   3.763 -0.6070 -0.4617  0.8460
 7284TIP3    H221817   4.209   5.578   3.618 -0.1087  2.4528  1.1787
 7285TIP3   OH221818   6.619   4.763   0.709 -0.1885  0.7902 -0.5331
 7285TIP3    H121819   6.547   4.702   0.721 -0.1049  0.3735 -1.9227
 7285TIP3    H221820   6.633   4.802   0.795 -1.0076 -0.3001  0.1176
 7286TIP3   OH221821   6.219   0.457   3.820  0.2858  0.1081 -0.1632
 7286TIP3    H121822   6.275   0.422   3.888  1.5293 -1.9030 -2.1050
 7286TIP3    H221823   6.130   0.430   3.845  0.8158 -1.3024  0.2734
 7287TIP3   OH221824   5.856   3.261   4.732 -0.3637  0.2726 -0.1645
 7287TIP3    H121825   5.919   3.214   4.677 -0.1190 -0.7593  0.9515
 7287TIP3    H221826   5.907   3.291   4.807 -1.1699 -0.5603  0.7483
 7288TIP3   OH221827   0.483   3.730   0.548  0.0351  0.4359 -0.3337
 7288TIP3    H121828   0.544   3.667   0.510 -1.6872 -0.9470 -0.9527
 7288TIP3    H221829   0.529   3.814   0.544  2.1944 -0.6497  0.0062
 7289TIP3   OH221830   3.187   2.012   4.065  0.8447 -0.0623 -0.6566
 7289TIP3    H121831   3.238   2.018   4.145  0.7183 -0.6502 -0.5265
 7289TIP3    H221832   3.179   1.918   4.048  0.0726  0.0235 -0.8353
 7290TIP3   OH221833   7.064   4.825   5.373 -0.1623 -0.0376 -0.0783
 7290TIP3    H121834   7.058   4.730   5.382  2.1776 -0.3289 -0.9280
 7290TIP3    H221835   7.015   4.859   5.448 -0.9102 -1.8933  0.3417
 7291TIP3   OH221836   2.675   1.677   1.780  0.1294  0.2611  1.0132
 7291TIP3    H121837   2.648   1.591   1.812  0.3316  0.0004  0.5109
 7291TIP3    H221838   2.719   1.658   1.697  2.1166  0.6154  1.9200
 7292TIP3   OH221839   4.704   1.387   3.986 -0.4519 -0.1913 -0.4700
 7292TIP3    H121840   4.747   1.406   4.069  0.0739  0.8540 -0.9729
 7292TIP3    H221841   4.746   1.306   3.956 -0.2504 -0.2651 -0.0066
 7293TIP3   OH221842   4.382   6.706   3.438  0.4840  0.3981  0.7526
 7293TIP3    H121843   4.350   6.792   3.465  5.1730  2.3278  1.2755
 7293TIP3    H221844   4.377   6.707   3.342 -0.7328  0.6589  0.8089
 7294TIP3   OH221845   6.250   0.483   1.768 -0.0330 -0.4979  0.3357
 7294TIP3    H121846   6.216   0.508   1.682 -0.8569 -1.6551  0.3105
 7294TIP3    H221847   6.230   0.559   1.824 -0.7579 -0.3074 -0.1679
 7295TIP3   OH221848   6.525   4.497   5.705 -0.1797 -0.7513 -0.1411
 7295TIP3    H121849   6.608   4.488   5.751  0.3690 -1.2873 -1.1763
 7295TIP3    H221850   6.544   4.555   5.631 -1.0928  0.2885  0.4204
 7296TIP3   OH221851   6.988   3.225   1.372 -0.4696 -0.4225  0.1467
 7296TIP3    H121852   6.954   3.279   1.301 -0.9975  0.1603  0.8191
 7296TIP3    H221853   7.078   3.255   1.384 -0.3170 -0.6620 -0.4067
 7297TIP3   OH221854   3.069   1.573   0.552 -0.0046  0.3424 -0.3638
 7297TIP3    H121855   3.020   1.632   0.609  0.5659 -0.1926  0.7229
 7297TIP3    H221856   3.015   1.564   0.473 -1.4642  0.0713  0.6286
 7298TIP3   OH221857   2.150   6.729   0.155  0.3600 -0.4238  0.3744
 7298TIP3    H121858   2.194   6.768   0.079 -0.4156 -0.1142  0.0762
 7298TIP3    H221859   2.116   6.803   0.204 -2.4828 -0.6760 -1.0129
 7299TIP3   OH221860   0.115   6.630   3.466  0.2505  0.1552 -0.0185
 7299TIP3    H121861   0.023   6.623   3.439  0.2415 -0.8683  0.2292
 7299TIP3    H221862   0.162   6.652   3.386  0.0195 -1.2233 -0.5769
 7300TIP3   OH221863   3.844   6.196   0.707 -0.0684  0.0723  0.0976
 7300TIP3    H121864   3.885   6.250   0.640  0.6345 -1.2004 -0.5407
 7300TIP3    H221865   3.916   6.174   0.767 -0.7132  1.3066  1.3694
 7301TIP3   OH221866   6.158   6.570   0.426  0.4255 -0.2545 -0.0359
 7301TIP3    H121867   6.063   6.564   0.421  0.4019  0.8864 -2.1323
 7301TIP3    H221868   6.175   6.659   0.456  0.8564 -0.8399  1.5417
 7302TIP3   OH221869   1.418   2.397   2.353  0.1318  0.1020  0.1032
 7302TIP3    H121870   1.355   2.396   2.281  0.0895  1.6361  0.0886
 7302TIP3    H221871   1.446   2.305   2.361 -2.4768 -0.7312  0.4843
 7303TIP3   OH221872   1.794   5.684   2.006 -0.3001  0.2380  0.0399
 7303TIP3    H121873   1.870   5.669   1.950 -1.5851 -1.9079 -1.2665
 7303TIP3    H221874   1.767   5.773   1.987  0.9853  0.5083 -0.5955
 7304TIP3   OH221875   1.873   3.144   2.845 -0.1237 -0.5215  0.3325
 7304TIP3    H121876   1.814   3.214   2.816  1.5631  0.7430 -0.2436
 7304TIP3    H221877   1.873   3.081   2.773  0.4246  0.2544 -0.3585
 7305TIP3   OH221878   6.972   2.860   5.643 -0.1356  0.0056  0.6999
 7305TIP3    H121879   7.000   2.873   5.733 -0.8738  0.9383  0.8028
 7305TIP3    H221880   6.967   2.948   5.606 -3.1374 -0.0526  0.7804
 7306TIP3   OH221881   4.657   2.659   3.158  0.8127  0.0113  0.2298
 7306TIP3    H121882   4.749   2.636   3.169  0.4068 -0.9241  1.9295
 7306TIP3    H221883   4.610   2.577   3.170 -0.2429  0.3993 -1.0107
 7307TIP3   OH221884   1.216   3.987   0.759 -0.5617  0.0722  0.1902
 7307TIP3    H121885   1.302   3.966   0.723  0.0897  1.5442  0.8096
 7307TIP3    H221886   1.188   3.906   0.801  0.3434 -0.5431 -0.3516
 7308TIP3   OH221887   2.833   2.880   5.566 -0.2428 -0.6753 -0.9085
 7308TIP3    H121888   2.762   2.940   5.589  0.0844  0.0516 -1.7222
 7308TIP3    H221889   2.793   2.793   5.566 -0.2197 -0.8268  2.6029
 7309TIP3   OH221890   1.859   2.316   3.880  0.1794  0.1695 -0.3654
 7309TIP3    H121891   1.847   2.224   3.855 -0.8723 -0.0111  0.7595
 7309TIP3    H221892   1.793   2.332   3.946 -1.2992  2.4431 -2.2283
 7310TIP3   OH221893   1.580   6.108   3.674  0.8713 -0.4788 -0.6559
 7310TIP3    H121894   1.536   6.187   3.705 -0.4944 -0.9727 -1.2354
 7310TIP3    H221895   1.671   6.118   3.702  0.3890  0.5642  0.6396
 7311TIP3   OH221896   6.786   5.515   0.537  0.0730  0.4588 -0.4390
 7311TIP3    H121897   6.765   5.423   0.555  2.2453 -0.3637 -1.6092
 7311TIP3    H221898   6.765   5.561   0.618  3.9408 -2.0319  2.3538
 7312TIP3   OH221899   4.223   3.245   0.381  0.4909  0.4017  0.1064
 7312TIP3    H121900   4.265   3.204   0.305 -2.4260  0.7662 -1.8691
 7312TIP3    H221901   4.266   3.330   0.389  3.1707 -0.9213  1.1279
 7313TIP3   OH221902   3.611   3.599   0.214 -0.2726  0.6884 -0.3554
 7313TIP3    H121903   3.657   3.657   0.274  2.7107 -0.8779 -0.9716
 7313TIP3    H221904   3.574   3.658   0.148 -0.0141  2.0810  0.6820
 7314TIP3   OH221905   3.512   4.328   4.480  0.3210  0.0404  0.1641
 7314TIP3    H121906   3.439   4.374   4.439 -0.2749 -1.2688 -0.2637
 7314TIP3    H221907   3.576   4.318   4.410 -0.8232 -2.4690 -0.6119
 7315TIP3   OH221908   6.881   3.834   5.002 -0.4627  0.4052 -0.0096
 7315TIP3    H121909   6.932   3.915   4.999 -0.4698  0.4123 -2.9241
 7315TIP3    H221910   6.795   3.862   5.034 -0.7710  1.7987 -1.8979
 7316TIP3   OH221911   3.383   1.729   1.521 -0.4596  0.4273  0.0717
 7316TIP3    H121912   3.434   1.659   1.561 -0.9105  0.6767  1.1105
 7316TIP3    H221913   3.415   1.734   1.431  0.2499 -0.4561  0.2652
 7317TIP3   OH221914   1.144   5.656   3.988  0.1958 -0.7342  0.0862
 7317TIP3    H121915   1.126   5.563   3.972  0.8811 -0.7121 -0.8619
 7317TIP3    H221916   1.081   5.702   3.932 -0.6557 -0.5976  1.1160
 7318TIP3   OH221917   1.694   1.704   3.275  0.0479  0.1298 -0.7664
 7318TIP3    H121918   1.666   1.784   3.320 -1.7014 -0.5766 -0.5516
 7318TIP3    H221919   1.720   1.645   3.345 -1.4806 -0.5238 -0.7273
 7319TIP3   OH221920   0.328   0.396   3.633 -0.3090 -0.3601  0.7017
 7319TIP3    H121921   0.323   0.310   3.591 -1.7520 -0.4925  1.0912
 7319TIP3    H221922   0.414   0.429   3.609 -0.5001 -1.0495 -1.1463
 7320TIP3   OH221923   7.208   0.187   3.463 -0.3961 -0.4595  0.2665
 7320TIP3    H121924   7.182   0.259   3.520 -0.7644 -1.8457  1.9553
 7320TIP3    H221925   7.137   0.123   3.472 -1.1601 -0.2084 -2.8695
 7321TIP3   OH221926   4.381   3.325   4.817 -0.0095 -0.2050 -0.4633
 7321TIP3    H121927   4.469   3.346   4.850  1.0892 -1.3055 -2.5017
 7321TIP3    H221928   4.350   3.255   4.874  0.9964 -0.7138 -0.5184
 7322TIP3   OH221929   0.170   3.647   2.651  0.0768 -0.0300 -0.1147
 7322TIP3    H121930   0.087   3.691   2.628  0.7494  1.0556 -0.5657
 7322TIP3    H221931   0.206   3.701   2.721  0.6525 -0.1796 -0.2956
 7323TIP3   OH221932   4.898   2.262   5.286 -0.5139  0.0212 -0.2617
 7323TIP3    H121933   4.881   2.255   5.192 -0.3644 -2.5007 -0.1764
 7323TIP3    H221934   4.888   2.355   5.306 -0.9729  0.5497 -2.6797
 7324TIP3   OH221935   6.376   0.262   4.017 -0.3239  0.2871 -0.4379
 7324TIP3    H121936   6.415   0.200   4.079  1.0618  0.9902 -0.5779
 7324TIP3    H221937   6.395   0.225   3.931  3.0993  2.2189 -0.6894
 7325TIP3   OH221938   5.891   2.489   0.787 -0.3716  0.7198  0.4297
 7325TIP3    H121939   5.875   2.546   0.862  0.0472  1.3854  0.0239
 7325TIP3    H221940   5.971   2.524   0.748 -0.4424  0.2135 -0.1739
 7326TIP3   OH221941   2.420   0.107   5.190  0.5873 -0.9126  0.0278
 7326TIP3    H121942   2.386   0.019   5.173  0.0607 -0.3792 -1.9348
 7326TIP3    H221943   2.344   0.158   5.217  0.1563 -0.2584 -2.2216
 7327TIP3   OH221944   5.134   4.090   5.721 -0.5492 -0.3546 -0.0086
 7327TIP3    H121945   5.114   4.074   5.628  0.0771  0.6189 -0.3153
 7327TIP3    H221946   5.057   4.136   5.754 -0.9323 -1.0285  0.0534
 7328TIP3   OH221947   3.436   2.086   2.006 -0.4684  0.0621  0.2475
 7328TIP3    H121948   3.456   2.045   2.090 -0.2256  1.9226  1.1372
 7328TIP3    H221949   3.373   2.155   2.027  0.4871  1.3356 -0.9094
 7329TIP3   OH221950   6.683   6.349   5.707 -0.0444 -0.5406 -0.1226
 7329TIP3    H121951   6.741   6.422   5.730 -0.3278 -0.4889  0.4662
 7329TIP3    H221952   6.598   6.390   5.691 -0.1273 -0.7041 -0.1065
 7330TIP3   OH221953   3.921   3.931   5.305  0.2208  0.6567 -0.0099
 7330TIP3    H121954   3.968   3.936   5.221 -0.3800 -2.0367 -0.5998
 7330TIP3    H221955   3.832   3.961   5.284 -0.1500 -0.7693 -0.5732
 7331TIP3   OH221956   0.162   5.683   1.090  0.1631  0.0150  0.0863
 7331TIP3    H121957   0.239   5.738   1.073  0.1123  0.2903  0.7393
 7331TIP3    H221958   0.088   5.740   1.070  0.1169 -0.0009  0.2145
 7332TIP3   OH221959   4.562   3.001   4.530 -0.0459 -0.1393  0.4688
 7332TIP3    H121960   4.487   2.994   4.589  0.1240 -0.0794  0.6955
 7332TIP3    H221961   4.638   2.992   4.587  0.1180 -1.6150  0.0479
 7333TIP3   OH221962   5.483   1.240   0.823  0.0522  0.3795  0.5468
 7333TIP3    H121963   5.525   1.201   0.747  0.2006  0.5344  0.5483
 7333TIP3    H221964   5.417   1.299   0.787  0.0560  0.3785  0.5381
 7334TIP3   OH221965   1.009   5.405   5.241  0.1920  0.4568  0.0615
 7334TIP3    H121966   0.918   5.432   5.251  0.3146  1.0495 -0.3606
 7334TIP3    H221967   1.022   5.399   5.146  0.9078  1.5233  0.0692
 7335TIP3   OH221968   5.856   5.191   2.680 -0.4097 -0.2318 -0.2716
 7335TIP3    H121969   5.840   5.117   2.621 -1.3007  0.6650 -1.1912
 7335TIP3    H221970   5.781   5.190   2.739 -0.1774 -0.3478  0.0208
 7336TIP3   OH221971   0.928   4.861   4.316  0.3391 -0.0711 -0.6139
 7336TIP3    H121972   0.907   4.927   4.250 -0.7405 -1.3491 -1.5966
 7336TIP3    H221973   1.010   4.822   4.286  0.2692 -0.1079 -0.7544
 7337TIP3   OH221974   7.052   6.035   3.142 -0.5797 -0.4186  0.5059
 7337TIP3    H121975   7.052   6.071   3.231 -0.0069 -1.2572  0.8580
 7337TIP3    H221976   6.979   6.079   3.098  0.2544  1.3399  0.8330
 7338TIP3   OH221977   2.808   5.607   2.500 -0.1559  0.2383 -0.0740
 7338TIP3    H121978   2.746   5.678   2.519 -0.2183 -0.0682  0.9504
 7338TIP3    H221979   2.872   5.646   2.441 -1.0157  0.7172 -0.7186
 7339TIP3   OH221980   5.155   6.468   5.203  0.6776  0.4006 -0.6890
 7339TIP3    H121981   5.143   6.394   5.143 -2.3328  0.7590 -0.6715
 7339TIP3    H221982   5.161   6.428   5.289 -0.6885  0.0918 -0.7067
 7340TIP3   OH221983   3.664   6.069   0.460  0.1968 -0.6026 -0.1008
 7340TIP3    H121984   3.694   6.147   0.414  1.9047 -1.2847 -0.2239
 7340TIP3    H221985   3.671   6.092   0.553  1.8036 -0.9559 -0.1081
 7341TIP3   OH221986   1.338   0.274   4.744 -0.6776 -0.3542  0.1204
 7341TIP3    H121987   1.261   0.238   4.787 -0.2737 -0.8227  0.4631
 7341TIP3    H221988   1.410   0.218   4.773 -0.0467  0.6892  0.6266
 7342TIP3   OH221989   0.119   2.997   4.563  0.3163 -0.3813  0.0525
 7342TIP3    H121990   0.105   3.091   4.579  1.6457 -0.1714  0.1323
 7342TIP3    H221991   0.079   2.953   4.637 -0.0750  0.1421  0.1562
 7343TIP3   OH221992   2.614   2.968   1.788  0.7718 -0.3871  0.0324
 7343TIP3    H121993   2.567   2.971   1.705 -1.4053 -0.5851  1.1725
 7343TIP3    H221994   2.700   3.005   1.769 -0.0247  0.5259 -2.0710
 7344TIP3   OH221995   3.603   5.099   2.998 -0.0489 -0.3269 -0.0823
 7344TIP3    H121996   3.641   5.136   2.918  0.1077 -2.2655 -0.9592
 7344TIP3    H221997   3.676   5.058   3.043 -0.5257 -1.2001 -0.0918
 7345TIP3   OH221998   6.494   4.398   2.020  0.2926  0.7596  0.0344
 7345TIP3    H121999   6.564   4.369   1.962 -0.7308 -0.8605 -0.4389
 7345TIP3    H222000   6.445   4.318   2.041 -0.9646  1.7313  0.9590
 7346TIP3   OH222001   3.465   6.271   1.052 -0.2451  0.1481  0.1293
 7346TIP3    H122002   3.475   6.246   1.144 -2.7639 -1.2569  0.1300
 7346TIP3    H222003   3.549   6.250   1.012 -0.5642 -4.0832  1.1810
 7347TIP3   OH222004   5.286   4.922   0.757 -0.0767  0.3969 -0.4151
 7347TIP3    H122005   5.238   4.865   0.697 -0.3791  0.0814  0.1161
 7347TIP3    H222006   5.221   4.986   0.786 -0.3133 -0.3044  0.6588
 7348TIP3   OH222007   1.009   1.693   5.384  0.6136  0.4445  0.3912
 7348TIP3    H122008   0.915   1.703   5.374  0.5128  0.3632  1.1379
 7348TIP3    H222009   1.031   1.751   5.457  0.7796 -1.1029  1.6343
 7349TIP3   OH222010   5.135   1.418   4.592  0.5207 -1.1889  0.3707
 7349TIP3    H122011   5.044   1.439   4.613  0.6319  0.4051 -0.6257
 7349TIP3    H222012   5.138   1.322   4.593 -1.0669 -1.2608  0.7632
 7350TIP3   OH222013   4.086   0.871   0.139 -0.0371 -0.1928  0.0114
 7350TIP3    H122014   4.111   0.786   0.176  0.0447 -0.2022 -0.0657
 7350TIP3    H222015   4.064   0.924   0.215 -2.5068 -1.0358 -0.0286
 7351TIP3   OH222016   1.343   0.894   1.153 -0.3825 -0.2600 -0.3127
 7351TIP3    H122017   1.412   0.831   1.136 -0.8686 -0.1498 -3.0497
 7351TIP3    H222018   1.263   0.852   1.122 -1.0171  0.9298 -0.3528
 7352TIP3   OH222019   6.046   2.753   5.181  0.2701 -0.6974  0.0685
 7352TIP3    H122020   6.036   2.684   5.246  2.6475 -0.3005  0.9267
 7352TIP3    H222021   6.104   2.817   5.221 -3.1999  2.8620  0.0674
 7353TIP3   OH222022   5.504   6.639   4.896 -0.7987 -0.4926  0.0576
 7353TIP3    H122023   5.555   6.671   4.821 -2.2107  0.7307 -0.4203
 7353TIP3    H222024   5.422   6.608   4.858 -1.7413  0.5964  1.1278
 7354TIP3   OH222025   7.063   3.246   1.062  0.0164 -0.1156  0.0348
 7354TIP3    H122026   6.980   3.218   1.024  0.6763 -0.6400 -1.0970
 7354TIP3    H222027   7.129   3.213   1.001  1.0149  0.9340  0.5099
 7355TIP3   OH222028   3.656   2.776   4.828 -0.1288  0.7322  0.3789
 7355TIP3    H122029   3.721   2.775   4.899 -0.4960  1.4305  0.7317
 7355TIP3    H222030   3.707   2.792   4.749  0.2107  0.5686  0.5628
 7356TIP3   OH222031   3.343   0.795   5.090  0.0012  0.3176  0.0202
 7356TIP3    H122032   3.310   0.706   5.102  0.2879  0.2083  0.0140
 7356TIP3    H222033   3.265   0.848   5.076 -0.0344 -0.4557 -3.5280
 7357TIP3   OH222034   4.996   2.221   0.471 -0.3387  0.4927  0.2167
 7357TIP3    H122035   5.053   2.220   0.394  0.5076  0.3903  0.8313
 7357TIP3    H222036   4.970   2.313   0.480  0.9327  0.8268  0.7801
 7358TIP3   OH222037   6.947   0.135   2.240 -0.4877 -0.6277  0.4216
 7358TIP3    H122038   6.941   0.221   2.198 -1.0059 -1.1455 -0.5984
 7358TIP3    H222039   6.994   0.152   2.322 -1.1495  0.7287  0.5478
 7359TIP3   OH222040   3.596   3.773   4.763 -0.2231 -0.2833  0.1657
 7359TIP3    H122041   3.565   3.687   4.791 -1.3880  0.9669  3.0951
 7359TIP3    H222042   3.557   3.785   4.676 -0.5433 -2.4411 -0.0378
 7360TIP3   OH222043   1.065   3.603   1.652 -0.1650  0.1486  0.1118
 7360TIP3    H122044   0.993   3.578   1.711 -0.8875 -0.0356 -0.8226
 7360TIP3    H222045   1.100   3.520   1.621  1.4474  0.1843  1.6777
 7361TIP3   OH222046   0.964   0.054   3.471 -0.0487 -0.7329 -0.1076
 7361TIP3    H122047   0.997   0.079   3.557 -2.2205 -0.8699  0.7991
 7361TIP3    H222048   0.925   0.135   3.436  1.6400 -0.4179 -1.4321
 7362TIP3   OH222049   5.846   3.958   0.708  0.5308  0.1311  0.0150
 7362TIP3    H122050   5.862   3.993   0.796 -0.6937 -0.2993  0.4294
 7362TIP3    H222051   5.894   3.875   0.707 -0.7352 -0.6515  0.8794
 7363TIP3   OH222052   0.755   3.145   4.337  0.4897  0.3753  0.0687
 7363TIP3    H122053   0.684   3.128   4.398 -0.7884 -2.7594 -2.0297
 7363TIP3    H222054   0.822   3.081   4.361  0.6520  0.2064 -0.8196
 7364TIP3   OH222055   5.681   6.420   5.921 -0.1913  0.9372  0.4997
 7364TIP3    H122056   5.765   6.386   5.889 -0.4822 -0.1415  0.8298
 7364TIP3    H222057   5.620   6.406   5.849 -0.3302  0.6551  0.6670
 7365TIP3   OH222058   1.750   1.953   1.787  0.8237  0.3791 -0.2246
 7365TIP3    H122059   1.675   1.909   1.827  0.4492  3.0528  2.4070
 7365TIP3    H222060   1.823   1.894   1.803 -0.3402 -1.4423 -1.2101
 7366TIP3   OH222061   7.158   4.686   4.859 -0.3530 -0.5347 -0.2592
 7366TIP3    H122062   7.174   4.723   4.946 -0.2478 -1.0851 -0.0402
 7366TIP3    H222063   7.244   4.685   4.817  0.0559 -2.4410  0.5033
 7367TIP3   OH222064   6.585   3.336   2.159  0.0898  0.0303  0.1068
 7367TIP3    H122065   6.642   3.302   2.091  0.1345 -0.2377  0.2766
 7367TIP3    H222066   6.608   3.286   2.238 -1.6810 -1.4917 -0.2401
 7368TIP3   OH222067   3.240   3.474   0.938 -0.0615  0.2171 -0.2232
 7368TIP3    H122068   3.325   3.436   0.917  0.6712  2.0270 -0.7722
 7368TIP3    H222069   3.254   3.519   1.022 -0.6108  0.1249 -0.0791
 7369TIP3   OH222070   5.298   2.644   5.667  0.0365 -0.4423  0.9077
 7369TIP3    H122071   5.271   2.567   5.719  2.2784 -0.5290  2.0643
 7369TIP3    H222072   5.229   2.709   5.683 -0.4381 -1.2347  2.2411
 7370TIP3   OH222073   2.913   6.636   3.168 -0.1131  0.0818  0.7728
 7370TIP3    H122074   2.976   6.675   3.107  0.9289  0.6495  2.1531
 7370TIP3    H222075   2.951   6.551   3.191 -0.6377 -0.2498  0.4323
 7371TIP3   OH222076   0.188   1.546   2.401 -0.1807  0.4621 -0.1306
 7371TIP3    H122077   0.167   1.479   2.335  1.5363  0.5470 -0.7967
 7371TIP3    H222078   0.177   1.629   2.355  2.4532  0.5037 -0.8513
 7372TIP3   OH222079   1.902   2.144   4.628 -0.0097  0.0433  0.5822
 7372TIP3    H122080   1.905   2.059   4.583 -0.0065  1.2362 -1.8726
 7372TIP3    H222081   1.810   2.171   4.622  0.0246  0.3080  1.1732
 7373TIP3   OH222082   4.329   0.605   3.759 -0.0039 -0.1990  0.1964
 7373TIP3    H122083   4.416   0.632   3.731  0.1934 -1.0787 -0.0638
 7373TIP3    H222084   4.337   0.593   3.854  0.5747 -1.7293 -0.0195
 7374TIP3   OH222085   2.755   3.422   4.221  0.4976 -0.1513  0.3820
 7374TIP3    H122086   2.740   3.347   4.278  1.5963  0.1886  1.1619
 7374TIP3    H222087   2.850   3.431   4.217  0.4083  0.7156 -0.3463
 7375TIP3   OH222088   4.616   5.000   5.749  0.5465 -0.1695  0.0908
 7375TIP3    H122089   4.627   4.967   5.838  1.9428 -0.1050 -0.0378
 7375TIP3    H222090   4.630   5.094   5.757 -2.1048  0.2850  0.2363
 7376TIP3   OH222091   1.752   3.985   0.374 -0.1282  0.5621 -0.0884
 7376TIP3    H122092   1.719   3.899   0.399  1.2644  0.1814  0.5470
 7376TIP3    H222093   1.674   4.039   0.363 -0.9812 -0.5641  0.3018
 7377TIP3   OH222094   7.103   0.347   5.540 -0.0947  0.6841 -0.1382
 7377TIP3    H122095   7.039   0.352   5.469 -0.7817  2.0548  0.5489
 7377TIP3    H222096   7.174   0.404   5.512  0.2046  0.2627 -0.2583
 7378TIP3   OH222097   1.271   3.559   5.763  0.5411  0.5031  0.5370
 7378TIP3    H122098   1.179   3.586   5.756  0.8538  1.4291 -0.1986
 7378TIP3    H222099   1.313   3.598   5.686  2.0124  1.9512  2.0193
 7379TIP3   OH222100   2.492   3.419   3.686 -0.1031  0.7704  0.2416
 7379TIP3    H122101   2.547   3.492   3.715  1.3598  0.4236 -1.4833
 7379TIP3    H222102   2.475   3.437   3.594 -0.6816 -0.4924  0.0806
 7380TIP3   OH222103   4.970   4.759   4.732 -0.0516  0.0542  0.1921
 7380TIP3    H122104   4.903   4.693   4.714  0.0865 -0.0910  0.2039
 7380TIP3    H222105   5.049   4.708   4.748 -0.5336  0.0287  3.0244
 7381TIP3   OH222106   6.406   6.374   5.690  0.2564 -0.0151  0.1593
 7381TIP3    H122107   6.320   6.337   5.671  0.5963 -0.2664 -0.9484
 7381TIP3    H222108   6.425   6.345   5.780 -0.7758 -0.0027  0.3906
 7382TIP3   OH222109   5.051   6.301   4.923  0.2362  0.6326  0.0515
 7382TIP3    H122110   5.137   6.313   4.883 -0.2128 -0.1329 -1.2172
 7382TIP3    H222111   5.020   6.389   4.943  1.1614  0.9284  0.2105
 7383TIP3   OH222112   1.614   3.157   5.692  0.3997 -0.0297 -0.2150
 7383TIP3    H122113   1.637   3.249   5.703  1.2809 -0.3749  0.9750
 7383TIP3    H222114   1.523   3.151   5.723  0.7772  0.2057  0.9710
 7384TIP3   OH222115   4.971   3.757   4.863  0.0496 -0.8201 -0.0842
 7384TIP3    H122116   4.889   3.728   4.904  0.4128 -0.2784  1.0634
 7384TIP3    H222117   5.039   3.733   4.926  0.7134 -0.6871 -0.7427
 7385TIP3   OH222118   0.267   2.454   2.857  0.2053  0.0452  0.0094
 7385TIP3    H122119   0.207   2.414   2.794  0.3975 -0.9846  0.4701
 7385TIP3    H222120   0.244   2.416   2.941  1.2041 -0.0251  0.2643
 7386TIP3   OH222121   0.569   3.102   1.104 -0.3032 -0.2230  0.0017
 7386TIP3    H122122   0.563   3.044   1.180 -0.6457  1.1106  1.0434
 7386TIP3    H222123   0.555   3.190   1.140  0.7643  0.5784 -1.4256
 7387TIP3   OH222124   7.091   3.635   2.395  0.0306  0.4674 -0.0069
 7387TIP3    H122125   7.091   3.692   2.319 -2.6360  0.0977 -0.4010
 7387TIP3    H222126   7.148   3.562   2.371  1.9172  1.9525 -0.2559
 7388TIP3   OH222127   6.222   3.957   5.725 -0.4901  0.0314  0.3052
 7388TIP3    H122128   6.181   3.873   5.700 -0.0812 -0.1958  0.3877
 7388TIP3    H222129   6.180   3.981   5.807  1.1468 -1.3679  1.6127
 7389TIP3   OH222130   2.649   1.532   1.070 -0.4754  0.2610  0.0910
 7389TIP3    H122131   2.718   1.506   1.009 -0.9969  0.4391 -0.5847
 7389TIP3    H222132   2.694   1.541   1.154 -0.0706 -1.7283  0.1424
 7390TIP3   OH222133   1.503   0.825   3.539 -0.3618  0.2046  0.4365
 7390TIP3    H122134   1.561   0.882   3.488 -1.6000  0.1213 -1.1516
 7390TIP3    H222135   1.474   0.880   3.612  0.0476  0.9363  0.0651
 7391TIP3   OH222136   4.861   6.221   5.118 -0.7988  0.0234  0.1907
 7391TIP3    H122137   4.880   6.223   5.212 -0.8418  0.9368  0.1916
 7391TIP3    H222138   4.947   6.215   5.077 -0.7330  0.3480  0.2766
 7392TIP3   OH222139   0.333   0.733   1.377 -0.3709  0.3280 -0.4093
 7392TIP3    H122140   0.325   0.827   1.366 -0.5544  0.3889  0.2037
 7392TIP3    H222141   0.427   0.716   1.375 -0.2334  0.7450  1.0754
 7393TIP3   OH222142   1.533   4.280   5.462  0.0260  0.3270 -0.3330
 7393TIP3    H122143   1.445   4.320   5.459  0.5762  1.5770 -2.6888
 7393TIP3    H222144   1.567   4.303   5.549 -2.4123 -1.3755  1.2145
 7394TIP3   OH222145   1.422   5.441   0.042 -0.2621 -0.2309  0.8269
 7394TIP3    H122146   1.416   5.472   0.132 -0.4477  0.0626  0.7136
 7394TIP3    H222147   1.480   5.365   0.046  1.9827  1.3898  0.7801
 7395TIP3   OH222148   2.429   0.447   4.105  0.1181 -0.4740  0.4373
 7395TIP3    H122149   2.475   0.522   4.143  0.8139 -0.9438  0.5444
 7395TIP3    H222150   2.499   0.388   4.078 -0.3896 -0.5127 -0.8330
 7396TIP3   OH222151   4.059   1.320   5.766 -0.2237  0.4495 -1.0338
 7396TIP3    H122152   4.131   1.359   5.815  0.8418 -1.8243 -0.6502
 7396TIP3    H222153   3.981   1.367   5.797  0.9748  2.4313 -0.8804
 7397TIP3   OH222154   5.252   6.534   0.424  0.3780  0.3673 -0.3796
 7397TIP3    H122155   5.334   6.487   0.439  1.1600  0.6490 -3.1806
 7397TIP3    H222156   5.275   6.626   0.427 -0.1866  0.4981  0.3501
 7398TIP3   OH222157   1.150   3.821   2.277 -0.1872 -0.0073 -0.3143
 7398TIP3    H122158   1.107   3.751   2.325 -0.5564  0.3090 -0.1766
 7398TIP3    H222159   1.096   3.835   2.199 -0.0493  0.0441 -0.4022
 7399TIP3   OH222160   0.241   5.842   4.715  0.0122 -0.4832  0.2637
 7399TIP3    H122161   0.312   5.782   4.691 -0.3207 -0.3689 -1.0812
 7399TIP3    H222162   0.162   5.787   4.714 -0.5780  0.2373 -2.7419
 7400TIP3   OH222163   4.722   4.553   4.203  0.7062 -0.1738  0.3274
 7400TIP3    H122164   4.642   4.504   4.184  1.8568 -1.5735 -1.0164
 7400TIP3    H222165   4.708   4.587   4.292 -2.6004  2.1287 -0.8605
 7401TIP3   OH222166   3.792   2.820   0.191  0.0205  0.2261  0.2531
 7401TIP3    H122167   3.754   2.810   0.278  1.6426  1.2475  1.1172
 7401TIP3    H222168   3.780   2.913   0.170  0.4111  0.1742 -0.2304
 7402TIP3   OH222169   4.688   0.672   4.758 -0.7322 -0.3000  0.0723
 7402TIP3    H122170   4.761   0.704   4.704 -0.0059 -0.2613  1.0583
 7402TIP3    H222171   4.610   0.709   4.717 -0.0437  1.3821  0.2012
 7403TIP3   OH222172   2.606   0.759   2.506  0.8937 -0.0155 -0.1249
 7403TIP3    H122173   2.554   0.802   2.575  3.4759  0.4153  1.6920
 7403TIP3    H222174   2.581   0.804   2.426 -1.8555 -0.1734  0.5421
 7404TIP3   OH222175   0.468   2.173   3.367 -0.7850 -0.3239 -0.3450
 7404TIP3    H122176   0.501   2.239   3.428  1.1554  0.0897 -1.7605
 7404TIP3    H222177   0.498   2.089   3.402  0.2916 -0.0903 -0.6739
 7405TIP3   OH222178   3.951   0.677   0.403  0.4165  0.3325 -0.1810
 7405TIP3    H122179   3.905   0.731   0.467 -0.6090 -0.4229 -0.2622
 7405TIP3    H222180   3.897   0.682   0.324  0.2903 -0.8184 -0.1839
 7406TIP3   OH222181   5.551   6.087   0.351 -0.3052  0.3615 -0.1995
 7406TIP3    H122182   5.597   6.126   0.425  3.3521 -1.5304 -1.2440
 7406TIP3    H222183   5.534   6.161   0.292  0.4768  1.2931  0.7108
 7407TIP3   OH222184   5.120   0.782   0.325 -0.1533  0.9936 -0.6061
 7407TIP3    H122185   5.203   0.738   0.306 -0.6559  0.2522 -1.1801
 7407TIP3    H222186   5.133   0.825   0.409  0.1032 -0.9885  0.4217
 7408TIP3   OH222187   3.918   4.830   2.424  0.8650  0.0484 -0.2490
 7408TIP3    H122188   3.930   4.903   2.364 -1.3374 -0.6851 -1.7261
 7408TIP3    H222189   3.853   4.862   2.487  0.1813 -0.4804 -0.6741
 7409TIP3   OH222190   4.482   3.500   4.411  0.4304  0.1295  0.6213
 7409TIP3    H122191   4.545   3.437   4.445 -0.9309 -1.9430 -0.5115
 7409TIP3    H222192   4.397   3.470   4.443 -0.4610  0.2926 -1.3913
 7410TIP3   OH222193   1.744   3.298   4.992 -0.4055  0.5355 -0.0794
 7410TIP3    H122194   1.668   3.243   5.008 -0.1584  0.6053  1.4788
 7410TIP3    H222195   1.718   3.354   4.918 -0.6097 -1.6863 -1.7900
 7411TIP3   OH222196   0.848   4.100   2.104 -0.1847  0.7832 -0.2922
 7411TIP3    H122197   0.821   4.174   2.159 -0.5164 -0.5481  1.4295
 7411TIP3    H222198   0.766   4.052   2.088 -0.0215  0.9166 -1.6441
 7412TIP3   OH222199   0.383   4.807   5.452 -0.0190 -0.0634 -0.4775
 7412TIP3    H122200   0.294   4.831   5.477 -0.4119 -0.1649 -1.7312
 7412TIP3    H222201   0.432   4.809   5.535 -1.2647 -0.4567  0.3017
 7413TIP3   OH222202   0.273   6.662   0.295  0.3666  0.6750 -0.0999
 7413TIP3    H122203   0.200   6.720   0.316  0.1717  0.5098 -0.3118
 7413TIP3    H222204   0.236   6.597   0.234  0.1164 -0.7385  1.4965
 7414TIP3   OH222205   6.683   3.679   0.096  0.3862  0.1075  0.2774
 7414TIP3    H122206   6.724   3.665   0.010 -3.0549  0.6211 -1.6538
 7414TIP3    H222207   6.647   3.594   0.120  1.4999 -0.0782  1.3795
 7415TIP3   OH222208   4.260   0.603   2.662  0.9085 -0.2335  0.0017
 7415TIP3    H122209   4.229   0.529   2.609  1.1310  0.5197 -1.2211
 7415TIP3    H222210   4.239   0.680   2.610  2.2592  0.4624  0.4361
 7416TIP3   OH222211   2.125   1.383   1.325  0.0415  0.1926 -0.0794
 7416TIP3    H122212   2.174   1.375   1.243  1.4296  0.2296  0.7022
 7416TIP3    H222213   2.064   1.309   1.324  1.6510 -1.2114 -0.1443
 7417TIP3   OH222214   0.706   5.825   5.209  0.3554  0.0166  0.2723
 7417TIP3    H122215   0.660   5.850   5.130 -2.8399  0.7919  2.2205
 7417TIP3    H222216   0.714   5.906   5.259  1.5401 -0.6087  1.1447
 7418TIP3   OH222217   4.732   3.390   4.532  0.1189 -0.4841 -0.0133
 7418TIP3    H122218   4.722   3.339   4.612  0.8931 -0.4555  0.1145
 7418TIP3    H222219   4.740   3.481   4.562 -1.2872 -0.2556 -0.2397
 7419TIP3   OH222220   3.752   6.475   0.504  0.1500  0.1072  0.4520
 7419TIP3    H122221   3.844   6.450   0.512  0.2135  0.6166  1.5683
 7419TIP3    H222222   3.703   6.395   0.523  0.2911 -1.1415 -3.6207
 7420TIP3   OH222223   6.213   2.941   2.456  0.0259 -0.2115  0.4397
 7420TIP3    H122224   6.307   2.956   2.468 -0.0052  0.1109  0.2910
 7420TIP3    H222225   6.194   2.975   2.369  0.1193 -1.9269 -0.2895
 7421TIP3   OH222226   3.885   0.067   1.366  0.0503 -0.8329 -0.2342
 7421TIP3    H122227   3.978   0.092   1.371 -0.5910  1.7487  0.0044
 7421TIP3    H222228   3.856   0.101   1.282 -0.4258 -2.7233 -0.8645
 7422TIP3   OH222229   2.884   2.009   2.597 -0.3912  0.2293  0.1322
 7422TIP3    H122230   2.909   2.058   2.519  0.4418 -1.4597 -0.7127
 7422TIP3    H222231   2.962   2.012   2.653 -0.9539  1.3557  0.8795
 7423TIP3   OH222232   6.633   3.430   5.258  0.5390 -0.2532  0.4551
 7423TIP3    H122233   6.723   3.429   5.292  0.1233  0.8380  1.6388
 7423TIP3    H222234   6.610   3.522   5.253 -0.0873 -0.4647 -1.0867
 7424TIP3   OH222235   5.618   6.312   5.205  0.6588 -0.4545 -0.0097
 7424TIP3    H122236   5.542   6.300   5.262 -1.0898  1.0369 -1.9143
 7424TIP3    H222237   5.584   6.304   5.116  2.6523  0.5669 -0.9385
 7425TIP3   OH222238   4.312   6.480   2.289  0.4473 -0.6942 -0.2574
 7425TIP3    H122239   4.279   6.400   2.247 -0.1993  0.0060 -1.1091
 7425TIP3    H222240   4.321   6.543   2.218  0.0096  0.3081  0.5488
 7426TIP3   OH222241   4.285   4.244   3.054  0.1176 -0.0047 -0.2868
 7426TIP3    H122242   4.270   4.221   3.146 -0.4287 -1.0791 -0.6245
 7426TIP3    H222243   4.199   4.269   3.021  0.1166 -0.5926 -0.7535
 7427TIP3   OH222244   3.540   1.027   5.114 -0.0508 -0.0282 -0.1870
 7427TIP3    H122245   3.538   1.106   5.060  1.9956 -0.1225 -0.4745
 7427TIP3    H222246   3.462   0.978   5.087 -0.0700  0.7786 -1.7344
 7428TIP3   OH222247   0.913   0.591   3.035 -0.1870  0.3767 -0.0582
 7428TIP3    H122248   0.945   0.504   3.011  0.4223  0.4182  0.5592
 7428TIP3    H222249   0.972   0.652   2.990  2.0262  0.4731  2.6819
 7429TIP3   OH222250   5.797   4.484   5.654  0.1710  0.2814  0.0729
 7429TIP3    H122251   5.853   4.560   5.666  0.8111 -0.2062  0.2749
 7429TIP3    H222252   5.716   4.518   5.616  0.8134  0.9276 -0.7243
 7430TIP3   OH222253   1.335   5.592   5.051  1.0342 -0.0847 -0.1275
 7430TIP3    H122254   1.319   5.545   4.969  0.8198 -1.9850  0.9434
 7430TIP3    H222255   1.276   5.667   5.048  0.2964 -0.6881 -1.2688
 7431TIP3   OH222256   0.812   0.298   2.946  0.0629 -0.2467  0.5189
 7431TIP3    H122257   0.747   0.279   2.878  0.1769 -1.1132  0.6453
 7431TIP3    H222258   0.889   0.247   2.921 -0.0232 -0.8877  1.5078
 7432TIP3   OH222259   6.187   0.643   4.585  0.4436  0.2306  0.1681
 7432TIP3    H122260   6.119   0.582   4.557  0.7208  0.5542 -1.3018
 7432TIP3    H222261   6.171   0.722   4.532  0.3833  1.2667  1.6769
 7433TIP3   OH222262   7.026   2.731   3.749 -0.0031 -0.1839  0.2698
 7433TIP3    H122263   7.103   2.721   3.694  1.4647 -2.8676  2.5118
 7433TIP3    H222264   6.984   2.645   3.747 -0.9191  0.1826  1.8798
 7434TIP3   OH222265   1.562   3.039   2.693 -0.0530  0.2482 -0.2894
 7434TIP3    H122266   1.546   2.975   2.762 -0.7794  0.3656 -0.3428
 7434TIP3    H222267   1.561   3.123   2.737  0.2064  0.2769 -0.3340
 7435TIP3   OH222268   1.570   5.065   5.744 -0.3965 -0.1733 -0.2891
 7435TIP3    H122269   1.626   4.996   5.779 -0.0320  0.9324  1.4218
 7435TIP3    H222270   1.626   5.112   5.682  0.0518 -0.0843  0.1761
 7436TIP3   OH222271   3.396   4.994   1.125  0.0016  0.4149 -0.3033
 7436TIP3    H122272   3.354   5.080   1.113  1.0353  0.9164 -0.4433
 7436TIP3    H222273   3.372   4.945   1.046  0.8596  1.2083 -1.0858
 7437TIP3   OH222274   0.647   4.695   2.854 -0.0687 -0.1706 -0.3527
 7437TIP3    H122275   0.600   4.681   2.936  1.3302  0.5465  0.6058
 7437TIP3    H222276   0.724   4.640   2.861  1.3566  1.7542 -0.0484
 7438TIP3   OH222277   1.076   1.874   3.876  0.8106 -0.0743 -0.1549
 7438TIP3    H122278   1.118   1.948   3.920  1.4656 -0.3318 -0.3359
 7438TIP3    H222279   1.048   1.909   3.791 -0.6195  0.4740  0.5049
 7439TIP3   OH222280   3.874   4.142   0.458 -0.3746 -0.3674  0.4576
 7439TIP3    H122281   3.818   4.164   0.532 -1.4339 -1.9151  0.1708
 7439TIP3    H222282   3.829   4.179   0.382 -1.3712 -2.0277  0.1640
 7440TIP3   OH222283   6.044   0.131   0.777  0.3564 -0.3987 -0.0832
 7440TIP3    H122284   6.060   0.042   0.747  0.6149 -1.2110  2.2837
 7440TIP3    H222285   6.102   0.143   0.851  1.0196  2.1201 -0.8993
 7441TIP3   OH222286   4.089   4.586   0.186  0.3289  0.3301  0.0810
 7441TIP3    H122287   4.115   4.527   0.115 -1.0882  1.6012 -1.5968
 7441TIP3    H222288   4.085   4.672   0.145 -1.1302  1.0164  1.5580
 7442TIP3   OH222289   3.997   6.295   1.122  0.0888 -0.0843 -0.2823
 7442TIP3    H122290   3.941   6.272   1.197 -0.6689 -1.2644 -1.1727
 7442TIP3    H222291   4.084   6.303   1.160 -0.2583 -0.7864  0.7273
 7443TIP3   OH222292   1.169   6.623   4.024  0.2622 -0.2347  0.0097
 7443TIP3    H122293   1.256   6.608   3.986  0.5814  0.1235  0.5960
 7443TIP3    H222294   1.180   6.611   4.118 -0.1075  0.7438  0.1966
 7444TIP3   OH222295   0.809   1.980   2.786 -0.2065 -0.2895  0.1092
 7444TIP3    H122296   0.878   1.944   2.841  0.7873  1.7150  0.2773
 7444TIP3    H222297   0.763   2.042   2.844 -0.3709  0.4270 -0.7654
 7445TIP3   OH222298   0.714   3.153   4.846  0.2769 -0.1181 -0.2941
 7445TIP3    H122299   0.685   3.245   4.848 -0.7389 -0.2662 -3.3526
 7445TIP3    H222300   0.778   3.149   4.775 -0.5453 -1.9608 -0.9912
 7446TIP3   OH222301   3.806   2.509   3.252 -0.1621  0.4381 -0.3291
 7446TIP3    H122302   3.898   2.480   3.254 -0.6864 -1.3751 -0.3875
 7446TIP3    H222303   3.798   2.566   3.329  0.5062 -1.2076  1.0500
 7447TIP3   OH222304   4.856   0.235   3.609 -0.0808 -0.0447 -0.1638
 7447TIP3    H122305   4.933   0.282   3.578  0.6709  0.0920  1.7411
 7447TIP3    H222306   4.875   0.143   3.590  0.5701 -0.0131  0.2897
 7448TIP3   OH222307   4.247   2.409   1.905 -0.2311 -0.2904 -1.0584
 7448TIP3    H122308   4.315   2.392   1.970 -0.1406 -0.1320 -1.1088
 7448TIP3    H222309   4.196   2.328   1.900 -1.7210  0.4154  0.9591
 7449TIP3   OH222310   3.127   1.673   3.522 -0.4936  0.6071  0.1321
 7449TIP3    H122311   3.060   1.654   3.456  0.0642 -1.9543  0.1838
 7449TIP3    H222312   3.179   1.743   3.484 -0.5083 -0.4356 -1.9544
 7450TIP3   OH222313   5.966   4.815   5.164 -0.4491 -0.1507  0.0684
 7450TIP3    H122314   5.986   4.799   5.256 -1.2547 -1.5890  0.0284
 7450TIP3    H222315   5.885   4.866   5.166 -2.3039 -2.8920  0.2109
 7451TIP3   OH222316   5.130   2.913   4.211  0.4840 -0.0788  0.0086
 7451TIP3    H122317   5.205   2.968   4.188  0.9203 -0.6083  0.1450
 7451TIP3    H222318   5.070   2.971   4.258  1.2303  0.1266  0.7196
 7452TIP3   OH222319   3.908   6.399   0.027  0.6268  0.1938  0.6869
 7452TIP3    H122320   3.916   6.485   0.067  0.2964  0.2444  0.6418
 7452TIP3    H222321   3.998   6.367   0.021  0.7201  0.4037  0.9884
 7453TIP3   OH222322   4.299   2.766   1.297 -0.0235 -0.3012  0.2608
 7453TIP3    H122323   4.259   2.693   1.345  1.0252 -0.0792  1.5245
 7453TIP3    H222324   4.389   2.738   1.280  0.3230  0.5872  0.5474
 7454TIP3   OH222325   6.626   1.111   1.118  0.0219 -0.1074  0.4686
 7454TIP3    H122326   6.585   1.039   1.166 -0.3602  0.1157  0.4806
 7454TIP3    H222327   6.553   1.166   1.090  0.3982  1.1094  1.7896
 7455TIP3   OH222328   2.176   2.459   2.111 -0.1990 -1.1593 -0.1165
 7455TIP3    H122329   2.131   2.389   2.159 -0.8180 -0.9208 -0.3424
 7455TIP3    H222330   2.149   2.447   2.020  1.5551 -2.0806 -0.5834
 7456TIP3   OH222331   3.159   6.051   5.376 -0.0674  0.3114 -0.3819
 7456TIP3    H122332   3.076   6.096   5.391  0.4603  1.0359  0.4034
 7456TIP3    H222333   3.138   5.958   5.386 -1.1021  0.3561 -1.7390
 7457TIP3   OH222334   6.510   6.671   1.452 -0.7798  0.1709  0.4564
 7457TIP3    H122335   6.547   6.690   1.538 -0.3120 -0.2951  0.3641
 7457TIP3    H222336   6.575   6.615   1.409 -0.0096  2.0853 -1.0228
 7458TIP3   OH222337   3.144   1.871   4.876 -0.0558 -0.4212  0.3566
 7458TIP3    H122338   3.078   1.802   4.875  0.0418 -0.5163  0.3472
 7458TIP3    H222339   3.116   1.931   4.945  0.0742 -0.6862  0.6416
 7459TIP3   OH222340   4.020   5.588   4.625  0.1887  0.0127 -0.0328
 7459TIP3    H122341   3.971   5.509   4.649 -2.5308  1.3483 -0.7581
 7459TIP3    H222342   4.045   5.574   4.534 -2.4866  0.8899 -0.9912
 7460TIP3   OH222343   2.676   0.578   0.198 -0.5817  0.2798  0.3919
 7460TIP3    H122344   2.593   0.624   0.213 -2.0429 -1.2000 -2.2713
 7460TIP3    H222345   2.720   0.631   0.131  0.3250  0.6900  1.3010
 7461TIP3   OH222346   1.177   5.508   1.574 -0.0865 -0.4350 -0.6916
 7461TIP3    H122347   1.218   5.535   1.492  2.7171 -2.6776 -0.1642
 7461TIP3    H222348   1.090   5.476   1.547 -0.1591  1.0227 -2.3957
 7462TIP3   OH222349   3.200   4.004   0.201 -0.0525 -0.2147  0.4305
 7462TIP3    H122350   3.257   4.032   0.272 -1.6268  1.4987  1.0870
 7462TIP3    H222351   3.158   3.924   0.234  1.1535 -0.9037  0.3446
 7463TIP3   OH222352   3.689   2.119   0.808  0.1936 -0.6509  0.5669
 7463TIP3    H122353   3.761   2.148   0.865  0.5574 -1.2109  0.4014
 7463TIP3    H222354   3.724   2.041   0.763 -0.6496 -1.1519  0.7639
 7464TIP3   OH222355   3.317   1.206   5.295  0.1895 -0.3729  0.5379
 7464TIP3    H122356   3.251   1.137   5.302 -1.0155  0.6994  0.1367
 7464TIP3    H222357   3.340   1.226   5.385 -1.4316  0.4967  0.8052
 7465TIP3   OH222358   3.369   0.989   5.723 -0.0135  0.1482 -0.0064
 7465TIP3    H122359   3.377   1.068   5.776 -0.3846  0.5945 -0.5989
 7465TIP3    H222360   3.401   0.918   5.780 -1.3829  0.4483  1.2095
 7466TIP3   OH222361   4.027   4.015   5.068 -0.2059  0.3051 -0.0618
 7466TIP3    H122362   4.016   4.093   5.013  4.6839  1.1612 -0.2589
 7466TIP3    H222363   4.046   3.944   5.007  0.4309  0.1511  0.3029
 7467TIP3   OH222364   0.086   1.960   0.266 -1.2843  0.0500 -0.1041
 7467TIP3    H122365   0.054   1.956   0.356 -2.9105  0.9276 -0.5946
 7467TIP3    H222366   0.039   1.889   0.221 -1.7338  0.6467 -0.5939
 7468TIP3   OH222367   0.295   3.923   3.684  0.4207  0.2041 -0.0210
 7468TIP3    H122368   0.318   3.973   3.762  0.7961 -1.3651  0.9195
 7468TIP3    H222369   0.340   3.839   3.695 -1.0561 -0.7635 -1.0169
 7469TIP3   OH222370   4.651   2.770   0.775  0.1126  0.3272 -0.0847
 7469TIP3    H122371   4.562   2.802   0.758  0.0983  0.1832 -0.2953
 7469TIP3    H222372   4.665   2.786   0.868  0.7083  2.4013 -0.4856
 7470TIP3   OH222373   0.001   4.231   0.853  0.4356 -0.1535  0.2662
 7470TIP3    H122374   0.093   4.246   0.831  0.4588 -0.0780  0.4185
 7470TIP3    H222375  -0.023   4.303   0.911  0.6859 -0.9454  1.3914
 7471TIP3   OH222376   4.608   4.563   0.388 -0.5848 -0.6397  0.3744
 7471TIP3    H122377   4.612   4.593   0.297  0.2729  0.3481  0.7225
 7471TIP3    H222378   4.572   4.474   0.382  0.1259 -0.8688 -0.9903
 7472TIP3   OH222379   2.961   0.207   4.280  0.6693 -0.7275 -0.0937
 7472TIP3    H122380   2.920   0.293   4.273 -0.6998 -1.3640 -0.2725
 7472TIP3    H222381   3.054   0.224   4.270  0.4836  0.8030  0.4516
 7473TIP3   OH222382   1.217   2.291   3.628  0.2448 -0.4196  0.5191
 7473TIP3    H122383   1.195   2.316   3.718  0.4222  0.5950  0.2884
 7473TIP3    H222384   1.308   2.318   3.617  0.9805 -2.5952  0.7477
 7474TIP3   OH222385   1.792   2.802   5.408  0.7501  0.0055 -0.0103
 7474TIP3    H122386   1.711   2.753   5.420  0.1036  0.2280 -2.7699
 7474TIP3    H222387   1.810   2.840   5.494 -1.0142 -1.5817  1.1511
 7475TIP3   OH222388   6.301   4.871   1.279  1.0563  0.4564 -0.1793
 7475TIP3    H122389   6.306   4.911   1.366 -1.1270 -0.9846  0.6901
 7475TIP3    H222390   6.285   4.778   1.296 -0.2762  0.2797 -2.1002
 7476TIP3   OH222391   3.488   1.553   4.701  0.0034  0.2979  0.0198
 7476TIP3    H122392   3.578   1.524   4.715 -0.3407 -0.4345  0.7800
 7476TIP3    H222393   3.468   1.526   4.612  0.4527  0.2292 -0.0646
 7477TIP3   OH222394   1.285   5.318   1.169  0.0067  1.2931 -0.3095
 7477TIP3    H122395   1.248   5.339   1.083  1.5282  1.5982 -0.9135
 7477TIP3    H222396   1.319   5.402   1.202  0.1890  1.0180  0.2162
 7478TIP3   OH222397   2.669   5.666   1.997  0.2599  0.0743 -0.2184
 7478TIP3    H122398   2.657   5.620   1.914  0.5549 -1.9074  0.7887
 7478TIP3    H222399   2.732   5.735   1.977  0.9251 -0.8555 -1.4839
 7479TIP3   OH222400   0.273   0.995   3.104  0.2748  0.0917 -0.5116
 7479TIP3    H122401   0.235   1.049   3.034  0.0704  0.3320 -0.2179
 7479TIP3    H222402   0.299   1.058   3.171 -1.6191 -0.2859  0.6326
 7480TIP3   OH222403   2.371   4.046   3.257  0.2053  0.2760 -0.3329
 7480TIP3    H122404   2.312   4.026   3.329  2.4611 -1.5633  1.1331
 7480TIP3    H222405   2.459   4.043   3.295  1.3379  3.2598 -2.3100
 7481TIP3   OH222406   6.449   3.097   1.728 -0.7467 -0.1712 -0.1168
 7481TIP3    H122407   6.409   3.051   1.802 -1.4094 -1.1502 -1.0400
 7481TIP3    H222408   6.390   3.171   1.712 -1.1784 -0.5456 -0.2976
 7482TIP3   OH222409   1.207   2.606   0.838 -0.1350  0.7606  0.0798
 7482TIP3    H122410   1.155   2.534   0.802  1.2911 -1.1528  1.6143
 7482TIP3    H222411   1.154   2.640   0.911  0.4486 -0.8197  1.2930
 7483TIP3   OH222412   6.214   4.769   4.269 -0.0844 -0.1846 -0.1992
 7483TIP3    H122413   6.146   4.709   4.240  0.1870 -0.3198 -0.5694
 7483TIP3    H222414   6.237   4.818   4.190  1.5294 -1.3885 -0.5328
 7484TIP3   OH222415   2.038   5.293   3.388 -0.1043 -0.3347 -0.0359
 7484TIP3    H122416   2.111   5.355   3.395 -0.1539 -0.2575 -0.1798
 7484TIP3    H222417   2.023   5.286   3.294 -0.9040  0.3960  0.0233
 7485TIP3   OH222418   6.599   2.446   0.520  0.1437  0.2325 -0.1944
 7485TIP3    H122419   6.600   2.350   0.514 -2.1564  0.0045  1.7067
 7485TIP3    H222420   6.690   2.471   0.506  1.0008 -2.3036  0.2017
 7486TIP3   OH222421   4.757   4.306   0.751  1.0833 -0.5495  0.1422
 7486TIP3    H122422   4.728   4.281   0.663 -0.4583  1.0621  0.1630
 7486TIP3    H222423   4.677   4.311   0.803  1.7214  0.7457  1.0578
 7487TIP3   OH222424   1.918   6.247   0.426  0.0283  0.3760  0.4387
 7487TIP3    H122425   1.851   6.255   0.494  0.2750 -1.8664  1.0190
 7487TIP3    H222426   1.870   6.252   0.344 -0.7052 -0.1228  0.8348
 7488TIP3   OH222427   3.206   3.397   3.210 -0.1156  0.0889  0.0308
 7488TIP3    H122428   3.226   3.487   3.237  0.6208  0.1051 -0.5369
 7488TIP3    H222429   3.111   3.397   3.195 -0.2120  0.6085  0.6262
 7489TIP3   OH222430   0.319   0.210   4.858  0.1903  0.1742 -0.3640
 7489TIP3    H122431   0.266   0.214   4.778  0.5735 -1.1816 -0.7137
 7489TIP3    H222432   0.315   0.118   4.885  1.8416  0.1686 -0.0410
 7490TIP3   OH222433   5.545   5.736   5.510  0.2768  0.2873  0.4428
 7490TIP3    H122434   5.513   5.783   5.586  1.1598  1.0176  0.3808
 7490TIP3    H222435   5.602   5.668   5.545 -1.3979 -1.1130  0.5617
 7491TIP3   OH222436   5.359   6.671   2.872 -0.2669  0.1352 -0.1959
 7491TIP3    H122437   5.381   6.679   2.779  0.0779 -1.3413 -0.2559
 7491TIP3    H222438   5.419   6.605   2.906  0.0537  1.1271  1.2487
 7492TIP3   OH222439   6.956   5.697   2.455 -0.1493 -0.0942  0.2320
 7492TIP3    H122440   6.924   5.748   2.381  0.3150  1.6531  1.1839
 7492TIP3    H222441   7.051   5.700   2.449 -0.0906 -1.5254 -0.1006
 7493TIP3   OH222442   0.266   0.505   1.999 -0.9728  0.0918  0.6823
 7493TIP3    H122443   0.237   0.427   1.951 -1.2224  0.3058  0.4823
 7493TIP3    H222444   0.296   0.566   1.931  1.4682 -0.7034  0.9390
 7494TIP3   OH222445   3.220   5.980   2.211 -0.3609  0.1062 -0.2498
 7494TIP3    H122446   3.310   5.956   2.231 -0.0562 -1.5484 -3.1416
 7494TIP3    H222447   3.226   6.066   2.169 -0.2843  0.4492  0.4405
 7495TIP3   OH222448   3.516   0.627   2.044  0.0103  0.2514  0.0301
 7495TIP3    H122449   3.497   0.536   2.065  0.0990  0.0212 -0.8567
 7495TIP3    H222450   3.464   0.645   1.965  0.4606  0.7881 -0.1523
 7496TIP3   OH222451   0.224   6.395   0.161  0.2339  0.1197 -0.3279
 7496TIP3    H122452   0.181   6.352   0.087  0.9523 -0.2458 -0.5369
 7496TIP3    H222453   0.313   6.412   0.131  0.3693  0.4868  0.2537
 7497TIP3   OH222454   3.304   3.860   2.916  0.1325 -0.7709  0.1981
 7497TIP3    H122455   3.380   3.805   2.894 -0.4601 -2.0231  1.1366
 7497TIP3    H222456   3.229   3.802   2.905 -0.6518  0.2700 -0.0925
 7498TIP3   OH222457   3.917   5.342   4.729  0.4673 -0.7307  0.2256
 7498TIP3    H122458   3.841   5.343   4.788  1.7701  0.0765  1.9930
 7498TIP3    H222459   3.971   5.270   4.761  2.0279  0.8028  1.2279
 7499TIP3   OH222460   3.359   1.269   3.151  0.5966 -0.0613  0.4949
 7499TIP3    H122461   3.452   1.256   3.139  0.7615  1.3271  0.0685
 7499TIP3    H222462   3.334   1.205   3.218  1.9165 -0.1943  0.8869
 7500TIP3   OH222463   6.719   1.667   3.609  0.7273  0.0480  0.2019
 7500TIP3    H122464   6.634   1.626   3.597  0.7434 -0.7711  2.3340
 7500TIP3    H222465   6.701   1.746   3.660  1.2742 -0.7308  1.6999
 7501TIP3   OH222466   3.756   1.828   3.009  0.2211 -0.0499  0.1578
 7501TIP3    H122467   3.696   1.837   3.082 -0.3995  0.3338 -0.3914
 7501TIP3    H222468   3.750   1.735   2.984  0.7485 -0.2752  0.8495
 7502TIP3   OH222469   5.484   1.895   2.912 -0.1534  0.8841 -1.2299
 7502TIP3    H122470   5.465   1.936   2.997 -0.1903 -0.4859 -0.5463
 7502TIP3    H222471   5.579   1.901   2.903  0.1104 -0.7857 -0.0711
 7503TIP3   OH222472   4.706   1.978   1.862  0.5470  0.0425 -0.5529
 7503TIP3    H122473   4.788   2.027   1.872  0.3001  0.8311 -1.9855
 7503TIP3    H222474   4.687   1.984   1.768 -0.1694 -1.7551 -0.5561
 7504TIP3   OH222475   6.605   1.857   3.384 -0.7887 -0.1380 -0.4069
 7504TIP3    H122476   6.584   1.892   3.471  0.0518 -0.9311  0.1359
 7504TIP3    H222477   6.572   1.923   3.323 -2.2152  0.0097  0.4812
 7505TIP3   OH222478   6.332   4.304   4.857  0.5425  0.0419  0.3671
 7505TIP3    H122479   6.406   4.271   4.909  0.5518 -0.1777  0.2147
 7505TIP3    H222480   6.309   4.231   4.800  0.7243  0.3804 -0.1435
 7506TIP3   OH222481   4.238   0.339   5.294 -0.3288  0.5209  0.2985
 7506TIP3    H122482   4.182   0.365   5.367 -2.3921 -0.8885 -0.7101
 7506TIP3    H222483   4.228   0.244   5.289  1.5261  0.3124 -0.4836
 7507TIP3   OH222484   3.207   2.349   2.505  0.2937  0.1752  0.3192
 7507TIP3    H122485   3.263   2.341   2.583  2.9117 -0.1666 -1.4450
 7507TIP3    H222486   3.259   2.310   2.435 -1.8075  0.8051 -1.7035
 7508TIP3   OH222487   5.918   4.808   0.678  0.3387 -0.2163  0.2490
 7508TIP3    H122488   5.995   4.797   0.734  0.9737 -0.4383 -0.6466
 7508TIP3    H222489   5.844   4.789   0.736  0.9014  0.6564  1.3014
 7509TIP3   OH222490   2.035   4.971   4.004  0.2919 -0.6204  0.5160
 7509TIP3    H122491   2.102   5.010   3.949 -0.2016  0.1493  0.4549
 7509TIP3    H222492   2.044   4.877   3.989  0.2553 -0.4406 -0.7827
 7510TIP3   OH222493   0.009   1.350   4.467 -0.0681  0.8284 -0.3266
 7510TIP3    H122494   0.050   1.408   4.531  0.4794 -1.7530  1.7946
 7510TIP3    H222495   0.074   1.282   4.450 -1.9011 -1.0823 -0.0688
 7511TIP3   OH222496   2.116   4.636   5.077  0.1600 -0.3970 -0.1817
 7511TIP3    H122497   2.124   4.553   5.125 -2.3018 -0.9428 -0.5952
 7511TIP3    H222498   2.055   4.617   5.006 -0.8249  1.8819 -0.0288
 7512TIP3   OH222499   4.392   4.929   0.021  0.4332 -0.2009  0.2671
 7512TIP3    H122500   4.354   4.891   0.100 -1.7252  1.8167  0.2789
 7512TIP3    H222501   4.463   4.986   0.053  0.6664 -0.6661  0.5864
 7513TIP3   OH222502   5.345   5.770   4.476  0.8614 -0.2420  0.6202
 7513TIP3    H122503   5.428   5.812   4.498  1.5222 -0.5242 -1.1439
 7513TIP3    H222504   5.352   5.751   4.382 -0.5885 -1.6456  0.7471
 7514TIP3   OH222505   4.274   1.477   3.295 -0.9426 -0.8041 -0.0315
 7514TIP3    H122506   4.340   1.546   3.300 -1.3464 -0.5009  3.4845
 7514TIP3    H222507   4.192   1.524   3.277 -1.2388 -0.2091  2.4854
 7515TIP3   OH222508   3.022   3.586   5.241 -0.5023  0.3533  0.4082
 7515TIP3    H122509   3.046   3.678   5.232 -0.2226  0.1677 -1.0321
 7515TIP3    H222510   3.045   3.564   5.331  0.8123  1.3055  0.3405
 7516TIP3   OH222511   0.573   0.180   0.805  0.0043  0.4510 -0.3428
 7516TIP3    H122512   0.662   0.196   0.838 -0.3863  2.0318  0.0288
 7516TIP3    H222513   0.577   0.209   0.714 -0.3801  1.5303 -0.0306
 7517TIP3   OH222514   3.256   0.373   1.267  0.1802  0.5880  0.0185
 7517TIP3    H122515   3.228   0.283   1.283  0.5311  0.3433 -0.6592
 7517TIP3    H222516   3.280   0.374   1.174  0.0558  1.4166 -0.0137
 7518TIP3   OH222517   6.103   1.992   4.996  0.0655 -0.1612 -0.2009
 7518TIP3    H122518   6.093   1.905   5.036  1.4320 -0.6763 -0.9375
 7518TIP3    H222519   6.189   2.023   5.026  0.4627  0.0775 -1.5340
 7519TIP3   OH222520   3.170   5.965   0.509 -1.2586 -0.0852 -0.0306
 7519TIP3    H122521   3.127   6.038   0.465 -1.6623  0.1548  0.7428
 7519TIP3    H222522   3.194   6.000   0.595 -0.9245 -0.6900  0.1253
 7520TIP3   OH222523   4.719   6.224   4.467  0.1948  0.0988 -0.0373
 7520TIP3    H122524   4.797   6.229   4.523 -1.0741  0.7366  1.7453
 7520TIP3    H222525   4.652   6.186   4.523 -0.4954 -1.6767 -1.9409
 7521TIP3   OH222526   1.022   3.866   2.054 -0.1051 -0.0043  0.2372
 7521TIP3    H122527   1.032   3.796   1.989 -0.8059 -0.0017  0.1219
 7521TIP3    H222528   0.944   3.914   2.027  0.6183  1.1107  0.0619
 7522TIP3   OH222529   6.554   2.291   2.753 -0.3255  0.0926  0.0752
 7522TIP3    H122530   6.650   2.291   2.758 -0.3579 -0.4784  0.8961
 7522TIP3    H222531   6.535   2.314   2.662  0.6263 -1.6831 -0.6283
 7523TIP3   OH222532   2.728   5.564   3.611  0.1070 -0.1647  0.4942
 7523TIP3    H122533   2.797   5.561   3.677  0.1092  1.5329  0.6063
 7523TIP3    H222534   2.741   5.647   3.566 -1.3263 -0.2181 -0.0871
 7524TIP3   OH222535   0.525   5.557   1.892 -0.2280 -0.5375 -0.3689
 7524TIP3    H122536   0.503   5.622   1.959  1.8644 -0.7334  0.5686
 7524TIP3    H222537   0.494   5.596   1.810 -1.4301  0.4130  0.4988
 7525TIP3   OH222538   5.503   2.439   0.642  0.1320 -0.4726  0.7478
 7525TIP3    H122539   5.564   2.496   0.595  0.1033 -0.2922  0.9300
 7525TIP3    H222540   5.433   2.497   0.671 -0.4084 -0.7701  0.0790
 7526TIP3   OH222541   3.122   2.447   5.042  0.3076  0.3469 -0.2452
 7526TIP3    H122542   3.106   2.531   5.087  1.3930 -0.1985  1.2470
 7526TIP3    H222543   3.199   2.411   5.087 -1.0542 -2.1692  0.2111
 7527TIP3   OH222544   6.818   4.238   1.489 -0.1373 -0.1340 -0.7323
 7527TIP3    H122545   6.801   4.303   1.420 -0.1577 -1.2027 -1.7738
 7527TIP3    H222546   6.904   4.202   1.467  0.1750  0.0121  0.2268
 7528TIP3   OH222547   5.802   6.614   0.202  0.1025  0.1282 -0.5440
 7528TIP3    H122548   5.814   6.526   0.238  1.3334 -0.6435 -2.6555
 7528TIP3    H222549   5.859   6.616   0.125  1.4515  3.3547  0.3782
 7529TIP3   OH222550   4.519   3.558   1.579  0.3573 -0.3953  0.4975
 7529TIP3    H122551   4.605   3.543   1.540  0.2711  0.1021  0.1111
 7529TIP3    H222552   4.529   3.639   1.628  0.1548 -0.4318  0.6005
 7530TIP3   OH222553   3.200   6.576   1.144 -0.0441  0.3188  0.7625
 7530TIP3    H122554   3.252   6.535   1.213 -1.1248 -0.5480  1.0789
 7530TIP3    H222555   3.242   6.661   1.130  0.3113  0.4244  2.3467
 7531TIP3   OH222556   1.610   2.999   4.707 -0.1739 -0.1114  0.0287
 7531TIP3    H122557   1.705   3.010   4.703 -0.0362 -1.0481  0.4333
 7531TIP3    H222558   1.597   2.921   4.761 -1.0981 -1.2529 -1.7480
 7532TIP3   OH222559   2.127   2.718   1.043  0.4668 -0.0214 -0.1906
 7532TIP3    H122560   2.116   2.699   1.136 -0.0672 -0.4013 -0.3313
 7532TIP3    H222561   2.072   2.795   1.027  2.0522  1.2835  0.2147
 7533TIP3   OH222562   1.355   4.299   5.847  0.0562 -0.0534 -0.2864
 7533TIP3    H122563   1.385   4.376   5.798  0.4936  0.5810  0.9490
 7533TIP3    H222564   1.425   4.234   5.834 -0.0431 -0.0592 -0.8497
 7534TIP3   OH222565   7.141   0.400   3.619  0.3717 -0.2250  0.1716
 7534TIP3    H122566   7.152   0.446   3.536 -0.7767 -0.1150  0.0608
 7534TIP3    H222567   7.144   0.469   3.685 -0.6477 -0.0443  0.0565
 7535TIP3   OH222568   4.189   3.830   1.955  0.4267  0.3747  0.2123
 7535TIP3    H122569   4.235   3.846   1.872  2.5789  1.6111  1.5306
 7535TIP3    H222570   4.248   3.772   2.004 -0.7803 -0.2843  0.9393
 7536TIP3   OH222571   1.525   0.496   5.567 -0.1017 -0.0703 -0.0300
 7536TIP3    H122572   1.596   0.482   5.630 -0.7952  0.3447  0.8738
 7536TIP3    H222573   1.498   0.586   5.582 -0.5762 -0.1100 -0.6284
 7537TIP3   OH222574   2.689   0.403   3.966  0.4812  0.0913  0.2018
 7537TIP3    H122575   2.783   0.391   3.980  0.5298 -0.1554 -0.3112
 7537TIP3    H222576   2.660   0.321   3.925  0.3391  0.7622 -1.0558
 7538TIP3   OH222577   6.179   2.213   4.154  0.1947  0.0964  0.6463
 7538TIP3    H122578   6.166   2.172   4.069  3.0777  0.7837 -0.2481
 7538TIP3    H222579   6.268   2.187   4.179 -0.2973  0.5444  3.1070
 7539TIP3   OH222580   1.266   5.112   0.063 -0.4854 -0.2862  0.4871
 7539TIP3    H122581   1.261   5.131  -0.031 -1.0223 -1.3272  0.2899
 7539TIP3    H222582   1.249   5.018   0.069 -0.7469 -0.1743  1.6626
 7540TIP3   OH222583   4.636   5.236   0.256 -0.2590 -0.3053 -0.4016
 7540TIP3    H122584   4.723   5.232   0.295 -1.0568  0.0317  1.5557
 7540TIP3    H222585   4.630   5.324   0.218  0.3098 -0.4045 -0.7244
 7541TIP3   OH222586   2.005   0.713   3.392  0.0904 -0.0841  0.1900
 7541TIP3    H122587   2.070   0.646   3.371  1.8629  0.6155  2.8301
 7541TIP3    H222588   1.962   0.681   3.472 -0.7008  0.8530  0.1703
 7542TIP3   OH222589   2.491   5.553   2.436  0.0874  0.8956  0.0220
 7542TIP3    H122590   2.463   5.540   2.345  0.5978  0.9488 -0.1441
 7542TIP3    H222591   2.412   5.584   2.481 -0.8577 -1.5294  0.1591
 7543TIP3   OH222592   4.481   0.016   3.482  0.1742 -0.6102  0.3266
 7543TIP3    H122593   4.423  -0.028   3.544  0.3810  0.3793  1.2527
 7543TIP3    H222594   4.422   0.069   3.428  0.0263 -1.2093 -0.1060
 7544TIP3   OH222595   3.421   4.557   2.205 -0.2318 -0.4217 -0.4279
 7544TIP3    H122596   3.394   4.541   2.115  0.7451  1.0655 -1.0200
 7544TIP3    H222597   3.356   4.618   2.239 -1.5470 -2.2391  0.4518
 7545TIP3   OH222598   1.315   6.242   3.983 -0.2689  0.1235 -0.0780
 7545TIP3    H122599   1.351   6.327   3.957 -1.5069  0.8706  0.5684
 7545TIP3    H222600   1.326   6.187   3.905 -0.9575  1.3641 -1.0913
 7546TIP3   OH222601   6.285   1.196   0.230 -0.6473  0.5000  0.1607
 7546TIP3    H122602   6.254   1.279   0.192 -2.6469 -1.2115 -2.3029
 7546TIP3    H222603   6.217   1.133   0.206  0.7521 -1.8716  2.0550
 7547TIP3   OH222604   6.094   4.729   1.984 -0.1840 -0.2202  0.0351
 7547TIP3    H122605   6.187   4.720   1.962 -0.1845 -1.2830  0.4153
 7547TIP3    H222606   6.093   4.784   2.062  0.0462  0.6375 -0.5508
 7548TIP3   OH222607   0.443   3.669   3.353 -0.3095  0.1107 -0.1158
 7548TIP3    H122608   0.365   3.658   3.297 -0.3501  2.2318 -0.5654
 7548TIP3    H222609   0.516   3.647   3.295 -0.3445  2.3862 -1.1556
 7549TIP3   OH222610   1.547   0.416   2.100  0.0360  0.1283  0.4048
 7549TIP3    H122611   1.466   0.466   2.112  0.1973  0.4332  0.2214
 7549TIP3    H222612   1.584   0.409   2.188 -0.9383 -1.2972  0.7402
 7550TIP3   OH222613   0.546   0.684   0.986  0.1420  0.7640  0.4432
 7550TIP3    H122614   0.562   0.635   0.906  1.5533  0.2781  1.0072
 7550TIP3    H222615   0.569   0.775   0.964 -2.2208  1.2122 -0.5181
 7551TIP3   OH222616   4.207   6.151   5.147  0.2550 -0.0266 -0.3809
 7551TIP3    H122617   4.181   6.165   5.238 -0.0477 -1.5978 -0.2034
 7551TIP3    H222618   4.261   6.228   5.126 -1.1573  1.2655  0.5200
 7552TIP3   OH222619   4.515   0.968   0.246 -0.0685 -0.5835 -0.3577
 7552TIP3    H122620   4.543   1.013   0.326 -3.2608  0.2406  0.4302
 7552TIP3    H222621   4.478   0.885   0.277 -0.1758 -0.8399 -1.1471
 7553TIP3   OH222622   5.817   5.745   1.775  0.6365  0.2782  0.3521
 7553TIP3    H122623   5.748   5.738   1.841  0.8657  1.6608  0.7696
 7553TIP3    H222624   5.811   5.664   1.724 -1.5685  0.5518  0.1050
 7554TIP3   OH222625   5.386   5.986   2.468  0.4571 -0.5816  0.0180
 7554TIP3    H122626   5.429   6.010   2.387  0.3797 -0.8212 -0.0936
 7554TIP3    H222627   5.294   5.973   2.444  0.3486 -0.2184  0.2262
 7555TIP3   OH222628   7.006   0.242   1.942 -0.1523  0.0380  0.3675
 7555TIP3    H122629   7.099   0.255   1.925  0.2072 -0.1829  1.9774
 7555TIP3    H222630   6.982   0.313   2.002 -1.1207  0.3066 -0.3060
 7556TIP3   OH222631   4.905   5.441   1.669 -0.4431 -0.3040 -0.1477
 7556TIP3    H122632   4.916   5.511   1.733 -1.1142  0.4858 -0.8852
 7556TIP3    H222633   4.912   5.361   1.721 -1.1359  0.3226  0.9446
 7557TIP3   OH222634   4.377   1.079   2.502  0.3830 -0.1471  0.1099
 7557TIP3    H122635   4.438   1.005   2.498  0.8618  0.3125 -1.6374
 7557TIP3    H222636   4.290   1.039   2.503  0.6046 -0.7602 -1.7490
 7558TIP3   OH222637   4.399   0.359   0.405  0.8207  0.3120 -0.7985
 7558TIP3    H122638   4.351   0.344   0.487  0.4103 -2.9069 -1.4966
 7558TIP3    H222639   4.481   0.398   0.433  0.9874 -1.3496  1.2963
 7559TIP3   OH222640   3.627   0.610   0.601  0.4914 -0.2490  0.0238
 7559TIP3    H122641   3.675   0.574   0.527 -0.8474  1.5545 -1.8500
 7559TIP3    H222642   3.535   0.593   0.581  0.0094  1.5188  0.4893
 7560TIP3   OH222643   6.206   5.441   5.002  0.2346 -0.2862 -0.4534
 7560TIP3    H122644   6.237   5.443   5.093  0.0361  1.0819 -0.3845
 7560TIP3    H222645   6.111   5.435   5.009  0.2229 -0.2315 -0.5677
 7561TIP3   OH222646   7.152   5.100   4.125 -0.6001  0.0028  0.0611
 7561TIP3    H122647   7.105   5.183   4.116  0.0197  0.4397  0.6970
 7561TIP3    H222648   7.130   5.051   4.046 -0.8504  0.8341 -0.3987
 7562TIP3   OH222649   5.955   3.186   4.074 -0.2710  0.5103  0.2249
 7562TIP3    H122650   5.973   3.163   3.982  0.2673  2.1099 -0.1216
 7562TIP3    H222651   5.945   3.103   4.119  3.3079 -0.5176 -0.5355
 7563TIP3   OH222652   6.446   5.061   4.082  0.7260 -0.4217  0.0994
 7563TIP3    H122653   6.407   5.147   4.063 -1.8803 -1.4460  0.3510
 7563TIP3    H222654   6.486   5.072   4.168  0.6136  0.6020  0.0384
 7564TIP3   OH222655   1.592   4.943   1.550  0.3177 -0.6369  0.2990
 7564TIP3    H122656   1.639   5.026   1.563 -2.3201  0.8298  1.2482
 7564TIP3    H222657   1.606   4.895   1.631 -1.1654  0.5728  1.3319
 7565TIP3   OH222658   4.864   3.063   4.976 -0.1519  0.2794 -0.2141
 7565TIP3    H122659   4.849   2.999   5.045 -0.7469  0.2096 -0.4055
 7565TIP3    H222660   4.829   3.022   4.897  3.6518 -1.2019 -1.3536
 7566TIP3   OH222661   1.666   5.685   4.235 -0.0767 -0.2131  0.2654
 7566TIP3    H122662   1.708   5.681   4.321 -0.1372  1.9390  0.4680
 7566TIP3    H222663   1.634   5.597   4.219  1.2173 -1.0093  1.7923
 7567TIP3   OH222664   4.773   4.446   5.572  0.4175  0.3788  0.5360
 7567TIP3    H122665   4.704   4.459   5.506  0.0120  0.6911  1.0117
 7567TIP3    H222666   4.765   4.521   5.630  0.8831  0.1931  0.8462
 7568TIP3   OH222667   7.070   1.611   1.887 -0.6706  0.0029  0.1058
 7568TIP3    H122668   7.043   1.669   1.957  0.4709  1.2093 -0.4091
 7568TIP3    H222669   6.989   1.576   1.851 -1.3136  0.3144  1.2258
 7569TIP3   OH222670   0.790   0.255   2.118  0.0217 -0.0398 -0.0433
 7569TIP3    H122671   0.869   0.220   2.160 -0.0849 -0.3284 -0.0837
 7569TIP3    H222672   0.780   0.342   2.156 -1.0946 -0.9623  1.9482
 7570TIP3   OH222673   4.796   4.849   2.239 -0.5644 -0.1597 -0.3797
 7570TIP3    H122674   4.885   4.818   2.223 -0.8594 -2.6105  2.0525
 7570TIP3    H222675   4.807   4.940   2.267  1.7197 -1.4612  3.6726
 7571TIP3   OH222676   5.176   0.495   5.350  0.3289 -0.1478  0.6987
 7571TIP3    H122677   5.202   0.580   5.385  0.4852  0.1379 -0.1007
 7571TIP3    H222678   5.094   0.513   5.304  0.6594 -0.3150  0.0404
 7572TIP3   OH222679   1.741   0.814   5.609  0.2651  0.3944  0.0155
 7572TIP3    H122680   1.788   0.732   5.592  1.2679  1.1162 -0.9070
 7572TIP3    H222681   1.672   0.816   5.542 -0.6809 -0.3464  0.9409
 7573TIP3   OH222682   3.947   3.541   1.981 -0.1386  0.1724  0.0097
 7573TIP3    H122683   3.864   3.538   1.934 -0.7037 -2.8881  0.9555
 7573TIP3    H222684   4.014   3.550   1.913 -1.1525  1.5935 -0.8415
 7574TIP3   OH222685   1.712   2.757   3.932  0.2702  0.0355  0.5257
 7574TIP3    H122686   1.757   2.703   3.866  0.7754  0.4813  0.4987
 7574TIP3    H222687   1.635   2.706   3.955  2.6314 -2.6422  3.3973
 7575TIP3   OH222688   1.553   1.923   4.567  0.3623 -0.3530  0.3995
 7575TIP3    H122689   1.494   1.858   4.529 -0.3304  0.8202 -0.6070
 7575TIP3    H222690   1.616   1.942   4.497  0.1469  0.5456  0.4391
 7576TIP3   OH222691   6.776   2.266   5.367 -0.6539 -0.3394 -0.3286
 7576TIP3    H122692   6.759   2.186   5.317  1.2194 -1.2813  0.4213
 7576TIP3    H222693   6.869   2.260   5.390 -0.3027  2.3553 -0.7366
 7577TIP3   OH222694   5.331   6.001   5.790  0.0198 -0.0855  0.8290
 7577TIP3    H122695   5.320   6.095   5.773  2.4458 -0.1397 -1.7100
 7577TIP3    H222696   5.418   5.993   5.829  0.3074 -1.3468 -0.0013
 7578TIP3   OH222697   5.821   5.996   5.425  0.4653 -0.3540  0.2291
 7578TIP3    H122698   5.750   5.994   5.489  1.1520 -1.3619  0.9767
 7578TIP3    H222699   5.842   5.904   5.409  0.4946 -0.1074 -1.2435
 7579TIP3   OH222700   0.056   6.082   0.228 -0.4030 -0.4336  0.4466
 7579TIP3    H122701   0.006   6.001   0.221  0.7387 -1.1890  0.7962
 7579TIP3    H222702   0.147   6.053   0.241  0.2415  0.8824 -0.8739
 7580TIP3   OH222703   2.569   2.051   0.853 -0.1254  0.1984  0.3610
 7580TIP3    H122704   2.555   2.125   0.795  0.5311 -0.7213 -1.0215
 7580TIP3    H222705   2.589   2.091   0.938 -0.4906  1.5774 -0.1745
 7581TIP3   OH222706   5.240   4.957   0.354  0.5079 -0.3046  0.2912
 7581TIP3    H122707   5.311   4.959   0.290  0.0600 -1.1696 -0.2631
 7581TIP3    H222708   5.217   4.865   0.361 -0.3085 -0.0784  0.7424
 7582TIP3   OH222709   3.017   3.055   4.848 -0.1668 -0.0922 -0.7134
 7582TIP3    H122710   2.933   3.033   4.887 -1.5642  2.5743 -1.9396
 7582TIP3    H222711   3.045   3.134   4.893  1.6913 -0.8457 -0.4165
 7583TIP3   OH222712   1.422   1.723   2.475 -0.0272 -0.0637 -0.3135
 7583TIP3    H122713   1.425   1.667   2.553 -1.1229 -0.2737 -0.4068
 7583TIP3    H222714   1.478   1.798   2.497 -1.2261  0.4485  1.1433
 7584TIP3   OH222715   2.652   1.492   5.663 -0.5010 -0.6766  0.5648
 7584TIP3    H122716   2.643   1.580   5.701  0.3948 -0.7021  0.8571
 7584TIP3    H222717   2.709   1.446   5.723  0.7241 -0.8105 -0.6627
 7585TIP3   OH222718   7.078   3.670   0.129  0.0125  0.2702 -0.1695
 7585TIP3    H122719   7.006   3.713   0.176 -0.6451 -0.0952 -0.8127
 7585TIP3    H222720   7.076   3.580   0.162  0.1800  0.2606 -0.1882
 7586TIP3   OH222721   2.960   0.131   4.704 -0.1144  0.3195 -0.4821
 7586TIP3    H122722   3.035   0.167   4.657 -1.0485  0.8352 -1.6172
 7586TIP3    H222723   2.884   0.173   4.664 -1.1198 -1.3762 -0.4181
 7587TIP3   OH222724   4.708   2.437   0.700  0.1747 -0.8265  0.3201
 7587TIP3    H122725   4.687   2.530   0.712 -0.1393 -1.0167  1.3214
 7587TIP3    H222726   4.652   2.409   0.628  1.0866  0.0197 -0.7551
 7588TIP3   OH222727   1.704   0.337   4.012 -0.3615 -0.1293  0.0167
 7588TIP3    H122728   1.646   0.320   4.086  0.5340 -0.0520  0.7633
 7588TIP3    H222729   1.668   0.286   3.940 -1.4816  0.1056  0.3920
 7589TIP3   OH222730   1.305   4.134   3.325 -0.1737 -0.4829  0.2564
 7589TIP3    H122731   1.374   4.184   3.367 -0.2419 -0.3658  0.2304
 7589TIP3    H222732   1.301   4.169   3.236 -0.7977  0.0662  0.4827
 7590TIP3   OH222733   0.684   2.752   1.163 -0.1174  0.2556 -0.2429
 7590TIP3    H122734   0.624   2.813   1.206 -1.0127 -0.4415 -0.4726
 7590TIP3    H222735   0.760   2.806   1.139 -0.7693  1.2124 -0.2050
 7591TIP3   OH222736   1.680   6.547   2.754 -0.1767 -0.0144  0.7728
 7591TIP3    H122737   1.728   6.623   2.721 -2.0578 -0.0341 -2.3725
 7591TIP3    H222738   1.704   6.476   2.695 -3.7208 -0.0775 -0.8335
 7592TIP3   OH222739   1.429   6.102   1.834  0.1634 -0.1521  0.0033
 7592TIP3    H122740   1.416   6.108   1.929 -1.4378  0.0895 -0.2019
 7592TIP3    H222741   1.391   6.018   1.809 -0.7817  0.4263 -0.5958
 7593TIP3   OH222742   4.358   3.889   0.063  0.2052  0.7645  0.4652
 7593TIP3    H122743   4.326   3.803   0.091  0.6006  0.7964  1.0354
 7593TIP3    H222744   4.331   3.949   0.133 -0.7311  1.2520 -0.2856
 7594TIP3   OH222745   3.088   5.831   1.773 -0.1248  0.1591  0.5207
 7594TIP3    H122746   3.088   5.926   1.787  4.1973  0.7111 -1.7521
 7594TIP3    H222747   3.043   5.819   1.689 -1.1560  0.0462  1.0655
 7595TIP3   OH222748   4.905   6.353   0.604 -0.1350  0.0417  0.1403
 7595TIP3    H122749   4.978   6.328   0.660 -0.3948 -2.3316 -0.4689
 7595TIP3    H222750   4.944   6.366   0.518 -0.1409  0.8666  0.2581
 7596TIP3   OH222751   6.593   2.307   4.001 -0.9474  1.0241  0.0447
 7596TIP3    H122752   6.665   2.250   3.973 -1.1834  0.8414 -0.1879
 7596TIP3    H222753   6.623   2.396   3.980 -0.5447  0.9996  0.4825
 7597TIP3   OH222754   5.021   0.804   4.977 -0.3009  0.3937  0.4318
 7597TIP3    H122755   5.069   0.732   4.936  1.9555  2.4714 -0.8323
 7597TIP3    H222756   4.992   0.768   5.061 -0.7069 -2.4496 -0.8011
 7598TIP3   OH222757   3.120   4.839   2.103 -0.1967  0.3979  0.0282
 7598TIP3    H122758   3.109   4.925   2.062 -1.1096  0.2194 -0.1377
 7598TIP3    H222759   3.097   4.776   2.034 -0.4266  0.0576  0.4079
 7599TIP3   OH222760   0.201   1.695   0.490  0.2391  0.0265 -0.6909
 7599TIP3    H122761   0.147   1.772   0.509  0.6754  0.4155 -0.9936
 7599TIP3    H222762   0.139   1.630   0.458 -0.2152  0.0643  0.0818
 7600TIP3   OH222763   5.407   3.937   1.828 -0.9348  0.1630  0.2751
 7600TIP3    H122764   5.499   3.938   1.803 -0.5211 -2.3430  1.3576
 7600TIP3    H222765   5.399   4.007   1.893  0.1619  0.5569  0.0040
 7601TIP3   OH222766   6.879   1.708   0.118  0.0235 -0.2638 -0.4898
 7601TIP3    H122767   6.961   1.752   0.139 -0.1357 -0.3917  0.4716
 7601TIP3    H222768   6.903   1.638   0.058  0.1993  1.4808 -2.5560
 7602TIP3   OH222769   5.180   6.429   5.484  0.1464 -0.3648  0.5874
 7602TIP3    H122770   5.121   6.354   5.497 -0.0088 -0.3901 -0.2115
 7602TIP3    H222771   5.147   6.495   5.545  0.1595 -0.8672  1.1542
 7603TIP3   OH222772   5.982   1.776   3.601 -0.4872  0.1328 -0.0233
 7603TIP3    H122773   5.973   1.774   3.505  0.0878 -0.3103 -0.0759
 7603TIP3    H222774   6.077   1.769   3.615 -0.6503 -0.8365  0.6062
 7604TIP3   OH222775   0.323   4.993   1.964 -0.0272 -0.2652  0.2311
 7604TIP3    H122776   0.350   4.929   1.898 -1.1767  1.0118 -1.5297
 7604TIP3    H222777   0.229   5.003   1.952 -0.2188  0.2700  1.8529
 7605TIP3   OH222778   4.073   4.561   5.419 -0.0209  0.0527  0.3660
 7605TIP3    H122779   4.167   4.555   5.398 -0.3771 -2.7249 -0.8466
 7605TIP3    H222780   4.051   4.475   5.452 -2.8206 -0.5177 -2.5087
 7606TIP3   OH222781   0.380   5.133   2.458  0.8549 -0.3632  0.3682
 7606TIP3    H122782   0.409   5.043   2.438  1.4388  0.2975 -2.1397
 7606TIP3    H222783   0.347   5.166   2.374  0.0280  1.5504  1.4080
 7607TIP3   OH222784   5.615   6.644   4.019  0.5028 -0.5099 -0.3649
 7607TIP3    H122785   5.613   6.627   3.925 -0.3824 -0.2690 -0.4042
 7607TIP3    H222786   5.635   6.559   4.058  2.0643 -0.3662 -0.8101
 7608TIP3   OH222787   3.857   3.376   4.296  0.4398  0.1021  0.4246
 7608TIP3    H122788   3.798   3.435   4.249  0.8545  1.4290  1.5136
 7608TIP3    H222789   3.944   3.410   4.279  0.9492 -1.7511 -1.0371
 7609TIP3   OH222790   2.136   3.717   4.478  0.4508 -0.0688  0.5499
 7609TIP3    H122791   2.224   3.737   4.509  0.2768  3.0546 -0.6143
 7609TIP3    H222792   2.141   3.627   4.448  3.0494 -0.1971  1.1463
 7610TIP3   OH222793   4.141   2.678   3.395  0.1437  0.1210 -0.2013
 7610TIP3    H122794   4.113   2.622   3.322  0.8729 -0.5014 -0.0138
 7610TIP3    H222795   4.088   2.650   3.469 -1.4467  1.5456 -0.7303
 7611TIP3   OH222796   5.136   0.913   5.371 -0.0252  0.4895 -0.4924
 7611TIP3    H122797   5.188   0.835   5.391  1.1649  1.8408  2.2375
 7611TIP3    H222798   5.067   0.882   5.312  0.2270 -2.6748  0.7068
 7612TIP3   OH222799   1.759   0.623   0.055 -0.6636  0.8258  0.4373
 7612TIP3    H122800   1.709   0.698   0.024 -0.2726  1.1587  0.6130
 7612TIP3    H222801   1.704   0.585   0.124 -0.4290  1.5145  1.0104
 7613TIP3   OH222802   2.756   3.194   4.353 -0.5979  0.0706 -0.4335
 7613TIP3    H122803   2.762   3.104   4.320  0.1646  0.5176 -1.5550
 7613TIP3    H222804   2.824   3.199   4.420 -1.6758 -0.6279  0.7598
 7614TIP3   OH222805   5.413   5.668   2.849  0.4669  0.1506  0.0220
 7614TIP3    H122806   5.379   5.742   2.798  1.1370 -0.7114 -1.7627
 7614TIP3    H222807   5.355   5.596   2.829 -0.7292  0.3368  2.4742
 7615TIP3   OH222808   3.918   0.484   5.405  0.5172  0.1595 -0.3699
 7615TIP3    H122809   3.905   0.426   5.329 -1.7807  0.1534 -0.0277
 7615TIP3    H222810   3.955   0.564   5.367  0.8222 -0.3872 -1.2723
 7616TIP3   OH222811   0.863   3.486   1.806  0.1806 -0.1081 -0.1991
 7616TIP3    H122812   0.860   3.393   1.827  0.7694 -0.8768 -3.0219
 7616TIP3    H222813   0.801   3.527   1.866 -1.7478 -2.6456 -0.3368
 7617TIP3   OH222814   0.712   1.089   2.862 -0.4075 -0.1018 -0.5667
 7617TIP3    H122815   0.697   1.177   2.896 -0.5397 -0.2569 -0.2174
 7617TIP3    H222816   0.649   1.080   2.790  1.9554  1.3953 -3.0505
 7618TIP3   OH222817   6.649   0.669   2.732 -0.4180  0.1127  0.2474
 7618TIP3    H122818   6.615   0.582   2.711 -0.3394 -0.0875  0.9463
 7618TIP3    H222819   6.606   0.693   2.814 -0.3376  0.6766  0.1303
 7619TIP3   OH222820   2.831   4.349   1.327  0.2514  0.7536  0.0440
 7619TIP3    H122821   2.879   4.272   1.356 -0.3365 -0.1492 -1.3029
 7619TIP3    H222822   2.751   4.349   1.380 -1.0139 -1.1163 -1.7334
 7620TIP3   OH222823   5.366   4.965   1.822  0.4885  0.1516 -0.0848
 7620TIP3    H122824   5.364   5.016   1.741  2.5114 -1.2735 -1.1313
 7620TIP3    H222825   5.288   4.909   1.817 -1.0824  2.1694  0.5027
 7621TIP3   OH222826   6.389   1.753   5.714 -1.0410 -0.3876  0.1261
 7621TIP3    H122827   6.465   1.793   5.672 -1.1828 -0.8196 -0.5567
 7621TIP3    H222828   6.407   1.761   5.808 -0.0602 -0.6575 -0.0256
 7622TIP3   OH222829   1.100   6.390   5.018  0.6902 -0.4389 -0.4398
 7622TIP3    H122830   1.059   6.349   4.942  0.3988  0.7224 -0.9298
 7622TIP3    H222831   1.028   6.433   5.065  1.0055 -0.3662 -0.0127
 7623TIP3   OH222832   5.210   3.987   0.647 -0.2212  0.8465  0.0744
 7623TIP3    H122833   5.286   3.933   0.625 -0.3986  1.2175 -1.5559
 7623TIP3    H222834   5.215   3.997   0.742  0.1115 -1.5755  0.3742
 7624TIP3   OH222835   5.909   1.135   0.083 -0.4134  0.9202  0.0911
 7624TIP3    H122836   5.898   1.224   0.117  0.8571  0.9613  0.4510
 7624TIP3    H222837   5.962   1.091   0.150 -3.2585 -0.9652  1.2913
 7625TIP3   OH222838   1.904   2.529   0.821 -0.0997 -0.2463  0.0528
 7625TIP3    H122839   1.880   2.466   0.753 -1.2336 -0.0719  0.2722
 7625TIP3    H222840   1.982   2.491   0.862 -0.7840 -1.5486  0.2127
 7626TIP3   OH222841   1.292   4.712   2.604 -0.8637  0.2600 -0.7014
 7626TIP3    H122842   1.314   4.737   2.514 -1.4783  0.5384 -0.7787
 7626TIP3    H222843   1.362   4.750   2.658 -0.2739 -0.2410 -1.0890
 7627TIP3   OH222844   1.579   1.089   3.107 -0.4983  0.2276 -0.1015
 7627TIP3    H122845   1.533   1.136   3.037 -3.2350  2.4543  2.9030
 7627TIP3    H222846   1.631   1.157   3.150  0.5111 -0.9279  0.5647
 7628TIP3   OH222847   4.487   4.022   4.916 -0.2258  0.4335  0.4294
 7628TIP3    H122848   4.418   4.009   4.850 -0.9406  0.6479  1.1232
 7628TIP3    H222849   4.567   4.038   4.864 -0.7059  0.2522 -0.3842
 7629TIP3   OH222850   2.840   6.321   2.507 -0.3357 -0.3452 -0.2869
 7629TIP3    H122851   2.825   6.322   2.601  1.7062 -1.1986  0.0843
 7629TIP3    H222852   2.827   6.411   2.480 -0.9020 -0.0802  0.8107
 7630TIP3   OH222853   4.170   5.035   1.633 -0.5513  0.0268 -0.2857
 7630TIP3    H122854   4.112   5.047   1.559  1.0133 -0.1737 -1.5951
 7630TIP3    H222855   4.175   4.940   1.645 -0.6446  0.0508 -0.0389
 7631TIP3   OH222856   1.541   2.183   2.455 -0.1807  0.1320  0.3419
 7631TIP3    H122857   1.461   2.131   2.446  0.6629 -1.0197 -0.9379
 7631TIP3    H222858   1.565   2.173   2.547 -0.3483 -1.3187  0.2502
 7632TIP3   OH222859   3.883   6.696   2.266  0.6364 -0.1655 -0.0187
 7632TIP3    H122860   3.929   6.636   2.206 -1.7718  0.2829 -2.5296
 7632TIP3    H222861   3.898   6.783   2.229 -0.4678  0.1875  0.3242
 7633TIP3   OH222862   0.636   2.778   0.397 -0.1831 -0.4085  0.1697
 7633TIP3    H122863   0.716   2.746   0.354  0.4783 -1.5904  2.1558
 7633TIP3    H222864   0.608   2.706   0.453  0.1729  1.6193  3.2379
 7634TIP3   OH222865   3.999   5.615   0.340 -0.4433 -0.0753 -0.3424
 7634TIP3    H122866   4.012   5.707   0.315 -1.5367  0.6184  1.4758
 7634TIP3    H222867   4.080   5.571   0.312  0.0377  1.3855 -1.3924
 7635TIP3   OH222868   0.242   4.609   5.043  0.6632 -0.2351  0.4612
 7635TIP3    H122869   0.158   4.633   5.082 -0.2911  0.0414 -1.5923
 7635TIP3    H222870   0.306   4.666   5.085 -0.2983  0.0693  1.5389
 7636TIP3   OH222871   1.575   4.496   3.770  0.2708 -0.1785  0.1259
 7636TIP3    H122872   1.602   4.584   3.797  1.3359  0.0557 -1.5416
 7636TIP3    H222873   1.598   4.492   3.677  0.3300 -2.2557  0.1882
 7637TIP3   OH222874   3.706   6.571   1.216  0.0580  0.5447  0.3410
 7637TIP3    H122875   3.683   6.641   1.278  0.6281  0.4943  0.6163
 7637TIP3    H222876   3.732   6.498   1.272  0.4167  0.4415  0.0409
 7638TIP3   OH222877   3.925   3.268   2.423 -0.4459  0.1986 -0.2272
 7638TIP3    H122878   3.957   3.317   2.498 -2.1199  0.5740  0.2842
 7638TIP3    H222879   3.984   3.293   2.351  0.3354  0.8890  0.6359
 7639TIP3   OH222880   4.369   4.600   5.366  0.4754 -0.2320 -0.2464
 7639TIP3    H122881   4.404   4.648   5.441 -0.1446 -0.1092 -0.0339
 7639TIP3    H222882   4.411   4.514   5.371 -0.2594 -0.5488  0.7831
 7640TIP3   OH222883   1.226   2.619   2.029 -0.8030  0.5815  0.1552
 7640TIP3    H122884   1.154   2.595   1.971 -0.2316 -0.2379 -0.2430
 7640TIP3    H222885   1.185   2.636   2.113 -1.3797 -0.7348  0.1640
 7641TIP3   OH222886   5.039   3.058   0.421 -0.0408 -0.4661  0.1102
 7641TIP3    H122887   5.018   3.151   0.426  0.3721 -0.3604 -0.0961
 7641TIP3    H222888   5.071   3.045   0.332  0.4393 -0.6924  0.3127
 7642TIP3   OH222889   3.567   4.140   3.778  0.8705  0.3966 -0.3642
 7642TIP3    H122890   3.531   4.222   3.743  2.1474  1.6633  1.0954
 7642TIP3    H222891   3.627   4.109   3.711 -1.3981 -0.7211 -1.9958
 7643TIP3   OH222892   7.070   4.882   3.421  0.6597 -0.1935 -0.0372
 7643TIP3    H122893   7.129   4.929   3.362  1.4905 -0.6737  0.3901
 7643TIP3    H222894   7.072   4.934   3.502 -0.4254  0.4272 -0.3875
 7644TIP3   OH222895   5.808   2.368   5.503  0.1446 -0.0208  0.1231
 7644TIP3    H122896   5.775   2.278   5.511 -1.4606  0.1091 -3.3551
 7644TIP3    H222897   5.792   2.391   5.411  1.7854  3.3629  0.5588
 7645TIP3   OH222898   5.014   6.547   4.759 -0.4589  0.2977 -0.6396
 7645TIP3    H122899   4.992   6.487   4.688  0.1608 -1.0876  0.2934
 7645TIP3    H222900   4.934   6.597   4.773 -1.8716 -1.9825  0.1159
 7646TIP3   OH222901   7.181   2.392   1.561  0.6700 -0.7411  0.2789
 7646TIP3    H122902   7.257   2.374   1.616  0.9388  1.3195  0.6447
 7646TIP3    H222903   7.188   2.485   1.540 -1.6192 -0.5555  0.1099
 7647TIP3   OH222904   2.053   2.502   3.916 -0.2633 -0.1649 -0.9545
 7647TIP3    H122905   2.004   2.419   3.912  0.7738 -0.9789  1.3077
 7647TIP3    H222906   2.142   2.478   3.892 -0.1808  0.5455 -1.3751
 7648TIP3   OH222907   0.106   2.304   2.243 -0.6928  0.0586  0.6007
 7648TIP3    H122908   0.027   2.354   2.226 -0.1231  0.3691 -1.3433
 7648TIP3    H222909   0.129   2.325   2.334 -1.8790  1.3043  0.6332
 7649TIP3   OH222910   0.819   0.678   0.058  0.3320 -0.0877 -0.0620
 7649TIP3    H122911   0.804   0.655  -0.033  0.4124  3.2808 -1.0795
 7649TIP3    H222912   0.905   0.641   0.079 -0.0860 -1.6788 -1.0254
 7650TIP3   OH222913   0.750   4.319   2.264  0.1605 -0.0281  0.6013
 7650TIP3    H122914   0.687   4.326   2.192 -0.2908  0.5947  1.0479
 7650TIP3    H222915   0.700   4.278   2.335  0.6215 -0.6999  0.5471
 7651TIP3   OH222916   6.999   3.520   3.978 -0.1237  0.2151 -0.4083
 7651TIP3    H122917   6.949   3.573   4.041 -3.0371  1.5219 -3.5111
 7651TIP3    H222918   7.076   3.572   3.959  0.0087  0.5215  0.8604
 7652TIP3   OH222919   5.204   0.656   1.810 -0.8089 -0.4026 -0.2825
 7652TIP3    H122920   5.288   0.683   1.772 -0.9493  1.4058  0.5718
 7652TIP3    H222921   5.184   0.573   1.767  1.1671 -0.6376 -0.8711
 7653TIP3   OH222922   1.826   0.068   3.394 -0.1360  0.4079  0.1082
 7653TIP3    H122923   1.831   0.022   3.310  1.9702  0.1054  0.3420
 7653TIP3    H222924   1.881   0.145   3.383 -1.7653  1.6800  0.4802
 7654TIP3   OH222925   3.816   2.007   4.980 -0.3184 -0.5779  0.2055
 7654TIP3    H122926   3.756   1.941   4.944 -0.0835 -0.1540 -1.0175
 7654TIP3    H222927   3.766   2.088   4.979 -0.2331 -0.5179  0.6505
 7655TIP3   OH222928   2.970   6.159   4.778 -0.3533  0.1074 -0.6237
 7655TIP3    H122929   2.922   6.104   4.716 -1.0267  0.7345 -0.6744
 7655TIP3    H222930   2.942   6.127   4.864  1.1061 -1.2212 -0.6084
 7656TIP3   OH222931   5.437   0.587   4.127  0.7843  0.4809  0.1322
 7656TIP3    H122932   5.442   0.676   4.161 -0.4392  0.4860  0.3702
 7656TIP3    H222933   5.524   0.569   4.092  1.8262  0.8506  2.3440
 7657TIP3   OH222934   0.301   6.368   5.895 -0.6873  0.2687 -0.1989
 7657TIP3    H122935   0.343   6.362   5.809  2.3210  1.6611  1.0373
 7657TIP3    H222936   0.230   6.431   5.883  0.3006  1.1945 -1.4761
 7658TIP3   OH222937   3.198   4.144   4.040  0.0956  0.1760  0.0553
 7658TIP3    H122938   3.289   4.118   4.027  0.7949  2.5413 -0.1638
 7658TIP3    H222939   3.187   4.146   4.135 -0.1348 -1.3193  0.0801
 7659TIP3   OH222940   6.079   0.394   0.279  0.3975  0.2736  0.0600
 7659TIP3    H122941   6.021   0.401   0.355  0.8220 -1.4389  0.5956
 7659TIP3    H222942   6.167   0.402   0.316  0.5582  1.4924 -0.5530
 7660TIP3   OH222943   1.673   0.048   5.502 -0.2944 -0.4354  0.2067
 7660TIP3    H122944   1.750   0.068   5.449 -0.9359 -2.6806 -1.7445
 7660TIP3    H222945   1.610   0.117   5.481  0.8266  0.9735  1.2307
 7661TIP3   OH222946  -0.011   5.466   1.215  0.0826  0.5665 -0.0646
 7661TIP3    H122947   0.045   5.531   1.171  0.8621 -0.1781 -0.2107
 7661TIP3    H222948   0.045   5.430   1.284 -0.1596 -0.3094 -0.3167
 7662TIP3   OH222949   1.441   5.396   3.581  0.1673  0.3396  0.3327
 7662TIP3    H122950   1.507   5.427   3.644  1.1083  0.1383 -0.5313
 7662TIP3    H222951   1.485   5.326   3.533 -0.1599  1.1536 -1.2314
 7663TIP3   OH222952   1.346   3.627   3.868  0.4803  0.2702 -1.1776
 7663TIP3    H122953   1.427   3.615   3.917 -0.3652  1.5780  0.6278
 7663TIP3    H222954   1.300   3.544   3.878  1.4798 -0.4177 -2.0629
 7664TIP3   OH222955   1.557   5.764   3.180 -0.1994  0.4306 -0.2595
 7664TIP3    H122956   1.620   5.698   3.209 -1.8570 -1.1150  0.0105
 7664TIP3    H222957   1.569   5.838   3.239  1.6549  0.3725 -0.5248
 7665TIP3   OH222958   0.766   3.727   2.198 -0.0434 -0.4766  0.0940
 7665TIP3    H122959   0.754   3.788   2.125 -1.8772  0.2607  0.9607
 7665TIP3    H222960   0.782   3.783   2.274  2.3252 -1.2448  0.2538
 7666TIP3   OH222961   6.760   2.622   1.303 -0.2105 -0.3577  0.2381
 7666TIP3    H122962   6.738   2.620   1.396  0.1927 -0.3772  0.3357
 7666TIP3    H222963   6.708   2.553   1.263 -0.7413 -0.0403  0.3697
 7667TIP3   OH222964   6.711   0.918   0.082  0.4965 -0.0799 -0.2062
 7667TIP3    H122965   6.752   1.000   0.054  0.0295  0.1928 -0.0994
 7667TIP3    H222966   6.676   0.880   0.002 -0.1814  0.3309 -0.1104
 7668TIP3   OH222967   6.867   1.220   4.154  0.1513  0.4159  0.1797
 7668TIP3    H122968   6.921   1.292   4.188 -0.2527  1.0064 -0.4068
 7668TIP3    H222969   6.930   1.156   4.121  0.5105  1.3059 -0.9323
 7669TIP3   OH222970   3.472   2.789   2.910  0.6743  0.6648 -0.0862
 7669TIP3    H122971   3.407   2.725   2.937  0.5919  0.3914 -0.9132
 7669TIP3    H222972   3.527   2.802   2.988 -0.5949  1.2066  0.7485
 7670TIP3   OH222973   2.289   2.377   2.656 -0.2835 -0.3536  0.0508
 7670TIP3    H122974   2.305   2.376   2.750  1.7296  0.8024 -0.2304
 7670TIP3    H222975   2.368   2.340   2.617 -0.6192  0.2200 -1.2446
 7671TIP3   OH222976   4.640   1.059   4.741 -0.2344  0.5519 -0.4273
 7671TIP3    H122977   4.583   0.990   4.777  1.3855 -1.0721 -0.8314
 7671TIP3    H222978   4.714   1.062   4.801  0.4718  0.8096 -1.3090
 7672TIP3   OH222979   1.004   2.762   5.282 -0.2110 -0.6615  0.5467
 7672TIP3    H122980   1.018   2.673   5.251  4.8221 -0.8275  2.3168
 7672TIP3    H222981   1.006   2.754   5.378 -1.0731  1.2551  0.7696
 7673TIP3   OH222982   4.513   4.741   2.243  0.4731  0.4863  0.1333
 7673TIP3    H122983   4.453   4.812   2.221 -0.3810 -0.4440 -0.6963
 7673TIP3    H222984   4.599   4.782   2.250 -0.0110  1.6031 -0.2293
 7674TIP3   OH222985   3.421   4.766   2.552  0.4882  0.2543 -0.1743
 7674TIP3    H122986   3.370   4.734   2.478  1.3255  0.0074 -0.6553
 7674TIP3    H222987   3.493   4.816   2.513  0.2746  1.1214  0.5154
 7675TIP3   OH222988   3.139   0.169   3.186 -0.0236  0.2983  0.4639
 7675TIP3    H122989   3.049   0.176   3.153  0.1044  0.3308  0.1093
 7675TIP3    H222990   3.179   0.102   3.130 -0.0364 -0.2399  1.0965
 7676TIP3   OH222991   2.879   1.011   2.615  0.2284 -0.1284 -0.4732
 7676TIP3    H122992   2.932   1.039   2.541  1.0754  0.2789  0.2822
 7676TIP3    H222993   2.791   1.001   2.578  0.5255  0.5882 -1.4129
 7677TIP3   OH222994   3.330   0.625   2.460  0.5969 -0.2656  0.3447
 7677TIP3    H122995   3.299   0.540   2.428  0.1985 -0.0907  0.2601
 7677TIP3    H222996   3.410   0.641   2.411 -0.2922  0.2502 -0.9703
 7678TIP3   OH222997   0.607   5.891   0.124 -0.1942 -0.1128 -0.2105
 7678TIP3    H122998   0.663   5.933   0.058 -1.8398  3.0771  0.2453
 7678TIP3    H222999   0.649   5.913   0.207 -0.3214 -0.6360 -0.0086
 7679TIP3   OH223000   0.175   1.605   3.888 -0.2096 -0.6176  0.0993
 7679TIP3    H123001   0.258   1.566   3.918  0.2425 -0.7540 -1.2169
 7679TIP3    H223002   0.125   1.620   3.968  1.8355  1.2499  1.1432
 7680TIP3   OH223003   3.923   4.178   1.159 -0.5198  0.1957 -0.0199
 7680TIP3    H123004   3.943   4.142   1.245 -0.6593  0.3951  0.0989
 7680TIP3    H223005   3.957   4.268   1.163 -3.3112  1.3325  0.9821
 7681TIP3   OH223006   2.096   0.920   5.222 -0.1695  0.3938  0.3013
 7681TIP3    H123007   2.032   0.979   5.261 -0.4923  0.0793  0.2553
 7681TIP3    H223008   2.073   0.834   5.256 -0.4322  0.1240 -0.5404
 7682TIP3   OH223009   2.247   2.973   1.414 -0.1101 -0.1313 -0.6427
 7682TIP3    H123010   2.330   3.017   1.396  0.1085 -0.4037 -0.3310
 7682TIP3    H223011   2.267   2.915   1.488 -1.3762  2.2758  1.7490
 7683TIP3   OH223012   5.029   4.321   3.955 -0.2984  0.1640 -0.2531
 7683TIP3    H123013   5.076   4.332   3.871 -1.0926  0.4000 -0.6723
 7683TIP3    H223014   5.097   4.331   4.021  0.2853  0.3157 -0.8598
 7684TIP3   OH223015   3.137   4.327   0.402  0.6846  0.0539 -0.0755
 7684TIP3    H123016   3.183   4.254   0.444  2.3755  1.0248 -0.1801
 7684TIP3    H223017   3.050   4.291   0.383  1.7563 -2.2735 -1.0438
 7685TIP3   OH223018   3.215   2.153   3.825 -0.4863  0.0458  0.0199
 7685TIP3    H123019   3.239   2.087   3.759  0.6875 -0.6074  1.0672
 7685TIP3    H223020   3.190   2.102   3.902 -1.3165  0.8180  0.2772
 7686TIP3   OH223021   5.378   3.663   1.749 -0.7612 -0.7694 -0.1814
 7686TIP3    H123022   5.284   3.650   1.763 -0.6224 -2.4825 -0.6559
 7686TIP3    H223023   5.395   3.750   1.785 -2.6618 -0.1046 -0.7586
 7687TIP3   OH223024   4.472   5.770   2.388  0.3283  0.2237 -0.3871
 7687TIP3    H123025   4.408   5.744   2.322 -0.9574  0.5759  0.6754
 7687TIP3    H223026   4.488   5.691   2.439  1.3779 -0.0673 -1.1226
 7688TIP3   OH223027   1.754   3.143   4.416 -0.3024  0.5863  0.4181
 7688TIP3    H123028   1.787   3.157   4.327  0.7860 -1.4300  0.4291
 7688TIP3    H223029   1.809   3.199   4.471  0.2556  0.4684 -0.0092
 7689TIP3   OH223030   4.653   4.204   1.347 -0.3939  0.2037  0.1572
 7689TIP3    H123031   4.689   4.262   1.414 -0.4462  0.7226 -0.2639
 7689TIP3    H223032   4.716   4.208   1.275 -0.7754  0.3161 -0.1725
 7690TIP3   OH223033   2.156   1.767   3.066  0.3702 -0.7384 -0.3286
 7690TIP3    H123034   2.250   1.759   3.079  0.2941  0.2828  1.0418
 7690TIP3    H223035   2.139   1.722   2.983  2.3141  0.6962 -1.5615
 7691TIP3   OH223036   2.950   0.732   3.445 -0.6832 -0.2997  0.1838
 7691TIP3    H123037   2.943   0.642   3.475 -2.4906 -0.6336 -1.0351
 7691TIP3    H223038   3.041   0.742   3.416 -0.2515 -1.4602  1.1008
 7692TIP3   OH223039   1.998   1.934   2.612  0.1607  0.0423  0.2449
 7692TIP3    H123040   2.089   1.906   2.602 -0.1725 -1.9524  1.9913
 7692TIP3    H223041   1.950   1.854   2.632 -1.6113  1.3216  1.4934
 7693TIP3   OH223042   3.878   1.372   3.402  0.0160  0.0865  0.2502
 7693TIP3    H123043   3.881   1.451   3.347 -0.1976 -0.3100 -0.3420
 7693TIP3    H223044   3.966   1.335   3.396 -0.2269 -0.3929 -0.4874
 7694TIP3   OH223045   2.515   5.739   1.051  0.2732  0.1495  0.2309
 7694TIP3    H123046   2.564   5.663   1.020 -0.5140 -0.1263 -0.3468
 7694TIP3    H223047   2.469   5.772   0.974 -0.1162  0.6669  0.6722
 7695TIP3   OH223048   6.342   2.789   2.195  0.6383 -0.3199  0.0542
 7695TIP3    H123049   6.311   2.880   2.202  3.4640  0.8040 -0.6609
 7695TIP3    H223050   6.297   2.743   2.266  0.3764  2.0347  1.5349
 7696TIP3   OH223051   3.723   2.273   1.715  0.2482 -0.5427 -0.0690
 7696TIP3    H123052   3.778   2.239   1.785  0.2364 -0.7870 -0.1775
 7696TIP3    H223053   3.633   2.259   1.745  0.2445  0.1001  0.2252
 7697TIP3   OH223054   5.877   6.503   0.550  0.2545  0.0369 -0.0037
 7697TIP3    H123055   5.845   6.436   0.490 -0.3301 -0.6605  1.0577
 7697TIP3    H223056   5.806   6.515   0.614  1.2748 -0.0482  1.1911
 7698TIP3   OH223057   4.619   1.379   5.490  0.0461 -0.2076  0.0332
 7698TIP3    H123058   4.537   1.341   5.521 -2.0525  1.6331 -2.7673
 7698TIP3    H223059   4.607   1.474   5.500  2.5346  0.0850  1.0012
 7699TIP3   OH223060   4.903   2.179   1.156 -0.3628  0.3811  0.3831
 7699TIP3    H123061   4.931   2.268   1.134 -0.0506  0.2838  0.3950
 7699TIP3    H223062   4.961   2.151   1.226  1.1464 -0.7341 -1.2298
 7700TIP3   OH223063   6.357   5.393   3.306  0.3318  0.7276  0.1186
 7700TIP3    H123064   6.296   5.334   3.262  1.1302 -1.1347  1.3676
 7700TIP3    H223065   6.444   5.356   3.287  0.8785  1.6769  0.6888
 7701TIP3   OH223066   3.352   6.537   1.594 -0.4635  0.1086 -0.2300
 7701TIP3    H123067   3.432   6.589   1.589 -0.3833 -0.0362 -0.4559
 7701TIP3    H223068   3.368   6.474   1.664 -1.1701  1.4249  1.1537
 7702TIP3   OH223069   3.739   4.454   0.223  0.7544 -0.8699  0.1166
 7702TIP3    H123070   3.658   4.474   0.176  2.0889 -0.1213 -1.9781
 7702TIP3    H223071   3.755   4.531   0.277 -0.3494 -1.3851  1.2295
 7703TIP3   OH223072   2.294   6.276   2.912 -0.0883 -0.0677  0.4280
 7703TIP3    H123073   2.363   6.222   2.873 -0.2848  2.2091 -3.6978
 7703TIP3    H223074   2.212   6.235   2.883 -0.3204  0.2352  0.6468
 7704TIP3   OH223075   0.841   1.243   0.268  0.2996 -0.6512  0.2192
 7704TIP3    H123076   0.838   1.233   0.173 -2.0650 -0.3117  0.2191
 7704TIP3    H223077   0.842   1.153   0.302  2.7809 -0.8140 -0.0754
 7705TIP3   OH223078   0.635   5.853   1.871 -0.4784 -0.1377 -0.0617
 7705TIP3    H123079   0.644   5.935   1.919 -1.0706 -0.6372  0.9342
 7705TIP3    H223080   0.602   5.880   1.785 -0.8828  0.6579  0.3298
 7706TIP3   OH223081   5.924   6.595   1.885  0.0718 -0.6789 -0.1194
 7706TIP3    H123082   5.882   6.589   1.799 -1.2062  0.4606  0.3944
 7706TIP3    H223083   5.855   6.626   1.944  0.7992 -1.8618  1.4329
 7707TIP3   OH223084   1.626   5.448   5.216 -0.1394  0.8335  0.2556
 7707TIP3    H123085   1.615   5.369   5.163  0.5866 -1.3296  3.0622
 7707TIP3    H223086   1.540   5.461   5.257  0.5130 -0.5034  2.2092
 7708TIP3   OH223087   4.370   6.669   2.054 -0.1811 -0.2954  0.1706
 7708TIP3    H123088   4.341   6.744   2.106 -0.2253 -0.8636  0.9833
 7708TIP3    H223089   4.448   6.700   2.008 -1.3757  0.8996 -1.1593
 7709TIP3   OH223090   3.872   3.265   2.915  0.0453  0.3496  0.6047
 7709TIP3    H123091   3.923   3.310   2.983 -0.5175 -0.2976  1.4914
 7709TIP3    H223092   3.832   3.335   2.864  0.6785  0.8523  0.7862
 7710TIP3   OH223093   6.581   4.875   5.416  0.2134  0.0191  0.5058
 7710TIP3    H123094   6.501   4.921   5.390  0.1715 -0.1950  0.2548
 7710TIP3    H223095   6.632   4.941   5.463 -0.5010 -0.0735  1.4414
 7711TIP3   OH223096   4.358   3.683   4.745 -0.1758 -0.2418  0.2468
 7711TIP3    H123097   4.425   3.646   4.803  0.9690  1.6705  0.2308
 7711TIP3    H223098   4.334   3.610   4.688  1.7174 -1.0942  0.4429
 7712TIP3   OH223099   3.445   3.476   4.317  0.2707  0.1605  0.0677
 7712TIP3    H123100   3.358   3.515   4.312 -0.8360 -2.0362  1.0846
 7712TIP3    H223101   3.466   3.454   4.226  0.0964  1.3017 -0.2735
 7713TIP3   OH223102   1.919   4.245   4.671  0.1628 -0.1135 -0.6128
 7713TIP3    H123103   1.901   4.274   4.582 -0.4373  0.8141 -0.2100
 7713TIP3    H223104   1.925   4.150   4.665 -1.2995 -0.1850 -1.4211
 7714TIP3   OH223105   3.621   6.573   3.052 -0.2577 -0.9007 -0.9152
 7714TIP3    H123106   3.551   6.527   3.004 -2.5741 -0.2577  1.6089
 7714TIP3    H223107   3.589   6.662   3.062 -1.1712 -1.5222  3.7802
 7715TIP3   OH223108   1.647   3.961   4.828 -0.2965  0.4602 -0.1592
 7715TIP3    H123109   1.714   3.966   4.896 -0.5750  1.7014  0.0415
 7715TIP3    H223110   1.607   4.048   4.827 -3.1186 -0.7124  0.9431
 7716TIP3   OH223111   3.716   1.505   4.945 -0.3337  0.2735  0.4034
 7716TIP3    H123112   3.751   1.455   5.019 -0.1506  0.6407  0.5684
 7716TIP3    H223113   3.682   1.585   4.985 -0.6367  0.2769  0.1423
 7717TIP3   OH223114   5.706   2.534   0.286  0.1933  0.4621 -0.3676
 7717TIP3    H123115   5.687   2.501   0.374 -0.2110  0.7588 -0.3412
 7717TIP3    H223116   5.620   2.546   0.246  0.3001  2.0432 -0.1740
 7718TIP3   OH223117   1.905   4.147   5.287 -0.1375  0.0007 -0.4500
 7718TIP3    H123118   1.991   4.113   5.314 -0.3479 -0.0541  0.1787
 7718TIP3    H223119   1.843   4.103   5.346 -0.4331  1.3384  0.2630
 7719TIP3   OH223120   4.553   2.727   2.217  0.1016  0.1479  0.3466
 7719TIP3    H123121   4.488   2.752   2.282 -0.1747 -0.1746  0.2001
 7719TIP3    H223122   4.622   2.684   2.267  1.3361  2.5287  0.8082
 7720TIP3   OH223123   5.977   3.957   2.099  0.3516  0.4511 -0.4629
 7720TIP3    H123124   5.895   3.979   2.141 -0.3012  0.3722 -1.6470
 7720TIP3    H223125   6.025   3.905   2.164 -0.8021 -0.0500  0.0141
 7721TIP3   OH223126   4.028   6.572   5.852 -0.6351  0.4911  0.4695
 7721TIP3    H123127   4.111   6.620   5.851 -0.0400 -0.4355 -1.6550
 7721TIP3    H223128   3.972   6.620   5.912  1.1064  1.7340  1.1693
 7722TIP3   OH223129   1.233   2.675   3.186 -0.6361  0.8791 -0.1514
 7722TIP3    H123130   1.326   2.696   3.172 -0.3175  1.4482  2.4671
 7722TIP3    H223131   1.192   2.759   3.204 -1.3610  0.4281  0.3322
 7723TIP3   OH223132   2.937   5.532   3.782  0.0316 -0.5344  0.1053
 7723TIP3    H123133   3.022   5.559   3.746 -0.2673 -1.5284 -1.4291
 7723TIP3    H223134   2.934   5.438   3.767 -0.3706 -0.9276  2.3056
 7724TIP3   OH223135   0.582   4.641   3.123  0.4566 -0.2265 -0.2422
 7724TIP3    H123136   0.659   4.654   3.179 -0.3115 -0.2401  0.8482
 7724TIP3    H223137   0.520   4.594   3.178 -0.4705  0.0920 -0.9907
 7725TIP3   OH223138   0.363   1.482   5.253  0.3084  0.0627  0.6661
 7725TIP3    H123139   0.446   1.454   5.213  0.7032  1.1093  0.7110
 7725TIP3    H223140   0.388   1.550   5.315 -0.4732 -0.4505  1.5776
 7726TIP3   OH223141   4.263   3.436   4.593 -0.2594 -0.3312 -0.5539
 7726TIP3    H123142   4.181   3.387   4.580 -1.9499  2.2339 -0.4645
 7726TIP3    H223143   4.311   3.385   4.657 -1.9298 -1.7985 -0.3635
 7727TIP3   OH223144   0.575   4.705   3.507 -0.7050  0.0953  0.2011
 7727TIP3    H123145   0.598   4.650   3.432  0.7720 -1.2654  1.5731
 7727TIP3    H223146   0.481   4.691   3.519 -0.8208 -0.2287 -0.9224
 7728TIP3   OH223147   6.273   0.790   5.210 -0.3157  0.2010 -0.3348
 7728TIP3    H123148   6.258   0.848   5.284  0.5206 -0.7457  0.6171
 7728TIP3    H223149   6.195   0.799   5.155 -1.6131 -0.1080  1.3705
 7729TIP3   OH223150   6.902   5.289   1.943  0.2436  0.3638 -0.4854
 7729TIP3    H123151   6.925   5.265   2.033 -1.6494  2.5249  0.6906
 7729TIP3    H223152   6.970   5.248   1.889  0.2050 -2.8752  1.6663
 7730TIP3   OH223153   3.625   5.731   4.713 -0.0319 -0.1862  0.0723
 7730TIP3    H123154   3.707   5.723   4.665  2.2805 -2.7016  3.8239
 7730TIP3    H223155   3.582   5.647   4.700 -1.1906  0.4789 -0.4774
 7731TIP3   OH223156   5.806   1.302   4.110 -0.2702  0.1327  0.3657
 7731TIP3    H123157   5.772   1.358   4.180  0.1748  1.4009 -0.4003
 7731TIP3    H223158   5.750   1.321   4.035  0.3381  0.1076 -0.1036
 7732TIP3   OH223159   0.808   6.237   0.881  0.3872 -0.5153 -0.6953
 7732TIP3    H123160   0.775   6.218   0.793 -0.2010  1.3616 -0.9074
 7732TIP3    H223161   0.855   6.319   0.873 -0.8997  0.4669  1.0043
 7733TIP3   OH223162   1.149   1.807   5.142  0.4160  0.0647  0.4001
 7733TIP3    H123163   1.096   1.740   5.100  0.4003  0.4822 -0.2491
 7733TIP3    H223164   1.110   1.818   5.229 -1.5774  1.4852 -0.6005
 7734TIP3   OH223165   5.853   4.145   0.951  0.1319 -0.0258  0.1473
 7734TIP3    H123166   5.923   4.206   0.928  0.5192 -0.3244  0.4898
 7734TIP3    H223167   5.785   4.199   0.989  0.4768  0.1965  0.4593
 7735TIP3   OH223168   2.188   6.696   4.281 -0.4530 -0.1046 -0.1855
 7735TIP3    H123169   2.107   6.736   4.250 -0.5811 -1.5344 -1.8361
 7735TIP3    H223170   2.258   6.750   4.245 -0.6058  1.4103  1.6270
 7736TIP3   OH223171   6.052   2.737   3.264  0.8666  0.0935  0.0762
 7736TIP3    H123172   6.038   2.765   3.354 -0.2057  3.4389 -1.0167
 7736TIP3    H223173   6.015   2.648   3.260  0.4775  0.0696  2.7519
 7737TIP3   OH223174   6.988   6.119   2.002  0.2185  0.3982 -0.4222
 7737TIP3    H123175   6.916   6.181   2.009  1.4767  1.8024  0.8456
 7737TIP3    H223176   6.952   6.036   2.034 -1.2524  0.6227 -1.3606
 7738TIP3   OH223177   0.560   5.867   2.214  0.8447 -0.1614 -0.1538
 7738TIP3    H123178   0.490   5.838   2.156  1.9615 -0.1334 -1.5414
 7738TIP3    H223179   0.638   5.822   2.184  1.8448  1.3281  0.0841
 7739TIP3   OH223180   6.604   5.448   1.065  0.1148  0.5342 -0.1869
 7739TIP3    H123181   6.513   5.474   1.047  0.1809  2.4079  1.7805
 7739TIP3    H223182   6.609   5.358   1.033 -2.4346  0.3721 -0.3961
 7740TIP3   OH223183   2.335   4.837   4.787 -0.3100  0.3301  0.1843
 7740TIP3    H123184   2.342   4.812   4.879  2.4545 -0.4482 -0.1558
 7740TIP3    H223185   2.374   4.924   4.782  0.7957 -0.1771 -0.4136
 7741TIP3   OH223186   6.281   1.175   0.771 -0.0672 -0.0385 -0.7324
 7741TIP3    H123187   6.343   1.248   0.769 -0.5640  0.3767 -0.9901
 7741TIP3    H223188   6.238   1.177   0.685 -2.9570  1.8555  0.6085
 7742TIP3   OH223189   1.572   3.813   0.169  0.4618 -0.2491  0.3847
 7742TIP3    H123190   1.558   3.724   0.136 -1.7957  0.4281 -0.6801
 7742TIP3    H223191   1.499   3.828   0.229  0.0334  1.3448 -0.4882
 7743TIP3   OH223192   0.756   3.404   4.962 -0.1945  0.1465  0.1710
 7743TIP3    H123193   0.804   3.471   5.011  1.5092 -1.8134  1.3175
 7743TIP3    H223194   0.784   3.416   4.871  0.9029  0.3746  0.5203
 7744TIP3   OH223195   0.156   6.556   4.201  0.8281  0.5107 -0.3224
 7744TIP3    H123196   0.248   6.557   4.228  0.5212 -0.2884  0.8326
 7744TIP3    H223197   0.122   6.640   4.230  0.5535 -0.2470  1.7404
 7745TIP3   OH223198   3.870   2.858   4.307 -0.4122 -0.3557  0.1184
 7745TIP3    H123199   3.830   2.784   4.261  0.1256 -0.5019 -0.1186
 7745TIP3    H223200   3.944   2.883   4.252 -0.7173  0.5046  0.0826
 7746TIP3   OH223201   2.765   1.288   1.253  0.0400  0.1810 -0.3757
 7746TIP3    H123202   2.849   1.332   1.260 -1.0080  2.0670  1.6604
 7746TIP3    H223203   2.770   1.217   1.316  0.9002 -1.2639 -1.9943
 7747TIP3   OH223204   0.879   0.639   2.708 -0.1377 -0.4238 -0.1068
 7747TIP3    H123205   0.909   0.597   2.627  1.1900  1.3548 -0.5864
 7747TIP3    H223206   0.948   0.621   2.771  1.1231  2.0299 -0.6768
 7748TIP3   OH223207   2.661   6.158   0.066 -0.0454 -0.0353  0.2455
 7748TIP3    H123208   2.579   6.138   0.021 -1.1825 -0.1477  2.2430
 7748TIP3    H223209   2.662   6.099   0.142  1.7125  0.2229  0.4728
 7749TIP3   OH223210   5.402   5.472   4.351 -0.3389 -1.1320 -0.1327
 7749TIP3    H123211   5.475   5.418   4.322 -0.3163 -0.6958 -0.9017
 7749TIP3    H223212   5.434   5.512   4.432  1.3720  1.1847 -1.8185
 7750TIP3   OH223213   3.722   6.257   0.945  0.3208 -0.3321 -0.4658
 7750TIP3    H123214   3.722   6.353   0.945 -0.9417 -0.3132 -1.5669
 7750TIP3    H223215   3.761   6.233   0.861 -0.0204 -0.7752 -0.4995
 7751TIP3   OH223216   4.773   1.263   2.323 -0.1061  0.6640 -0.1685
 7751TIP3    H123217   4.718   1.212   2.382  0.2245  1.8637  1.2481
 7751TIP3    H223218   4.805   1.336   2.377  0.7311  1.4640 -1.6675
 7752TIP3   OH223219   6.881   5.750   1.716 -0.1713  0.4680  0.2027
 7752TIP3    H123220   6.830   5.701   1.650  0.3429  0.3842 -0.1407
 7752TIP3    H223221   6.875   5.841   1.688 -0.0557  0.4468  0.1077
 7753TIP3   OH223222   6.088   3.742   5.560 -0.3178 -0.0611 -0.1528
 7753TIP3    H123223   6.066   3.657   5.524 -0.3842  0.3157 -1.0167
 7753TIP3    H223224   6.006   3.772   5.601  0.2591 -1.3358  2.1219
 7754TIP3   OH223225   3.249   1.787   1.785 -0.1398 -0.0747 -0.3010
 7754TIP3    H123226   3.303   1.781   1.706 -0.4259  1.0281 -0.6013
 7754TIP3    H223227   3.170   1.737   1.764  1.3801 -3.1332  0.7453
 7755TIP3   OH223228   4.725   3.233   5.318 -0.3665  0.0700  0.0034
 7755TIP3    H123229   4.773   3.290   5.379 -1.3956  0.8882  0.0721
 7755TIP3    H223230   4.716   3.286   5.239 -1.1120 -0.1006 -0.0261
 7756TIP3   OH223231   6.764   1.531   1.211 -0.0203  0.1787  0.3513
 7756TIP3    H123232   6.750   1.490   1.126 -1.9517  0.3405  0.5592
 7756TIP3    H223233   6.677   1.554   1.242  0.6511  0.3405  2.2772
 7757TIP3   OH223234   6.860   3.932   4.577 -0.1176 -0.1322 -0.6696
 7757TIP3    H123235   6.769   3.917   4.604 -0.5150  2.2051 -0.5288
 7757TIP3    H223236   6.854   3.953   4.483  0.3278 -0.2835 -0.7362
 7758TIP3   OH223237   4.895   6.721   1.976 -0.2645 -0.5239  0.1057
 7758TIP3    H123238   4.898   6.769   2.059  2.6161 -0.7603  0.2443
 7758TIP3    H223239   4.802   6.719   1.953 -0.8085  2.6849  1.4834
 7759TIP3   OH223240   5.773   2.896   5.291  0.5411  0.3894 -0.8671
 7759TIP3    H123241   5.756   2.966   5.228  2.5996  0.2835 -1.5908
 7759TIP3    H223242   5.838   2.840   5.249  2.2437  0.4728  1.4421
 7760TIP3   OH223243   1.391   3.042   1.324 -0.5602 -1.0695 -0.1377
 7760TIP3    H123244   1.347   2.983   1.263  1.8919 -0.8614 -2.2882
 7760TIP3    H223245   1.412   3.119   1.272 -1.9292  0.9555  2.1091
 7761TIP3   OH223246   4.348   4.851   3.694  0.0182 -0.3206  0.7769
 7761TIP3    H123247   4.387   4.832   3.609 -2.7723 -1.1148 -0.4510
 7761TIP3    H223248   4.415   4.826   3.757  1.8457 -0.5602 -1.1560
 7762TIP3   OH223249   4.587   0.300   1.951  0.1933  0.0784  0.8701
 7762TIP3    H123250   4.518   0.301   1.884  0.6423 -0.4199  0.3922
 7762TIP3    H223251   4.551   0.248   2.022 -0.0813  0.1581  0.7900
 7763TIP3   OH223252   0.906   2.922   3.836 -0.7388  0.0548 -0.1141
 7763TIP3    H123253   0.832   2.886   3.788 -0.3564  0.2678 -0.8936
 7763TIP3    H223254   0.872   2.944   3.922 -1.0013 -2.0784  0.3640
 7764TIP3   OH223255   4.731   1.599   4.207  0.2383  0.2888 -0.2361
 7764TIP3    H123256   4.776   1.517   4.226  0.1436  0.3309  0.1896
 7764TIP3    H223257   4.641   1.584   4.237 -0.2549 -0.0693 -1.7958
 7765TIP3   OH223258   0.124   3.361   4.181  0.3157  0.3399 -0.0455
 7765TIP3    H123259   0.138   3.456   4.178 -0.5075  0.4434 -1.4409
 7765TIP3    H223260   0.208   3.325   4.207  0.4629  1.4896  1.1520
 7766TIP3   OH223261   4.109   6.472   3.467  0.4014 -0.9276 -0.3505
 7766TIP3    H123262   4.161   6.395   3.442 -0.0948 -0.8360 -1.7624
 7766TIP3    H223263   4.043   6.480   3.398  1.4942  1.7446 -1.2270
 7767TIP3   OH223264   5.590   0.909   2.583 -0.2332 -0.2261 -0.6747
 7767TIP3    H123265   5.548   0.890   2.499 -2.7801  1.9772 -0.0481
 7767TIP3    H223266   5.518   0.935   2.640  1.6039 -0.1392  1.7587
 7768TIP3   OH223267   6.202   5.389   3.533  0.6285  0.6116  0.4701
 7768TIP3    H123268   6.270   5.394   3.466  0.5912  2.0370  0.5202
 7768TIP3    H223269   6.125   5.427   3.492 -0.2086 -1.1132  0.3711
 7769TIP3   OH223270   5.949   3.353   5.835  0.1834  0.3561  0.0386
 7769TIP3    H123271   5.942   3.432   5.888  0.5894  0.8836 -0.6656
 7769TIP3    H223272   5.974   3.285   5.896 -0.2809  0.7508  0.6781
 7770TIP3   OH223273   1.336   6.368   5.686  0.0489 -0.5029  0.6034
 7770TIP3    H123274   1.279   6.318   5.628 -1.0869  1.3178  0.0380
 7770TIP3    H223275   1.312   6.340   5.774 -1.2724 -0.2469  0.3377
 7771TIP3   OH223276   1.280   6.536   1.591  0.3983  0.1263  0.0940
 7771TIP3    H123277   1.263   6.609   1.532 -1.8722 -0.5741 -0.2340
 7771TIP3    H223278   1.224   6.465   1.558  0.5733 -0.9191  1.8996
 7772TIP3   OH223279   5.522   3.067   5.840 -0.1549  0.1433 -0.0345
 7772TIP3    H123280   5.558   3.127   5.776 -0.6396 -0.2843 -0.7190
 7772TIP3    H223281   5.591   3.058   5.906 -0.3498  2.0317  0.4891
 7773TIP3   OH223282   3.903   5.673   3.674 -0.5653 -0.1590 -0.5842
 7773TIP3    H123283   3.992   5.641   3.659 -0.0135  0.3240  1.4007
 7773TIP3    H223284   3.856   5.598   3.709 -0.4441  0.0519  0.0374
 7774TIP3   OH223285   4.231   1.603   2.214  0.0826  0.4721 -0.0394
 7774TIP3    H123286   4.284   1.589   2.135 -0.1668  2.4963 -0.6317
 7774TIP3    H223287   4.142   1.580   2.187  0.2763 -0.7104  0.2680
 7775TIP3   OH223288   0.017   5.759   3.758  0.2080 -0.0086 -0.3756
 7775TIP3    H123289   0.000   5.814   3.682  1.9861 -0.4393 -1.1490
 7775TIP3    H223290  -0.003   5.814   3.833 -2.8715  0.0117 -1.0751
 7776TIP3   OH223291   4.946   0.866   2.138  0.0295 -0.3030  0.1340
 7776TIP3    H123292   5.007   0.831   2.203 -0.8334  1.1412  1.8184
 7776TIP3    H223293   4.988   0.945   2.105 -0.1239 -0.3093 -0.0790
 7777TIP3   OH223294   0.173   4.267   4.261  0.2663 -0.0040  0.6973
 7777TIP3    H123295   0.105   4.245   4.324  0.1593 -0.7007  0.3434
 7777TIP3    H223296   0.144   4.351   4.223 -0.1277 -0.0371  0.9203
 7778TIP3   OH223297   4.599   5.098   1.000  0.3275  0.1595 -0.1000
 7778TIP3    H123298   4.658   5.031   1.033 -0.7260 -1.1410 -0.7558
 7778TIP3    H223299   4.590   5.160   1.072  0.3426 -1.0804  0.9994
 7779TIP3   OH223300   6.203   4.430   2.619 -0.3555 -0.5248 -0.4933
 7779TIP3    H123301   6.268   4.488   2.658 -1.3993  0.1071  0.3844
 7779TIP3    H223302   6.142   4.489   2.575 -1.1599 -0.9685 -0.0075
 7780TIP3   OH223303   6.360   3.607   1.052 -0.1362  0.0379  0.1769
 7780TIP3    H123304   6.414   3.684   1.070 -1.6267  1.3199 -0.6083
 7780TIP3    H223305   6.270   3.637   1.066 -0.8060 -1.2879 -1.0568
 7781TIP3   OH223306   1.423   4.706   3.522 -0.5762  0.2923  0.0971
 7781TIP3    H123307   1.454   4.782   3.571 -0.3625  0.5687 -0.4564
 7781TIP3    H223308   1.374   4.654   3.585 -0.0114  0.4701  0.6852
 7782TIP3   OH223309   0.875   2.766   1.940  0.3185 -0.0326 -0.4344
 7782TIP3    H123310   0.907   2.811   2.018 -0.0216 -1.3015  0.4789
 7782TIP3    H223311   0.940   2.697   1.924  0.0502 -0.1893 -0.8783
 7783TIP3   OH223312   2.858   2.666   2.854 -0.5733 -0.1121 -0.3860
 7783TIP3    H123313   2.940   2.716   2.854 -0.2179 -0.6664  0.6053
 7783TIP3    H223314   2.792   2.729   2.883 -0.1381 -0.1787  0.7940
 7784TIP3   OH223315   2.252   1.490   2.480  0.1569  0.4407  0.4581
 7784TIP3    H123316   2.214   1.404   2.461  1.6735 -0.2558  0.3859
 7784TIP3    H223317   2.327   1.471   2.537  2.2101  1.3839 -1.7485
 7785TIP3   OH223318   3.702   5.216   3.949  0.4008  0.1590  0.9556
 7785TIP3    H123319   3.699   5.199   4.044 -1.7661  2.5873  1.4375
 7785TIP3    H223320   3.648   5.148   3.911  2.8026 -2.0048  1.1413
 7786TIP3   OH223321   5.215   6.353   2.224  0.7340 -0.0454 -0.2221
 7786TIP3    H123322   5.216   6.448   2.222 -0.1104  0.0038  0.6766
 7786TIP3    H223323   5.195   6.331   2.316  0.8802 -1.0779 -0.4249
 7787TIP3   OH223324   1.437   2.814   0.312 -0.1076  0.0882 -0.5602
 7787TIP3    H123325   1.452   2.722   0.289 -3.1581 -0.7002  0.2028
 7787TIP3    H223326   1.493   2.863   0.251  0.3250 -2.2099 -2.1563
 7788TIP3   OH223327   4.300   1.257   3.815  0.0266  0.0197  0.3236
 7788TIP3    H123328   4.349   1.338   3.801  1.4250 -1.0155 -1.2968
 7788TIP3    H223329   4.344   1.215   3.889  0.1372  0.1608  0.3399
 7789TIP3   OH223330   1.644   6.174   1.216 -0.3652 -0.2174  1.0773
 7789TIP3    H123331   1.620   6.169   1.308 -0.3324  1.0947  1.1669
 7789TIP3    H223332   1.686   6.259   1.206  0.7411 -0.8430  0.1005
 7790TIP3   OH223333   0.523   2.468   4.900 -0.1051  0.2747  0.0599
 7790TIP3    H123334   0.477   2.540   4.942  0.8671 -0.0843  1.8717
 7790TIP3    H223335   0.615   2.496   4.899 -0.0523  0.1776 -1.7306
 7791TIP3   OH223336   2.574   3.953   1.713 -0.1967 -0.3286  0.3004
 7791TIP3    H123337   2.494   3.966   1.664  0.0143  0.8915  0.2496
 7791TIP3    H223338   2.546   3.907   1.792 -1.4200  2.2093  1.4899
 7792TIP3   OH223339   1.574   5.898   1.663 -0.0015  0.0902 -0.5134
 7792TIP3    H123340   1.501   5.843   1.691  0.2212 -0.5058 -1.0984
 7792TIP3    H223341   1.639   5.836   1.630  1.3087  0.4878  1.1661
 7793TIP3   OH223342   3.887   1.067   2.104  0.2648  0.0302  0.4479
 7793TIP3    H123343   3.894   1.061   2.008  0.4890 -0.6536  0.4998
 7793TIP3    H223344   3.807   1.118   2.118  0.7469  0.9554 -0.1038
 7794TIP3   OH223345   6.060   4.824   0.901 -0.0078 -0.8619 -0.2229
 7794TIP3    H123346   6.018   4.856   0.981  0.2149  0.9936 -0.8183
 7794TIP3    H223347   6.153   4.843   0.914  0.1214 -1.1911 -0.6550
 7795TIP3   OH223348   4.511   2.845   2.632 -0.2183  0.2899  0.0123
 7795TIP3    H123349   4.549   2.791   2.701  0.0533 -1.1285 -1.1864
 7795TIP3    H223350   4.587   2.876   2.582 -0.4052  1.3494  0.3751
 7796TIP3   OH223351   6.915   0.307   4.514 -0.0460 -0.5945  0.3978
 7796TIP3    H123352   6.862   0.257   4.451  0.5168 -1.3090  0.4642
 7796TIP3    H223353   6.939   0.387   4.467 -1.8349  0.1286  0.6578
 7797TIP3   OH223354   2.428   2.350   5.788 -0.2962 -0.5380  0.2447
 7797TIP3    H123355   2.356   2.414   5.790 -0.5306 -0.7281 -1.1670
 7797TIP3    H223356   2.384   2.265   5.799 -0.3921 -0.7072 -1.2412
 7798TIP3   OH223357   3.776   1.027   3.209 -0.0798  0.0171 -0.0712
 7798TIP3    H123358   3.730   1.067   3.283  0.4706  0.6229 -0.0492
 7798TIP3    H223359   3.868   1.048   3.225  0.3801 -2.2684  0.5666
 7799TIP3   OH223360   2.155   1.768   5.844 -0.4895 -0.0378 -0.0232
 7799TIP3    H123361   2.104   1.812   5.913 -0.7073 -0.7933  0.3115
 7799TIP3    H223362   2.165   1.834   5.776 -0.3122  0.7078  0.7158
 7800TIP3   OH223363   0.645   0.492   0.246  0.1429  0.4175  0.1097
 7800TIP3    H123364   0.584   0.545   0.196  1.4294  0.5081 -1.4380
 7800TIP3    H223365   0.713   0.467   0.184  1.0237 -0.7555  1.4542
 7801TIP3   OH223366   3.815   0.243   4.208  0.2315 -0.4999  0.1780
 7801TIP3    H123367   3.825   0.337   4.196 -0.4495 -0.5914 -1.3592
 7801TIP3    H223368   3.723   0.231   4.232  0.3645 -0.7621  0.5732
 7802TIP3   OH223369   5.566   4.567   3.764 -0.1504 -0.2478 -0.3355
 7802TIP3    H123370   5.653   4.537   3.736 -0.0079 -1.0376  0.9020
 7802TIP3    H223371   5.515   4.570   3.683 -0.2747 -4.2059 -0.5945
 7803TIP3   OH223372   7.039   3.525   5.828 -0.4711 -0.2948  0.1206
 7803TIP3    H123373   6.997   3.557   5.749  1.8657 -0.7547 -1.3875
 7803TIP3    H223374   7.029   3.596   5.891 -1.6123  0.4263 -0.8328
 7804TIP3   OH223375   6.252   4.158   3.624 -0.4603 -0.0116 -0.5270
 7804TIP3    H123376   6.340   4.140   3.660 -0.9611  0.4364  0.9925
 7804TIP3    H223377   6.269   4.187   3.535  0.7598 -2.4863 -1.2002
 7805TIP3   OH223378   6.232   0.089   0.489 -0.9505  0.9813  0.6851
 7805TIP3    H123379   6.230   0.029   0.564 -0.5762 -0.5880 -0.5151
 7805TIP3    H223380   6.169   0.053   0.427 -1.2553  2.2579  0.2172
 7806TIP3   OH223381   3.521   4.686   4.823 -0.1244 -0.6457  0.1502
 7806TIP3    H123382   3.548   4.595   4.807  1.2185 -0.0659 -1.1928
 7806TIP3    H223383   3.603   4.734   4.833 -0.7351  0.7040 -0.9747
 7807TIP3   OH223384   6.942   5.152   2.191 -0.5829  0.2409 -0.3053
 7807TIP3    H123385   6.865   5.107   2.225 -0.8602 -0.1957 -1.4654
 7807TIP3    H223386   7.011   5.086   2.193 -0.6786  0.1216 -0.8609
 7808TIP3   OH223387   2.694   4.705   3.062  0.2861 -0.1756 -0.0487
 7808TIP3    H123388   2.680   4.611   3.073  1.5324 -0.1129  2.6826
 7808TIP3    H223389   2.622   4.747   3.110 -1.2716  0.4012 -2.6558
 7809TIP3   OH223390   1.595   1.702   4.253  0.2095 -0.5192 -0.3650
 7809TIP3    H123391   1.503   1.674   4.256  0.2034 -0.4110  1.7888
 7809TIP3    H223392   1.645   1.621   4.240 -0.1104 -0.8069  0.1656
 7810TIP3   OH223393   5.495   4.970   2.958  0.3924  0.2581  0.4662
 7810TIP3    H123394   5.455   4.886   2.935 -0.5181  0.1238  2.3119
 7810TIP3    H223395   5.588   4.950   2.970  0.6380  0.0603 -1.4744
 7811TIP3   OH223396   5.550   2.583   5.787 -0.0255  0.7964 -0.3007
 7811TIP3    H123397   5.609   2.658   5.797 -0.1065  0.8485 -0.2179
 7811TIP3    H223398   5.470   2.621   5.750  0.8585  0.3842 -2.8619
 7812TIP3   OH223399   6.456   3.584   1.906  0.7978 -0.2778  0.2499
 7812TIP3    H123400   6.446   3.665   1.856 -0.5918 -1.0928 -0.8792
 7812TIP3    H223401   6.523   3.534   1.859  0.3313 -0.5422 -0.1524
 7813TIP3   OH223402   1.212   6.574   1.850 -0.5673 -0.3258 -0.2860
 7813TIP3    H123403   1.232   6.582   1.757  0.0465  2.3177 -0.0019
 7813TIP3    H223404   1.243   6.656   1.889 -2.5250 -0.5163  1.9333
 7814TIP3   OH223405   5.398   1.043   0.009  0.2803 -0.0356 -0.5614
 7814TIP3    H123406   5.467   1.102   0.038  1.2079  0.3370 -3.2221
 7814TIP3    H223407   5.338   1.038   0.083  2.3256  0.8883  1.2721
 7815TIP3   OH223408   2.769   6.376   0.828  0.0281 -0.0667  0.9223
 7815TIP3    H123409   2.861   6.352   0.824 -0.5045 -2.2228  0.2630
 7815TIP3    H223410   2.761   6.450   0.769  0.9880 -1.2207 -0.7294
 7816TIP3   OH223411   5.381   0.135   1.491  0.3889  0.6145 -1.1424
 7816TIP3    H123412   5.412   0.063   1.436 -1.3022 -2.4729  1.5115
 7816TIP3    H223413   5.435   0.130   1.570 -1.8037 -0.0108  0.4362
 7817TIP3   OH223414   6.013   6.690   5.259  1.0627  0.2160 -0.1436
 7817TIP3    H123415   5.955   6.643   5.319  0.6179  0.1618 -0.6066
 7817TIP3    H223416   6.101   6.667   5.288  0.8800  0.9583  1.0954
 7818TIP3   OH223417   1.115   5.141   2.238 -0.0820  0.0325  0.4291
 7818TIP3    H123418   1.108   5.069   2.176  0.2627  0.5274 -0.2015
 7818TIP3    H223419   1.192   5.191   2.209 -1.0183  1.3395  0.1138
 7819TIP3   OH223420   2.200   5.807   5.629  1.0795  0.4668  0.6017
 7819TIP3    H123421   2.292   5.787   5.646  1.7300  2.4413 -0.3363
 7819TIP3    H223422   2.196   5.822   5.534 -0.4960 -0.8430  0.4144
 7820TIP3   OH223423   1.760   6.260   2.660 -0.5298  0.2283  0.5516
 7820TIP3    H123424   1.762   6.276   2.565 -1.5052 -0.0684  0.4730
 7820TIP3    H223425   1.852   6.258   2.685 -0.1649 -1.5264 -0.7056
 7821TIP3   OH223426   1.204   6.662   5.027  0.0257 -0.7921 -0.0544
 7821TIP3    H123427   1.176   6.717   5.099  1.8575 -0.3858  0.4107
 7821TIP3    H223428   1.158   6.579   5.041 -0.7123 -0.2633  0.7668
 7822TIP3   OH223429   6.545   3.200   2.892  0.4752  0.0885  0.4299
 7822TIP3    H123430   6.600   3.199   2.971 -0.5622 -0.7453  1.1661
 7822TIP3    H223431   6.466   3.247   2.919 -0.0923 -0.6249  0.0403
 7823TIP3   OH223432   3.877   4.406  -0.025 -0.1446 -0.2916  0.4532
 7823TIP3    H123433   3.956   4.419   0.028 -1.1274  1.7415  1.5474
 7823TIP3    H223434   3.805   4.415   0.038 -1.2886 -0.7053 -0.7643
 7824TIP3   OH223435   0.428   1.129   2.450  0.1395  0.0579 -0.1439
 7824TIP3    H123436   0.428   1.033   2.450 -1.7255  0.0122 -0.4425
 7824TIP3    H223437   0.388   1.153   2.366 -0.9664  1.0197  0.6190
 7825TIP3   OH223438   3.434   4.649   4.453 -0.0165 -0.0854 -0.0211
 7825TIP3    H123439   3.487   4.631   4.530  0.3428 -1.5396 -0.5711
 7825TIP3    H223440   3.345   4.662   4.486  0.2307 -0.1844  0.6807
 7826TIP3   OH223441   6.361   1.912   2.365 -0.1287 -0.4648  0.1611
 7826TIP3    H123442   6.359   1.960   2.448 -0.0355 -1.9145  1.0388
 7826TIP3    H223443   6.437   1.855   2.372 -0.5373 -1.1307 -0.6171
 7827TIP3   OH223444   0.509   6.252   4.677 -0.1249 -0.3865  0.2130
 7827TIP3    H123445   0.557   6.298   4.745 -0.5823 -0.5467  0.6512
 7827TIP3    H223446   0.443   6.314   4.647 -0.2863 -0.5101  0.3102
 7828TIP3   OH223447   3.826   4.435   5.663 -0.0760  0.0476  0.4156
 7828TIP3    H123448   3.745   4.428   5.714  0.2151 -0.4819  0.8229
 7828TIP3    H223449   3.860   4.346   5.661 -1.4949 -0.5740 -3.1495
 7829TIP3   OH223450   2.171   0.468   3.427  0.1581 -0.0441 -0.6940
 7829TIP3    H123451   2.240   0.467   3.362  0.7656  0.6983 -0.0793
 7829TIP3    H223452   2.209   0.424   3.503  0.1555  0.8376 -0.1680
 7830TIP3   OH223453   6.517   2.950   2.476 -0.4996 -0.1620 -1.0347
 7830TIP3    H123454   6.480   2.862   2.483  1.3751 -1.0748 -1.8675
 7830TIP3    H223455   6.612   2.936   2.475  0.0216  2.0901  1.8982
 7831TIP3   OH223456   4.350   1.291   5.604  0.2666  0.2407  0.3176
 7831TIP3    H123457   4.339   1.342   5.684 -1.0841  0.3712  0.0723
 7831TIP3    H223458   4.416   1.226   5.626 -0.1086  0.2506  1.5490
 7832TIP3   OH223459   3.209   4.678   2.387  0.1029  0.0464  0.6680
 7832TIP3    H123460   3.148   4.607   2.408  0.8222 -1.4240 -1.8558
 7832TIP3    H223461   3.161   4.735   2.327  1.4264 -1.7886 -2.3463
 7833TIP3   OH223462   4.342   3.516   5.797  0.5734  0.0768  0.1536
 7833TIP3    H123463   4.336   3.528   5.702  1.1008 -0.3803  0.0604
 7833TIP3    H223464   4.312   3.426   5.811 -1.1759  0.6806  0.6131
 7834TIP3   OH223465   6.345   3.012   3.175  0.1492 -0.7216 -0.0673
 7834TIP3    H123466   6.332   2.963   3.094 -2.1275  0.0088 -0.2074
 7834TIP3    H223467   6.269   3.069   3.180  1.8005  1.4930  1.0244
 7835TIP3   OH223468   2.317   2.113   1.043 -0.5563 -0.1986  0.1319
 7835TIP3    H123469   2.356   2.028   1.060 -0.9039 -0.1494  1.2335
 7835TIP3    H223470   2.387   2.163   1.000 -0.6090 -1.2774 -1.3019
 7836TIP3   OH223471   3.194   0.553   2.090 -0.1248  0.2880  0.0315
 7836TIP3    H123472   3.198   0.626   2.152  0.0167  0.1148  0.2227
 7836TIP3    H223473   3.181   0.596   2.005 -0.3176  0.5242  0.1759
 7837TIP3   OH223474   0.781   1.349   0.715 -0.3120  0.0911  0.4574
 7837TIP3    H123475   0.723   1.414   0.676 -1.9235 -1.6073 -0.1113
 7837TIP3    H223476   0.868   1.390   0.713 -1.2434  2.1573  0.0573
 7838TIP3   OH223477   7.050   0.321   4.734 -0.6862 -0.0611  0.5922
 7838TIP3    H123478   7.086   0.240   4.771  1.4382  0.1708 -0.7928
 7838TIP3    H223479   7.037   0.301   4.642  1.8386  1.6999 -0.2480
 7839TIP3   OH223480   1.444   3.424   0.946 -0.1485  0.1530  0.6880
 7839TIP3    H123481   1.481   3.510   0.929 -2.1916  1.1901  1.1949
 7839TIP3    H223482   1.362   3.441   0.994 -2.5778 -1.7566 -2.3560
 7840TIP3   OH223483   3.117   3.794   0.359  0.3865  0.1345 -0.1144
 7840TIP3    H123484   3.044   3.797   0.422 -0.7156  1.4490 -1.3863
 7840TIP3    H223485   3.161   3.711   0.377 -1.3506 -0.6412  0.7871
 7841TIP3   OH223486   5.646   2.750   4.573 -0.4683  0.3518 -0.0831
 7841TIP3    H123487   5.605   2.664   4.578 -0.5702  0.3569 -0.7113
 7841TIP3    H223488   5.594   2.797   4.507  0.7119  0.2604 -1.1124
 7842TIP3   OH223489   2.912   1.207   2.842 -0.4051 -0.1925 -0.5346
 7842TIP3    H123490   3.005   1.228   2.855 -0.7647  2.5551 -1.7252
 7842TIP3    H223491   2.904   1.192   2.748 -1.3544  0.9658 -0.6643
 7843TIP3   OH223492   1.105   6.036   3.010  0.1844 -0.3051 -1.0039
 7843TIP3    H123493   1.197   6.015   2.996  0.2975  0.3398 -1.2793
 7843TIP3    H223494   1.085   6.002   3.097  0.5499 -0.8748 -1.1388
 7844TIP3   OH223495   1.428   2.636   2.789  0.1236 -0.3325  0.1293
 7844TIP3    H123496   1.337   2.616   2.811 -0.0991  0.7334  0.2378
 7844TIP3    H223497   1.431   2.631   2.693  0.0526 -0.7601  0.1472
 7845TIP3   OH223498   7.117   4.480   0.932 -0.0402 -0.1699  0.1083
 7845TIP3    H123499   7.143   4.509   0.844 -0.7234 -0.3147 -0.1475
 7845TIP3    H223500   7.035   4.433   0.918 -1.2901  1.6129  1.0901
 7846TIP3   OH223501   0.942   4.349   0.048  0.3082  0.2071  0.3130
 7846TIP3    H123502   0.937   4.380   0.138  0.2332 -0.2398  0.4649
 7846TIP3    H223503   0.873   4.398   0.002 -1.3626 -1.3563  1.0396
 7847TIP3   OH223504   5.981   2.156   5.387 -0.0200  0.1636 -0.5618
 7847TIP3    H123505   6.002   2.063   5.382 -0.4203  0.1093 -1.5165
 7847TIP3    H223506   5.922   2.164   5.462  0.3026 -0.2943 -0.2582
 7848TIP3   OH223507   4.397   1.843   0.328 -0.6504  0.4084  0.2951
 7848TIP3    H123508   4.437   1.879   0.407  1.1477 -1.9116  0.5353
 7848TIP3    H223509   4.335   1.778   0.361  0.9258 -1.3967 -0.1161
 7849TIP3   OH223510   7.169   4.756   1.444 -0.1306  0.2413  0.0844
 7849TIP3    H123511   7.223   4.730   1.518 -0.7102  1.7510  1.0852
 7849TIP3    H223512   7.088   4.790   1.483 -0.8756  0.1356 -1.2835
 7850TIP3   OH223513   0.977   1.841   3.151  0.0059 -0.2954 -0.4495
 7850TIP3    H123514   0.981   1.927   3.108  2.3665  0.3055  0.8357
 7850TIP3    H223515   1.000   1.779   3.082 -1.9057  0.0192 -1.4421
 7851TIP3   OH223516   3.922   0.245   0.664 -0.1199 -0.4658  0.2500
 7851TIP3    H123517   3.951   0.229   0.574 -1.1459 -1.2108  0.0288
 7851TIP3    H223518   3.958   0.172   0.714  1.1306  0.3739  0.6246
 7852TIP3   OH223519   2.589   5.266   3.470  0.3798  0.3029  0.0129
 7852TIP3    H123520   2.550   5.218   3.397 -2.5809 -0.4105  1.8802
 7852TIP3    H223521   2.576   5.358   3.446  0.4186  0.1098 -0.8076
 7853TIP3   OH223522   3.712   3.773   1.462 -0.0225 -0.3289 -0.3377
 7853TIP3    H123523   3.692   3.766   1.555  0.0277  1.9213 -0.1033
 7853TIP3    H223524   3.628   3.759   1.418  0.2318 -3.1784 -0.1596
 7854TIP3   OH223525   1.274   1.956   1.717  0.4381  0.2864 -0.6065
 7854TIP3    H123526   1.234   2.011   1.650 -2.7062  0.4193  1.1608
 7854TIP3    H223527   1.223   1.876   1.715  1.0299 -0.1526  0.8342
 7855TIP3   OH223528   2.556   3.550   2.955 -0.5986 -0.0085 -0.3331
 7855TIP3    H123529   2.548   3.455   2.950  0.2410 -0.4829  3.6316
 7855TIP3    H223530   2.467   3.583   2.941 -1.2550 -1.5458  0.0129
 7856TIP3   OH223531   5.036   0.292   4.467 -0.0091  0.4544 -0.1681
 7856TIP3    H123532   5.047   0.385   4.448 -0.9575  0.7409  0.6218
 7856TIP3    H223533   5.089   0.278   4.546 -2.4790  1.1290  1.7458
 7857TIP3   OH223534   3.701   3.047   1.255  0.3633  0.2135  0.5453
 7857TIP3    H123535   3.774   2.986   1.256 -0.0510 -0.2854  0.8453
 7857TIP3    H223536   3.698   3.084   1.343  0.7137  0.7997  0.3202
 7858TIP3   OH223537   0.701   4.332   3.044  0.4027  0.3734  0.0421
 7858TIP3    H123538   0.614   4.351   3.009  1.4061  1.2782 -2.1196
 7858TIP3    H223539   0.759   4.392   2.999  2.4205 -1.4446  0.0489
 7859TIP3   OH223540   6.119   5.393   0.433 -0.0262  0.3248  0.0098
 7859TIP3    H123541   6.101   5.301   0.452  0.0109  0.3385  0.1102
 7859TIP3    H223542   6.038   5.439   0.455  0.5526  0.5723  1.7811
 7860TIP3   OH223543   6.112   0.247   1.579  0.2703  0.7495 -0.0543
 7860TIP3    H123544   6.159   0.188   1.638 -0.4940  0.0389 -0.1420
 7860TIP3    H223545   6.155   0.235   1.494 -2.2261 -2.6426 -1.0448
 7861TIP3   OH223546   3.738   5.849   3.504 -0.1344  0.3667 -0.4226
 7861TIP3    H123547   3.748   5.819   3.413 -2.9770 -0.9465 -0.4241
 7861TIP3    H223548   3.781   5.782   3.556  0.4181  0.4707 -0.7370
 7862TIP3   OH223549   4.285   2.239   0.660  0.4650  0.0522 -0.3836
 7862TIP3    H123550   4.255   2.191   0.583  0.9705 -0.9387  0.0284
 7862TIP3    H223551   4.367   2.281   0.630  0.2741  0.2768 -0.5994
 7863TIP3   OH223552   2.936   1.676   4.856 -0.3818  0.2144  0.6212
 7863TIP3    H123553   2.886   1.703   4.933 -0.4284  2.9766 -0.2652
 7863TIP3    H223554   2.880   1.612   4.813 -0.5427 -1.0734  2.5839
 7864TIP3   OH223555   1.046   6.019   4.503 -0.1236 -0.0969 -0.3709
 7864TIP3    H123556   1.091   5.995   4.584 -0.6967  0.0366 -0.0039
 7864TIP3    H223557   1.115   6.047   4.443  0.5591 -2.2835 -0.7021
 7865TIP3   OH223558   0.335   4.255   2.715 -0.0304 -0.7334 -0.0839
 7865TIP3    H123559   0.292   4.182   2.672 -0.8377  0.2785 -1.0596
 7865TIP3    H223560   0.313   4.331   2.661 -3.1174  1.0507  3.2440
 7866TIP3   OH223561   3.798   3.897   3.316  0.4043 -0.9252 -0.2261
 7866TIP3    H123562   3.752   3.933   3.240  1.2046 -1.3752 -0.9399
 7866TIP3    H223563   3.777   3.803   3.314 -0.9248 -0.6902  1.0891
 7867TIP3   OH223564   5.413   4.407   3.940 -0.7438  0.4287  0.2297
 7867TIP3    H123565   5.500   4.439   3.918 -0.1278  0.6856  2.6935
 7867TIP3    H223566   5.414   4.315   3.914  0.8495  0.0291  1.5041
 7868TIP3   OH223567   1.263   0.743   5.489 -0.2504  0.2649  0.1120
 7868TIP3    H123568   1.306   0.675   5.438  0.5027  0.5874  0.3130
 7868TIP3    H223569   1.331   0.779   5.546 -0.4191  1.7446 -0.5557
 7869TIP3   OH223570   4.938   3.558   4.564 -1.0509  0.1085 -0.0716
 7869TIP3    H123571   4.860   3.613   4.565 -0.5268  0.8911 -0.7157
 7869TIP3    H223572   4.999   3.604   4.507  0.6839  0.6599  2.0922
 7870TIP3   OH223573   4.503   0.393   3.392  0.1264 -0.8267  0.2759
 7870TIP3    H123574   4.515   0.399   3.297  1.6136 -1.8285  0.3610
 7870TIP3    H223575   4.409   0.381   3.403 -0.1981  0.2325 -1.0016
 7871TIP3   OH223576   1.719   5.590   4.525 -0.6878  0.9226  0.2001
 7871TIP3    H123577   1.703   5.512   4.579 -1.1998  0.2819 -0.8321
 7871TIP3    H223578   1.773   5.647   4.580  1.3761 -0.9858  0.2989
 7872TIP3   OH223579   2.203   1.402   3.584 -0.6369  0.1206  0.1177
 7872TIP3    H123580   2.284   1.406   3.634 -0.5974  1.2263 -0.0017
 7872TIP3    H223581   2.231   1.398   3.493 -0.6900  1.5163  0.0166
 7873TIP3   OH223582   5.019   4.966   1.594 -0.0307  0.4374  0.0102
 7873TIP3    H123583   4.950   4.912   1.555  0.0109  0.1385  0.3349
 7873TIP3    H223584   5.099   4.940   1.549  0.1455 -0.4671  0.8007
 7874TIP3   OH223585   4.560   6.195   4.700 -0.2855  0.4530 -0.0237
 7874TIP3    H123586   4.466   6.182   4.694 -0.3211  0.9231 -0.5748
 7874TIP3    H223587   4.570   6.277   4.749 -0.1103 -0.5752  1.7366
 7875TIP3   OH223588   6.866   2.511   2.700 -0.8592  0.0652  0.0609
 7875TIP3    H123589   6.781   2.517   2.656 -0.5168 -1.2107 -0.8450
 7875TIP3    H223590   6.916   2.585   2.667 -0.6520 -0.8042 -1.6702
 7876TIP3   OH223591   1.734   0.925   3.716  0.0915 -0.6274 -0.6819
 7876TIP3    H123592   1.766   0.834   3.716  0.1351 -0.6110 -0.1214
 7876TIP3    H223593   1.639   0.917   3.723  0.1454 -0.6121  0.0881
 7877TIP3   OH223594   4.393   6.317   0.024 -0.0545  0.1132  0.5612
 7877TIP3    H123595   4.450   6.350  -0.045  2.5638 -1.0005  2.0324
 7877TIP3    H223596   4.444   6.248   0.066 -0.8981  1.6075  4.4691
 7878TIP3   OH223597   1.033   6.348   4.362  0.2779 -0.3220 -0.1565
 7878TIP3    H123598   0.950   6.325   4.404  0.1221  1.6482  0.7685
 7878TIP3    H223599   1.018   6.436   4.327  1.5981 -0.4411 -1.0932
 7879TIP3   OH223600   1.276   1.405   0.884 -0.6969  0.5691 -0.5560
 7879TIP3    H123601   1.290   1.394   0.978  0.5625 -0.0409 -0.7919
 7879TIP3    H223602   1.341   1.347   0.843 -0.0776  2.0706 -1.8179
 7880TIP3   OH223603   6.983   2.656   4.975  0.1118  0.0907 -0.7497
 7880TIP3    H123604   7.078   2.655   4.961  0.1795  0.2916 -0.3149
 7880TIP3    H223605   6.971   2.632   5.067 -0.2622  0.0044 -0.8174
 7881TIP3   OH223606   4.704   4.094   2.198  0.0481  0.4039 -0.2705
 7881TIP3    H123607   4.662   4.176   2.173  1.0805  0.9491 -0.3032
 7881TIP3    H223608   4.765   4.076   2.127 -0.4524 -0.6181 -0.4569
 7882TIP3   OH223609   5.145   3.988   1.781 -0.3450  0.3480 -0.3561
 7882TIP3    H123610   5.166   4.081   1.779 -0.1934  0.3405  0.4845
 7882TIP3    H223611   5.223   3.944   1.747 -0.1363  0.4849 -0.0524
 7883TIP3   OH223612   6.967   2.043   0.547 -0.2021  0.6713 -0.3916
 7883TIP3    H123613   6.980   2.128   0.506 -1.1183  0.9084 -0.2127
 7883TIP3    H223614   6.925   2.063   0.631 -0.3075  0.0491 -0.2928
 7884TIP3   OH223615   4.892   5.257   0.372  0.1971 -0.1798  0.2984
 7884TIP3    H123616   4.948   5.217   0.439 -1.0987  1.9822  2.9092
 7884TIP3    H223617   4.909   5.351   0.381 -2.3865  0.3983 -0.1350
 7885TIP3   OH223618   6.089   2.262   2.609 -0.3744 -0.0667  1.0626
 7885TIP3    H123619   6.094   2.232   2.518 -0.6031  0.0849  0.9983
 7885TIP3    H223620   6.015   2.323   2.609  0.0640  0.4732  1.1953
 7886TIP3   OH223621   5.834   3.578   2.107  0.2712  0.3150  0.0906
 7886TIP3    H123622   5.889   3.581   2.186 -0.2711  1.4781  0.4595
 7886TIP3    H223623   5.757   3.631   2.130 -1.0176 -1.2566 -0.4092
 7887TIP3   OH223624   7.201   3.832   4.893 -0.7152  1.0023  0.2355
 7887TIP3    H123625   7.136   3.764   4.874 -0.2037 -0.1364  2.3148
 7887TIP3    H223626   7.268   3.788   4.945  2.2141  1.9156 -2.4092
 7888TIP3   OH223627   2.761   0.129   1.950  0.1202  0.4485  0.7496
 7888TIP3    H123628   2.712   0.208   1.973 -0.1636  0.1619  1.1456
 7888TIP3    H223629   2.823   0.117   2.022  0.8991  0.8957  0.1768
 7889TIP3   OH223630   0.673   6.367   3.102 -0.0370 -0.0198  0.8382
 7889TIP3    H123631   0.600   6.339   3.046  1.3163  0.1486 -1.1055
 7889TIP3    H223632   0.711   6.442   3.057  0.7181  0.5602  2.3641
 7890TIP3   OH223633   0.659   0.860   4.841 -0.6355 -0.4245 -0.0470
 7890TIP3    H123634   0.738   0.880   4.891 -0.1844 -1.3798 -0.3516
 7890TIP3    H223635   0.655   0.765   4.838 -0.1753 -0.4443 -2.5365
 7891TIP3   OH223636   6.288   2.248   2.799  0.1651  0.7255  0.3905
 7891TIP3    H123637   6.225   2.247   2.727  0.3183  1.0441  0.2525
 7891TIP3    H223638   6.371   2.269   2.757  0.4361 -0.0715  0.5123
 7892TIP3   OH223639   6.891   0.540   1.945  0.2476 -0.0390 -0.1819
 7892TIP3    H123640   6.801   0.516   1.969 -0.4221  0.7639 -1.7405
 7892TIP3    H223641   6.934   0.555   2.029 -1.6992  1.7004  0.6259
 7893TIP3   OH223642   6.230   0.495   5.715  0.3246  0.5630  0.0289
 7893TIP3    H123643   6.265   0.414   5.752 -1.1523 -0.6331 -1.0480
 7893TIP3    H223644   6.147   0.509   5.761 -0.4171  0.3076 -1.1757
 7894TIP3   OH223645   5.871   0.333   0.461  0.3966 -0.0097  0.5693
 7894TIP3    H123646   5.839   0.257   0.414  1.7392 -0.1352 -0.2122
 7894TIP3    H223647   5.793   0.384   0.482 -0.3368 -0.5191 -0.8209
 7895TIP3   OH223648   2.433   2.416   0.415 -0.1777  0.0464 -0.5625
 7895TIP3    H123649   2.502   2.357   0.446  1.7213  2.2672 -0.2323
 7895TIP3    H223650   2.438   2.492   0.473 -2.4118  0.6292 -1.0391
 7896TIP3   OH223651   5.911   2.224   0.150 -0.1031 -0.4329 -0.0802
 7896TIP3    H123652   5.980   2.174   0.192  0.4749 -0.0253 -0.5238
 7896TIP3    H223653   5.864   2.267   0.222  1.2546  0.7564  0.1333
 7897TIP3   OH223654   4.172   2.941   4.501 -0.0935 -0.4834  0.2731
 7897TIP3    H123655   4.169   3.034   4.481  0.1387 -0.7026 -0.8650
 7897TIP3    H223656   4.118   2.900   4.433 -0.3210 -1.1689  0.8530
 7898TIP3   OH223657   4.217   5.519   2.741  0.2870 -0.3783 -0.1408
 7898TIP3    H123658   4.288   5.565   2.697  0.0824 -0.9056 -1.0539
 7898TIP3    H223659   4.221   5.549   2.831  0.4348  1.0980 -0.6047
 7899TIP3   OH223660   4.635   4.074   2.788 -0.6691  0.0341  0.0743
 7899TIP3    H123661   4.578   4.083   2.712 -0.3860  2.2800  0.0500
 7899TIP3    H223662   4.724   4.076   2.752 -0.5279  1.4071  0.4469
 7900TIP3   OH223663   1.988   2.222   0.149  0.5406  0.3738  0.0583
 7900TIP3    H123664   2.036   2.167   0.086  2.2901  1.0173  0.7484
 7900TIP3    H223665   2.057   2.261   0.203 -0.8568  0.6244  1.7380
 7901TIP3   OH223666   7.156   3.178   0.368  0.4245  0.4823 -0.3938
 7901TIP3    H123667   7.158   3.221   0.282  0.7492  1.0995 -0.0886
 7901TIP3    H223668   7.230   3.117   0.366 -1.4160 -1.8458 -1.6981
 7902TIP3   OH223669   0.058   6.349   3.588  0.1574  0.0625 -0.6344
 7902TIP3    H123670   0.105   6.427   3.556 -0.2425  0.1374 -1.0573
 7902TIP3    H223671  -0.032   6.378   3.598  0.3807  0.2376  1.2886
 7903TIP3   OH223672   2.496   6.101   3.239 -0.7134 -0.2611  0.2056
 7903TIP3    H123673   2.520   6.193   3.232  0.2012 -0.0879  3.8616
 7903TIP3    H223674   2.579   6.054   3.227 -0.9796 -0.5612 -0.5143
 7904TIP3   OH223675   2.615   1.205   0.464 -0.0552  0.2119 -0.2291
 7904TIP3    H123676   2.588   1.295   0.482 -0.0534  0.1809 -0.0718
 7904TIP3    H223677   2.533   1.159   0.447 -0.1817 -0.0510  0.9791
 7905TIP3   OH223678   5.574   0.693   0.691  0.5481  0.4480  0.3861
 7905TIP3    H123679   5.539   0.738   0.614  0.2370  0.4930  0.5512
 7905TIP3    H223680   5.514   0.718   0.762  0.3451 -0.2652  0.4666
 7906TIP3   OH223681   0.092   6.303   0.837 -0.1596  0.9721  0.4152
 7906TIP3    H123682   0.136   6.370   0.785 -0.5851 -0.6474 -2.2239
 7906TIP3    H223683   0.147   6.292   0.914  1.9389  1.7108 -0.8976
 7907TIP3   OH223684   0.750   1.744   2.403 -0.0847 -0.0240  0.2620
 7907TIP3    H123685   0.716   1.815   2.458  0.8722  0.0220  0.8229
 7907TIP3    H223686   0.673   1.708   2.359 -0.8161  0.2385  1.2891
 7908TIP3   OH223687   4.337   1.704   5.063  0.2198 -0.3152  0.0281
 7908TIP3    H123688   4.392   1.775   5.030  1.9137  0.6474  4.2680
 7908TIP3    H223689   4.247   1.738   5.054  0.8280  1.2895 -0.3440
 7909TIP3   OH223690   6.147   4.522   0.896  0.8089 -0.3818  0.2479
 7909TIP3    H123691   6.179   4.581   0.964 -1.7272  0.9252  0.4387
 7909TIP3    H223692   6.089   4.461   0.942 -0.2762 -0.0217 -0.6071
 7910TIP3   OH223693   5.671   1.632   5.486 -0.4851 -0.2361 -0.0984
 7910TIP3    H123694   5.657   1.571   5.414 -1.8345  0.4844 -0.4875
 7910TIP3    H223695   5.584   1.668   5.504 -0.0765 -0.0159  1.5482
 7911TIP3   OH223696   0.363   6.739   1.229  0.1620  0.7280  0.0645
 7911TIP3    H123697   0.395   6.732   1.319 -0.7789  0.3764  0.3934
 7911TIP3    H223698   0.398   6.822   1.198  0.2691  0.9973  0.8653
 7912TIP3   OH223699   2.976   5.835   3.952  0.2956  0.4054  0.1689
 7912TIP3    H123700   2.937   5.856   3.867  0.1534  0.4694  0.2496
 7912TIP3    H223701   2.917   5.876   4.016  0.7225  0.8626  0.2749
 7913TIP3   OH223702   0.035   4.281   4.965  0.2375  0.0105 -0.2230
 7913TIP3    H123703   0.083   4.258   5.044  0.4886  2.2532  0.3471
 7913TIP3    H223704   0.051   4.209   4.904  1.9904 -0.6285  0.9499
 7914TIP3   OH223705   3.010   6.550   5.200  0.2598  0.3617 -0.3348
 7914TIP3    H123706   3.061   6.490   5.145  0.7113  0.1647  0.2920
 7914TIP3    H223707   3.030   6.524   5.289 -0.3634  0.7733 -0.0676
 7915TIP3   OH223708   2.893   6.369   0.466  0.2204  0.3834 -0.2262
 7915TIP3    H123709   2.917   6.282   0.434  0.9705  0.4375  0.1570
 7915TIP3    H223710   2.821   6.397   0.409 -0.1919 -0.5846 -0.1896
 7916TIP3   OH223711   4.855   0.300   4.999 -0.5236  0.1770  0.3436
 7916TIP3    H123712   4.890   0.216   4.972 -1.6609 -0.3791  0.5247
 7916TIP3    H223713   4.822   0.339   4.918  0.9580  0.9557  0.0747
 7917TIP3   OH223714   1.258   5.616   2.310  0.7797 -0.1617 -0.0853
 7917TIP3    H123715   1.233   5.697   2.266 -0.4123 -1.3064 -1.6574
 7917TIP3    H223716   1.195   5.606   2.381  1.0393  0.3605  0.2237
 7918TIP3   OH223717   1.034   3.720   0.539  0.7450  0.1507 -0.2209
 7918TIP3    H123718   1.051   3.775   0.462  0.7124  2.2092  1.1788
 7918TIP3    H223719   1.111   3.729   0.593 -1.2809  3.2542  2.5116
 7919TIP3   OH223720   4.764   2.434   1.004 -0.0509  0.0456  0.1537
 7919TIP3    H123721   4.794   2.414   0.916  1.6802  0.4759  0.6092
 7919TIP3    H223722   4.671   2.454   0.994 -0.1762 -1.1523 -1.3589
 7920TIP3   OH223723   3.000   1.426   3.140 -0.1504 -0.2607 -0.1788
 7920TIP3    H123724   3.017   1.332   3.147 -0.2155 -0.1533  2.0603
 7920TIP3    H223725   3.085   1.465   3.120 -0.2220 -0.7908 -1.7057
 7921TIP3   OH223726   1.693   5.134   3.254  0.8070  0.6227  0.2562
 7921TIP3    H123727   1.608   5.161   3.220 -0.3620 -2.1342  0.7333
 7921TIP3    H223728   1.740   5.101   3.177  1.4495  2.0336  0.0136
 7922TIP3   OH223729   3.064   1.028   3.486  0.2522 -0.7467  0.3562
 7922TIP3    H123730   3.127   0.986   3.544  0.7707  1.9941  1.9257
 7922TIP3    H223731   2.982   1.030   3.536  0.0466 -0.5194  0.0191
 7923TIP3   OH223732   3.024   0.643   0.431  0.0825 -0.3570  0.2278
 7923TIP3    H123733   2.994   0.589   0.358 -3.3955  2.0247 -0.3498
 7923TIP3    H223734   3.104   0.685   0.398 -0.6556 -0.3853 -1.7290
 7924TIP3   OH223735   1.270   1.868   2.264  0.0050  0.1108 -0.1535
 7924TIP3    H123736   1.255   1.777   2.287  0.0051  0.4740  1.4304
 7924TIP3    H223737   1.266   1.870   2.168  1.4366 -1.7817 -0.2997
 7925TIP3   OH223738   3.571   0.846   0.069 -0.2519 -0.2216  0.1106
 7925TIP3    H123739   3.589   0.781   0.137 -0.2940 -1.1205 -0.7140
 7925TIP3    H223740   3.504   0.806   0.014  0.4531  0.0836 -1.0048
 7926TIP3   OH223741   1.078   0.757   4.144  0.3658  0.2990  0.2302
 7926TIP3    H123742   1.049   0.774   4.055 -2.2298  1.0843  1.1483
 7926TIP3    H223743   1.038   0.673   4.166 -1.2696  1.3448  1.4876
 7927TIP3   OH223744   2.629   2.315   5.372 -0.7491  0.9423 -0.6878
 7927TIP3    H123745   2.534   2.330   5.365 -0.6930  1.6155 -0.1346
 7927TIP3    H223746   2.668   2.402   5.359 -0.1546  0.5449 -1.6770
 7928TIP3   OH223747   5.153   1.178   3.492  0.3105 -0.7571 -0.3648
 7928TIP3    H123748   5.180   1.160   3.583 -1.3623 -0.5746  0.2064
 7928TIP3    H223749   5.228   1.222   3.453  1.1337 -0.9960  0.8884
 7929TIP3   OH223750   1.864   3.205   4.126 -0.3955 -0.1751 -0.6776
 7929TIP3    H123751   1.837   3.285   4.171  0.5062 -0.1816 -0.1038
 7929TIP3    H223752   1.940   3.231   4.073 -0.0596 -0.6636 -0.4445
 7930TIP3   OH223753   5.577   3.601   3.459  0.4088 -0.0629 -0.0511
 7930TIP3    H123754   5.488   3.615   3.490  0.2819 -0.5774 -0.1732
 7930TIP3    H223755   5.633   3.636   3.528  0.1085  1.0130 -0.3408
 7931TIP3   OH223756   7.088   5.269   3.848 -0.2192  1.2837  0.7050
 7931TIP3    H123757   7.010   5.254   3.901 -0.0612 -2.3494  0.1586
 7931TIP3    H223758   7.159   5.278   3.911 -0.2223 -1.7308  1.2770
 7932TIP3   OH223759   4.961   0.397   0.887 -0.0284 -0.7904 -0.1455
 7932TIP3    H123760   5.054   0.400   0.908 -0.5061 -1.7038  2.5384
 7932TIP3    H223761   4.929   0.315   0.927 -2.4165  0.7550  1.4531
 7933TIP3   OH223762   6.776   0.280   0.843 -0.1312  0.1073 -0.3265
 7933TIP3    H123763   6.765   0.186   0.858  0.6392 -0.1037 -1.0015
 7933TIP3    H223764   6.692   0.310   0.810  0.5502 -1.0439 -3.4245
 7934TIP3   OH223765   0.869   0.225   3.277 -0.0693  0.1716  0.0215
 7934TIP3    H123766   0.796   0.284   3.296  2.0849  2.7766  0.8393
 7934TIP3    H223767   0.937   0.282   3.241  2.6966 -1.5118  2.2058
 7935TIP3   OH223768   3.150   0.127   1.295 -0.1057  0.1611  0.4730
 7935TIP3    H123769   3.128   0.041   1.261  0.2755  0.3947 -0.4094
 7935TIP3    H223770   3.118   0.127   1.385 -0.6910 -0.6613  0.2715
 7936TIP3   OH223771   5.016   4.254   2.984  0.5897  0.0715 -0.0452
 7936TIP3    H123772   4.925   4.240   2.957  1.0562 -3.1709 -0.3387
 7936TIP3    H223773   5.045   4.330   2.934 -0.7941 -1.2550 -3.1089
 7937TIP3   OH223774   4.650   2.892   3.343 -0.3946 -0.5109 -0.4602
 7937TIP3    H123775   4.610   2.830   3.282 -2.5264 -0.1506  0.4701
 7937TIP3    H223776   4.595   2.887   3.422  1.6299 -0.1812  1.0453
 7938TIP3   OH223777   0.649   0.352   3.429  0.0108 -0.4988 -0.2037
 7938TIP3    H123778   0.634   0.432   3.479  0.3253  0.0606 -0.9839
 7938TIP3    H223779   0.562   0.323   3.403 -0.2443 -1.3903  1.5467
 7939TIP3   OH223780   1.124   1.262   1.160 -0.3861 -0.4127  0.4557
 7939TIP3    H123781   1.106   1.335   1.220  0.4951 -1.0482  1.5452
 7939TIP3    H223782   1.079   1.285   1.079 -0.8678  0.9093  1.0747
 7940TIP3   OH223783   3.764   5.455   3.777  0.1931 -0.6584  0.3520
 7940TIP3    H123784   3.689   5.417   3.731  0.9948 -1.8545 -0.0260
 7940TIP3    H223785   3.773   5.402   3.856 -1.3127  1.5191  2.1060
 7941TIP3   OH223786   5.529   4.294   5.831 -0.2003  0.3007  0.0192
 7941TIP3    H123787   5.515   4.293   5.737 -1.5855  0.1404  0.2019
 7941TIP3    H223788   5.442   4.277   5.869  0.3726  0.0892  1.3158
 7942TIP3   OH223789   2.843   0.402   2.950  0.2055  0.2221  0.1921
 7942TIP3    H123790   2.794   0.485   2.951  1.9925  1.3458 -0.8133
 7942TIP3    H223791   2.901   0.409   2.874 -0.2915 -2.4097 -0.5336
 7943TIP3   OH223792   6.001   3.487   5.468 -0.3558  0.6266  0.2658
 7943TIP3    H123793   5.912   3.455   5.479  0.0312 -1.7242 -2.3010
 7943TIP3    H223794   6.056   3.417   5.502  0.5686  1.8225  1.3422
 7944TIP3   OH223795   2.365   2.437   5.298 -0.0275 -0.0912 -0.1235
 7944TIP3    H123796   2.303   2.428   5.226  0.1648  0.8911 -0.4390
 7944TIP3    H223797   2.316   2.481   5.367  0.1929  0.3356 -0.2299
 7945TIP3   OH223798   4.135   3.901   1.305 -0.1730 -0.7459 -0.1565
 7945TIP3    H123799   4.083   3.971   1.345  1.2837  0.8959 -1.0029
 7945TIP3    H223800   4.070   3.840   1.270 -1.4795 -0.9562  2.4073
 7946TIP3   OH223801   3.365   5.263   1.089 -0.1110  0.0792 -0.6221
 7946TIP3    H123802   3.332   5.326   1.153 -0.1382 -0.5877  0.0279
 7946TIP3    H223803   3.437   5.309   1.045 -0.6053  0.8229 -0.6656
 7947TIP3   OH223804   1.824   3.131   1.788 -0.3464  0.1446  0.2445
 7947TIP3    H123805   1.833   3.226   1.800 -1.0465  0.3744 -0.8480
 7947TIP3    H223806   1.791   3.099   1.872 -0.0357  0.8603  0.6467
 7948TIP3   OH223807   6.855   4.401   1.238 -0.0490  0.3177  0.0880
 7948TIP3    H123808   6.821   4.453   1.166 -1.9118  0.5511  1.0739
 7948TIP3    H223809   6.893   4.465   1.298  0.2983  0.2555 -0.0657
 7949TIP3   OH223810   1.512   3.365   0.144  0.0472 -0.5466  0.0705
 7949TIP3    H123811   1.436   3.422   0.150  1.0517  0.6849  2.6007
 7949TIP3    H223812   1.580   3.420   0.106  1.1842  0.3256  3.0422
 7950TIP3   OH223813   2.899   2.207   0.110 -0.6118  0.4120  0.2342
 7950TIP3    H123814   2.978   2.251   0.140 -1.3962  0.9971  1.5419
 7950TIP3    H223815   2.848   2.276   0.069  0.4676 -0.3881 -2.6520
 7951TIP3   OH223816   1.396   5.913   0.201 -0.2500  0.0825 -0.4942
 7951TIP3    H123817   1.433   5.874   0.122 -4.6175 -0.5021 -2.5309
 7951TIP3    H223818   1.363   5.839   0.252 -0.2953  0.6347  0.3072
 7952TIP3   OH223819   6.566   0.673   3.590 -0.0044 -0.0819  0.4378
 7952TIP3    H123820   6.547   0.604   3.654 -0.2618  0.4021  0.8875
 7952TIP3    H223821   6.625   0.733   3.637  0.1370  0.0596  0.0826
 7953TIP3   OH223822   6.788   4.114   1.122 -0.3224  0.2504 -0.4027
 7953TIP3    H123823   6.852   4.051   1.089  0.5405  0.8287  0.1018
 7953TIP3    H223824   6.838   4.168   1.184 -1.5489  0.0660  0.7977
 7954TIP3   OH223825   6.683  -0.016   3.148 -0.7229  0.3415  0.2749
 7954TIP3    H123826   6.605  -0.002   3.203 -0.7519  0.1729  0.2759
 7954TIP3    H223827   6.664   0.031   3.067 -1.0852 -0.2089  0.0355
 7955TIP3   OH223828   0.848   5.078   1.216  0.7651  0.5810  0.0529
 7955TIP3    H123829   0.829   4.986   1.195  0.0311  0.5927  0.6106
 7955TIP3    H223830   0.943   5.084   1.217  0.8475 -0.5587  1.5898
 7956TIP3   OH223831   3.864   6.207   2.365 -0.1627 -0.1063 -0.2048
 7956TIP3    H123832   3.936   6.268   2.352 -1.1522  1.2015  0.2320
 7956TIP3    H223833   3.882   6.135   2.305  1.4310  0.2388 -0.1886
 7957TIP3   OH223834   2.113   1.054   4.650  0.1742  0.1357  0.5139
 7957TIP3    H123835   2.118   1.030   4.743  0.7553 -3.3007 -0.2731
 7957TIP3    H223836   2.026   1.026   4.623  0.7441 -0.7918 -0.4032
 7958TIP3   OH223837   6.686   5.376   4.541 -0.4555  0.1485  0.3190
 7958TIP3    H123838   6.629   5.334   4.606 -0.0972  1.4674  1.5361
 7958TIP3    H223839   6.626   5.423   4.484 -0.7926 -1.2177 -0.5033
 7959TIP3   OH223840   1.985   0.587   0.603  0.0493 -0.7851  0.3701
 7959TIP3    H123841   2.073   0.550   0.603 -0.1203 -1.1986  0.8863
 7959TIP3    H223842   1.928   0.513   0.582 -0.2429 -0.6894  0.8269
 7960TIP3   OH223843   3.694   4.426   4.732  0.1521  0.6160  0.0034
 7960TIP3    H123844   3.634   4.366   4.688 -0.2217  0.6724  0.4236
 7960TIP3    H223845   3.721   4.488   4.664  1.1403 -0.4637 -0.6173
 7961TIP3   OH223846   0.873   1.775   0.346 -0.3288  0.4467 -0.1414
 7961TIP3    H123847   0.861   1.680   0.346  0.6889  0.2788 -1.5898
 7961TIP3    H223848   0.787   1.810   0.322 -0.3958 -0.1883 -0.8697
 7962TIP3   OH223849   7.003   6.247   4.671 -0.0086  0.2348  0.3161
 7962TIP3    H123850   7.079   6.196   4.641 -0.1036 -0.0497  0.5554
 7962TIP3    H223851   7.004   6.237   4.766 -0.8387 -0.4563  0.2568
 7963TIP3   OH223852   6.993   6.688   4.031 -0.2963  0.2553 -0.5789
 7963TIP3    H123853   7.061   6.652   3.975 -0.4942  1.0703 -1.3572
 7963TIP3    H223854   7.039   6.744   4.093 -0.1453 -0.1659 -0.3013
 7964TIP3   OH223855   4.405   1.084   2.793  0.1580 -0.4721 -0.2811
 7964TIP3    H123856   4.326   1.136   2.809 -0.1792 -1.3731  1.2007
 7964TIP3    H223857   4.473   1.150   2.776 -0.3387  0.4789  1.1488
 7965TIP3   OH223858   2.884   3.063   3.295  0.3538 -0.3169  0.4570
 7965TIP3    H123859   2.806   3.066   3.349 -0.9597  0.1059 -1.3576
 7965TIP3    H223860   2.952   3.028   3.352  0.0066  3.3143  3.4638
 7966TIP3   OH223861   4.862   2.536   3.008  0.1548 -0.1462  1.0703
 7966TIP3    H123862   4.820   2.471   2.952  0.7641 -1.0689  1.6497
 7966TIP3    H223863   4.944   2.495   3.035  0.2924  0.6411  1.9012
 7967TIP3   OH223864   4.136   1.093   1.615  0.8212 -0.1243  0.0310
 7967TIP3    H123865   4.051   1.133   1.636 -0.3612 -0.9325 -2.7336
 7967TIP3    H223866   4.179   1.157   1.557  0.0229 -1.5954 -2.3165
 7968TIP3   OH223867   3.260   5.213   4.698 -0.0939  0.0038  0.7173
 7968TIP3    H123868   3.282   5.126   4.665 -0.9810 -0.6730  1.8208
 7968TIP3    H223869   3.345   5.257   4.709  0.3928 -0.8854  0.5849
 7969TIP3   OH223870   2.541   0.225   1.053 -0.2170 -0.3660  0.2240
 7969TIP3    H123871   2.564   0.300   1.108  0.0994  1.8269 -2.7087
 7969TIP3    H223872   2.446   0.231   1.044 -0.1165  0.0929 -0.5524
 7970TIP3   OH223873   1.937   5.715   3.660  0.3844  0.7114 -0.0295
 7970TIP3    H123874   2.018   5.760   3.636  0.3313  0.4683 -0.6805
 7970TIP3    H223875   1.906   5.761   3.738  0.0797  2.1175 -0.9504
 7971TIP3   OH223876   2.782   5.512   4.005 -0.2063 -0.4109 -0.5305
 7971TIP3    H123877   2.852   5.568   3.973 -0.5708 -0.3951 -1.3230
 7971TIP3    H223878   2.720   5.507   3.932 -0.8318 -0.7504  0.0132
 7972TIP3   OH223879   4.214   4.386   2.230  0.2854  0.1760 -0.0349
 7972TIP3    H123880   4.127   4.382   2.271 -0.1055  1.3236 -0.6955
 7972TIP3    H223881   4.275   4.363   2.300 -0.5322 -0.5316  0.4740
 7973TIP3   OH223882   3.429   3.544   2.522 -0.0266  0.0369  0.0655
 7973TIP3    H123883   3.497   3.491   2.482  0.9602  1.6366 -0.4766
 7973TIP3    H223884   3.373   3.572   2.450 -0.3162  0.0549  0.2916
 7974TIP3   OH223885   0.748   2.073   0.704 -0.3292 -0.1803  0.6666
 7974TIP3    H123886   0.815   2.007   0.687  0.5808  0.4194  1.7092
 7974TIP3    H223887   0.706   2.044   0.785  0.7108  0.9310  1.6617
 7975TIP3   OH223888   6.541   4.989   4.811  0.1445  0.5729  0.0069
 7975TIP3    H123889   6.579   4.938   4.883  1.4216  0.5996 -0.6156
 7975TIP3    H223890   6.534   4.928   4.738  2.1340  1.3304 -0.8962
 7976TIP3   OH223891   3.927   2.773   3.878  0.1986 -0.4414  0.2400
 7976TIP3    H123892   3.944   2.866   3.888  0.8415 -0.6217  0.9244
 7976TIP3    H223893   3.943   2.735   3.964 -0.5890 -1.1148  0.1107
 7977TIP3   OH223894   0.840   6.319   1.470  0.5842  0.3167 -0.5998
 7977TIP3    H123895   0.824   6.314   1.564  1.1922  1.1115 -0.4419
 7977TIP3    H223896   0.834   6.228   1.440 -0.4509  0.1507  0.0549
 7978TIP3   OH223897   1.680   5.941   4.489  0.1626  0.1761  0.3850
 7978TIP3    H123898   1.770   5.913   4.508  0.6245  2.2871  1.6186
 7978TIP3    H223899   1.643   5.962   4.575 -0.8027  1.3346 -0.2931
 7979TIP3   OH223900   5.371   2.154   5.297  0.6538  0.0400 -0.0388
 7979TIP3    H123901   5.329   2.090   5.240 -0.7609  1.2238 -0.3838
 7979TIP3    H223902   5.464   2.152   5.272  0.3480 -0.7026 -1.1479
 7980TIP3   OH223903   3.758   1.902   0.135  0.0601 -0.7326  0.0386
 7980TIP3    H123904   3.792   1.911   0.224 -1.4077 -0.3601  0.5949
 7980TIP3    H223905   3.770   1.809   0.114  1.3067 -0.6276  0.2294
 7981TIP3   OH223906   6.005   5.031   2.045 -0.1528 -0.0801  0.1263
 7981TIP3    H123907   5.944   4.963   2.016 -0.2367  0.1633 -0.2746
 7981TIP3    H223908   5.989   5.105   1.987  0.8547 -0.1748 -0.2952
 7982TIP3   OH223909   3.399   6.790   4.188 -0.4415  0.3859 -0.1287
 7982TIP3    H123910   3.479   6.754   4.227  0.5992  0.8568 -1.7296
 7982TIP3    H223911   3.389   6.744   4.105 -2.4215 -0.3579  0.4598
 7983TIP3   OH223912   1.762   1.705   1.052 -0.4281 -0.3323 -0.1627
 7983TIP3    H123913   1.811   1.786   1.064 -2.0971  0.6091  0.5736
 7983TIP3    H223914   1.789   1.649   1.125  1.8853 -1.1183 -1.5080
 7984TIP3   OH223915   1.806   3.977   1.078 -0.4742 -0.2537 -0.1336
 7984TIP3    H123916   1.865   4.052   1.069  0.3976 -1.0152 -1.0843
 7984TIP3    H223917   1.740   3.991   1.010  0.5755 -1.0995 -1.3738
 7985TIP3   OH223918   2.471   5.170   2.249  0.0659 -0.6481 -0.0840
 7985TIP3    H123919   2.500   5.138   2.163 -1.2442 -1.0314 -0.3990
 7985TIP3    H223920   2.472   5.091   2.304 -2.4423 -1.1608 -0.6682
 7986TIP3   OH223921   0.137   0.152   0.947 -0.3902 -0.0437 -0.0328
 7986TIP3    H123922   0.127   0.173   0.854 -1.1029  0.8162  0.2254
 7986TIP3    H223923   0.128   0.236   0.992  0.7471 -0.3302  0.7694
 7987TIP3   OH223924   0.306   3.465   4.667 -0.0392  0.1550 -0.3445
 7987TIP3    H123925   0.215   3.460   4.640  0.2027 -0.5369 -1.0733
 7987TIP3    H223926   0.350   3.508   4.593  0.9145 -3.1786 -1.8803
 7988TIP3   OH223927   1.182   3.430   1.108 -0.0583  0.5755 -0.3125
 7988TIP3    H123928   1.181   3.413   1.202 -0.4722 -0.0025 -0.4224
 7988TIP3    H223929   1.156   3.348   1.068  0.2005  0.7940 -0.9419
 7989TIP3   OH223930   5.619   3.076   0.326  0.0421 -0.4268  0.5421
 7989TIP3    H123931   5.670   3.061   0.246  1.4578  1.5121  1.0184
 7989TIP3    H223932   5.531   3.093   0.295  0.8643  1.7807 -0.7974
 7990TIP3   OH223933   5.533   1.293   2.226 -0.2549 -0.2702 -0.3689
 7990TIP3    H123934   5.488   1.231   2.169 -2.5977  2.0262 -1.2510
 7990TIP3    H223935   5.465   1.355   2.253  0.9623 -0.5085  4.0743
 7991TIP3   OH223936   0.933   2.087   2.553 -0.4187 -0.3438  0.1335
 7991TIP3    H123937   0.901   2.057   2.638 -0.4569 -2.6229 -0.6085
 7991TIP3    H223938   0.901   2.021   2.491  1.4646  0.0340 -1.3393
 7992TIP3   OH223939   4.871   3.688   2.126 -0.5199 -0.0507 -0.1800
 7992TIP3    H123940   4.807   3.618   2.131 -1.1169  0.5909  1.7959
 7992TIP3    H223941   4.826   3.758   2.079 -1.7316  0.8102  2.1453
 7993TIP3   OH223942   4.153   4.815   1.008 -0.4077  0.2921 -0.6217
 7993TIP3    H123943   4.248   4.812   1.008 -0.2507  1.9099  1.9224
 7993TIP3    H223944   4.132   4.899   1.050 -2.9182 -0.6635  0.2353
 7994TIP3   OH223945   1.563   1.908   0.586  0.2588 -0.7663  0.1333
 7994TIP3    H123946   1.553   1.988   0.534 -0.0179 -0.4109  0.7218
 7994TIP3    H223947   1.642   1.867   0.552  0.2185 -0.4084 -0.3994
 7995TIP3   OH223948   4.693   0.192   0.504 -0.0558 -0.0661 -0.1220
 7995TIP3    H123949   4.782   0.175   0.472 -0.1081 -1.5422  0.4356
 7995TIP3    H223950   4.681   0.286   0.491  1.5913  0.1757 -0.1892
 7996TIP3   OH223951   1.716   0.157   0.883  0.5278 -0.2379 -0.3367
 7996TIP3    H123952   1.644   0.191   0.936 -0.6523 -0.4893 -1.7353
 7996TIP3    H223953   1.769   0.106   0.945 -0.9629 -0.7690  0.5567
 7997TIP3   OH223954   7.149   4.876   2.517 -0.3641  0.0873 -0.2450
 7997TIP3    H123955   7.118   4.930   2.590  0.5430  0.3186 -0.0249
 7997TIP3    H223956   7.069   4.840   2.479 -0.8832  0.3613  0.5557
 7998TIP3   OH223957   2.439   2.563   1.861 -0.4491 -0.6186 -0.6076
 7998TIP3    H123958   2.394   2.498   1.915 -1.8229 -0.3725 -1.4214
 7998TIP3    H223959   2.403   2.551   1.773 -1.1452  1.5697 -0.6846
 7999TIP3   OH223960   4.368   4.902   5.625  0.1636  0.3980 -0.3636
 7999TIP3    H123961   4.412   4.818   5.622  0.0976  0.3796 -0.9046
 7999TIP3    H223962   4.437   4.965   5.647  0.0661  0.1141  0.8550
 8000TIP3   OH223963   2.647   4.310   1.863  0.4298 -0.2411 -0.0738
 8000TIP3    H123964   2.606   4.385   1.908 -0.2790 -0.0541 -1.0072
 8000TIP3    H223965   2.664   4.247   1.933 -2.0409 -0.5887  0.3084
 8001TIP3   OH223966   2.349   6.579   2.886  0.5050  0.9432 -0.2573
 8001TIP3    H123967   2.299   6.589   2.805  0.1117  1.0894  0.0010
 8001TIP3    H223968   2.329   6.490   2.916  1.3779  0.5443 -0.7976
 8002TIP3   OH223969   5.394   5.879   4.832  0.0398 -0.1173 -0.5631
 8002TIP3    H123970   5.304   5.872   4.800  0.1562 -1.2971 -0.6832
 8002TIP3    H223971   5.386   5.871   4.927  0.0782 -1.1408 -0.6314
 8003TIP3   OH223972   1.633   2.883   5.665 -0.5050 -0.2821  0.1049
 8003TIP3    H123973   1.637   2.979   5.668  0.0167 -0.2923 -0.1523
 8003TIP3    H223974   1.661   2.855   5.752 -0.3967 -0.2067  0.0949
 8004TIP3   OH223975   2.850   1.004   0.705  0.8553 -0.4974  0.3349
 8004TIP3    H123976   2.821   1.030   0.618  2.4037  0.0227 -0.0668
 8004TIP3    H223977   2.905   0.926   0.689  0.0571 -1.2219  1.0134
 8005TIP3   OH223978   0.757   1.794   1.732 -0.4820  0.7048  0.2313
 8005TIP3    H123979   0.753   1.839   1.647 -0.9424  2.6263  1.2166
 8005TIP3    H223980   0.807   1.853   1.788 -1.1372  0.0048  1.6055
 8006TIP3   OH223981   1.101   0.601   1.971 -0.2983  0.3039  0.1277
 8006TIP3    H123982   1.178   0.640   2.011 -0.0132 -1.9415  1.9258
 8006TIP3    H223983   1.135   0.534   1.912 -0.8073 -0.8198  1.0566
 8007TIP3   OH223984   6.133   1.513   0.615 -0.6221 -0.2785 -0.0625
 8007TIP3    H123985   6.200   1.542   0.677 -0.1993  0.7268 -0.9661
 8007TIP3    H223986   6.179   1.454   0.556 -0.8925 -0.7625  0.1949
 8008TIP3   OH223987   5.649   1.603   1.803  0.5128 -0.0504  0.4847
 8008TIP3    H123988   5.604   1.585   1.720  1.4262  0.2971 -0.0983
 8008TIP3    H223989   5.593   1.563   1.869  1.0911 -2.7377 -0.5224
 8009TIP3   OH223990   2.392   4.424   2.862  0.5516  0.4245  0.4747
 8009TIP3    H123991   2.342   4.480   2.921  1.1670  1.4756  0.0309
 8009TIP3    H223992   2.455   4.483   2.821  0.3297 -0.3202 -1.0171
 8010TIP3   OH223993   4.527   3.318   1.666  0.3970 -0.3891 -0.1877
 8010TIP3    H123994   4.620   3.326   1.649  0.4462  0.7454  0.5067
 8010TIP3    H223995   4.488   3.397   1.627 -0.1006 -0.2247  0.6090
 8011TIP3   OH223996   7.020   6.685   2.845 -0.0403 -0.3615 -0.4931
 8011TIP3    H123997   6.980   6.770   2.827  1.6913  0.7279  0.5731
 8011TIP3    H223998   7.090   6.677   2.781  1.3119  0.1363  0.8511
 8012TIP3   OH223999   4.671   6.763   3.497 -0.1660 -0.2534 -0.5625
 8012TIP3    H124000   4.716   6.692   3.451 -1.0602 -1.4044  0.2928
 8012TIP3    H224001   4.580   6.754   3.471 -0.5831 -0.5278  0.8865
 8013TIP3   OH224002   7.059   2.918   0.780  0.0068  0.0502 -0.4697
 8013TIP3    H124003   7.092   2.887   0.696  1.0779  1.0579 -0.4447
 8013TIP3    H224004   7.131   2.969   0.817 -1.7539  3.0213 -0.7639
 8014TIP3   OH224005   5.610   2.255   3.313  0.2615  0.1697  0.2206
 8014TIP3    H124006   5.647   2.314   3.247 -1.5235  2.0346  0.7688
 8014TIP3    H224007   5.526   2.228   3.277 -0.1788  0.2260  1.1647
 8015TIP3   OH224008   7.196   5.300   0.656 -0.1538  0.5999 -0.3440
 8015TIP3    H124009   7.164   5.374   0.707 -1.1135  0.4352 -0.6837
 8015TIP3    H224010   7.190   5.225   0.715  0.2766  0.6836 -0.1865
 8016TIP3   OH224011   0.068   3.579   2.155  0.0612  0.3400 -0.2131
 8016TIP3    H124012  -0.010   3.632   2.140  0.7047  1.0560 -1.1257
 8016TIP3    H224013   0.126   3.635   2.207  0.8179  0.6371 -1.3332
 8017TIP3   OH224014   2.216   1.272   3.024  0.0433  0.3863 -0.7093
 8017TIP3    H124015   2.126   1.261   2.993  0.4267 -0.1297 -1.6945
 8017TIP3    H224016   2.263   1.308   2.948  1.3393 -2.3496 -1.3309
 8018TIP3   OH224017   2.749   0.718   0.987  0.0036  0.5759 -0.4781
 8018TIP3    H124018   2.710   0.804   1.001 -0.7679 -0.0762  1.6816
 8018TIP3    H224019   2.840   0.727   1.014 -0.4575  0.3724  1.2477
 8019TIP3   OH224020   0.564   5.263   0.084  0.3766  0.1222  0.0417
 8019TIP3    H124021   0.608   5.196   0.031 -2.0994 -1.4988 -0.1080
 8019TIP3    H224022   0.612   5.263   0.166  1.5459 -0.4951 -0.6074
 8020TIP3   OH224023   6.319   2.380   3.659  0.0506  0.0088 -0.4485
 8020TIP3    H124024   6.266   2.428   3.595  0.2720  0.3067 -0.4113
 8020TIP3    H224025   6.256   2.348   3.723 -0.3040 -1.2213 -1.3925
 8021TIP3   OH224026   4.071   4.060   1.681  0.5000  0.3296  0.3904
 8021TIP3    H124027   4.031   4.055   1.768  1.7234 -2.5938  0.9144
 8021TIP3    H224028   4.157   4.018   1.692  1.0566  0.7002 -2.0325
 8022TIP3   OH224029   7.111   2.381   1.105 -0.1413  0.1045 -0.4305
 8022TIP3    H124030   7.123   2.459   1.158  1.5968 -1.8972  2.4067
 8022TIP3    H224031   7.016   2.368   1.103 -0.4038  1.8051 -0.2655
 8023TIP3   OH224032   6.848   2.598   4.538 -0.0504  0.0789 -0.2588
 8023TIP3    H124033   6.882   2.682   4.568  0.6951 -0.3637  0.1789
 8023TIP3    H224034   6.825   2.551   4.618  1.7183 -1.0179 -0.3266
 8024TIP3   OH224035   0.857   4.644   4.072 -0.3198 -0.0177  0.4576
 8024TIP3    H124036   0.910   4.723   4.061 -0.1689 -0.1393  0.3122
 8024TIP3    H224037   0.771   4.677   4.099  0.3025  0.1091  2.5284
 8025TIP3   OH224038   5.295   2.617   0.670  0.2866  0.2343  0.2774
 8025TIP3    H124039   5.302   2.590   0.579  2.2352 -0.8002  0.6676
 8025TIP3    H224040   5.242   2.696   0.668 -1.5430 -0.9575 -1.4761
 8026TIP3   OH224041   3.696   6.392   3.691  0.1770 -0.1426 -0.2577
 8026TIP3    H124042   3.708   6.310   3.644  0.8272 -0.3584  0.2667
 8026TIP3    H224043   3.756   6.386   3.766 -0.9517  0.1200  0.7009
 8027TIP3   OH224044   1.010   2.265   2.185  0.1656 -0.3824  0.4057
 8027TIP3    H124045   0.941   2.279   2.120  1.0553  1.1278 -0.2776
 8027TIP3    H224046   0.974   2.300   2.266 -0.1842 -0.3873  0.2564
 8028TIP3   OH224047   4.789   6.138   1.937  0.1655 -0.8240 -0.4195
 8028TIP3    H124048   4.778   6.209   2.000  1.1685 -0.9173 -0.1165
 8028TIP3    H224049   4.840   6.071   1.984  2.7133 -0.0591 -1.8795
 8029TIP3   OH224050   0.646   4.241   4.255  0.1648 -0.3101 -0.2830
 8029TIP3    H124051   0.692   4.283   4.328  1.1819 -0.6429 -0.7123
 8029TIP3    H224052   0.700   4.165   4.233 -0.9212 -1.0572 -0.4186
 8030TIP3   OH224053   0.609   5.090   0.895  0.2692 -0.6516 -0.2673
 8030TIP3    H124054   0.522   5.067   0.930  0.6305  1.0050  1.9447
 8030TIP3    H224055   0.591   5.129   0.810 -1.4059  1.3338  0.8951
 8031TIP3   OH224056   1.456   5.820   2.838  0.0270  0.2436  0.2556
 8031TIP3    H124057   1.447   5.808   2.933  1.0126 -3.1709  0.0539
 8031TIP3    H224058   1.528   5.882   2.827 -1.7294  2.6913  1.6568
 8032TIP3   OH224059   6.355   4.659   2.689  0.3516 -0.5046 -0.4100
 8032TIP3    H124060   6.309   4.701   2.617  0.4641  0.2371 -0.0528
 8032TIP3    H224061   6.433   4.712   2.703  0.0094 -0.2683  0.6747
 8033TIP3   OH224062   1.401   0.973   3.766 -0.8703 -0.1800 -0.1355
 8033TIP3    H124063   1.314   0.935   3.777 -0.8311  0.2156  2.1232
 8033TIP3    H224064   1.425   1.004   3.854  1.0198  0.8713 -0.9501
 8034TIP3   OH224065   0.822   3.657   0.054  0.7454 -0.1861  0.4508
 8034TIP3    H124066   0.738   3.697   0.032 -0.7082 -2.7535  0.8562
 8034TIP3    H224067   0.879   3.681  -0.018 -1.1064 -0.4332 -1.1977
 8035TIP3   OH224068   1.929   5.688   0.383 -1.0397  0.3645  0.0122
 8035TIP3    H124069   1.960   5.778   0.392  1.9874 -0.6347  1.0266
 8035TIP3    H224070   1.838   5.690   0.413 -0.5902  2.8473  1.4561
 8036TIP3   OH224071   2.376   1.729   0.271 -0.2095 -0.2185  0.3433
 8036TIP3    H124072   2.308   1.672   0.236  0.7418 -0.4394 -1.2557
 8036TIP3    H224073   2.341   1.818   0.262 -1.7108 -0.4609  2.8736
 8037TIP3   OH224074   1.173   1.866   2.732  0.5241  0.4494  0.5365
 8037TIP3    H124075   1.242   1.839   2.672  0.9525  1.4707  0.5410
 8037TIP3    H224076   1.219   1.917   2.800 -0.2686  1.5204  0.3040
 8038TIP3   OH224077   0.194   5.637   4.461 -0.2197  0.0926 -0.3095
 8038TIP3    H124078   0.170   5.700   4.394 -1.6426 -0.4963 -0.3948
 8038TIP3    H224079   0.137   5.561   4.444  0.2026 -0.5122  0.8603
 8039TIP3   OH224080   5.330   3.819   3.730 -0.1365  0.0339  0.3720
 8039TIP3    H124081   5.279   3.891   3.693  2.5579  2.8625  1.7341
 8039TIP3    H224082   5.421   3.846   3.719  1.0645 -3.3574  0.7481
 8040TIP3   OH224083   0.579   4.021   5.342  0.0850 -0.2484  0.1577
 8040TIP3    H124084   0.627   3.939   5.349  1.8633  0.7465  0.1605
 8040TIP3    H224085   0.582   4.042   5.249 -2.4101 -1.3037 -0.2364
 8041TIP3   OH224086   0.548   1.291   1.205  0.3088  0.0634 -0.2461
 8041TIP3    H124087   0.624   1.346   1.223 -0.3508  0.7953  0.3570
 8041TIP3    H224088   0.482   1.351   1.171 -0.1647 -0.4841 -0.3117
 8042TIP3   OH224089   2.110   2.226   3.378 -0.4303  0.2958  0.1700
 8042TIP3    H124090   2.182   2.193   3.431  1.0767  0.6405 -1.5592
 8042TIP3    H224091   2.110   2.169   3.300 -0.8428  1.4157 -0.6747
 8043TIP3   OH224092   3.986   2.492   1.049 -0.7338 -0.5383  0.0669
 8043TIP3    H124093   3.937   2.465   0.972 -0.6417 -0.9252  0.1406
 8043TIP3    H224094   4.024   2.411   1.083  2.2195  0.0132 -1.5356
 8044TIP3   OH224095   3.593   0.414   5.246  0.7014 -0.5960  0.1658
 8044TIP3    H124096   3.614   0.504   5.223 -1.1700 -0.4553 -1.2279
 8044TIP3    H224097   3.655   0.361   5.196 -0.4997 -0.1427 -1.9113
 8045TIP3   OH224098   6.374   6.223   1.682 -0.6518  0.3615 -0.3130
 8045TIP3    H124099   6.293   6.271   1.669 -0.6752  0.1844 -0.8632
 8045TIP3    H224100   6.347   6.137   1.714 -0.5772  0.9097  1.2891
 8046TIP3   OH224101   1.132   4.870   1.098 -0.4053  0.0537  0.1369
 8046TIP3    H124102   1.191   4.805   1.059 -0.4020  0.1654 -0.0467
 8046TIP3    H224103   1.084   4.822   1.166 -0.6986 -0.2380 -0.2749
 8047TIP3   OH224104   4.602   3.571   2.184  0.0846 -0.2367  0.4794
 8047TIP3    H124105   4.552   3.555   2.264 -1.7412 -2.0202 -0.9279
 8047TIP3    H224106   4.562   3.649   2.145 -0.6196 -0.7589  0.1376
 8048TIP3   OH224107   1.973   3.407   1.082  0.1634  0.0628 -0.0125
 8048TIP3    H124108   1.903   3.346   1.103 -0.2281  0.7844  0.8491
 8048TIP3    H224109   2.019   3.420   1.165  1.3047 -0.3751 -0.5628
 8049TIP3   OH224110   4.186   4.156   0.902 -0.4082 -0.6101 -0.1690
 8049TIP3    H124111   4.098   4.128   0.877 -0.5798 -1.3553  1.1536
 8049TIP3    H224112   4.244   4.108   0.844 -0.8470 -0.6717 -0.5659
 8050TIP3   OH224113   6.329   3.266   2.108 -0.4614  0.6230 -0.0929
 8050TIP3    H124114   6.421   3.290   2.098 -0.0935  0.0697  1.6461
 8050TIP3    H224115   6.284   3.313   2.038  0.9355  2.1221 -0.0283
 8051TIP3   OH224116   2.897   3.326   5.500 -0.0744  0.7656 -0.4931
 8051TIP3    H124117   2.975   3.372   5.530  1.6907 -1.0608 -1.9011
 8051TIP3    H224118   2.912   3.235   5.525 -0.6236 -0.0334 -2.7863
 8052TIP3   OH224119   3.338   1.383   5.092 -0.1200  0.1090 -0.6716
 8052TIP3    H124120   3.286   1.460   5.116  0.3350  0.0686  0.5191
 8052TIP3    H224121   3.336   1.328   5.170 -1.3867 -1.6578 -1.8696
 8053TIP3   OH224122   3.113   5.100   0.763 -0.2956 -0.0127 -0.7003
 8053TIP3    H124123   3.108   5.138   0.850 -0.1093 -2.6160  0.5459
 8053TIP3    H224124   3.036   5.133   0.717 -1.2537  0.1906  0.9913
 8054TIP3   OH224125   1.440   5.799   5.703 -0.0019 -0.0437  0.6461
 8054TIP3    H124126   1.529   5.833   5.707  0.0651 -0.1794  0.3906
 8054TIP3    H224127   1.393   5.844   5.773  0.2309  0.1380  0.6868
 8055TIP3   OH224128   1.036   5.557   2.487  0.1016 -0.3862  0.0069
 8055TIP3    H124129   1.053   5.565   2.581 -0.2899 -3.9742  0.5204
 8055TIP3    H224130   0.961   5.497   2.481 -0.4419  0.4276 -2.6002
 8056TIP3   OH224131   5.787   1.976   4.436  0.3479 -0.6282 -0.3444
 8056TIP3    H124132   5.851   1.906   4.439 -0.2294 -1.1404  0.4694
 8056TIP3    H224133   5.706   1.934   4.407 -0.1653 -0.4536  0.7669
 8057TIP3   OH224134   3.321   3.315   0.051 -0.4669  1.0990  0.3678
 8057TIP3    H124135   3.349   3.323   0.142 -0.7293 -0.4628  0.6064
 8057TIP3    H224136   3.275   3.231   0.047  2.1053 -0.3628 -1.8251
 8058TIP3   OH224137   2.341   6.110   1.610  0.2426  0.1080 -0.1757
 8058TIP3    H124138   2.387   6.158   1.679 -1.5720  0.2258  1.0104
 8058TIP3    H224139   2.404   6.044   1.581  0.5508 -1.0577  2.8023
 8059TIP3   OH224140   6.728   0.279   2.769 -0.1008  0.0165 -0.5802
 8059TIP3    H124141   6.798   0.251   2.827  1.1008  0.9715 -1.5133
 8059TIP3    H224142   6.726   0.374   2.776 -0.1538  0.1316 -1.8302
 8060TIP3   OH224143   4.883   2.865   2.606 -0.0652  0.5686 -0.1039
 8060TIP3    H124144   4.960   2.871   2.662  0.1778  0.6327 -0.4387
 8060TIP3    H224145   4.874   2.771   2.588  0.3780  0.6247 -0.6621
 8061TIP3   OH224146   0.077   5.917   5.104 -0.2751 -0.0066  0.1344
 8061TIP3    H124147   0.156   5.910   5.051  0.1741 -0.5321  0.8589
 8061TIP3    H224148   0.014   5.860   5.060 -0.2466  0.3738 -0.4142
 8062TIP3   OH224149   4.744   3.966   5.291  0.1858  0.4503 -0.4839
 8062TIP3    H124150   4.787   4.032   5.345 -2.0746  3.0286 -1.6438
 8062TIP3    H224151   4.714   4.013   5.213 -0.1357 -2.3141 -2.1748
 8063TIP3   OH224152   6.548   5.146   3.846 -0.5181 -0.1429  0.1145
 8063TIP3    H124153   6.538   5.232   3.888  1.0429 -0.2849  0.8069
 8063TIP3    H224154   6.539   5.083   3.917  0.8855 -0.4377  0.0463
 8064TIP3   OH224155   1.374   5.483   5.290 -0.4320  0.1704  0.8586
 8064TIP3    H124156   1.381   5.530   5.207 -1.0869 -0.3991  0.4671
 8064TIP3    H224157   1.294   5.516   5.330 -0.9505 -0.6615  0.5332
 8065TIP3   OH224158   1.060   6.257   3.473 -0.1998 -0.0274 -0.3670
 8065TIP3    H124159   0.994   6.283   3.409  0.2337 -1.3628 -1.4019
 8065TIP3    H224160   1.113   6.191   3.428  0.1299 -1.0034  1.3462
 8066TIP3   OH224161   3.910   2.604   1.555  0.2721 -0.0288  0.1502
 8066TIP3    H124162   3.815   2.607   1.565 -0.0194 -1.5992 -1.6071
 8066TIP3    H224163   3.942   2.571   1.639 -0.6912  0.7561  0.8477
 8067TIP3   OH224164   6.497   2.197   0.726  0.0506  0.6068 -0.8248
 8067TIP3    H124165   6.411   2.209   0.685 -1.0132  3.0023  1.8224
 8067TIP3    H224166   6.559   2.217   0.656 -1.5339  0.2481 -2.4136
 8068TIP3   OH224167   3.330   4.217   5.658  0.4282 -0.4735  0.1978
 8068TIP3    H124168   3.353   4.251   5.745  1.2434 -0.3256 -0.0669
 8068TIP3    H224169   3.299   4.128   5.675 -0.8186  0.0556  0.7966
 8069TIP3   OH224170   6.012   6.374   4.118  0.0262  0.0634  0.1260
 8069TIP3    H124171   5.987   6.466   4.127  0.3032 -0.0666  3.6644
 8069TIP3    H224172   6.104   6.376   4.093  0.3497  0.8050  1.3142
 8070TIP3   OH224173   5.591   5.022   2.676  0.0008 -0.2105 -0.4454
 8070TIP3    H124174   5.570   4.998   2.766  0.7768 -0.5276 -0.3437
 8070TIP3    H224175   5.571   4.943   2.625  0.6095 -0.4026 -0.3937
 8071TIP3   OH224176   4.671   3.663   4.574 -0.3160 -0.7593 -0.3046
 8071TIP3    H124177   4.651   3.659   4.667 -0.1365  0.9200 -0.1571
 8071TIP3    H224178   4.594   3.707   4.535 -0.2955 -1.2475 -0.9089
 8072TIP3   OH224179   5.337   5.525   0.371 -0.2447  0.2385  0.3972
 8072TIP3    H124180   5.433   5.517   0.366 -0.2511  0.7168 -0.9183
 8072TIP3    H224181   5.313   5.476   0.449  1.1684  0.8676  1.2677
 8073TIP3   OH224182   2.306   5.717   5.180 -0.6839  0.3662  0.1872
 8073TIP3    H124183   2.298   5.627   5.212  1.9642 -0.6067 -1.5519
 8073TIP3    H224184   2.265   5.716   5.093  0.0656  0.6108 -0.1789
 8074TIP3   OH224185   3.249   4.721   4.874  0.4570 -0.5756  0.2246
 8074TIP3    H124186   3.345   4.719   4.869  0.4801  1.3777 -1.2028
 8074TIP3    H224187   3.230   4.731   4.967  1.5526 -2.1759  0.6709
 8075TIP3   OH224188   4.469   6.225   3.685  0.5300  0.0878  0.6985
 8075TIP3    H124189   4.490   6.158   3.620  0.5947 -0.5196  1.3383
 8075TIP3    H224190   4.449   6.303   3.633  0.7648 -0.3366 -0.0422
 8076TIP3   OH224191   2.946   4.934   1.822 -0.3497  0.6964  0.0016
 8076TIP3    H124192   3.028   4.977   1.848  0.4196 -1.0856  0.6350
 8076TIP3    H224193   2.969   4.887   1.742 -0.0284 -1.7782  1.4598
 8077TIP3   OH224194   6.031   6.385   2.076 -0.2384  0.0205  0.3981
 8077TIP3    H124195   5.983   6.462   2.046  1.5917  0.9214 -0.3801
 8077TIP3    H224196   6.095   6.419   2.137  1.9349 -0.5160 -1.4365
 8078TIP3   OH224197   4.155   3.274   1.767 -0.4680  0.7465  0.0773
 8078TIP3    H124198   4.093   3.267   1.694 -1.4278  0.6477  0.8736
 8078TIP3    H224199   4.169   3.368   1.777 -0.2180  0.7531 -0.3290
 8079TIP3   OH224200   1.180   5.191   4.146 -0.2793 -0.5986 -0.5781
 8079TIP3    H124201   1.229   5.199   4.229 -1.4196 -2.1156  0.2897
 8079TIP3    H224202   1.199   5.102   4.116  0.1006 -0.0752 -1.9767
 8080TIP3   OH224203   6.756   6.218   5.111  0.3561 -0.0048 -0.2344
 8080TIP3    H124204   6.772   6.286   5.176 -0.1857 -1.3010  1.3311
 8080TIP3    H224205   6.835   6.218   5.057  0.5008  1.6242 -0.0609
 8081TIP3   OH224206   0.496   2.893   0.207  0.0189  0.6495  0.9745
 8081TIP3    H124207   0.532   2.981   0.211  0.4073  0.4447  3.1133
 8081TIP3    H224208   0.535   2.847   0.281  0.2355 -1.5075 -0.3859
 8082TIP3   OH224209   6.242   2.484   3.405  0.4717 -0.1179  0.1465
 8082TIP3    H124210   6.171   2.497   3.342 -0.3700 -1.0870  0.8615
 8082TIP3    H224211   6.313   2.446   3.354 -0.8322 -2.6010  0.0528
 8083TIP3   OH224212   0.017   5.438   5.628 -0.2142  0.2502  0.4243
 8083TIP3    H124213  -0.016   5.519   5.587 -1.3722  0.8900  2.4727
 8083TIP3    H224214   0.112   5.451   5.633  0.1030 -0.1246 -2.4599
 8084TIP3   OH224215   2.824   4.311   4.571  0.2173  0.1280 -0.2893
 8084TIP3    H124216   2.808   4.399   4.535 -1.6409 -0.5163 -1.1643
 8084TIP3    H224217   2.875   4.267   4.504 -2.0014 -0.5940 -1.6291
 8085TIP3   OH224218   0.754   4.138   5.538  0.1787  0.3951 -0.0070
 8085TIP3    H124219   0.812   4.211   5.517  0.1305  0.0502 -1.4698
 8085TIP3    H224220   0.709   4.118   5.455 -1.9552  0.5655  1.0442
 8086TIP3   OH224221   5.785   1.410   5.631 -0.5029  0.0560 -0.1231
 8086TIP3    H124222   5.724   1.421   5.558 -1.6754  0.7659  0.9252
 8086TIP3    H224223   5.810   1.318   5.627 -2.4927 -0.5515  0.0260
 8087TIP3   OH224224   2.424   2.305   1.987 -0.2574  0.0460 -0.7801
 8087TIP3    H124225   2.502   2.291   1.933 -0.2807 -2.4528 -0.2767
 8087TIP3    H224226   2.353   2.264   1.938 -0.5898 -0.7572  0.3362
 8088TIP3   OH224227   3.288   1.551   3.694 -0.3162 -0.3890  0.5193
 8088TIP3    H124228   3.224   1.605   3.648  0.3020 -0.2984 -0.2410
 8088TIP3    H224229   3.308   1.480   3.634 -0.3964 -0.9497  1.1345
 8089TIP3   OH224230   6.906   1.192   2.002  0.3241  0.0411  0.2252
 8089TIP3    H124231   6.884   1.216   1.912  1.3723 -1.3754 -0.4650
 8089TIP3    H224232   6.926   1.098   1.996 -0.8489 -0.3735  2.1919
 8090TIP3   OH224233   2.830   6.326   2.114  0.2771  0.5836 -0.0066
 8090TIP3    H124234   2.854   6.328   2.021 -0.2856 -3.7230 -0.4400
 8090TIP3    H224235   2.735   6.333   2.115  0.2912  0.7445  0.2581
 8091TIP3   OH224236   7.154   1.569   0.556  0.3934  0.2576  0.4191
 8091TIP3    H124237   7.104   1.493   0.586  0.9069  0.4050  1.7315
 8091TIP3    H224238   7.096   1.643   0.571  0.3365  0.2520  0.2357
 8092TIP3   OH224239   4.403   5.052   0.758  0.4499 -0.1896  0.2720
 8092TIP3    H124240   4.492   5.041   0.792  0.3485  0.2846  0.6957
 8092TIP3    H224241   4.366   5.123   0.810 -0.5768 -1.1397  0.8656
 8093TIP3   OH224242   1.012   4.838   1.343  0.0986 -0.0033 -0.2187
 8093TIP3    H124243   1.073   4.874   1.408 -0.7546 -1.3906  1.4575
 8093TIP3    H224244   0.926   4.850   1.383 -0.7301  1.3731 -2.2661
 8094TIP3   OH224245   3.154   4.155   4.322 -0.4159 -0.1442  0.4586
 8094TIP3    H124246   3.187   4.093   4.387  0.6383  0.6756  0.7309
 8094TIP3    H224247   3.207   4.234   4.334 -0.6410  0.2558 -0.9597
 8095TIP3   OH224248   6.308   6.645   5.228 -0.0331 -0.2705 -0.6432
 8095TIP3    H124249   6.361   6.713   5.269  0.8485 -0.2087 -1.8277
 8095TIP3    H224250   6.338   6.563   5.267  1.9854 -0.3903 -2.2498
 8096TIP3   OH224251   0.610   2.062   1.115  0.0983 -0.1256 -0.0115
 8096TIP3    H124252   0.524   2.059   1.074 -0.6357  0.6895  1.3693
 8096TIP3    H224253   0.668   2.096   1.047 -0.3111 -2.1010 -1.4496
 8097TIP3   OH224254   6.226   2.326   4.724  0.4339  0.1306 -0.0673
 8097TIP3    H124255   6.212   2.314   4.818  1.0900  1.1982  0.1953
 8097TIP3    H224256   6.170   2.400   4.701  0.9915  0.4920 -0.2939
 8098TIP3   OH224257   5.386   6.159   0.046  0.4739  0.4301 -0.1356
 8098TIP3    H124258   5.293   6.180   0.037  0.1908 -0.4888  0.5119
 8098TIP3    H224259   5.389   6.063   0.044  1.4548  0.4647 -0.5458
 8099TIP3   OH224260   6.513   6.076   2.709  0.6736 -0.4032 -0.4242
 8099TIP3    H124261   6.420   6.058   2.695  0.3302 -0.2991  1.3921
 8099TIP3    H224262   6.514   6.155   2.763  1.7701 -0.9436  0.3786
 8100TIP3   OH224263   1.443   1.974   1.447 -0.2044  0.2606 -0.9498
 8100TIP3    H124264   1.401   1.919   1.514 -0.5720  0.2351 -1.1965
 8100TIP3    H224265   1.488   1.911   1.390  1.6203  0.3872  0.2749
 8101TIP3   OH224266   0.099   6.384   2.816 -0.8440  0.6977 -0.3238
 8101TIP3    H124267   0.053   6.350   2.892  0.4210  0.5736  0.4095
 8101TIP3    H224268   0.135   6.307   2.773  1.3868  0.9766  0.9184
 8102TIP3   OH224269   6.899   2.385   4.359 -0.9390  0.0170  0.3054
 8102TIP3    H124270   6.896   2.459   4.420 -0.3431 -0.5764  1.0633
 8102TIP3    H224271   6.991   2.358   4.358 -1.0034 -0.1959 -0.6033
 8103TIP3   OH224272   3.719   2.358   0.266 -0.1230  0.1471  0.7786
 8103TIP3    H124273   3.717   2.419   0.339  1.3900  0.6951  0.4106
 8103TIP3    H224274   3.709   2.412   0.188 -1.2288 -0.3738  0.5415
 8104TIP3   OH224275   1.425   3.064   1.913 -0.1217  0.0827 -0.1468
 8104TIP3    H124276   1.486   2.992   1.934  0.7915  0.9047  0.0793
 8104TIP3    H224277   1.407   3.106   1.997 -0.3076  0.3890 -0.3390
 8105TIP3   OH224278   1.924   5.725   5.692 -0.5396  0.3557 -0.0237
 8105TIP3    H124279   1.871   5.762   5.622 -1.1266  0.1650  0.3062
 8105TIP3    H224280   2.014   5.753   5.674 -0.4643 -0.7799 -1.5897
 8106TIP3   OH224281   4.234   4.288   3.656 -0.0215 -0.1219  0.0722
 8106TIP3    H124282   4.179   4.366   3.664 -0.2188 -0.2066 -0.4682
 8106TIP3    H224283   4.295   4.309   3.586  0.0730 -0.3704  0.0801
 8107TIP3   OH224284   5.444   6.322   3.744 -0.3215  0.2315  0.1379
 8107TIP3    H124285   5.374   6.271   3.785 -1.5290  1.3048 -0.5010
 8107TIP3    H224286   5.518   6.262   3.741 -0.6900 -0.4164  2.3290
 8108TIP3   OH224287   6.485   3.667   4.868 -0.3756  0.5789  0.3976
 8108TIP3    H124288   6.447   3.741   4.915 -0.3109  1.4885 -0.9304
 8108TIP3    H224289   6.411   3.609   4.850 -0.7720  1.2303 -0.1601
 8109TIP3   OH224290   0.587   1.232   3.178  0.5356 -0.1439 -0.3823
 8109TIP3    H124291   0.599   1.270   3.090  0.8165  0.1493 -0.2211
 8109TIP3    H224292   0.644   1.285   3.234 -0.8930  0.7453  0.2635
 8110TIP3   OH224293   1.901   6.430   4.924 -0.4766 -0.1432 -0.1979
 8110TIP3    H124294   1.968   6.410   4.989 -0.1463 -0.0786 -0.5131
 8110TIP3    H224295   1.950   6.466   4.850 -0.6913 -1.5818 -1.0655
 8111TIP3   OH224296   2.145   4.712   0.884  0.1672 -0.2796  0.4282
 8111TIP3    H124297   2.129   4.639   0.823 -0.6579 -0.4631  0.8452
 8111TIP3    H224298   2.103   4.684   0.965 -2.2342  1.5948 -0.0317
 8112TIP3   OH224299   3.107   3.198   4.367 -0.3065 -0.0272 -0.0375
 8112TIP3    H124300   3.093   3.149   4.286  0.9597 -0.4763 -0.0036
 8112TIP3    H224301   3.071   3.285   4.348 -1.0206 -0.4469 -0.6901
 8113TIP3   OH224302   4.391   5.143   1.498  0.1011 -0.0954  0.2138
 8113TIP3    H124303   4.453   5.075   1.471  0.1943  0.2007 -0.3286
 8113TIP3    H224304   4.315   5.094   1.530  0.8917 -0.4778  1.6039
 8114TIP3   OH224305   2.229   1.708   2.272 -0.1257 -0.2207 -0.0056
 8114TIP3    H124306   2.244   1.637   2.335 -0.0018  0.1051  0.3378
 8114TIP3    H224307   2.289   1.690   2.200 -1.7538 -1.8048 -1.0742
 8115TIP3   OH224308   3.340   3.736   5.766 -0.5465 -0.5633  0.9513
 8115TIP3    H124309   3.388   3.751   5.847 -1.9337  2.6629  1.3451
 8115TIP3    H224310   3.290   3.656   5.782  1.3790 -1.6018  2.1140
 8116TIP3   OH224311   4.783   0.687   2.900 -0.1542 -0.4394 -0.2989
 8116TIP3    H124312   4.697   0.721   2.873  0.3365  0.1463 -1.1684
 8116TIP3    H224313   4.767   0.594   2.917 -0.9184 -0.3830 -0.6378
 8117TIP3   OH224314   0.757   4.553   2.425  0.0589 -0.2703 -0.2115
 8117TIP3    H124315   0.741   4.459   2.419  1.7345 -0.5704 -0.5222
 8117TIP3    H224316   0.685   4.587   2.479  0.7573 -2.1166  2.0511
 8118TIP3   OH224317   3.675   2.537   2.996  0.3770  0.4068 -0.2204
 8118TIP3    H124318   3.722   2.586   2.929  0.2754  0.8368  0.0200
 8118TIP3    H224319   3.735   2.533   3.070  0.3721  0.1972 -0.2270
 8119TIP3   OH224320   4.062   2.784   4.838 -0.2849 -0.2539 -0.9862
 8119TIP3    H124321   4.122   2.859   4.834  1.5879 -1.6555 -0.1933
 8119TIP3    H224322   4.004   2.796   4.762  0.7640  1.3234 -1.5876
 8120TIP3   OH224323   5.083   2.452   3.145 -0.0632 -0.3044  0.2887
 8120TIP3    H124324   5.177   2.433   3.150 -0.1814 -0.9267  0.2480
 8120TIP3    H224325   5.044   2.400   3.216 -0.5720 -1.4015 -0.7579
 8121TIP3   OH224326   4.877   5.108   1.263 -0.8132 -0.2447  0.8993
 8121TIP3    H124327   4.868   5.050   1.339  0.7794  0.9807  2.0996
 8121TIP3    H224328   4.843   5.192   1.294  1.6410  0.7953  0.9689
 8122TIP3   OH224329   2.710   2.073   2.787 -0.1343  0.5363  0.6310
 8122TIP3    H124330   2.707   2.168   2.780  0.5436  0.5844  0.9026
 8122TIP3    H224331   2.757   2.045   2.708  1.0489  0.5504  1.3066
 8123TIP3   OH224332   5.385   2.812   0.427 -0.3950 -0.2623 -0.2874
 8123TIP3    H124333   5.322   2.767   0.483 -0.2257 -1.5861 -1.1253
 8123TIP3    H224334   5.356   2.794   0.338  0.1909  0.5598 -0.6643
 8124TIP3   OH224335   2.363   5.222   1.653  0.1549 -0.2659 -0.0305
 8124TIP3    H124336   2.331   5.179   1.732 -0.7880  0.7923  0.1926
 8124TIP3    H224337   2.283   5.243   1.604  0.6528  0.4032 -0.5638
 8125TIP3   OH224338   0.576   4.925   3.173 -0.1859  0.0846  0.2821
 8125TIP3    H124339   0.574   4.836   3.138 -2.8738 -0.1843  0.9316
 8125TIP3    H224340   0.650   4.966   3.129 -0.1517 -1.8288 -1.6110
 8126TIP3   OH224341   1.628   4.297   4.517  0.0408 -0.4877 -0.3488
 8126TIP3    H124342   1.621   4.377   4.464  0.0052 -0.1598  0.1424
 8126TIP3    H224343   1.648   4.228   4.454 -1.9910 -0.4754 -1.0910
 8127TIP3   OH224344  -0.017   6.011   4.585  0.2200 -0.2809  0.2409
 8127TIP3    H124345  -0.014   5.922   4.621  2.4543 -0.3501  0.0454
 8127TIP3    H224346   0.060   6.016   4.529 -0.6798  1.3359 -0.9197
 8128TIP3   OH224347   2.186   5.816   4.600 -0.6749 -0.0169 -0.3758
 8128TIP3    H124348   2.171   5.811   4.694  0.8968 -0.0042 -0.0953
 8128TIP3    H224349   2.254   5.750   4.583 -1.0892 -0.1742 -1.5433
 8129TIP3   OH224350   4.513   2.166   2.720 -0.1306 -0.3479 -0.3914
 8129TIP3    H124351   4.421   2.143   2.729 -0.2074  0.3577  1.0399
 8129TIP3    H224352   4.529   2.227   2.793  1.1751  0.4310 -1.2891
 8130TIP3   OH224353   0.231   0.833   3.988 -0.1217  0.5333  0.0465
 8130TIP3    H124354   0.183   0.765   4.034 -0.4280 -0.8001 -2.1223
 8130TIP3    H224355   0.300   0.786   3.941 -0.2350  1.7207 -1.3691
 8131TIP3   OH224356   1.100   1.733   4.142  0.0081  0.1464 -0.4251
 8131TIP3    H124357   1.023   1.764   4.190  0.7553  2.0442 -0.3457
 8131TIP3    H224358   1.079   1.751   4.050  0.2697  0.5102 -0.4174
 8132TIP3   OH224359   3.885   6.235   4.623  0.4605 -0.4122  0.2691
 8132TIP3    H124360   3.902   6.232   4.717 -2.4211  0.9890  0.9457
 8132TIP3    H224361   3.790   6.247   4.616  0.8033  1.6318 -2.7721
 8133TIP3   OH224362   4.139   2.203   5.807 -0.4301  0.1981 -0.4425
 8133TIP3    H124363   4.195   2.181   5.882  0.3125 -1.2345 -1.3706
 8133TIP3    H224364   4.112   2.118   5.771 -1.1170  0.8552 -1.5513
 8134TIP3   OH224365   2.317   3.406   3.906 -0.2820  0.1823 -0.4307
 8134TIP3    H124366   2.324   3.408   3.811 -0.3595  2.4403 -0.4403
 8134TIP3    H224367   2.391   3.352   3.934 -0.4270 -0.7598 -1.7602
 8135TIP3   OH224368   7.110   6.520   1.139  0.0094  0.4413 -0.1385
 8135TIP3    H124369   7.199   6.509   1.172 -0.0718  2.0647  0.7038
 8135TIP3    H224370   7.071   6.433   1.149  0.7987  0.2334  1.6594
 8136TIP3   OH224371   5.612   2.359   4.344  0.4670  0.3161  0.1859
 8136TIP3    H124372   5.567   2.350   4.429  1.2768  2.0197  0.8459
 8136TIP3    H224373   5.552   2.411   4.291 -0.0928 -0.8526 -0.3564
 8137TIP3   OH224374   4.491   0.112   0.335  0.1411  0.0284 -0.6410
 8137TIP3    H124375   4.564   0.137   0.391  0.2327 -0.3439 -0.5928
 8137TIP3    H224376   4.431   0.187   0.339  0.1266 -0.0080 -0.0056
 8138TIP3   OH224377   1.384   2.770   5.236  0.0459 -0.6069 -0.3575
 8138TIP3    H124378   1.423   2.837   5.291 -0.0759  1.5415 -2.6897
 8138TIP3    H224379   1.457   2.716   5.207  0.3489 -0.6303  0.4460
 8139TIP3   OH224380   6.922   3.195   1.775 -0.3879  0.0198 -0.0829
 8139TIP3    H124381   6.955   3.274   1.731 -0.6972  0.7355  0.9179
 8139TIP3    H224382   6.964   3.122   1.730  3.9071  0.8499  2.0620
 8140TIP3   OH224383   7.062   4.025   5.327 -0.0166 -0.3288 -0.2528
 8140TIP3    H124384   7.068   4.074   5.409  0.8464 -0.5441 -0.1740
 8140TIP3    H224385   6.970   4.031   5.302  0.1140  1.6375 -0.4332
 8141TIP3   OH224386   4.613   2.154   1.271  0.0800  0.9175  0.2616
 8141TIP3    H124387   4.697   2.198   1.266  0.1606  0.7970  0.5685
 8141TIP3    H224388   4.553   2.220   1.307 -0.2252  1.3831 -1.0214
 8142TIP3   OH224389   4.004   2.971   1.264 -0.1368 -0.2954  0.1001
 8142TIP3    H124390   3.967   2.886   1.290 -1.1384 -0.4512 -1.6272
 8142TIP3    H224391   4.017   2.963   1.169 -1.1365  1.7795 -0.2711
 8143TIP3   OH224392   5.651   0.045   2.581 -0.2374 -0.6656  0.3446
 8143TIP3    H124393   5.745   0.032   2.575 -0.3353 -0.8571 -1.7143
 8143TIP3    H224394   5.632   0.115   2.518 -1.6202 -1.6873 -0.4457
 8144TIP3   OH224395   5.152   1.293   1.611 -0.0506 -0.3926  0.5884
 8144TIP3    H124396   5.057   1.285   1.621 -0.0143 -1.6183  0.1022
 8144TIP3    H224397   5.169   1.269   1.520  0.7018  0.0495  0.6062
 8145TIP3   OH224398   6.581   2.584   5.158 -0.2062  0.1939  0.3469
 8145TIP3    H124399   6.566   2.596   5.064 -0.0799  2.8586  0.5865
 8145TIP3    H224400   6.664   2.627   5.175 -0.0143 -0.6374  1.6294
 8146TIP3   OH224401   2.858   1.082   5.389 -0.6334 -0.7117 -0.1579
 8146TIP3    H124402   2.792   1.033   5.438 -1.1364 -0.7260 -0.8382
 8146TIP3    H224403   2.811   1.117   5.313 -0.0930  0.1568 -0.1020
 8147TIP3   OH224404   0.443   5.401   1.251  0.7836  0.0841 -0.0025
 8147TIP3    H124405   0.480   5.418   1.338  0.9549  0.1669 -0.0919
 8147TIP3    H224406   0.510   5.349   1.206  0.8976  0.4401 -0.2504
 8148TIP3   OH224407   0.798   6.608   0.421 -0.3807 -0.4296 -0.0737
 8148TIP3    H124408   0.750   6.525   0.416  0.0092 -0.9537  3.0962
 8148TIP3    H224409   0.730   6.675   0.427 -0.6940 -0.7943  0.4430
 8149TIP3   OH224410   4.946   4.821   5.850 -0.1169  0.3900 -0.9296
 8149TIP3    H124411   4.920   4.906   5.887  2.0683  0.9750 -0.5743
 8149TIP3    H224412   5.039   4.814   5.871 -0.3172 -2.2727 -0.6937
 8150TIP3   OH224413   4.922   6.225   2.535  0.1548  0.0163  1.1866
 8150TIP3    H124414   4.926   6.315   2.569  0.7470  1.0938 -1.5054
 8150TIP3    H224415   4.914   6.236   2.440  2.1245 -2.7863  0.5904
 8151TIP3   OH224416   6.409   0.997   1.989  0.1086  0.2827  0.4437
 8151TIP3    H124417   6.345   1.059   1.956  0.1769  0.4521  0.6324
 8151TIP3    H224418   6.482   1.051   2.020  0.6972  0.0638 -0.5174
 8152TIP3   OH224419   4.370   6.437   4.240  0.0171 -0.1365 -0.4780
 8152TIP3    H124420   4.459   6.450   4.274  0.6279 -0.0182 -2.0510
 8152TIP3    H224421   4.379   6.445   4.145 -1.6198 -0.5033 -0.6927
 8153TIP3   OH224422   4.702   2.860   4.806  0.0333 -0.4635  0.1046
 8153TIP3    H124423   4.767   2.902   4.751  1.0605 -1.2253  0.7069
 8153TIP3    H224424   4.752   2.802   4.863 -1.0801 -0.3831  1.2147
 8154TIP3   OH224425   1.402   3.883   0.385 -0.0388 -0.0937  0.1891
 8154TIP3    H124426   1.375   3.795   0.359  0.5113 -0.6708  1.4753
 8154TIP3    H224427   1.407   3.879   0.481 -1.0321  1.6467  0.3502
 8155TIP3   OH224428   1.259   6.169   4.362  0.2784 -0.1890  0.1334
 8155TIP3    H124429   1.193   6.236   4.345  0.5227  0.5383  1.8298
 8155TIP3    H224430   1.266   6.120   4.280 -1.7159  0.2736 -0.3661
 8156TIP3   OH224431   6.083   1.076   3.974  0.0842 -0.2537  0.4824
 8156TIP3    H124432   6.018   1.132   4.015  0.3897  0.3907  0.0977
 8156TIP3    H224433   6.100   1.008   4.039 -0.6012 -0.1480  0.7813
 8157TIP3   OH224434   7.147   1.146   3.977  0.5889  0.3267  0.1196
 8157TIP3    H124435   7.115   1.222   3.929 -0.1972  0.2792  0.5524
 8157TIP3    H224436   7.202   1.100   3.914  0.0997  0.6170 -0.5372
 8158TIP3   OH224437   4.096   5.424   2.063  0.4377  0.0419 -0.1592
 8158TIP3    H124438   4.163   5.471   2.113  1.4429  1.0675 -2.3317
 8158TIP3    H224439   4.145   5.364   2.007 -0.5361 -0.0647 -0.9292
 8159TIP3   OH224440   6.358   1.225   5.750  0.0203 -0.1289  0.3082
 8159TIP3    H124441   6.346   1.317   5.773 -0.0974 -0.0188 -0.1783
 8159TIP3    H224442   6.435   1.197   5.799 -0.8625 -0.2088  1.7087
 8160TIP3   OH224443   6.297   6.368   1.126  0.1027 -0.5656 -0.1011
 8160TIP3    H124444   6.210   6.388   1.092 -0.0159 -0.4832  0.2425
 8160TIP3    H224445   6.303   6.419   1.207  1.4430  1.4690 -1.3678
 8161TIP3   OH224446   0.244   1.450   5.518 -0.5810 -0.7116  0.5657
 8161TIP3    H124447   0.292   1.401   5.452 -0.0686 -0.8936  1.0715
 8161TIP3    H224448   0.176   1.495   5.469 -0.6103 -1.3540 -0.0051
 8162TIP3   OH224449   2.893   3.016   2.597  0.5208 -0.3111  0.4055
 8162TIP3    H124450   2.815   3.024   2.653  0.4438  0.1233  0.2439
 8162TIP3    H224451   2.947   3.091   2.622  0.8040 -0.5106  0.3874
 8163TIP3   OH224452   5.949   6.646   4.120 -0.3672  0.2375 -0.5027
 8163TIP3    H124453   6.012   6.668   4.189 -1.1857 -0.7519  0.5845
 8163TIP3    H224454   5.991   6.677   4.039  1.3978 -0.1401  0.2165
 8164TIP3   OH224455   5.906   5.474   4.984  0.1039  0.1107  0.1077
 8164TIP3    H124456   5.861   5.555   4.961  0.0547  0.1177  0.2281
 8164TIP3    H224457   5.870   5.409   4.923  1.0779  0.4417 -0.8449
 8165TIP3   OH224458   5.401   2.418   1.520 -0.3028  0.0517 -0.1367
 8165TIP3    H124459   5.322   2.459   1.484 -1.4104 -0.9325  1.0802
 8165TIP3    H224460   5.388   2.324   1.508  1.9280 -0.0782 -2.3162
 8166TIP3   OH224461   3.551   0.086   3.656 -0.0350  0.3259 -0.1700
 8166TIP3    H124462   3.503   0.169   3.660 -2.0811 -0.7768  3.4180
 8166TIP3    H224463   3.484   0.021   3.635  0.9165 -0.7454  0.0186
 8167TIP3   OH224464   5.696   1.639   1.221 -0.0376  0.3382  0.1994
 8167TIP3    H124465   5.755   1.660   1.293 -1.4894  0.1661  1.5099
 8167TIP3    H224466   5.751   1.596   1.155  1.3265  0.4549  1.2320
 8168TIP3   OH224467   4.275   6.051   3.890  0.5060 -0.1173 -0.2252
 8168TIP3    H124468   4.239   6.106   3.820  0.4107  1.5479  1.0598
 8168TIP3    H224469   4.349   6.006   3.850 -0.0412  0.1790 -1.6084
 8169TIP3   OH224470   4.778   4.042   2.444 -0.0165  0.4540 -0.0651
 8169TIP3    H124471   4.764   3.948   2.455  1.5400  0.3784  1.7451
 8169TIP3    H224472   4.746   4.060   2.356 -1.0169 -1.6264 -0.1969
 8170TIP3   OH224473   2.139   6.581   3.734  0.4585 -0.4148 -0.2748
 8170TIP3    H124474   2.059   6.596   3.783 -0.0352 -0.2652 -1.1046
 8170TIP3    H224475   2.178   6.668   3.724  0.3242 -0.3820 -0.5286
 8171TIP3   OH224476   4.750   0.582   3.275  0.0731  0.2236 -0.1085
 8171TIP3    H124477   4.784   0.497   3.247  0.4052  0.4420 -0.3869
 8171TIP3    H224478   4.677   0.561   3.333  1.2206 -0.2940  1.2137
 8172TIP3   OH224479   2.724   6.216   3.538 -0.1576  0.4530  0.0216
 8172TIP3    H124480   2.812   6.188   3.561  0.3679  1.8119 -0.2416
 8172TIP3    H224481   2.667   6.158   3.589  0.8153 -1.5170 -1.0120
 8173TIP3   OH224482   3.593   4.446   5.808  0.4058 -0.2059  0.0358
 8173TIP3    H124483   3.498   4.435   5.801  0.2725 -0.9139  2.2905
 8173TIP3    H224484   3.604   4.524   5.861  1.0504 -0.7560  0.7287
 8174TIP3   OH224485   3.341   0.665   5.395 -0.0791 -0.0850  0.1800
 8174TIP3    H124486   3.301   0.602   5.336  1.6127 -0.6325 -0.4369
 8174TIP3    H224487   3.419   0.621   5.428  0.2030  1.0477  1.0938
 8175TIP3   OH224488   6.384   4.157   2.103  0.0910  0.0135 -0.3752
 8175TIP3    H124489   6.360   4.108   2.182  1.6668 -0.3724 -0.1041
 8175TIP3    H224490   6.379   4.092   2.032 -0.5810  0.1735 -0.4807
 8176TIP3   OH224491   2.977   0.934   1.825  0.1445 -0.5644  0.1293
 8176TIP3    H124492   2.945   1.014   1.784  0.6940 -0.3726  0.0654
 8176TIP3    H224493   3.068   0.953   1.847  0.5123 -1.4207 -0.5742
 8177TIP3   OH224494   3.551   1.956   2.213  0.2880  0.2057  0.0314
 8177TIP3    H124495   3.532   1.872   2.254 -0.1906 -0.2452 -1.0653
 8177TIP3    H224496   3.641   1.948   2.182 -0.6660 -1.1401 -2.7924
 8178TIP3   OH224497   2.584   6.046   4.525 -0.1716  0.1803 -0.7117
 8178TIP3    H124498   2.529   6.108   4.571 -0.9949  0.3198 -1.8221
 8178TIP3    H224499   2.595   6.084   4.438  1.3672 -0.0473 -0.6392
 8179TIP3   OH224500   6.854   4.210   4.917  0.3090  0.3476 -0.1856
 8179TIP3    H124501   6.924   4.163   4.964  0.0854 -1.3250 -1.4360
 8179TIP3    H224502   6.885   4.300   4.913  1.3429  0.0967  1.2323
 8180TIP3   OH224503   5.424   1.716   3.670 -0.2648 -0.0229 -0.1642
 8180TIP3    H124504   5.344   1.761   3.698 -1.3420 -0.2670 -2.6215
 8180TIP3    H224505   5.492   1.783   3.675 -1.2287  1.0408 -0.8648
 8181TIP3   OH224506   4.641   5.927   2.756  0.2075 -0.6770  0.1524
 8181TIP3    H124507   4.627   6.016   2.724 -0.9970 -0.6483  0.7133
 8181TIP3    H224508   4.563   5.880   2.730 -0.4203 -0.8745  2.2392
 8182TIP3   OH224509   0.385   1.473   1.053  0.0324 -0.2367  0.0997
 8182TIP3    H124510   0.296   1.450   1.079 -0.3422  0.8684 -0.1552
 8182TIP3    H224511   0.407   1.409   0.986 -0.1234 -1.2341  0.9662
 8183TIP3   OH224512   2.740   6.468   5.059 -0.2458  0.0149 -0.2251
 8183TIP3    H124513   2.814   6.442   5.114 -0.2068  3.0152  1.3352
 8183TIP3    H224514   2.732   6.562   5.073 -4.5583 -0.1985 -0.0479
 8184TIP3   OH224515   4.054   5.457   0.959 -0.1782 -0.2826 -0.4373
 8184TIP3    H124516   4.114   5.468   1.032  1.0904  0.3262 -1.5283
 8184TIP3    H224517   4.109   5.427   0.887 -1.6116 -2.1611 -0.8230
 8185TIP3   OH224518   2.985   0.284   2.459  0.4079 -0.1630  0.3156
 8185TIP3    H124519   2.952   0.195   2.449  0.9885 -0.2276 -1.4144
 8185TIP3    H224520   2.906   0.336   2.476 -0.2897 -0.6865 -1.0909
 8186TIP3   OH224521   4.692   3.127   3.162 -0.1001  0.0124 -0.0519
 8186TIP3    H124522   4.675   3.063   3.231  1.0158 -0.9395 -0.6239
 8186TIP3    H224523   4.605   3.149   3.127 -0.4293 -2.5862 -1.0596
 8187TIP3   OH224524   1.889   5.066   1.912 -0.1371 -0.2445  0.3874
 8187TIP3    H124525   1.888   4.990   1.853  0.2974 -0.6816  0.9220
 8187TIP3    H224526   1.799   5.098   1.913 -0.0491  0.0943 -0.9179
 8188TIP3   OH224527   5.870   2.241   0.662  0.1737 -0.1251 -0.4369
 8188TIP3    H124528   5.896   2.318   0.713 -0.2603 -0.3170  0.0842
 8188TIP3    H224529   5.947   2.184   0.663 -0.1246 -0.5303  0.7913
 8189TIP3   OH224530   2.068   2.207   1.044  0.1417 -0.0203 -0.0917
 8189TIP3    H124531   2.152   2.163   1.029  0.4467  0.6064 -0.2268
 8189TIP3    H224532   2.090   2.282   1.098 -0.3984 -0.0905  0.2286
 8190TIP3   OH224533   0.659   2.170   5.697  0.3236  0.0271  0.1014
 8190TIP3    H124534   0.646   2.173   5.792 -3.3409 -2.0746 -0.1307
 8190TIP3    H224535   0.640   2.259   5.667 -1.7429  0.0145  1.1637
 8191TIP3   OH224536   2.658   4.753   0.078  0.2807 -0.0692  0.4727
 8191TIP3    H124537   2.679   4.818   0.011 -0.6154 -0.1490  0.1008
 8191TIP3    H224538   2.583   4.789   0.124 -1.4290 -1.6347 -0.9397
 8192TIP3   OH224539   6.365   4.193   2.838 -0.1429  0.2617 -0.0567
 8192TIP3    H124540   6.402   4.212   2.752 -1.2235  1.3548 -0.3156
 8192TIP3    H224541   6.441   4.174   2.893  0.4629 -2.1633 -1.6062
 8193TIP3   OH224542   0.814   1.744   5.765 -0.6317  0.6504  0.4492
 8193TIP3    H124543   0.780   1.661   5.731  0.9415 -0.0515  0.4822
 8193TIP3    H224544   0.776   1.811   5.708 -0.7513 -0.2184 -0.5267
 8194TIP3   OH224545   4.987   1.423   5.536  0.8190 -0.2146 -0.2436
 8194TIP3    H124546   4.950   1.411   5.623  1.5294 -0.1780  0.0708
 8194TIP3    H224547   5.028   1.339   5.515  0.9182 -0.1250 -0.4093
 8195TIP3   OH224548   4.371   6.558   3.987 -0.0339  0.7947  0.2652
 8195TIP3    H124549   4.404   6.478   3.947 -1.5976 -0.0788  0.6156
 8195TIP3    H224550   4.381   6.626   3.920  0.3785  0.0763 -0.4032
 8196TIP3   OH224551   5.324   1.029   2.691 -0.1564 -0.3052  0.6490
 8196TIP3    H124552   5.253   0.993   2.640  1.1403 -1.3507 -0.4758
 8196TIP3    H224553   5.351   1.108   2.643  0.3875 -0.7224  0.2537
 8197TIP3   OH224554   5.350   5.963   0.828  0.6282 -0.5650 -0.1720
 8197TIP3    H124555   5.277   6.010   0.868  1.4728  0.7954 -0.1363
 8197TIP3    H224556   5.311   5.887   0.786 -0.8038  0.1687 -0.2156
 8198TIP3   OH224557   6.697   2.913   5.202 -0.0716  0.3126  0.3712
 8198TIP3    H124558   6.708   2.961   5.120 -0.6554  0.4026  0.3407
 8198TIP3    H224559   6.605   2.927   5.226 -0.5107 -1.4962 -0.0871
 8199TIP3   OH224560   0.675   0.116   5.165 -1.0397  0.2831  0.1810
 8199TIP3    H124561   0.629   0.115   5.081 -1.7652 -0.8072  0.5688
 8199TIP3    H224562   0.608   0.091   5.229  0.1555 -1.8601  0.7030
 8200TIP3   OH224563   6.620   0.332   0.616 -0.1452  0.3608  0.3663
 8200TIP3    H124564   6.704   0.337   0.570 -0.3994  1.5620  0.0183
 8200TIP3    H224565   6.583   0.420   0.609 -1.9073 -0.3984 -0.3637
 8201TIP3   OH224566   4.756   0.810   0.360  0.3001 -0.0742  0.3774
 8201TIP3    H124567   4.749   0.723   0.398  1.5032  0.4073  1.7929
 8201TIP3    H224568   4.793   0.796   0.273 -0.5705 -1.0538  0.1608
 8202TIP3   OH224569   7.177   3.424   0.192  0.5212 -0.1956 -0.2366
 8202TIP3    H124570   7.111   3.367   0.153 -0.6530  0.8102  0.2308
 8202TIP3    H224571   7.257   3.405   0.143  0.7535 -3.7615  1.2179
 8203TIP3   OH224572   1.069   5.284   4.971 -0.0370 -0.7919 -0.1808
 8203TIP3    H124573   1.117   5.206   5.000 -0.5505 -0.9007  0.4117
 8203TIP3    H224574   1.009   5.251   4.904 -1.8678 -1.3722  1.6534
 8204TIP3   OH224575   6.366   1.476   5.548 -0.0645 -0.0229  0.6095
 8204TIP3    H124576   6.395   1.531   5.621  1.2951  0.3673 -0.1739
 8204TIP3    H224577   6.295   1.526   5.507 -0.3545  0.0852  1.2288
 8205TIP3   OH224578   1.484   3.851   2.285 -0.2830 -0.4577 -0.1022
 8205TIP3    H124579   1.522   3.853   2.372 -0.4272 -0.0695 -0.0463
 8205TIP3    H224580   1.520   3.771   2.244  0.7248 -0.0069 -0.1218
 8206TIP3   OH224581   6.096   1.405   2.318  0.3021  0.5367 -0.2923
 8206TIP3    H124582   6.046   1.484   2.299 -0.4739 -0.0946 -0.9319
 8206TIP3    H224583   6.139   1.423   2.402 -2.5792  0.3946  1.3570
 8207TIP3   OH224584   5.838   2.544   1.743  0.7642 -0.3181  0.4877
 8207TIP3    H124585   5.771   2.477   1.736 -0.4616  0.9677 -0.8338
 8207TIP3    H224586   5.910   2.512   1.688 -0.1190 -0.2395 -0.7528
 8208TIP3   OH224587   3.888   6.459   1.874 -0.1903 -0.2441 -0.0140
 8208TIP3    H124588   3.918   6.509   1.798 -1.6497  0.2748 -0.2626
 8208TIP3    H224589   3.887   6.368   1.844 -1.3629  0.0247 -0.8318
 8209TIP3   OH224590   5.441   5.471   5.784  0.2781 -0.2533 -0.6800
 8209TIP3    H124591   5.516   5.412   5.792 -0.4059 -1.2568 -1.5006
 8209TIP3    H224592   5.423   5.498   5.874  0.7036 -1.1650 -0.3055
 8210TIP3   OH224593   6.496   0.833   0.222 -0.2797 -0.1800 -0.6788
 8210TIP3    H124594   6.471   0.915   0.264 -0.2942 -0.1797 -0.6879
 8210TIP3    H224595   6.585   0.847   0.190 -0.0901 -0.3389 -0.2293
 8211TIP3   OH224596   6.008   5.034   4.193  0.1205 -0.1516  0.2079
 8211TIP3    H124597   6.069   5.028   4.119 -2.5989  2.4130 -2.5819
 8211TIP3    H224598   5.934   4.978   4.167 -1.1244  1.2323  0.6555
 8212TIP3   OH224599   3.025   6.572   4.462 -0.1284 -0.0896  0.3784
 8212TIP3    H124600   3.067   6.626   4.395 -1.3107 -0.2709 -0.5549
 8212TIP3    H224601   3.094   6.513   4.492 -0.1176 -1.7281 -2.5127
 8213TIP3   OH224602   2.684   6.151   5.704  0.1635 -0.3260 -0.1701
 8213TIP3    H124603   2.772   6.159   5.741  0.4742 -0.3259 -0.8974
 8213TIP3    H224604   2.679   6.219   5.637 -0.6860  0.2116  0.4144
 8214TIP3   OH224605   1.683   2.931   1.949 -0.2603 -0.2097  0.6487
 8214TIP3    H124606   1.691   2.884   2.033  1.6226 -1.0638  0.0391
 8214TIP3    H224607   1.703   2.865   1.883  3.0655  1.5005 -0.2324
 8215TIP3   OH224608   6.839   4.814   1.382  0.2277  0.4974  0.3049
 8215TIP3    H124609   6.830   4.876   1.309  0.9254  1.0739  0.6953
 8215TIP3    H224610   6.894   4.860   1.446  0.9660 -0.6209  0.4987
 8216TIP3   OH224611   5.006   0.496   0.342 -0.6723  0.3603  0.2566
 8216TIP3    H124612   4.912   0.489   0.362 -1.0418 -0.7477 -1.5836
 8216TIP3    H224613   5.022   0.591   0.338 -2.2801  0.6167 -1.5588
 8217TIP3   OH224614   7.204   2.796   1.080 -0.5472 -0.3838  0.0341
 8217TIP3    H124615   7.115   2.779   1.049 -1.0753 -0.1794  1.3698
 8217TIP3    H224616   7.196   2.874   1.136  1.1361  2.0605 -2.8114
 8218TIP3   OH224617   6.888   4.696   3.040 -0.4078  0.9487  0.3245
 8218TIP3    H124618   6.883   4.608   3.001  1.0487  1.0486 -0.1279
 8218TIP3    H224619   6.907   4.681   3.132 -0.8922  0.7893  0.4050
 8219TIP3   OH224620   0.261   6.200   2.666 -0.2719  0.5759  0.3253
 8219TIP3    H124621   0.349   6.220   2.698 -1.6164  1.1235  4.1991
 8219TIP3    H224622   0.254   6.105   2.673  0.0890  0.4920 -0.3437
 8220TIP3   OH224623   3.579   1.721   2.396  0.2055  0.6488 -0.4641
 8220TIP3    H124624   3.486   1.723   2.422 -0.0972 -0.2137 -1.4210
 8220TIP3    H224625   3.623   1.773   2.463 -0.8658  0.4144  0.4581
 8221TIP3   OH224626   6.257   1.707   3.689 -0.2773 -0.3323 -0.2239
 8221TIP3    H124627   6.304   1.790   3.689 -1.9899  0.6940  0.1106
 8221TIP3    H224628   6.255   1.679   3.780  0.2845 -0.7556 -0.3338
 8222TIP3   OH224629   6.532   4.052   1.276  0.8258 -0.6193  0.4780
 8222TIP3    H124630   6.625   4.058   1.252  1.5353 -1.6830  2.7173
 8222TIP3    H224631   6.510   4.140   1.306  0.7013 -0.0159 -1.2766
 8223TIP3   OH224632   0.036   3.949   0.302 -0.0315  0.1042  0.3249
 8223TIP3    H124633   0.107   3.890   0.326  0.0749 -0.0322 -0.3044
 8223TIP3    H224634   0.057   3.976   0.212  0.1210  1.3895  0.7259
 8224TIP3   OH224635   0.493   2.725   4.282 -0.7963  0.1984  0.3180
 8224TIP3    H124636   0.481   2.641   4.327  0.6321 -0.6921 -0.8545
 8224TIP3    H224637   0.464   2.791   4.345  1.4176 -0.9465  2.6907
 8225TIP3   OH224638   6.526   6.242   1.298  0.0578  0.6009 -0.1625
 8225TIP3    H124639   6.496   6.202   1.380 -0.6530 -0.3771 -0.8755
 8225TIP3    H224640   6.454   6.298   1.271  0.7827  1.8957  0.4830
 8226TIP3   OH224641   6.601   6.184   0.223 -0.0514 -0.6052  0.0317
 8226TIP3    H124642   6.639   6.228   0.147 -0.8861 -1.8210 -1.1533
 8226TIP3    H224643   6.518   6.230   0.239  0.6087  0.3162  0.8942
 8227TIP3   OH224644   5.639   0.516   3.964  0.3016  0.1853  0.2408
 8227TIP3    H124645   5.593   0.562   3.894 -0.5660 -1.8369 -0.5726
 8227TIP3    H224646   5.660   0.430   3.927  0.3299 -0.7362  2.2830
 8228TIP3   OH224647   4.052   1.735   1.863 -0.8482 -0.0550  0.0355
 8228TIP3    H124648   4.011   1.821   1.856 -1.3271 -0.1823  1.0973
 8228TIP3    H224649   4.069   1.709   1.772 -1.3550  0.8444 -0.3272
 8229TIP3   OH224650   1.498   6.168   2.751  0.4367  0.0823  0.8322
 8229TIP3    H124651   1.511   6.104   2.681  0.8770  0.3363  0.6741
 8229TIP3    H224652   1.577   6.223   2.748 -0.9881  2.2099 -0.6666
 8230TIP3   OH224653   5.772   2.623   0.002  0.3244 -0.2186  0.3930
 8230TIP3    H124654   5.805   2.548  -0.046  0.2826  0.3223 -0.4928
 8230TIP3    H224655   5.802   2.609   0.092 -1.6387 -2.4956  0.8118
 8231TIP3   OH224656   1.738   3.705   4.672 -0.0574  0.1959  0.3367
 8231TIP3    H124657   1.710   3.797   4.681 -1.5909 -0.2851  0.8944
 8231TIP3    H224658   1.684   3.670   4.602 -0.5574 -0.6503  1.1142
 8232TIP3   OH224659   6.642   3.168   2.362  0.5221  0.3351  0.3666
 8232TIP3    H124660   6.581   3.099   2.388 -0.1873  0.9763  0.4451
 8232TIP3    H224661   6.685   3.194   2.443 -0.0357  0.7661  0.5255
 8233TIP3   OH224662   1.973   6.241   0.003 -0.0536  0.2675  0.1812
 8233TIP3    H124663   1.985   6.336   0.016  0.4157  0.0616  1.3554
 8233TIP3    H224664   2.039   6.201   0.059 -1.3545 -0.7886  1.0117
 8234TIP3   OH224665   5.510   2.538   4.890  0.2148  0.2546  0.4241
 8234TIP3    H124666   5.527   2.519   4.798 -0.5677 -1.5198  0.5961
 8234TIP3    H224667   5.461   2.620   4.889  0.5158  0.4344 -0.7054
 8235TIP3   OH224668   6.176   4.808   5.743 -1.0402 -0.0533  0.7837
 8235TIP3    H124669   6.221   4.797   5.827  1.6376  0.4183 -0.4883
 8235TIP3    H224670   6.190   4.725   5.697 -1.8120 -0.0246  0.4786
 8236TIP3   OH224671   3.658   2.712   2.214  0.0620  0.6619  0.4693
 8236TIP3    H124672   3.717   2.787   2.212  1.6549 -0.5124 -1.3103
 8236TIP3    H224673   3.678   2.667   2.296 -0.8740  2.1023  1.5198
 8237TIP3   OH224674   0.255   3.735   3.153  0.4048 -0.1259 -0.5735
 8237TIP3    H124675   0.258   3.820   3.109 -0.8919 -0.1949 -0.8249
 8237TIP3    H224676   0.171   3.734   3.199 -0.0089 -1.6125 -1.2808
 8238TIP3   OH224677   6.297   3.723   2.958  0.1177  0.0695 -0.5220
 8238TIP3    H124678   6.325   3.729   3.050 -2.0405 -0.1264  0.2115
 8238TIP3    H224679   6.282   3.813   2.932 -1.1878  0.0201 -0.0050
 8239TIP3   OH224680   1.527   0.545   1.710  0.2775  0.0591 -0.0961
 8239TIP3    H124681   1.604   0.576   1.662  0.2901  0.2375  0.0384
 8239TIP3    H224682   1.562   0.483   1.774  0.4845  1.1337  0.8735
 8240TIP3   OH224683   0.973   2.037   0.859  0.1511  0.6586  0.1657
 8240TIP3    H124684   0.882   2.065   0.863 -0.3431 -0.9361  1.0204
 8240TIP3    H224685   1.023   2.111   0.895 -0.9575  0.9361  1.1927
 8241TIP3   OH224686   1.852   2.616   4.552 -0.3724  0.0787 -0.4887
 8241TIP3    H124687   1.780   2.606   4.615  1.2415  0.9960  1.6398
 8241TIP3    H224688   1.904   2.536   4.562  0.8699  0.9874  0.7670
 8242TIP3   OH224689   1.475   2.619   3.996  0.1836 -0.6823  0.0704
 8242TIP3    H124690   1.446   2.640   4.085  0.1621  0.7266 -0.2526
 8242TIP3    H224691   1.405   2.652   3.940  0.5501 -0.8866 -0.5172
 8243TIP3   OH224692   5.527   1.683   5.846  0.2201 -0.4285  0.4656
 8243TIP3    H124693   5.622   1.673   5.840  0.0835 -1.4235 -0.3507
 8243TIP3    H224694   5.496   1.671   5.756 -0.7267 -0.6941  0.8150
 8244TIP3   OH224695   5.426   2.449   0.210  0.3335  0.2267  0.0176
 8244TIP3    H124696   5.440   2.505   0.134  1.1341  0.0261  0.0171
 8244TIP3    H224697   5.388   2.368   0.174 -1.1568  0.8708  0.0549
 8245TIP3   OH224698   0.971   2.494   3.558 -0.2672 -0.6094  0.1871
 8245TIP3    H124699   0.990   2.446   3.477 -1.8509 -0.5850 -0.2267
 8245TIP3    H224700   0.988   2.586   3.536 -0.5023 -0.6233 -0.0508
 8246TIP3   OH224701   6.653   3.400   3.370  0.5734  0.4403  0.4708
 8246TIP3    H124702   6.712   3.469   3.401  2.1535 -1.0720  0.9979
 8246TIP3    H224703   6.593   3.445   3.310  1.2623  2.3303  1.1155
 8247TIP3   OH224704   6.860   3.870   1.440  0.1616 -0.0786  0.5997
 8247TIP3    H124705   6.783   3.842   1.489  0.9294 -1.2910  1.1789
 8247TIP3    H224706   6.840   3.848   1.349 -0.5908  0.6090  0.5911
 8248TIP3   OH224707   2.775   3.699   2.873 -0.4723  0.3435 -0.2799
 8248TIP3    H124708   2.846   3.647   2.911 -0.3244 -1.2667 -2.5788
 8248TIP3    H224709   2.698   3.675   2.925 -0.0707 -0.9240 -0.2227
 8249TIP3   OH224710   2.521   6.283   2.165  0.6578  0.0365  0.0311
 8249TIP3    H124711   2.535   6.206   2.110  0.5552  1.1053 -1.5651
 8249TIP3    H224712   2.455   6.334   2.118  1.2150  1.4294  0.7106
 8250TIP3   OH224713   3.072   1.563   1.442  0.5334 -0.1347  0.1609
 8250TIP3    H124714   3.046   1.579   1.351 -0.4143 -0.2183  0.4016
 8250TIP3    H224715   3.148   1.620   1.456  0.4159  0.2086 -0.5502
 8251TIP3   OH224716   0.373   4.214   3.648 -0.6347  0.4987 -0.4923
 8251TIP3    H124717   0.444   4.150   3.644  0.1215  1.2506  0.3891
 8251TIP3    H224718   0.415   4.295   3.678 -1.9253  0.8455  0.5011
 8252TIP3   OH224719   0.788   2.573   2.286 -0.3405 -0.1522 -0.2169
 8252TIP3    H124720   0.880   2.598   2.280  0.0767 -0.8253  2.4567
 8252TIP3    H224721   0.742   2.655   2.305 -0.0293 -0.1389  0.4810
 8253TIP3   OH224722   4.171   5.639   4.374 -0.4794 -0.3764 -0.3599
 8253TIP3    H124723   4.228   5.668   4.303  0.5256 -0.6366  0.3307
 8253TIP3    H224724   4.175   5.543   4.369  0.9034 -0.4209  1.0572
 8254TIP3   OH224725   1.938   0.074   4.021 -0.2617 -0.3028  0.2741
 8254TIP3    H124726   2.013   0.022   4.051 -0.0933 -0.4193 -0.3259
 8254TIP3    H224727   1.974   0.129   3.951 -0.8167 -0.6671 -0.3164
 8255TIP3   OH224728   1.843   2.907   5.145 -0.5124  0.5967  0.1776
 8255TIP3    H124729   1.932   2.878   5.127  0.0248  1.7577  0.8663
 8255TIP3    H224730   1.821   2.868   5.230 -1.9013 -2.3221 -1.3546
 8256TIP3   OH224731   6.855   1.507   3.392 -0.2985 -0.1000  0.5219
 8256TIP3    H124732   6.927   1.570   3.392  0.1223 -0.5012  2.4245
 8256TIP3    H224733   6.780   1.556   3.426 -0.7762  0.1490 -0.8543
 8257TIP3   OH224734   4.567   6.494   4.818  0.5586  0.0709 -0.1947
 8257TIP3    H124735   4.542   6.528   4.904  0.3942 -0.7081  0.0689
 8257TIP3    H224736   4.639   6.434   4.835  2.2592  1.7940 -0.8810
 8258TIP3   OH224737   0.277   0.070   1.386 -0.1968  0.0651  0.2100
 8258TIP3    H124738   0.288   0.157   1.423  2.1200  0.7948 -1.8879
 8258TIP3    H224739   0.214   0.082   1.315 -0.1815 -0.0555  0.1761
 8259TIP3   OH224740   0.108   3.210   0.065 -0.4105 -0.0779  0.3929
 8259TIP3    H124741   0.085   3.120   0.041 -0.7203 -0.0728  0.6697
 8259TIP3    H224742   0.203   3.214   0.053 -0.3292 -0.5830  0.8408
 8260TIP3   OH224743   1.654   3.859   2.510 -0.0467 -0.4656  0.4125
 8260TIP3    H124744   1.713   3.934   2.518  0.6441 -0.9735  0.2030
 8260TIP3    H224745   1.712   3.783   2.508 -0.6292 -0.9097 -1.1662
 8261TIP3   OH224746   3.330   1.056   2.656  0.0898  0.4558  0.4571
 8261TIP3    H124747   3.274   1.101   2.719 -0.5597 -0.4368  0.5436
 8261TIP3    H224748   3.408   1.033   2.705 -0.5918 -0.6177  1.0949
 8262TIP3   OH224749   6.074   3.156   3.141 -0.1650  0.0927 -0.1306
 8262TIP3    H124750   6.004   3.097   3.170  0.4634 -0.5514  0.1045
 8262TIP3    H224751   6.070   3.152   3.046  1.2657 -2.0727 -0.1704
 8263TIP3   OH224752   0.972   2.001   3.403  0.2921 -0.5642  0.3331
 8263TIP3    H124753   0.989   1.940   3.332 -2.9877 -0.6370 -0.5280
 8263TIP3    H224754   0.889   2.043   3.380  0.6364  1.6416  2.6522
 8264TIP3   OH224755   0.457   5.459   5.479  0.8330 -0.2002 -0.0584
 8264TIP3    H124756   0.538   5.410   5.495  1.6883  0.4448 -2.1417
 8264TIP3    H224757   0.487   5.546   5.452 -0.5856  0.2644 -0.2141
 8265TIP3   OH224758   2.632   3.684   3.470 -0.6229 -0.3614 -0.3904
 8265TIP3    H124759   2.539   3.665   3.483 -1.1212  0.7830 -1.9665
 8265TIP3    H224760   2.648   3.663   3.378  0.3645  0.6787 -0.4738
 8266TIP3   OH224761   0.149   0.904   4.295  0.1992  0.4770  0.2545
 8266TIP3    H124762   0.169   0.817   4.331 -0.3058  0.9946  1.8622
 8266TIP3    H224763   0.233   0.936   4.263  0.2330 -0.9447 -1.1659
 8267TIP3   OH224764   4.823   2.233   4.733  0.1106  0.0104 -0.2027
 8267TIP3    H124765   4.845   2.162   4.672 -1.4104 -0.0031 -0.7823
 8267TIP3    H224766   4.812   2.310   4.677 -1.4811 -0.0365 -0.0132
 8268TIP3   OH224767   3.367   0.798   4.646 -0.0578  0.1246 -0.3856
 8268TIP3    H124768   3.341   0.716   4.606  1.1612 -1.2847  1.5223
 8268TIP3    H224769   3.287   0.832   4.686 -0.7489  0.3235 -1.8926
 8269TIP3   OH224770   3.041   6.786   5.765 -0.2408  0.0008 -0.1136
 8269TIP3    H124771   2.969   6.843   5.791 -1.1586 -0.4624 -1.4960
 8269TIP3    H224772   3.027   6.705   5.813  1.7914  1.2457  2.8590
 8270TIP3   OH224773   0.275   6.361   2.408  0.1845 -0.2286  0.1434
 8270TIP3    H124774   0.299   6.322   2.492  0.1726 -1.3607 -0.3584
 8270TIP3    H224775   0.187   6.327   2.390 -0.6976  1.6636  0.6404
 8271TIP3   OH224776   6.212   4.185   1.673  0.4671 -0.0071  0.0853
 8271TIP3    H124777   6.192   4.140   1.755  1.1851  0.2994  0.4367
 8271TIP3    H224778   6.185   4.124   1.604 -0.8047  0.0257  0.5346
 8272TIP3   OH224779   4.525   3.082   4.973  0.5191 -0.1004 -0.0588
 8272TIP3    H124780   4.442   3.117   5.005 -0.8209 -2.3993 -0.7629
 8272TIP3    H224781   4.565   3.040   5.049  0.6634  0.3162  0.0982
 8273TIP3   OH224782   6.767   4.874   3.879  0.2601  0.0628  0.5385
 8273TIP3    H124783   6.843   4.899   3.931  0.2653 -0.2152  0.6653
 8273TIP3    H224784   6.773   4.928   3.800 -1.4699  2.8688  2.1604
 8274TIP3   OH224785   6.389   5.340   5.263 -0.4721  0.2172  0.1255
 8274TIP3    H124786   6.473   5.307   5.232 -0.6121 -0.6765  0.6378
 8274TIP3    H224787   6.383   5.429   5.230 -0.0932 -0.2927 -1.3622
 8275TIP3   OH224788   5.676   6.079   4.893 -0.1158 -0.4347  0.1440
 8275TIP3    H124789   5.686   6.039   4.979 -1.2823  1.0369  1.0199
 8275TIP3    H224790   5.663   6.006   4.833  0.0588 -1.4575  1.3180
 8276TIP3   OH224791   3.018   1.162   3.214 -0.8139 -0.3258 -0.4245
 8276TIP3    H124792   3.023   1.128   3.304  2.8098  0.5805 -0.1111
 8276TIP3    H224793   3.011   1.085   3.159  0.2060 -1.1555  0.5529
 8277TIP3   OH224794   6.953   5.018   1.179 -0.5630 -0.0066  0.1177
 8277TIP3    H124795   6.922   5.085   1.118  2.5753  0.4634 -1.1395
 8277TIP3    H224796   6.959   4.938   1.126  0.9465  0.0884  0.1230
 8278TIP3   OH224797   6.329   4.085   5.261  1.0086  0.1264 -0.2488
 8278TIP3    H124798   6.299   4.085   5.352  0.5784  0.0193 -0.3906
 8278TIP3    H224799   6.400   4.149   5.259  1.7302 -0.6313  0.3941
 8279TIP3   OH224800   6.230   2.590   2.355  0.0504 -0.0484 -0.2140
 8279TIP3    H124801   6.140   2.609   2.327  0.2569 -0.0471 -0.8878
 8279TIP3    H224802   6.247   2.501   2.323 -0.4801 -0.9462  1.8649
 8280TIP3   OH224803   5.262   4.674   3.718  0.2453  0.3911  0.0124
 8280TIP3    H124804   5.290   4.660   3.628  1.3227 -0.0602  0.3924
 8280TIP3    H224805   5.340   4.709   3.762 -0.3467  0.8801  0.7078
 8281TIP3   OH224806   1.635   2.673   0.077 -0.3709 -0.7751  0.0258
 8281TIP3    H124807   1.686   2.704   0.003  0.3436 -0.5376  0.6130
 8281TIP3    H224808   1.558   2.631   0.037  2.1043 -4.7134 -1.1313
 8282TIP3   OH224809   7.113   0.397   2.670 -0.3800 -0.1317  0.5839
 8282TIP3    H124810   7.050   0.464   2.695  0.6745  0.2511  2.3520
 8282TIP3    H224811   7.197   0.429   2.702  0.1947 -2.1660  1.2629
 8283TIP3   OH224812   0.185   6.631   2.951  0.1971  0.0531 -0.5920
 8283TIP3    H124813   0.175   6.555   2.893  1.2496 -0.3579 -0.2638
 8283TIP3    H224814   0.252   6.604   3.014  0.0059  0.9700  0.0244
 8284TIP3   OH224815   5.267   0.933   0.542 -0.4879  0.5004  0.2969
 8284TIP3    H124816   5.173   0.949   0.543 -0.2654  2.0098 -0.2868
 8284TIP3    H224817   5.297   0.959   0.629 -0.5960 -0.0604  0.5124
 8285TIP3   OH224818   4.091   4.772   1.363 -0.3484  0.2038  0.0125
 8285TIP3    H124819   4.016   4.732   1.321 -0.3378  0.9590 -0.7681
 8285TIP3    H224820   4.082   4.866   1.345  0.1976  0.4363  0.8454
 8286TIP3   OH224821   2.096   1.353   1.754 -0.3868  0.3222  0.2205
 8286TIP3    H124822   2.161   1.333   1.821 -0.2906  0.7964  0.2679
 8286TIP3    H224823   2.056   1.435   1.783 -0.4259  0.4666 -0.2443
 8287TIP3   OH224824   0.330   2.619   2.095  0.1267  0.2694  0.0070
 8287TIP3    H124825   0.418   2.586   2.114  0.4453  0.7503 -0.5997
 8287TIP3    H224826   0.338   2.714   2.102 -0.4937  0.2880  0.5458
 8288TIP3   OH224827   3.018   4.773   1.565  0.1841 -0.5365  0.2120
 8288TIP3    H124828   3.018   4.684   1.530 -1.2216 -0.2022 -0.7033
 8288TIP3    H224829   3.031   4.829   1.489 -2.7975  0.2040  0.1146
 8289TIP3   OH224830   0.594   3.408   2.723  0.2448 -0.1085  0.6293
 8289TIP3    H124831   0.520   3.352   2.698  1.1159 -0.8859 -0.3635
 8289TIP3    H224832   0.667   3.347   2.733  0.3257  0.3313  3.8368
 8290TIP3   OH224833   6.613   2.078   1.419  0.2609 -0.2764 -0.1727
 8290TIP3    H124834   6.692   2.036   1.383  0.9355  1.2338 -0.5254
 8290TIP3    H224835   6.644   2.161   1.454 -1.4246  1.1679 -1.8938
 8291TIP3   OH224836   2.656   6.500   3.087 -0.4856  0.0628 -0.2408
 8291TIP3    H124837   2.581   6.479   3.143  0.0496 -0.2589  0.3717
 8291TIP3    H224838   2.716   6.548   3.145 -0.2034  0.2938 -0.7169
 8292TIP3   OH224839   0.261   1.799   3.423 -0.0766  0.3066 -0.6152
 8292TIP3    H124840   0.212   1.792   3.505  2.1411  2.7478  1.0998
 8292TIP3    H224841   0.207   1.856   3.368 -0.6402  0.3539 -0.0219
 8293TIP3   OH224842   2.477   2.142   4.092 -0.4149  0.8081  0.1010
 8293TIP3    H124843   2.520   2.210   4.040 -0.7707  0.9254 -0.0404
 8293TIP3    H224844   2.471   2.067   4.032  1.5012  0.0533  0.7548
 8294TIP3   OH224845   0.182   2.349   2.601 -0.2368 -0.1818 -0.0603
 8294TIP3    H124846   0.134   2.267   2.588  0.2059 -0.6452  1.1448
 8294TIP3    H224847   0.274   2.326   2.588  0.0201 -0.1977  1.6069
 8295TIP3   OH224848   0.787   3.999   1.691  0.0290 -0.1027 -0.2125
 8295TIP3    H124849   0.869   3.951   1.707 -0.6278 -1.2703 -0.2777
 8295TIP3    H224850   0.805   4.052   1.613  0.6845 -0.4143 -0.2797
 8296TIP3   OH224851   6.646   5.392   5.451 -0.2508 -0.0977  0.0984
 8296TIP3    H124852   6.631   5.487   5.455  0.7484  0.0487  0.7258
 8296TIP3    H224853   6.663   5.374   5.359  0.3567  0.4702  0.0939
 8297TIP3   OH224854   4.540   3.021   5.266  0.0857 -0.1655 -0.0265
 8297TIP3    H124855   4.618   3.073   5.283 -0.3288  0.1690  0.9133
 8297TIP3    H224856   4.499   3.010   5.352 -0.5355 -0.9255 -0.4024
 8298TIP3   OH224857   3.007   2.775   4.080  0.3513 -0.1909 -0.5697
 8298TIP3    H124858   3.073   2.764   4.012  1.7133 -2.1074  0.9501
 8298TIP3    H224859   3.029   2.860   4.120  1.0972 -0.2038 -0.9318
 8299TIP3   OH224860   0.721   0.936   0.846 -0.0084 -0.3137 -0.0797
 8299TIP3    H124861   0.804   0.896   0.821  0.8429  0.3034  1.5978
 8299TIP3    H224862   0.743   0.993   0.920 -1.4950  1.8118 -1.1658
 8300TIP3   OH224863   1.026   2.620   1.309 -0.3799  0.3771  0.5691
 8300TIP3    H124864   1.100   2.631   1.369  0.4926 -0.6338 -0.2883
 8300TIP3    H224865   1.025   2.526   1.290 -0.6923  0.6668 -0.9309
 8301TIP3   OH224866   0.753   5.036   2.983 -0.5767 -0.5404 -0.2351
 8301TIP3    H124867   0.806   4.962   2.953  0.2088 -0.1387  0.1185
 8301TIP3    H224868   0.786   5.111   2.933 -0.6986 -0.2512  0.1091
 8302TIP3   OH224869   1.536   1.784   1.257  0.2078  0.6516  0.0085
 8302TIP3    H124870   1.561   1.868   1.217  2.5407  0.6229  1.2259
 8302TIP3    H224871   1.581   1.719   1.203  0.1110  0.3376  0.3092
 8303TIP3   OH224872   0.075   3.229   1.919  0.5020 -0.5286 -0.3164
 8303TIP3    H124873   0.105   3.272   1.838  0.7214  1.0858  0.5720
 8303TIP3    H224874  -0.013   3.264   1.933  0.0508 -1.6008 -0.3908
 8304TIP3   OH224875   2.152   0.217   0.085 -0.2373  0.2137  0.3211
 8304TIP3    H124876   2.098   0.177   0.017  2.3417  0.2866 -1.8973
 8304TIP3    H224877   2.169   0.146   0.147  0.8667 -1.0684 -1.3765
 8305TIP3   OH224878   2.114   4.087   3.450  0.5645  0.2631 -0.2721
 8305TIP3    H124879   2.178   4.035   3.498  1.2226  0.0464 -1.3624
 8305TIP3    H224880   2.043   4.026   3.430  0.8431  0.0534 -0.6195
 8306TIP3   OH224881   2.430   5.228   0.157 -0.0252  0.2153 -0.0164
 8306TIP3    H124882   2.377   5.298   0.117 -0.8738 -0.9070 -0.9352
 8306TIP3    H224883   2.389   5.147   0.126 -0.0894 -0.7273  2.3254
 8307TIP3   OH224884   3.480   3.890   1.701 -0.5873 -0.1199 -0.1311
 8307TIP3    H124885   3.554   3.882   1.761 -1.6065 -1.1912  1.0359
 8307TIP3    H224886   3.507   3.959   1.639  1.5017 -0.7092  0.0400
 8308TIP3   OH224887   4.359   3.134   0.162 -0.1302  0.4661  0.1514
 8308TIP3    H124888   4.413   3.062   0.195 -1.2686 -1.4394 -1.7846
 8308TIP3    H224889   4.401   3.159   0.080 -0.3085  1.3311  0.3169
 8309TIP3   OH224890   0.781   5.330   4.317  0.3031 -1.0595 -0.0605
 8309TIP3    H124891   0.831   5.296   4.391 -0.3383 -1.5068  0.1767
 8309TIP3    H224892   0.716   5.261   4.299  0.3877 -0.9153 -0.9689
 8310TIP3   OH224893   4.804   4.906   0.351 -0.0806  0.1696 -0.2978
 8310TIP3    H124894   4.858   4.926   0.274  0.9350  3.0085  0.9769
 8310TIP3    H224895   4.721   4.949   0.333  0.1265  0.7559  0.1290
 8311TIP3   OH224896   4.181   1.177   0.837 -0.2024 -0.2189  0.4422
 8311TIP3    H124897   4.215   1.174   0.926  0.7572 -2.0060  0.0663
 8311TIP3    H224898   4.247   1.131   0.784 -2.3523 -2.3339 -0.6092
 8312TIP3   OH224899   6.969   2.572   5.217 -0.2909  0.0121  0.2743
 8312TIP3    H124900   6.962   2.481   5.245  0.4511 -0.1925 -0.1684
 8312TIP3    H224901   7.023   2.614   5.284  1.7857 -0.5596 -0.9354
 8313TIP3   OH224902   0.974   6.194   0.425  0.2174  0.1340  0.2176
 8313TIP3    H124903   0.887   6.174   0.459 -0.6376  0.5862 -1.5900
 8313TIP3    H224904   1.015   6.247   0.493 -0.1005 -1.8085  2.0156
 8314TIP3   OH224905   2.050   2.705   0.683 -0.2859 -0.5556  0.4472
 8314TIP3    H124906   1.967   2.728   0.641  0.3000 -0.7715 -0.8652
 8314TIP3    H224907   2.026   2.639   0.748 -1.3922  0.7329  1.4204
 8315TIP3   OH224908   1.737   5.062   2.793 -0.1901  0.0357  0.0658
 8315TIP3    H124909   1.778   5.138   2.753 -0.8812  2.2204  3.1651
 8315TIP3    H224910   1.645   5.068   2.767  0.1013 -0.9923 -1.3378
 8316TIP3   OH224911   1.765   0.703   4.211 -0.0684 -0.0225 -0.4602
 8316TIP3    H124912   1.725   0.683   4.127  2.5705  2.8249 -2.6385
 8316TIP3    H224913   1.739   0.793   4.230  1.8241  0.4496  0.1383
 8317TIP3   OH224914   2.081   1.574   1.040 -0.5317  0.3074 -0.1176
 8317TIP3    H124915   2.007   1.588   1.100 -1.3909 -0.1588 -1.0269
 8317TIP3    H224916   2.105   1.482   1.053 -0.7561  0.1899 -0.5107
 8318TIP3   OH224917   5.801   3.557   4.328 -0.0081 -0.0518 -0.8242
 8318TIP3    H124918   5.753   3.533   4.407 -0.6692  2.1503 -0.4659
 8318TIP3    H224919   5.734   3.591   4.268  0.8623  1.7689 -0.8580
 8319TIP3   OH224920   6.811   3.334   1.171 -0.1559 -0.4667 -0.0921
 8319TIP3    H124921   6.874   3.390   1.126 -0.9100 -1.6936 -2.9083
 8319TIP3    H224922   6.799   3.259   1.113 -2.1615 -1.6224  1.6412
 8320TIP3   OH224923   2.233   0.368   4.928  0.1628  0.3899 -0.2197
 8320TIP3    H124924   2.240   0.275   4.905  0.4855  0.7078 -1.4908
 8320TIP3    H224925   2.239   0.414   4.844 -1.2659  1.5136  0.2519
 8321TIP3   OH224926   2.547   0.536   5.621 -0.1710  0.3412  0.2112
 8321TIP3    H124927   2.517   0.461   5.570  2.7672 -1.2481  0.5900
 8321TIP3    H224928   2.630   0.561   5.579  1.2676  0.3185  2.8597
 8322TIP3   OH224929   5.492   5.243   4.640 -0.1164  0.5098 -0.6027
 8322TIP3    H124930   5.434   5.221   4.567 -0.2117 -2.1151  0.1642
 8322TIP3    H224931   5.575   5.202   4.618  0.9969  2.7099 -0.8354
 8323TIP3   OH224932   3.112   2.580   2.388 -0.4042  0.8414 -0.1106
 8323TIP3    H124933   3.145   2.500   2.429  0.9263  1.2608 -0.3139
 8323TIP3    H224934   3.060   2.622   2.456  0.7195  0.8885  0.7573
 8324TIP3   OH224935   6.120   2.549   2.769  1.0940  0.2726 -0.4130
 8324TIP3    H124936   6.196   2.491   2.767  1.3457  0.6089 -0.8997
 8324TIP3    H224937   6.158   2.637   2.775  0.8224  0.5499 -2.0888
 8325TIP3   OH224938   5.768   0.163   5.089  0.0940  0.4619 -0.3733
 8325TIP3    H124939   5.733   0.084   5.049 -0.9688  0.8776 -0.2895
 8325TIP3    H224940   5.735   0.161   5.179 -0.3579  1.2505 -0.5163
 8326TIP3   OH224941   7.193   3.707   4.022 -0.1842  0.1431  0.1056
 8326TIP3    H124942   7.154   3.787   4.056 -1.5035  0.1398 -1.2945
 8326TIP3    H224943   7.255   3.679   4.090  0.7256  2.6361  0.3763
 8327TIP3   OH224944   6.481   3.411   4.249 -0.3240 -0.0079 -0.3228
 8327TIP3    H124945   6.446   3.442   4.333  0.6043  1.0244 -0.2878
 8327TIP3    H224946   6.572   3.390   4.268 -0.4284 -0.9316 -0.8089
 8328TIP3   OH224947   0.192   2.285   5.246 -0.5753 -0.4265  0.0367
 8328TIP3    H124948   0.133   2.215   5.273  0.4685 -1.1834  0.4221
 8328TIP3    H224949   0.257   2.241   5.190 -0.6684  0.4814 -0.8086
 8329TIP3   OH224950   5.893   3.601   3.200 -0.1123 -0.1313 -0.2135
 8329TIP3    H124951   5.912   3.575   3.290  1.4792 -0.7637 -0.6863
 8329TIP3    H224952   5.814   3.552   3.176  0.2360 -1.0128  0.4105
 8330TIP3   OH224953   2.218   5.557   2.557 -0.3327  0.1998 -0.7421
 8330TIP3    H124954   2.215   5.608   2.476  1.2190 -0.3008 -1.1626
 8330TIP3    H224955   2.232   5.467   2.528 -0.5726 -0.0999  0.0593
 8331TIP3   OH224956   4.987   0.803   4.010  0.3267  0.1328 -0.2409
 8331TIP3    H124957   5.044   0.773   4.081  1.5460  1.7206 -0.4959
 8331TIP3    H224958   4.911   0.745   4.014  0.9872 -0.6759  1.4890
 8332TIP3   OH224959   5.417   4.399   3.313  0.3960 -0.1404 -0.3534
 8332TIP3    H124960   5.513   4.391   3.308  0.4862  0.3434  0.4521
 8332TIP3    H224961   5.386   4.309   3.302  1.0598 -0.6465  1.4908
 8333TIP3   OH224962   4.363   0.599   4.315  0.4565 -0.1890 -0.1696
 8333TIP3    H124963   4.299   0.669   4.305  0.9364  0.0551 -1.9241
 8333TIP3    H224964   4.310   0.519   4.322 -0.0664  0.1154 -0.5836
 8334TIP3   OH224965   0.655   2.195   0.068 -0.3106  0.9280 -0.0303
 8334TIP3    H124966   0.638   2.102   0.083  0.3581  0.5719 -1.3821
 8334TIP3    H224967   0.601   2.240   0.134 -0.2430 -0.4170  0.9762
 8335TIP3   OH224968   6.755   0.050   5.611 -0.5001  0.1665 -0.4120
 8335TIP3    H124969   6.678  -0.005   5.625 -0.0827 -0.2646  0.2586
 8335TIP3    H224970   6.828  -0.002   5.645 -0.0427  0.9716 -0.1391
 8336TIP3   OH224971   4.163   5.364   0.720  0.1917 -0.4308 -0.3210
 8336TIP3    H124972   4.079   5.394   0.685 -0.4090 -1.2528  0.3627
 8336TIP3    H224973   4.229   5.405   0.664 -0.7039 -1.0959 -1.9358
 8337TIP3   OH224974   0.381   5.992   3.679  0.2151 -0.2899  0.5989
 8337TIP3    H124975   0.292   6.015   3.652  0.0924 -0.8255  0.5236
 8337TIP3    H224976   0.370   5.954   3.766  0.3039 -0.7944  0.3984
 8338TIP3   OH224977   0.747   6.412   1.192 -0.1424  0.7491  0.2012
 8338TIP3    H124978   0.770   6.376   1.277 -0.6077  0.1610  0.0828
 8338TIP3    H224979   0.659   6.378   1.174  0.2721  0.2139 -0.8757
 8339TIP3   OH224980   6.350   6.472   1.363  0.1776  0.4243 -0.0899
 8339TIP3    H124981   6.261   6.462   1.397  0.1236  0.1305 -0.3051
 8339TIP3    H224982   6.372   6.564   1.378  0.4029  0.1666  1.3304
 8340TIP3   OH224983   3.993   4.010   1.944  0.4882  0.8483 -0.0960
 8340TIP3    H124984   3.997   4.057   2.028 -0.6209  0.3654  0.2528
 8340TIP3    H224985   4.052   3.935   1.955 -0.0878  0.4677  0.4754
 8341TIP3   OH224986   2.491   6.063   2.602  0.3096 -0.5389 -0.6025
 8341TIP3    H124987   2.568   6.009   2.619  0.5214  0.2478  1.1389
 8341TIP3    H224988   2.517   6.119   2.528  1.4759 -0.2046  0.0303
 8342TIP3   OH224989   4.687   3.314   2.457 -0.2750 -0.0315  0.4719
 8342TIP3    H124990   4.718   3.306   2.367 -1.1637  2.2370 -0.0790
 8342TIP3    H224991   4.765   3.296   2.510  0.2107 -1.6438 -0.6964
 8343TIP3   OH224992   3.315   6.635   2.243 -0.3461  0.3198  0.2587
 8343TIP3    H124993   3.322   6.590   2.327  0.4768  1.0611  0.6037
 8343TIP3    H224994   3.342   6.725   2.262 -0.2894  0.5284 -0.7659
 8344TIP3   OH224995   5.914   3.634   0.393  0.4368  0.2404  0.4389
 8344TIP3    H124996   5.844   3.699   0.386 -0.5177 -0.7117  0.7561
 8344TIP3    H224997   5.993   3.681   0.370 -0.1804  1.5911  0.9598
 8345TIP3   OH224998   5.852   5.969   3.929 -0.3914  0.7021  0.4296
 8345TIP3    H124999   5.780   6.009   3.881  0.1364  0.0102 -0.9946
 8345TIP3    H225000   5.833   5.876   3.928  0.6780  0.4752 -0.2646
 8346TIP3   OH225001   3.976   4.340   2.373  0.0633 -0.0596 -0.1057
 8346TIP3    H125002   3.901   4.280   2.377 -0.2726  0.1627 -2.2092
 8346TIP3    H225003   3.952   4.413   2.430  0.0116 -1.3568  1.6296
 8347TIP3   OH225004   5.264   6.700   1.704  0.2580  0.0814  0.4433
 8347TIP3    H125005   5.303   6.787   1.704 -0.7586  0.5827 -1.0755
 8347TIP3    H225006   5.325   6.645   1.656 -0.1175  0.4923 -0.5295
 8348TIP3   OH225007   5.317   6.321   3.101 -0.4486  0.4499 -0.1346
 8348TIP3    H125008   5.402   6.323   3.056  0.5920  0.5614  1.7462
 8348TIP3    H225009   5.307   6.410   3.136 -1.0699  0.2715  0.1502
 8349TIP3   OH225010   4.664   1.702   3.063 -0.4930  0.7147 -0.0442
 8349TIP3    H125011   4.682   1.792   3.037 -2.9521  1.5374  0.8755
 8349TIP3    H225012   4.642   1.657   2.982 -0.7757  1.3458 -0.3226
 8350TIP3   OH225013   1.111   2.822   0.088  0.3117 -0.0071 -0.0024
 8350TIP3    H125014   1.118   2.737   0.045  0.0529 -0.6151  1.1169
 8350TIP3    H225015   1.194   2.865   0.068  0.1998 -0.2687 -1.0870
 8351TIP3   OH225016   0.278   3.036   4.991 -0.2277 -0.3378  0.4184
 8351TIP3    H125017   0.361   3.070   5.025 -0.8937  1.9831 -0.0599
 8351TIP3    H225018   0.292   2.942   4.982  2.2116 -0.0676  0.7321
 8352TIP3   OH225019   5.021   6.515   3.363  0.1434  0.9348  0.1783
 8352TIP3    H125020   5.035   6.608   3.382 -1.2173  1.0952  0.4617
 8352TIP3    H225021   5.030   6.510   3.267  1.1708  1.1693  0.2459
 8353TIP3   OH225022   0.725   1.638   3.468  0.7515 -0.3459  0.0530
 8353TIP3    H125023   0.810   1.639   3.511  0.8560 -0.4487 -0.1523
 8353TIP3    H225024   0.662   1.625   3.540  0.9367 -0.6837  0.1530
 8354TIP3   OH225025   0.044   4.700   5.187 -0.3125 -0.4714  0.0775
 8354TIP3    H125026   0.054   4.788   5.150 -1.6220 -0.8619 -1.3408
 8354TIP3    H225027   0.017   4.715   5.277 -2.7206  0.6832 -0.7419
 8355TIP3   OH225028   3.483   3.250   4.458  0.3771 -0.5665  0.2516
 8355TIP3    H125029   3.471   3.329   4.406 -0.9034 -0.3220  0.8691
 8355TIP3    H225030   3.577   3.233   4.455  0.8888  1.7190  1.1258
 8356TIP3   OH225031   5.260   4.967   4.000 -0.8746 -0.1784 -0.3082
 8356TIP3    H125032   5.347   4.978   4.038 -0.7730 -1.0546 -0.2662
 8356TIP3    H225033   5.235   4.878   4.024 -1.0426 -0.5587 -1.8218
 8357TIP3   OH225034   2.866   0.758   1.614 -0.2739  0.2398 -0.4219
 8357TIP3    H125035   2.878   0.664   1.627  0.3553  0.0754 -1.9849
 8357TIP3    H225036   2.915   0.798   1.686 -1.0271 -0.6113  0.5966
 8358TIP3   OH225037   5.772   6.000   4.253  0.5448  0.7093  0.0065
 8358TIP3    H125038   5.778   6.094   4.268  1.3460  0.7912 -0.7729
 8358TIP3    H225039   5.814   5.986   4.168  2.1589 -0.5972  0.9762
 8359TIP3   OH225040   2.122   5.401   5.183  0.0611 -0.3505 -0.1783
 8359TIP3    H125041   2.162   5.432   5.264  1.3876 -0.3835 -0.7941
 8359TIP3    H225042   2.195   5.364   5.133 -0.3724  1.2997 -2.1682
 8360TIP3   OH225043   5.895   5.820   3.429 -0.0618  0.1207  0.6572
 8360TIP3    H125044   5.969   5.773   3.392 -0.9803 -0.9702  0.1611
 8360TIP3    H225045   5.919   5.913   3.422  1.1791 -0.2134  0.3784
 8361TIP3   OH225046   6.639   6.649   4.321 -0.4028  0.0003 -0.2311
 8361TIP3    H125047   6.721   6.697   4.335 -0.0767 -0.6692  0.2662
 8361TIP3    H225048   6.666   6.569   4.276 -0.4652 -1.1391  1.6150
 8362TIP3   OH225049   3.750   3.469   0.585  0.0464 -0.1665  0.0551
 8362TIP3    H125050   3.819   3.474   0.519  0.9290 -0.5350  0.9196
 8362TIP3    H225051   3.793   3.495   0.667 -0.0219 -3.2117  1.1975
 8363TIP3   OH225052   4.683   4.656   0.103  0.1733 -0.5019 -0.0303
 8363TIP3    H125053   4.716   4.744   0.120 -0.9005  0.1018 -0.9460
 8363TIP3    H225054   4.714   4.636   0.015 -0.0333 -0.8372 -0.0246
 8364TIP3   OH225055   1.123   1.701   3.368  0.5560  0.1022  0.5952
 8364TIP3    H125056   1.143   1.614   3.333  1.2061  0.5954 -0.2899
 8364TIP3    H225057   1.088   1.750   3.294  1.6990  1.0778  0.6606
 8365TIP3   OH225058   5.219   3.170   5.494 -0.1040  0.1047  0.1449
 8365TIP3    H125059   5.271   3.091   5.481 -2.0574 -1.1266 -0.7544
 8365TIP3    H225060   5.186   3.162   5.584  1.6673  1.2043  0.9434
 8366TIP3   OH225061  -0.016   5.003   3.194 -1.0550 -0.2272 -0.1145
 8366TIP3    H125062  -0.010   5.089   3.152  1.1529  0.9748  2.3765
 8366TIP3    H225063   0.054   4.951   3.155 -2.1026 -0.8258 -1.2911
 8367TIP3   OH225064   3.504   1.094   0.284  0.1018 -0.0401 -0.6986
 8367TIP3    H125065   3.506   1.190   0.276 -1.4104  0.1807  0.9934
 8367TIP3    H225066   3.457   1.064   0.207  2.0544  0.3792 -2.1463
 8368TIP3   OH225067   1.021   4.140   0.247 -0.4242  0.2130  0.1608
 8368TIP3    H125068   1.078   4.205   0.288 -1.4002  0.7073  0.7587
 8368TIP3    H225069   0.979   4.187   0.175  0.8242 -0.4877 -1.0802
 8369TIP3   OH225070   3.074   5.481   4.691  0.4762  0.2137 -0.3455
 8369TIP3    H125071   3.088   5.387   4.683 -3.5002 -0.6245  0.3176
 8369TIP3    H225072   2.993   5.498   4.642  0.0129  2.8972  1.1005
 8370TIP3   OH225073   2.967   4.330   0.694  0.7991 -0.0065 -0.0608
 8370TIP3    H125074   2.930   4.243   0.677 -0.4877  0.1861  1.5025
 8370TIP3    H225075   3.015   4.320   0.776  0.7989  0.7259  0.0330
 8371TIP3   OH225076   3.798   4.281   3.474  0.2274 -0.2806  0.3406
 8371TIP3    H125077   3.826   4.318   3.390  0.4335 -1.1798 -0.0001
 8371TIP3    H225078   3.750   4.351   3.516  0.4777  0.3245 -0.3532
 8372TIP3   OH225079   2.755   2.682   2.180  0.3004  0.3445  0.5449
 8372TIP3    H125080   2.694   2.621   2.223 -0.3744  0.7489  0.1817
 8372TIP3    H225081   2.814   2.626   2.130 -1.3737 -0.0039 -1.1954
 8373TIP3   OH225082   0.172   4.058   0.061  0.4155 -0.1832  0.2608
 8373TIP3    H125083   0.259   4.026   0.085  0.1534 -1.8660 -0.8479
 8373TIP3    H225084   0.181   4.080  -0.032  0.2485  1.9047  0.6971
 8374TIP3   OH225085   4.984   5.938   0.891 -0.2192 -0.4153  0.2402
 8374TIP3    H125086   5.010   5.954   0.800  0.7552 -0.8506  0.4288
 8374TIP3    H225087   4.919   5.868   0.885  0.7260 -1.2996 -0.0552
 8375TIP3   OH225088   0.571   6.004   4.041  0.0174  0.3174  0.4867
 8375TIP3    H125089   0.626   5.955   4.102  0.9037 -1.9903 -1.9745
 8375TIP3    H225090   0.497   5.945   4.023 -0.4408  1.1103 -0.3052
 8376TIP3   OH225091   7.088   2.242   4.619  0.2835  0.1136  0.1720
 8376TIP3    H125092   7.125   2.325   4.589 -0.8620  0.0654 -1.4883
 8376TIP3    H225093   7.013   2.267   4.672  1.3475  0.1524  1.7399
 8377TIP3   OH225094   3.148   1.340   3.537 -1.0075 -0.3495  0.0919
 8377TIP3    H125095   3.128   1.299   3.453 -2.0296  0.6368 -0.1736
 8377TIP3    H225096   3.187   1.270   3.589 -1.3772 -1.2694 -0.8278
 8378TIP3   OH225097   2.635   5.824   2.582 -0.4274  0.2389  0.2728
 8378TIP3    H125098   2.551   5.780   2.573 -0.5416 -0.1228  2.5913
 8378TIP3    H225099   2.660   5.812   2.673  1.7394  1.0991 -0.1263
 8379TIP3   OH225100   3.474   0.581   5.727  1.0447  0.3045  0.4185
 8379TIP3    H125101   3.547   0.596   5.667  0.1594  0.7642 -0.5736
 8379TIP3    H225102   3.481   0.651   5.791 -0.1115  2.0901 -1.2846
 8380TIP3   OH225103   4.042   1.402   4.183  0.1953 -0.5765 -0.4984
 8380TIP3    H125104   4.022   1.461   4.256 -0.6540 -1.4617  0.0055
 8380TIP3    H225105   4.138   1.398   4.180  0.3279  1.6190 -1.2139
 8381TIP3   OH225106   2.307   6.672   5.209 -0.0977  0.9104 -0.2067
 8381TIP3    H125107   2.324   6.683   5.115 -1.0854 -0.1590 -0.5347
 8381TIP3    H225108   2.240   6.738   5.228 -0.7369  0.3672 -0.5277
 8382TIP3   OH225109   3.498   1.727   3.707  0.6580  0.0145  0.3092
 8382TIP3    H125110   3.547   1.722   3.789  0.6556 -1.3117  0.2442
 8382TIP3    H225111   3.440   1.651   3.709 -0.8581  1.1060  0.0230
 8383TIP3   OH225112   5.352   3.063   4.221  0.2358 -0.3102  1.3828
 8383TIP3    H125113   5.345   3.115   4.301  0.8071  0.3498  1.0153
 8383TIP3    H225114   5.366   3.128   4.152  0.5090 -0.9228  0.8565
 8384TIP3   OH225115   3.451   6.439   0.832  0.2716  0.1117  0.0223
 8384TIP3    H125116   3.445   6.391   0.915  1.0967 -0.3324 -0.1706
 8384TIP3    H225117   3.490   6.523   0.856  1.4221 -0.3918 -0.0579
 8385TIP3   OH225118   6.813   4.028   2.635 -0.2238 -0.1377  0.0824
 8385TIP3    H125119   6.786   4.107   2.589  0.3130 -0.8310 -1.4911
 8385TIP3    H225120   6.761   3.958   2.596  0.5595 -0.8207  0.2187
 8386TIP3   OH225121   4.338   6.389   0.372 -0.7329 -0.3758 -0.5929
 8386TIP3    H125122   4.412   6.331   0.355 -0.1462 -0.1594  1.0307
 8386TIP3    H225123   4.265   6.331   0.390 -0.2290 -0.6585  0.6890
 8387TIP3   OH225124   6.419   5.307   2.482  0.7773 -0.3815 -0.0511
 8387TIP3    H125125   6.337   5.356   2.469  0.5084 -0.7205  0.3475
 8387TIP3    H225126   6.477   5.339   2.412  0.5410  0.3624  0.0820
 8388TIP3   OH225127   6.445   1.640   3.313  0.2562 -0.1707 -0.1871
 8388TIP3    H125128   6.400   1.678   3.237 -1.0961 -1.9417 -0.3402
 8388TIP3    H225129   6.517   1.700   3.331 -2.4569  3.1890  0.4354
 8389TIP3   OH225130   2.295   3.887   2.235 -0.0144 -0.2173  0.4951
 8389TIP3    H125131   2.340   3.823   2.180  0.6391  0.0106  0.7509
 8389TIP3    H225132   2.265   3.955   2.174 -3.2891 -2.0972 -0.2329
 8390TIP3   OH225133   7.178   1.625   4.057 -0.1470  0.6376  0.2190
 8390TIP3    H125134   7.163   1.693   4.124  1.0617 -0.4285  1.6567
 8390TIP3    H225135   7.112   1.558   4.076  0.6691 -0.0075  0.8675
 8391TIP3   OH225136   4.920   5.423   4.058 -0.7022  0.0764 -0.1190
 8391TIP3    H125137   4.833   5.408   4.021 -0.9081  0.0766  0.3638
 8391TIP3    H225138   4.971   5.347   4.029 -0.1159  1.3077 -2.5983
 8392TIP3   OH225139   1.433   0.335   2.710 -0.0950  0.2030  0.7795
 8392TIP3    H125140   1.501   0.399   2.689  0.7482 -1.0326 -0.4522
 8392TIP3    H225141   1.379   0.330   2.630 -0.0454 -0.7329  0.7926
 8393TIP3   OH225142   3.178   1.813   2.060  0.7308  0.9281 -0.5901
 8393TIP3    H125143   3.233   1.775   2.129 -0.4438 -1.4862 -0.8716
 8393TIP3    H225144   3.221   1.788   1.978  0.5072  1.1286 -0.7699
 8394TIP3   OH225145   0.316   2.777   3.689  0.4930  0.2829 -0.0656
 8394TIP3    H125146   0.409   2.758   3.704  0.7820  0.5079 -1.4625
 8394TIP3    H225147   0.277   2.776   3.776  1.8205  0.2506  0.5486
 8395TIP3   OH225148   6.933   3.431   3.250  0.6724 -0.1728  0.0846
 8395TIP3    H125149   6.885   3.446   3.331  1.0293  2.7191 -0.1353
 8395TIP3    H225150   7.017   3.396   3.278  0.2281 -0.6662  0.8343
 8396TIP3   OH225151   3.131   0.861   0.287  0.2591 -0.8477 -0.4765
 8396TIP3    H125152   3.058   0.924   0.285  1.2824  0.3684 -1.1029
 8396TIP3    H225153   3.185   0.885   0.212  0.5615 -2.6756 -0.8854
 8397TIP3   OH225154   0.986   2.127   1.251 -0.2355  0.0185 -0.8196
 8397TIP3    H125155   0.904   2.159   1.288 -1.3534 -2.1492 -1.2676
 8397TIP3    H225156   0.970   2.035   1.232  2.4082 -0.5609 -0.6627
 8398TIP3   OH225157   6.390   6.017   3.145  0.2999 -0.0680 -0.6850
 8398TIP3    H125158   6.307   5.976   3.120  0.1595 -0.4383  0.3467
 8398TIP3    H225159   6.377   6.110   3.127 -1.0482  0.1726  1.1655
 8399TIP3   OH225160   4.720   5.129   3.649  0.1833 -0.5107  0.1897
 8399TIP3    H125161   4.760   5.183   3.581  0.8327 -0.4957  0.5768
 8399TIP3    H225162   4.793   5.103   3.705 -0.5271  0.8384  1.8351
 8400TIP3   OH225163   6.144   0.821   1.374  0.1008  0.7812  0.5438
 8400TIP3    H125164   6.202   0.862   1.311  0.3951  1.8340  1.4769
 8400TIP3    H225165   6.064   0.874   1.371 -0.9941 -0.8252 -0.9501
 8401TIP3   OH225166   4.519   5.341   3.232  0.6293  0.1387 -0.3709
 8401TIP3    H125167   4.551   5.269   3.287  1.0505 -0.4545 -1.3639
 8401TIP3    H225168   4.491   5.408   3.295  3.3702  0.5046  0.5677
 8402TIP3   OH225169   6.712   3.882   3.352 -0.0164  0.2858 -0.4127
 8402TIP3    H125170   6.713   3.811   3.288  0.4543  1.0339 -1.2579
 8402TIP3    H225171   6.619   3.895   3.372 -0.0983 -0.6550 -0.1316
 8403TIP3   OH225172   3.243   3.466   2.735  0.1443  0.2096 -0.3494
 8403TIP3    H125173   3.262   3.377   2.704  1.2320  0.4438 -0.3789
 8403TIP3    H225174   3.284   3.523   2.671  0.2156  0.7291  0.1537
 8404TIP3   OH225175   4.400   5.910   0.687 -0.4269 -0.7148  0.0581
 8404TIP3    H125176   4.479   5.858   0.674 -1.5382 -2.5974  0.5196
 8404TIP3    H225177   4.382   5.904   0.781 -1.3748 -0.7261 -0.1142
 8405TIP3   OH225178   5.174   6.117   2.076  0.6734 -0.7028  0.0490
 8405TIP3    H125179   5.185   6.198   2.126  0.1166 -0.4578 -0.2147
 8405TIP3    H225180   5.182   6.047   2.141  1.0561 -0.4293  0.2959
 8406TIP3   OH225181   6.959   0.415   2.189 -0.1654 -0.3921  0.4398
 8406TIP3    H125182   7.033   0.476   2.184 -0.3032 -0.2448  0.1567
 8406TIP3    H225183   6.918   0.433   2.273  0.7126 -1.1642  1.0494
 8407TIP3   OH225184   5.671   2.839   3.888 -0.3069 -0.1573 -0.0540
 8407TIP3    H125185   5.656   2.901   3.816 -0.8682  3.8814  3.1761
 8407TIP3    H225186   5.586   2.832   3.931  0.7108  0.2821  2.1155
 8408TIP3   OH225187   1.863   3.701   1.439 -0.2143  0.3206 -0.1340
 8408TIP3    H125188   1.837   3.688   1.530 -0.3392  1.6576  0.0396
 8408TIP3    H225189   1.802   3.767   1.405  0.0715  0.1252 -1.0757
 8409TIP3   OH225190   6.412   1.609   1.863  0.2407  0.4852 -0.0159
 8409TIP3    H125191   6.411   1.544   1.933  0.8979 -1.6395 -1.8668
 8409TIP3    H225192   6.491   1.661   1.879 -0.9137  1.7110  2.1581
 8410TIP3   OH225193   3.241   1.825   3.786 -0.3900  0.1742 -0.1397
 8410TIP3    H125194   3.229   1.797   3.695  0.8744 -1.5331  0.1538
 8410TIP3    H225195   3.336   1.830   3.797 -0.5368  2.0666  0.6468
 8411TIP3   OH225196   6.052   1.890   0.743  0.2204 -0.1609 -0.4724
 8411TIP3    H125197   6.014   1.975   0.720  1.4538  0.1241 -1.6135
 8411TIP3    H225198   6.024   1.832   0.672  1.8629  0.0633 -1.3476
 8412TIP3   OH225199   1.013   0.452   4.240  0.8384 -0.5163  0.0859
 8412TIP3    H125200   1.006   0.473   4.333 -0.1206  0.2562 -0.1500
 8412TIP3    H225201   0.951   0.380   4.227 -1.1102  1.1966 -0.4752
 8413TIP3   OH225202   3.584   4.407   4.224 -0.0050  0.6377  0.1142
 8413TIP3    H125203   3.609   4.498   4.209  0.8451  0.3993  0.0136
 8413TIP3    H225204   3.637   4.357   4.162 -0.3670  0.0641  0.2587
 8414TIP3   OH225205   4.672   5.621   1.572 -0.2883 -0.2910 -0.4204
 8414TIP3    H125206   4.696   5.530   1.590 -0.0647 -0.2944 -0.7354
 8414TIP3    H225207   4.708   5.670   1.646  1.4417 -0.1803 -1.2993
 8415TIP3   OH225208   6.365   5.202   1.181  0.5362 -0.8573 -0.3166
 8415TIP3    H125209   6.293   5.208   1.244 -0.4388 -1.6704 -1.3155
 8415TIP3    H225210   6.371   5.289   1.142 -0.5925 -1.0383 -0.9391
 8416TIP3   OH225211   1.357   4.201   1.402 -0.4146  0.4186  0.1128
 8416TIP3    H125212   1.274   4.204   1.449 -0.3714  0.6556  0.1762
 8416TIP3    H225213   1.423   4.223   1.468 -0.3894  1.1281 -0.1436
 8417TIP3   OH225214   3.661   1.525   3.061 -0.1394  0.3153 -0.2622
 8417TIP3    H125215   3.594   1.542   3.127  0.1603  0.9392 -0.1123
 8417TIP3    H225216   3.743   1.551   3.102 -0.0880  2.0370 -1.3440
 8418TIP3   OH225217   0.483   4.457   0.728  0.1279 -0.7047 -0.1691
 8418TIP3    H125218   0.444   4.450   0.816  1.1718 -1.7351  0.2352
 8418TIP3    H225219   0.436   4.530   0.687  0.1814  0.3319  1.5229
 8419TIP3   OH225220   1.060   3.355   5.792 -0.2117  0.0214 -0.6661
 8419TIP3    H125221   1.150   3.383   5.780 -0.1238 -0.9281 -2.6111
 8419TIP3    H225222   1.007   3.432   5.770  0.0691  0.7300  0.9475
 8420TIP3   OH225223   0.909   0.976   0.335  0.3751  0.4816  0.2062
 8420TIP3    H125224   0.827   0.939   0.303  0.0757  1.0955  0.2452
 8420TIP3    H225225   0.973   0.907   0.322 -0.4168 -0.5477  1.5381
 8421TIP3   OH225226   1.402   2.011   0.175 -0.4397 -0.0393 -0.0451
 8421TIP3    H125227   1.426   1.925   0.141 -0.3937 -0.4682  1.0443
 8421TIP3    H225228   1.444   2.073   0.116 -0.3174 -0.7586 -0.7299
 8422TIP3   OH225229   4.050   5.879   0.309  0.6022 -0.3452  0.3600
 8422TIP3    H125230   4.008   5.918   0.232  0.5374  1.3508  1.2299
 8422TIP3    H225231   3.989   5.896   0.381  0.2365 -2.6761  0.6927
 8423TIP3   OH225232   0.780   1.479   4.173  0.3420 -0.8935  0.3688
 8423TIP3    H125233   0.699   1.430   4.185  0.8299 -1.3763  2.1120
 8423TIP3    H225234   0.846   1.413   4.152  0.4074 -0.5812 -0.4360
 8424TIP3   OH225235   3.519   3.005   3.379  0.0217  0.7120  0.0361
 8424TIP3    H125236   3.437   3.029   3.336 -1.1743 -1.9051  0.6601
 8424TIP3    H225237   3.528   3.068   3.451 -1.8763  0.5612  0.4495
 8425TIP3   OH225238   4.720   2.817   4.375 -0.1861 -0.5101  0.2516
 8425TIP3    H125239   4.671   2.734   4.378  1.1217 -1.2745  1.5132
 8425TIP3    H225240   4.657   2.882   4.407 -0.2872 -1.5717  2.4712
 8426TIP3   OH225241   4.128   6.187   3.151 -0.2922  0.3867 -0.4673
 8426TIP3    H125242   4.212   6.181   3.105 -0.2404  2.5286 -0.7447
 8426TIP3    H225243   4.065   6.215   3.085 -1.0668 -0.3828 -0.0774
 8427TIP3   OH225244   6.679   2.642   4.149  0.1197  0.0013 -0.1420
 8427TIP3    H125245   6.665   2.640   4.054  0.3524  0.0690 -0.1763
 8427TIP3    H225246   6.770   2.615   4.161  0.5031  1.2708 -0.0272
 8428TIP3   OH225247   0.719   0.681   5.100  0.0725 -0.6663 -0.5796
 8428TIP3    H125248   0.690   0.743   5.167 -0.0373 -1.4360  0.1137
 8428TIP3    H225249   0.813   0.675   5.112 -0.1920 -2.6385  1.2149
 8429TIP3   OH225250   6.993   0.785   4.755  0.2721  0.1111  0.4529
 8429TIP3    H125251   6.901   0.763   4.744 -0.0902  1.2622  1.1180
 8429TIP3    H225252   7.034   0.704   4.786 -0.4189 -0.5181 -0.2343
 8430TIP3   OH225253   3.212   6.612   0.228  0.1917  0.0740 -0.2070
 8430TIP3    H125254   3.275   6.585   0.161 -1.5193 -0.9020 -1.4811
 8430TIP3    H225255   3.187   6.531   0.272 -1.2060  0.2371 -0.6634
 8431TIP3   OH225256   5.090   5.178   5.662  0.0338  0.2740  0.1689
 8431TIP3    H125257   5.109   5.264   5.625 -0.6435 -0.7092 -2.7250
 8431TIP3    H225258   5.174   5.132   5.662  0.1344  0.4567  0.3891
 8432TIP3   OH225259   4.956   6.534   3.885 -0.2570  0.7439  0.1599
 8432TIP3    H125260   4.916   6.596   3.823  1.8333  2.8608  0.7910
 8432TIP3    H225261   5.008   6.475   3.830  0.0310  1.3804 -0.2639
 8433TIP3   OH225262   1.639   6.649   1.043 -0.3041  0.4317 -0.2126
 8433TIP3    H125263   1.621   6.573   1.098  1.3081 -0.5392 -0.9698
 8433TIP3    H225264   1.733   6.662   1.050 -0.3918  1.6783 -0.9985
 8434TIP3   OH225265   2.885   3.469   3.910 -0.0789  0.1803  0.5262
 8434TIP3    H125266   2.967   3.518   3.905  0.4382 -0.2699  3.2909
 8434TIP3    H225267   2.910   3.379   3.891  0.0368  0.0789  1.1484
 8435TIP3   OH225268   3.430   0.644   3.634 -0.4064  0.6465 -0.2494
 8435TIP3    H125269   3.420   0.549   3.623  1.8354  0.3334 -0.0624
 8435TIP3    H225270   3.418   0.658   3.728 -0.2135  0.4648 -0.1960
 8436TIP3   OH225271   6.076   5.477   1.813  0.6100  0.4846  0.0857
 8436TIP3    H125272   6.100   5.554   1.866  0.9571 -0.4264  1.2905
 8436TIP3    H225273   6.063   5.407   1.877 -0.8667 -0.1916 -0.8984
 8437TIP3   OH225274   7.038   4.131   3.270  0.6436 -0.3348  0.0864
 8437TIP3    H125275   7.054   4.085   3.188 -0.5595  2.5299 -1.9203
 8437TIP3    H225276   6.945   4.117   3.288  0.4338  0.6595 -0.1638
 8438TIP3   OH225277   4.357   2.836   3.424 -0.2066 -0.3274  0.1803
 8438TIP3    H125278   4.365   2.845   3.330 -0.7001  0.5403  0.2019
 8438TIP3    H225279   4.278   2.783   3.437 -1.2530  1.1222  0.0963
 8439TIP3   OH225280   5.597   5.560   4.515  0.1421 -0.0910  0.2714
 8439TIP3    H125281   5.663   5.623   4.541  1.7012 -1.9924  1.2163
 8439TIP3    H225282   5.646   5.480   4.497 -1.6256 -0.7548 -1.9975
 8440TIP3   OH225283   7.143   6.075   0.806  0.1755  0.5539 -0.1583
 8440TIP3    H125284   7.051   6.101   0.812  0.3518  1.1686 -0.0428
 8440TIP3    H225285   7.192   6.151   0.839  0.7213  0.2204 -0.1869
 8441TIP3   OH225286   0.263   3.199   5.374 -0.1490 -0.1982 -0.5967
 8441TIP3    H125287   0.275   3.256   5.298 -1.8395 -0.3070 -0.9920
 8441TIP3    H225288   0.207   3.249   5.433 -1.4177 -1.2947 -0.8163
 8442TIP3   OH225289   4.857   4.784   3.000  0.3279 -0.4711  0.1528
 8442TIP3    H125290   4.864   4.770   2.905  0.5057  1.6654 -0.1791
 8442TIP3    H225291   4.879   4.698   3.037  1.0868 -1.1491 -1.6945
 8443TIP3   OH225292   5.054   1.150   5.504  0.0255 -0.0254  0.4281
 8443TIP3    H125293   5.107   1.088   5.453  0.3870  0.7319 -0.1328
 8443TIP3    H225294   5.084   1.139   5.594  1.1997  0.4513  0.1075
 8444TIP3   OH225295   1.540   1.768   2.098 -0.5702 -0.2192 -0.4409
 8444TIP3    H125296   1.579   1.814   2.173  1.8293 -0.5934 -1.3895
 8444TIP3    H225297   1.558   1.824   2.023 -0.7011 -1.0624 -1.1119
 8445TIP3   OH225298   1.308   3.954   5.867 -0.2134  0.0652  0.3582
 8445TIP3    H125299   1.224   3.914   5.891 -0.6674 -0.2245 -1.5382
 8445TIP3    H225300   1.286   4.012   5.793  1.1403  0.5416  0.3088
 8446TIP3   OH225301   4.402   2.504   5.022 -0.4481 -0.3717  0.6426
 8446TIP3    H125302   4.494   2.491   5.001 -0.8103  0.8519 -2.1414
 8446TIP3    H225303   4.355   2.439   4.971 -1.2834  1.5310 -1.1809
 8447TIP3   OH225304   2.584   2.764   0.884 -0.2283  0.1511 -0.2113
 8447TIP3    H125305   2.545   2.810   0.958  0.5601 -0.8418  0.8726
 8447TIP3    H225306   2.675   2.793   0.883 -0.3384  0.4824 -1.0727
 8448TIP3   OH225307   0.199   2.913   2.906  0.1362 -0.1101  0.2888
 8448TIP3    H125308   0.128   2.850   2.909  0.6467 -0.7621 -0.7520
 8448TIP3    H225309   0.163   2.993   2.945 -0.9685 -0.6084  0.3046
 8449TIP3   OH225310   5.838   4.389   2.576  0.4118  0.5792  0.2534
 8449TIP3    H125311   5.852   4.400   2.670  1.0986  0.0888  0.2137
 8449TIP3    H225312   5.882   4.307   2.555  0.1073  0.5956 -0.4685
 8450TIP3   OH225313   2.237   4.609   3.793  0.1689  0.0183 -0.1377
 8450TIP3    H125314   2.176   4.539   3.771 -0.6387  0.9134 -0.8360
 8450TIP3    H225315   2.194   4.656   3.864  0.9363 -0.4750  0.6672
 8451TIP3   OH225316   4.535   2.255   0.530  0.3075  0.6447  0.0651
 8451TIP3    H125317   4.555   2.202   0.607  0.3451 -1.5502 -1.3923
 8451TIP3    H225318   4.573   2.207   0.457 -2.4017  1.0330 -1.7321
 8452TIP3   OH225319   3.830   3.920   3.982  0.6383 -0.2470 -0.0837
 8452TIP3    H125320   3.831   4.014   4.001  1.3863  0.1429 -1.8480
 8452TIP3    H225321   3.860   3.879   4.063  1.8301  1.1502  0.2211
 8453TIP3   OH225322   0.610   5.310   2.014 -0.1232  0.2833 -0.0755
 8453TIP3    H125323   0.625   5.364   2.092 -2.1609  0.1016  0.5044
 8453TIP3    H225324   0.556   5.364   1.957 -1.8012 -0.9310  0.3105
 8454TIP3   OH225325   1.811   4.920   3.403  0.1308 -0.8898 -0.0307
 8454TIP3    H125326   1.787   4.995   3.348 -0.8719 -0.5868  0.8035
 8454TIP3    H225327   1.777   4.941   3.490  1.4159 -1.5148  0.6431
 8455TIP3   OH225328   2.418   2.795   2.268 -0.7113 -0.4370 -0.0392
 8455TIP3    H125329   2.482   2.799   2.198 -0.9012 -0.9288 -0.2534
 8455TIP3    H225330   2.448   2.723   2.324 -0.3870  0.1599  0.5654
 8456TIP3   OH225331   5.914   5.500   2.655 -0.1463 -0.0096 -0.5769
 8456TIP3    H125332   5.829   5.542   2.641 -0.4107  0.0486  1.0787
 8456TIP3    H225333   5.899   5.409   2.632 -0.9946 -0.2412  0.7990
 8457TIP3   OH225334   5.742   3.832   5.049  0.2994  0.0697 -0.0397
 8457TIP3    H125335   5.813   3.842   5.111  0.1049  0.3310  0.1422
 8457TIP3    H225336   5.667   3.805   5.102  0.4260 -0.8935 -0.3167
 8458TIP3   OH225337   6.235   1.221   5.393  0.3890  0.1075  0.6901
 8458TIP3    H125338   6.292   1.282   5.440 -0.1788  1.2910 -0.1037
 8458TIP3    H225339   6.256   1.234   5.300 -1.1181  0.5371  0.3786
 8459TIP3   OH225340   0.136   1.279   1.918 -0.3218 -0.0501 -0.1694
 8459TIP3    H125341   0.128   1.309   2.009 -0.8648  0.9878 -0.5416
 8459TIP3    H225342   0.094   1.193   1.917 -0.2439 -0.1030  0.5728
 8460TIP3   OH225343   0.260   1.034   0.504  0.1188 -0.3234  0.8534
 8460TIP3    H125344   0.302   0.948   0.496 -1.0620 -0.8660  0.1750
 8460TIP3    H225345   0.210   1.028   0.585  2.1577  0.7274  2.2856
 8461TIP3   OH225346   6.932   4.761   2.384 -0.0216 -0.4636 -0.1669
 8461TIP3    H125347   6.953   4.783   2.294 -1.1695 -2.1574 -0.9067
 8461TIP3    H225348   6.838   4.740   2.382  0.4008 -2.7779  0.9038
 8462TIP3   OH225349   0.420   5.606   3.319  0.2301  0.3464 -0.1450
 8462TIP3    H125350   0.356   5.611   3.391  1.2742  0.8178  0.7793
 8462TIP3    H225351   0.446   5.514   3.317  0.9695  0.5161  0.8041
 8463TIP3   OH225352   5.179   5.799   3.662 -0.5722 -0.3062  0.0440
 8463TIP3    H125353   5.248   5.755   3.613 -1.2843 -1.1600 -0.2290
 8463TIP3    H225354   5.142   5.731   3.718 -0.8421  0.2658  0.5744
 8464TIP3   OH225355   2.259   2.686   2.454  0.1664 -0.3368 -0.6610
 8464TIP3    H125356   2.244   2.748   2.383  2.0032  2.5999  1.2661
 8464TIP3    H225357   2.176   2.682   2.501  0.1809  1.3300 -0.4256
 8465TIP3   OH225358   2.670   0.099   2.923  0.7481  0.2802  0.4170
 8465TIP3    H125359   2.634   0.011   2.931  2.4205 -0.3556  1.2077
 8465TIP3    H225360   2.593   0.156   2.920 -0.4046 -1.2485 -1.1387
 8466TIP3   OH225361   6.434   2.537   1.440 -0.6660  0.5550  0.4822
 8466TIP3    H125362   6.347   2.508   1.468 -0.3006  0.4416  1.5434
 8466TIP3    H225363   6.449   2.492   1.356 -1.4586  0.2691  0.4880
 8467TIP3   OH225364   3.551   5.026   5.818  0.1216 -0.5077  0.0308
 8467TIP3    H125365   3.555   4.954   5.755  0.1879 -1.0026  0.5991
 8467TIP3    H225366   3.493   4.994   5.887 -0.2962  0.1960  0.0170
 8468TIP3   OH225367   1.790   1.754   3.919  0.0866 -0.3763  0.4946
 8468TIP3    H125368   1.724   1.732   3.853 -1.2669 -0.3646  1.7970
 8468TIP3    H225369   1.789   1.850   3.922  3.5295  0.0020 -2.7220
 8469TIP3   OH225370   4.313   0.033   3.919  0.1236 -0.3548  0.2079
 8469TIP3    H125371   4.249   0.065   3.855  1.8441  1.2564 -0.8161
 8469TIP3    H225372   4.397   0.067   3.888  1.1807 -0.3956  2.7715
 8470TIP3   OH225373   1.028   0.471   3.962  0.5793 -0.6860 -0.1701
 8470TIP3    H125374   1.019   0.456   4.057  1.8206  1.5936  0.3739
 8470TIP3    H225375   1.102   0.415   3.937 -0.0852 -1.7043  0.0645
 8471TIP3   OH225376   0.944   5.613   4.885 -0.1306 -0.2492  0.4359
 8471TIP3    H125377   1.038   5.604   4.870  0.0586  0.4776  1.1070
 8471TIP3    H225378   0.904   5.589   4.802  0.4875 -3.0459  0.8540
 8472TIP3   OH225379   6.194   5.323   4.759 -0.9264  0.2770 -0.1879
 8472TIP3    H125380   6.214   5.391   4.823  0.5808 -0.2237 -0.0706
 8472TIP3    H225381   6.107   5.344   4.727 -1.1950  1.2511  1.1161
 8473TIP3   OH225382   1.809   1.158   5.619  0.2889 -0.0391  0.2865
 8473TIP3    H125383   1.848   1.112   5.694 -1.3101 -0.3047  1.0017
 8473TIP3    H225384   1.814   1.250   5.643  0.2420 -0.0895  0.4917
 8474TIP3   OH225385   3.803   0.517   2.123 -0.1989  0.3779 -0.3598
 8474TIP3    H125386   3.860   0.594   2.122  1.0573 -0.5218 -1.7738
 8474TIP3    H225387   3.822   0.475   2.207 -0.3830  1.2270  0.1155
 8475TIP3   OH225388   1.710   0.999   1.982  0.2831  0.3620  0.5390
 8475TIP3    H125389   1.745   0.991   1.894  1.2520  0.9717  0.8494
 8475TIP3    H225390   1.638   1.063   1.974 -1.0912 -1.2097 -0.1742
 8476TIP3   OH225391   4.983   5.369   5.078 -0.2661 -0.4393 -0.3392
 8476TIP3    H125392   5.076   5.346   5.080  0.2283  1.3788  0.2291
 8476TIP3    H225393   4.953   5.354   5.168 -0.1859  0.1109 -0.2131
 8477TIP3   OH225394   1.488   4.496   5.708  0.6597 -0.0669 -0.1159
 8477TIP3    H125395   1.530   4.515   5.624  3.7207 -2.3788  0.7417
 8477TIP3    H225396   1.480   4.581   5.751  0.2409  0.9869 -2.1487
 8478TIP3   OH225397   6.251   4.552   0.101  0.4199 -0.3223  0.0434
 8478TIP3    H125398   6.238   4.646   0.090 -0.4322 -0.5328 -0.8805
 8478TIP3    H225399   6.288   4.543   0.189  1.0780  0.9124 -0.0865
 8479TIP3   OH225400   5.487   6.289   1.111  0.4017  0.0725  1.2024
 8479TIP3    H125401   5.493   6.385   1.104  2.2078 -0.0449  0.6297
 8479TIP3    H225402   5.419   6.266   1.048  0.7030  0.9080  0.5383
 8480TIP3   OH225403   0.395   3.962   3.424  0.0067 -0.1837  0.1625
 8480TIP3    H125404   0.444   3.885   3.393 -1.7292 -1.6449  0.8884
 8480TIP3    H225405   0.372   3.942   3.514 -0.9188  0.9760  0.2118
 8481TIP3   OH225406   2.442   4.569   4.296  0.3615  0.3627 -0.0002
 8481TIP3    H125407   2.451   4.485   4.252 -0.7341  0.4062 -0.3286
 8481TIP3    H225408   2.355   4.601   4.270  0.9187  1.7809 -0.1991
 8482TIP3   OH225409   1.681   0.829   3.001 -0.6516 -0.2556 -0.2873
 8482TIP3    H125410   1.720   0.884   3.069  0.8458 -0.3856 -1.0061
 8482TIP3    H225411   1.626   0.890   2.951 -0.1874  0.2639 -0.1763
 8483TIP3   OH225412   6.097   3.113   5.341 -0.2301  0.3696  0.6669
 8483TIP3    H125413   6.083   3.154   5.427 -2.6326 -2.2711  1.6813
 8483TIP3    H225414   6.011   3.081   5.316  0.9501 -1.3682 -1.4784
 8484TIP3   OH225415   3.578   1.552   1.871 -0.0921 -0.9020  0.3695
 8484TIP3    H125416   3.485   1.533   1.861 -0.1222 -0.2167 -0.8402
 8484TIP3    H225417   3.585   1.647   1.861  0.7460 -0.9475  0.4127
 8485TIP3   OH225418   3.397   0.148   4.639 -0.3701 -0.1097  0.3241
 8485TIP3    H125419   3.472   0.167   4.696  0.9343 -1.7856 -0.7451
 8485TIP3    H225420   3.400   0.053   4.626 -1.4468  0.0541 -1.4141
 8486TIP3   OH225421   2.133   1.498   0.320 -0.1230  0.1295 -0.1424
 8486TIP3    H125422   2.192   1.426   0.340  0.3737 -0.0073 -1.8945
 8486TIP3    H225423   2.075   1.504   0.395  2.0677  0.2341  1.6390
 8487TIP3   OH225424   4.371   5.609   0.803  0.8097 -0.2123 -0.1099
 8487TIP3    H125425   4.423   5.662   0.864  0.1463 -0.8177  1.0114
 8487TIP3    H225426   4.403   5.520   0.816  0.2035 -0.4419 -0.1614
 8488TIP3   OH225427   3.396   4.567   3.701 -0.1033  0.0917  0.6749
 8488TIP3    H125428   3.411   4.575   3.796  0.6178 -0.0228  0.5716
 8488TIP3    H225429   3.334   4.637   3.681  1.2953  1.4351  0.8740
 8489TIP3   OH225430   2.981   3.861   3.110  0.0715 -0.3809 -0.7296
 8489TIP3    H125431   2.976   3.954   3.086  2.1714  0.2222  0.8263
 8489TIP3    H225432   3.034   3.822   3.040 -0.6857 -0.3937 -1.3075
 8490TIP3   OH225433   3.761   3.856   1.787  0.2744 -0.1408  0.0097
 8490TIP3    H125434   3.770   3.948   1.765  1.4145 -0.3292 -0.3388
 8490TIP3    H225435   3.840   3.834   1.835 -0.3523 -0.7494  0.7974
 8491TIP3   OH225436   2.276   0.198   0.867 -0.2588  0.6673  0.1777
 8491TIP3    H125437   2.215   0.266   0.895 -0.1892  0.7575  0.1107
 8491TIP3    H225438   2.236   0.116   0.897  0.7796  0.8803  2.3842
 8492TIP3   OH225439   5.608   1.122   2.998 -0.2985 -0.7106 -0.0543
 8492TIP3    H125440   5.696   1.096   2.969  0.5684  0.7089  1.1979
 8492TIP3    H225441   5.570   1.041   3.032  1.5497 -0.9016  1.8081
 8493TIP3   OH225442   5.396   0.394   0.271  0.2019 -1.0026 -0.1856
 8493TIP3    H125443   5.313   0.349   0.259  0.0870 -1.0579  0.6972
 8493TIP3    H225444   5.433   0.354   0.350 -0.3139  1.0506  1.1827
 8494TIP3   OH225445   4.190   6.150   5.746 -0.1591  0.2080  0.4019
 8494TIP3    H125446   4.110   6.162   5.695 -0.6465 -0.5376  0.9723
 8494TIP3    H225447   4.261   6.157   5.682 -0.7844 -1.5136 -0.5425
 8495TIP3   OH225448   1.305   5.118   5.815  0.9141 -0.0359  0.5882
 8495TIP3    H125449   1.391   5.089   5.786  0.6158  2.4933 -3.6778
 8495TIP3    H225450   1.322   5.201   5.861  0.8250  1.2676 -1.5815
 8496TIP3   OH225451   2.553   4.743   5.557  0.3378 -0.2614 -0.3760
 8496TIP3    H125452   2.551   4.767   5.464 -2.9817  1.5536  0.0019
 8496TIP3    H225453   2.496   4.666   5.563  2.1050 -1.6224 -0.0046
 8497TIP3   OH225454   3.183   6.163   3.268  0.1157 -0.1976 -0.2117
 8497TIP3    H125455   3.251   6.110   3.309  1.5939  0.1261 -2.0891
 8497TIP3    H225456   3.229   6.211   3.199 -2.2122 -0.8122 -2.3390
 8498TIP3   OH225457   5.683   6.328   4.623 -0.3620 -0.2308  0.2189
 8498TIP3    H125458   5.626   6.402   4.604  0.4401  0.5990  0.9365
 8498TIP3    H225459   5.727   6.352   4.705  1.2089 -0.7179 -0.4399
 8499TIP3   OH225460   6.806   5.459   4.947  0.2165  0.7574  0.2726
 8499TIP3    H125461   6.748   5.425   5.014  1.2882 -2.8240 -0.3739
 8499TIP3    H225462   6.749   5.480   4.873 -0.6150  1.4034  1.0870
 8500TIP3   OH225463   6.256   0.338   4.676 -0.0103  0.1639 -0.0726
 8500TIP3    H125464   6.211   0.257   4.697 -0.2144  0.1684 -0.4848
 8500TIP3    H225465   6.193   0.389   4.626  0.0121  0.7067  0.4439
 8501TIP3   OH225466   4.978   1.693   0.537 -0.2459  0.0286  0.0384
 8501TIP3    H125467   5.030   1.691   0.618  0.1515 -0.1578 -0.2173
 8501TIP3    H225468   4.988   1.782   0.505 -3.1421  1.1991  1.9284
 8502TIP3   OH225469   7.111   1.640   1.102  0.2389  0.5641  0.3110
 8502TIP3    H125470   7.053   1.583   1.051 -0.1044  1.2858 -0.1293
 8502TIP3    H225471   7.083   1.627   1.193 -0.8471  1.1294  0.0788
 8503TIP3   OH225472   5.970   3.629   3.649  0.0426  0.6376  0.0741
 8503TIP3    H125473   6.022   3.707   3.632  3.0920 -1.1389  0.5435
 8503TIP3    H225474   5.939   3.640   3.739 -1.1150  2.0549 -0.4600
 8504TIP3   OH225475   5.595   4.754   2.562 -0.2201  0.0726  0.1864
 8504TIP3    H125476   5.584   4.664   2.533 -1.0697  0.2088  0.0567
 8504TIP3    H225477   5.591   4.806   2.482  0.4884  0.2149  0.2366
 8505TIP3   OH225478   3.907   4.528   3.421 -0.7051 -0.4437  0.1616
 8505TIP3    H125479   3.894   4.532   3.515 -1.3057 -0.0317  0.0689
 8505TIP3    H225480   3.987   4.578   3.405  1.6052 -3.6234  0.8200
 8506TIP3   OH225481   0.502   4.189   5.840  0.2311  0.2625 -0.3309
 8506TIP3    H125482   0.464   4.190   5.752 -1.6900 -0.3194  0.4351
 8506TIP3    H225483   0.541   4.275   5.851  2.8166 -0.4505 -2.6465
 8507TIP3   OH225484   2.547   6.195   4.278  0.2357  0.7715  0.3469
 8507TIP3    H125485   2.495   6.275   4.273 -1.1342 -0.1743 -1.7462
 8507TIP3    H225486   2.638   6.225   4.269 -0.1156  2.2141  1.3321
 8508TIP3   OH225487   1.526   2.947   5.399  0.0656  0.3123 -0.6176
 8508TIP3    H125488   1.570   3.028   5.374  0.8659  0.4541  1.1417
 8508TIP3    H225489   1.564   2.923   5.483 -0.5841 -1.5809 -0.8002
 8509TIP3   OH225490   2.054   3.641   0.811  0.4013 -0.7995 -0.2671
 8509TIP3    H125491   2.032   3.680   0.896 -1.7807  0.7412 -1.4381
 8509TIP3    H225492   2.106   3.564   0.832  3.0210  1.4594  2.3323
 8510TIP3   OH225493   2.081   2.083   0.554 -0.1118 -0.2801  0.3836
 8510TIP3    H125494   2.067   2.038   0.638 -2.6649  2.9084  1.9013
 8510TIP3    H225495   2.162   2.132   0.567  1.7682 -2.8405 -0.6863
 8511TIP3   OH225496   1.709   0.518   1.008 -0.3673 -0.0648 -0.3481
 8511TIP3    H125497   1.678   0.429   0.991 -0.9846  0.1980 -0.6161
 8511TIP3    H225498   1.701   0.564   0.925 -0.3733  0.3356 -0.1328
 8512TIP3   OH225499   3.537   6.267   0.623  0.0575 -0.3754 -0.2390
 8512TIP3    H125500   3.521   6.323   0.699  0.4767  0.1814 -0.5624
 8512TIP3    H225501   3.558   6.182   0.661  0.5463 -0.0318  0.2788
 8513TIP3   OH225502   1.815   1.064   5.869  0.2858 -0.0512  0.2598
 8513TIP3    H125503   1.805   0.969   5.869  0.0003 -0.1189  3.2480
 8513TIP3    H225504   1.899   1.079   5.912  1.1905  1.0684 -1.7676
 8514TIP3   OH225505   1.251   5.750   4.213 -0.1679 -0.3667  0.2463
 8514TIP3    H125506   1.242   5.840   4.182  1.8461 -0.4177 -0.6364
 8514TIP3    H225507   1.219   5.696   4.141 -1.8173 -0.3977  0.9548
 8515TIP3   OH225508   1.726   2.730   1.215 -0.4084 -0.3147  0.3244
 8515TIP3    H125509   1.733   2.716   1.121 -0.1772 -1.9856  0.5643
 8515TIP3    H225510   1.684   2.816   1.223 -0.5176 -0.1865 -1.2912
 8516TIP3   OH225511   3.590   2.953   4.549  0.1402 -0.3055  0.7493
 8516TIP3    H125512   3.653   3.021   4.524 -2.4726  1.6881 -0.9850
 8516TIP3    H225513   3.560   2.979   4.637 -1.2886  1.2935 -0.1407
 8517TIP3   OH225514   1.077   3.943   2.757 -0.8761 -0.3733  0.2266
 8517TIP3    H125515   1.004   3.885   2.781  0.1444 -1.6921  0.2700
 8517TIP3    H225516   1.154   3.903   2.798  0.1157  0.1212 -1.0874
 8518TIP3   OH225517   4.199   1.308   5.166  0.4256  0.3176  0.3961
 8518TIP3    H125518   4.142   1.366   5.117 -0.9053 -1.1405  0.1327
 8518TIP3    H225519   4.153   1.293   5.249  0.5019 -0.7254  0.2627
 8519TIP3   OH225520   6.424   3.032   2.724  0.2393 -0.2953  0.6442
 8519TIP3    H125521   6.480   3.064   2.795  0.8945 -2.8152  1.3430
 8519TIP3    H225522   6.486   3.004   2.656 -0.3625  1.1557 -0.5698
 8520TIP3   OH225523   6.442   5.210   4.679  0.0170  0.2728  0.0952
 8520TIP3    H125524   6.371   5.243   4.734  0.4206 -0.6127  1.1990
 8520TIP3    H225525   6.452   5.118   4.706  2.0419  0.5598  0.4889
 8521TIP3   OH225526   0.383   6.496   3.072  0.6727  0.3394 -0.2895
 8521TIP3    H125527   0.341   6.452   3.146  0.1452 -0.2710 -0.9309
 8521TIP3    H225528   0.437   6.428   3.032  0.0672  0.3327 -1.1288
 8522TIP3   OH225529   0.743   5.449   5.268 -0.4658 -0.3994 -0.0506
 8522TIP3    H125530   0.701   5.535   5.266  0.5357  0.1765  1.8110
 8522TIP3    H225531   0.708   5.407   5.347  0.4628 -0.9426  0.0840
 8523TIP3   OH225532   6.859   1.949   1.297  0.4666 -0.2725  0.4187
 8523TIP3    H125533   6.944   1.965   1.258 -0.6316 -1.5188 -2.8541
 8523TIP3    H225534   6.878   1.923   1.387  3.2704  2.1263  0.6665
 8524TIP3   OH225535   3.462   2.150   1.721 -0.4131  0.2389  0.2593
 8524TIP3    H125536   3.419   2.131   1.805  0.6004 -0.2618  0.6858
 8524TIP3    H225537   3.392   2.184   1.666 -1.4750 -1.0076  0.7601
 8525TIP3   OH225538   4.665   0.254   3.128 -0.2368  0.0806 -0.2067
 8525TIP3    H125539   4.695   0.169   3.097  0.0543 -0.2363  0.9045
 8525TIP3    H225540   4.726   0.277   3.198 -1.2742  0.4428  0.6052
 8526TIP3   OH225541   4.020   2.832   2.018 -0.4993 -0.5682 -0.2832
 8526TIP3    H125542   4.092   2.768   2.017 -0.1066 -0.1415  0.3284
 8526TIP3    H225543   3.941   2.779   2.014 -0.1753 -1.0893  0.1555
 8527TIP3   OH225544   6.752   5.049   5.511  0.0744 -0.2947  0.0580
 8527TIP3    H125545   6.832   5.054   5.564  0.0844  1.0928 -0.0503
 8527TIP3    H225546   6.781   5.071   5.422 -0.2508 -0.8573 -0.1942
 8528TIP3   OH225547   2.636   3.621   1.648 -0.1074  0.2763  0.2879
 8528TIP3    H125548   2.669   3.635   1.559 -1.3763 -1.0970 -0.4462
 8528TIP3    H225549   2.714   3.618   1.702  0.9795 -1.8457 -1.2369
 8529TIP3   OH225550   6.759   4.533   0.505  0.5497  0.0345  0.4210
 8529TIP3    H125551   6.677   4.488   0.485  0.8549  0.5477 -2.3646
 8529TIP3    H225552   6.733   4.607   0.560 -0.4114 -1.3956  2.0131
 8530TIP3   OH225553   6.069   2.076   5.712  0.4057  0.4628 -0.3905
 8530TIP3    H125554   6.120   2.078   5.793 -0.0433 -1.0999 -0.0279
 8530TIP3    H225555   6.129   2.039   5.647 -0.0851 -1.0157 -0.0530
 8531TIP3   OH225556   5.068   1.089   5.067 -0.0484  0.5487 -0.3628
 8531TIP3    H125557   5.153   1.101   5.108 -0.3347 -0.0517  0.4358
 8531TIP3    H225558   5.074   1.005   5.022 -0.8749 -0.5884  1.5075
 8532TIP3   OH225559   1.607   2.041   1.127 -0.4180  0.3071  0.9720
 8532TIP3    H125560   1.654   2.068   1.048  0.8051 -1.8177  0.8841
 8532TIP3    H225561   1.628   2.108   1.192  0.1604  1.0498  0.0430
 8533TIP3   OH225562   6.177   3.682   0.330 -0.3643  0.1426 -0.1986
 8533TIP3    H125563   6.199   3.698   0.238  1.4602 -1.0006 -0.0095
 8533TIP3    H225564   6.256   3.641   0.367 -1.8840 -1.6045  1.2895
 8534TIP3   OH225565   0.159   6.714   2.041  0.2175  0.0715  0.0169
 8534TIP3    H125566   0.228   6.780   2.031 -1.6905  2.1293 -0.3715
 8534TIP3    H225567   0.114   6.737   2.122 -2.3836  1.2183 -1.6440
 8535TIP3   OH225568   4.147   5.016   5.881 -0.4614  0.1598  0.3815
 8535TIP3    H125569   4.154   5.071   5.959 -1.2638 -0.7845  1.1594
 8535TIP3    H225570   4.128   5.077   5.810  3.2471  1.4403  0.2597
 8536TIP3   OH225571   2.346   6.467   0.265  0.1293 -0.1434 -0.1942
 8536TIP3    H125572   2.269   6.458   0.322  0.6891 -0.7089  0.4939
 8536TIP3    H225573   2.333   6.551   0.220 -0.0401  0.6016  1.1998
 8537TIP3   OH225574   3.015   2.912   0.398  0.0381  0.0712  0.7750
 8537TIP3    H125575   2.969   2.851   0.342 -1.3406 -0.0836  1.9957
 8537TIP3    H225576   3.105   2.913   0.366 -0.4235 -0.9429 -0.6041
 8538TIP3   OH225577   3.645   1.139   4.723 -0.3938 -0.2350 -0.0456
 8538TIP3    H125578   3.719   1.093   4.764  0.7338  1.3855 -0.1534
 8538TIP3    H225579   3.608   1.192   4.793 -0.7275 -0.1607 -0.2758
 8539TIP3   OH225580   6.414   0.653   3.946 -0.5028 -0.1890 -0.4655
 8539TIP3    H125581   6.429   0.748   3.943  0.6008 -0.3767 -2.6775
 8539TIP3    H225582   6.328   0.641   3.908 -0.0454 -0.1397 -1.5615
 8540TIP3   OH225583   4.229   6.648   0.549  0.6449 -0.5012 -0.5998
 8540TIP3    H125584   4.198   6.566   0.587  2.7895 -1.1464 -0.1577
 8540TIP3    H225585   4.315   6.627   0.512  1.5657  1.6910  0.1321
 8541TIP3   OH225586   3.337   0.491   5.150  0.1164 -0.1035  0.0547
 8541TIP3    H125587   3.432   0.479   5.154  0.2588  0.6741 -0.8427
 8541TIP3    H225588   3.305   0.407   5.116  0.4853 -0.3229  0.2324
 8542TIP3   OH225589   5.431   3.159   4.688 -0.0483 -0.7900 -0.0972
 8542TIP3    H125590   5.494   3.118   4.747 -0.0055 -0.9115 -0.2249
 8542TIP3    H225591   5.381   3.219   4.743  0.2342 -0.6315 -0.0114
 8543TIP3   OH225592   0.102   6.167   1.635 -0.1797 -0.1853  0.2835
 8543TIP3    H125593   0.154   6.205   1.707  0.9090  1.5386 -1.3264
 8543TIP3    H225594   0.146   6.085   1.614 -0.5317 -0.7328  1.5566
 8544TIP3   OH225595   0.809   3.009   3.198  0.2976  0.3222 -0.3450
 8544TIP3    H125596   0.756   2.932   3.218  0.9756 -0.0942 -0.1131
 8544TIP3    H225597   0.827   3.001   3.104  0.5545  0.0754 -0.2758
 8545TIP3   OH225598   4.359   3.523   5.516  0.3944 -0.9069 -0.1255
 8545TIP3    H125599   4.345   3.451   5.455  0.7387  0.1458 -1.4856
 8545TIP3    H225600   4.355   3.602   5.462 -1.4836  0.2304  1.5367
 8546TIP3   OH225601   5.372   3.076   3.792 -0.5411  0.2794 -0.0867
 8546TIP3    H125602   5.293   3.071   3.845 -0.1970 -0.0153  0.4069
 8546TIP3    H225603   5.362   3.157   3.741 -0.4613  1.0870  1.1224
 8547TIP3   OH225604   1.463   2.819   3.152  0.3383 -0.0742 -0.4461
 8547TIP3    H125605   1.484   2.820   3.245  1.6463 -1.8112 -0.6748
 8547TIP3    H225606   1.475   2.909   3.123  2.5706 -0.0059  0.5272
 8548TIP3   OH225607   5.779   3.097   3.363 -0.0426  0.3529  0.1287
 8548TIP3    H125608   5.722   3.117   3.437  1.1313  0.8840  0.9146
 8548TIP3    H225609   5.868   3.100   3.399  0.4993 -0.5069 -1.0500
 8549TIP3   OH225610   4.079   5.727   1.437  0.5162  0.1789 -0.1165
 8549TIP3    H125611   4.072   5.815   1.473  0.9495  0.1379  0.0674
 8549TIP3    H225612   4.047   5.736   1.347 -0.5538  0.2795  0.2552
 8550TIP3   OH225613   5.389   5.656   3.528  0.0771 -0.2118 -0.4097
 8550TIP3    H125614   5.455   5.709   3.572 -0.8633 -0.3784  1.3216
 8550TIP3    H225615   5.421   5.646   3.438  1.1925  1.6804 -0.2669
 8551TIP3   OH225616   6.795   0.299   4.853 -0.3237  0.6204  0.4674
 8551TIP3    H125617   6.871   0.301   4.795 -0.5770 -0.0569  0.0964
 8551TIP3    H225618   6.720   0.287   4.794 -0.6592  0.7304  0.8692
 8552TIP3   OH225619   4.559   6.084   0.068  0.1428 -1.2198 -0.0133
 8552TIP3    H125620   4.576   6.020  -0.000  0.1064 -0.4705 -0.7390
 8552TIP3    H225621   4.528   6.033   0.143  0.2211 -2.0476 -0.5452
 8553TIP3   OH225622   3.177   1.577   4.567  0.5408 -0.5168  0.1960
 8553TIP3    H125623   3.093   1.546   4.533  0.7847 -1.5955  0.5596
 8553TIP3    H225624   3.177   1.552   4.659  2.9679 -4.4251 -0.6508
 8554TIP3   OH225625   2.907   1.336   5.472  0.2042 -0.6981  0.0638
 8554TIP3    H125626   2.890   1.261   5.415  1.4737  0.8720 -2.5944
 8554TIP3    H225627   2.822   1.378   5.482 -0.2246 -1.5816  0.2821
 8555TIP3   OH225628   0.720   2.704   4.028 -0.2912 -0.8888  0.3198
 8555TIP3    H125629   0.658   2.666   4.091 -1.9587  0.9265 -0.1437
 8555TIP3    H225630   0.731   2.794   4.057  0.6550 -0.6572 -0.7229
 8556TIP3   OH225631   2.810   4.279   4.951  0.0466 -0.2644 -0.1960
 8556TIP3    H125632   2.787   4.271   5.044 -0.6942  0.8303 -0.2736
 8556TIP3    H225633   2.779   4.197   4.912 -0.0885 -0.5185  0.4362
 8557TIP3   OH225634   7.055   1.016   2.936  0.2353 -0.3974 -0.1470
 8557TIP3    H125635   7.040   1.084   2.870  1.9437  0.6761  0.5115
 8557TIP3    H225636   7.011   1.048   3.014 -0.7919 -1.1137 -0.4099
 8558TIP3   OH225637   2.174   2.192   4.405  0.3135  0.3545  0.5575
 8558TIP3    H125638   2.173   2.130   4.479  0.7450  0.1598  0.4008
 8558TIP3    H225639   2.218   2.144   4.334 -0.5452  0.3535  0.0106
 8559TIP3   OH225640   0.313   4.407   5.200 -0.3731  0.0294 -0.1416
 8559TIP3    H125641   0.284   4.477   5.142 -2.1817  0.0032  0.6643
 8559TIP3    H225642   0.273   4.328   5.166 -1.1548 -0.0463  0.8984
 8560TIP3   OH225643   5.304   1.048   5.690  0.4862 -0.0674 -0.0413
 8560TIP3    H125644   5.357   0.981   5.647  0.3053  0.1454 -0.6066
 8560TIP3    H225645   5.363   1.088   5.755  0.3168 -1.4014  0.9744
 8561TIP3   OH225646   0.904   4.625   2.642  0.3186 -0.8304 -0.6641
 8561TIP3    H125647   0.917   4.720   2.635 -3.3522 -0.1323 -0.2665
 8561TIP3    H225648   0.866   4.601   2.557 -0.9421 -1.4265  0.0420
 8562TIP3   OH225649   5.503   6.223   4.366  0.3331  0.7749 -1.0907
 8562TIP3    H125650   5.591   6.195   4.339  0.7657 -2.0168  2.4570
 8562TIP3    H225651   5.517   6.267   4.450 -1.5864  1.1357 -0.9176
 8563TIP3   OH225652   2.553   5.897   5.171 -0.6896  0.2861  0.3345
 8563TIP3    H125653   2.507   5.837   5.229 -1.6524  0.9868  0.3223
 8563TIP3    H225654   2.486   5.929   5.111 -0.9048  3.3677  1.9606
 8564TIP3   OH225655   0.050   6.510   1.767 -0.2484 -0.3849 -0.8401
 8564TIP3    H125656   0.091   6.516   1.854 -0.1209  3.6558 -0.9879
 8564TIP3    H225657  -0.021   6.446   1.779 -0.6415  0.4515  2.4786
 8565TIP3   OH225658   6.488   5.466   4.888  0.2489  0.2221  0.5631
 8565TIP3    H125659   6.404   5.500   4.919 -0.4041  1.0906 -1.9666
 8565TIP3    H225660   6.478   5.371   4.892 -1.4571  0.2798 -1.0610
 8566TIP3   OH225661   0.721   0.165   3.616  0.4646 -0.0925 -0.4573
 8566TIP3    H125662   0.814   0.180   3.632 -0.1432  2.6282  1.2038
 8566TIP3    H225663   0.696   0.232   3.551 -0.3255 -0.8793 -0.9940
 8567TIP3   OH225664   3.784   4.193   4.392  0.1229  0.3575 -0.0981
 8567TIP3    H125665   3.849   4.158   4.454  0.0220  0.6312  0.1657
 8567TIP3    H225666   3.737   4.116   4.360  0.6117  0.1502 -0.3304
 8568TIP3   OH225667   5.153   2.019   2.156 -0.1410 -0.0695 -0.2002
 8568TIP3    H125668   5.061   2.046   2.160  0.2202  1.0732  0.8909
 8568TIP3    H225669   5.200   2.098   2.128  0.4742 -0.7687 -1.2104
 8569TIP3   OH225670   5.117   2.923   2.812  0.3005  0.3079 -0.2178
 8569TIP3    H125671   5.123   2.987   2.884  1.0859  1.1128 -0.9762
 8569TIP3    H225672   5.165   2.847   2.844 -0.9217 -0.0774  0.8311
 8570TIP3   OH225673   6.085   4.386   4.968  0.1191  0.0331  0.2946
 8570TIP3    H125674   6.169   4.381   4.922 -0.2188  2.3279 -0.6806
 8570TIP3    H225675   6.065   4.479   4.972 -2.5401 -0.4548  0.2242
 8571TIP3   OH225676   6.173   3.070   1.449  0.2025  0.0505  0.2982
 8571TIP3    H125677   6.091   3.089   1.495 -0.3693  1.5982 -1.2508
 8571TIP3    H225678   6.231   3.143   1.473 -0.0288  0.7581 -1.1913
 8572TIP3   OH225679   7.190   0.114   1.579 -0.4661 -0.0689 -0.0712
 8572TIP3    H125680   7.229   0.201   1.584 -0.3771 -0.1879  2.5678
 8572TIP3    H225681   7.100   0.126   1.608 -0.5800 -0.7798 -0.1090
 8573TIP3   OH225682   0.627   4.075   3.723  0.0590 -0.0206  0.0019
 8573TIP3    H125683   0.708   4.119   3.698  0.1235 -0.0137  0.2264
 8573TIP3    H225684   0.630   4.071   3.818  0.8274 -1.9262 -0.0389
 8574TIP3   OH225685   6.696   0.525   1.340  0.2445 -0.2400  0.4763
 8574TIP3    H125686   6.703   0.619   1.321 -3.5966  0.1206 -0.0833
 8574TIP3    H225687   6.711   0.519   1.434 -0.5251  1.1847  0.7302
 8575TIP3   OH225688   1.716   0.599   1.925 -0.5358  0.3093 -0.8151
 8575TIP3    H125689   1.651   0.547   1.972 -1.1665 -0.3476 -2.3481
 8575TIP3    H225690   1.677   0.687   1.919  0.7172  1.1740  2.1504
 8576TIP3   OH225691   1.889   3.271   0.004  0.3273  0.2074  0.2062
 8576TIP3    H125692   1.943   3.266   0.083  1.7702  4.5267 -0.2126
 8576TIP3    H225693   1.950   3.251  -0.067  0.9365  2.8493 -0.1145
 8577TIP3   OH225694   2.195   6.770   1.734 -0.2720 -0.0464 -0.2340
 8577TIP3    H125695   2.213   6.756   1.827 -0.4668  0.6723 -0.0833
 8577TIP3    H225696   2.277   6.805   1.699  0.0988 -1.1547 -0.5377
 8578TIP3   OH225697   4.951   2.981   3.589  0.2908  0.4973  0.0738
 8578TIP3    H125698   5.029   2.993   3.534  1.2529  0.9895  1.4902
 8578TIP3    H225699   4.978   3.010   3.676 -1.9853  2.3261  0.2801
 8579TIP3   OH225700   2.658   3.936   3.624  0.1391 -0.0327  0.1148
 8579TIP3    H125701   2.753   3.940   3.637  0.4201  0.2290 -1.7074
 8579TIP3    H225702   2.646   3.867   3.559 -0.6781  1.4503 -1.3748
 8580TIP3   OH225703   2.311   0.216   1.517 -0.3585  0.7477 -0.4001
 8580TIP3    H125704   2.220   0.186   1.526 -0.5176  1.4311  0.4620
 8580TIP3    H225705   2.362   0.136   1.508 -0.7087  0.0954  2.3120
 8581TIP3   OH225706   4.353   2.143   1.855 -0.1206  0.5030  0.6135
 8581TIP3    H125707   4.375   2.102   1.938  3.1459  0.2576 -0.2514
 8581TIP3    H225708   4.402   2.225   1.854 -0.9608  1.0287 -0.6575
 8582TIP3   OH225709   4.568   2.405   2.873 -0.6582 -0.1115  0.2885
 8582TIP3    H125710   4.502   2.399   2.942  0.1808 -0.5347  1.0785
 8582TIP3    H225711   4.557   2.493   2.837 -0.6905  0.3583  1.4046
 8583TIP3   OH225712   5.484   6.395   2.394 -0.3211  0.0982  0.4702
 8583TIP3    H125713   5.548   6.334   2.356 -0.5217 -0.4429  0.9896
 8583TIP3    H225714   5.528   6.480   2.392  0.2760 -0.2054  0.4979
 8584TIP3   OH225715   3.384   6.818   0.490  0.4488 -0.4410  0.4300
 8584TIP3    H125716   3.310   6.810   0.430  1.2893  0.0664 -0.7094
 8584TIP3    H225717   3.390   6.733   0.532 -0.6202 -0.5679  0.3513
 8585TIP3   OH225718   0.646   3.935   5.699  0.6549 -0.4108 -0.0254
 8585TIP3    H125719   0.608   3.986   5.770 -0.6310  0.2559 -1.1434
 8585TIP3    H225720   0.673   4.000   5.634 -0.0437 -1.0735 -1.0126
 8586TIP3   OH225721   4.872   2.731   3.427  0.1314  0.0010 -0.2561
 8586TIP3    H125722   4.884   2.775   3.511 -0.4353 -0.1882 -0.0768
 8586TIP3    H225723   4.801   2.779   3.384  1.6897  1.3489 -1.4838
 8587TIP3   OH225724   3.521   5.915   1.202 -0.1432 -0.1594  0.5473
 8587TIP3    H125725   3.552   5.824   1.195  0.1881  0.0460 -1.0856
 8587TIP3    H225726   3.588   5.966   1.157 -1.9180  0.4996 -1.4706
 8588TIP3   OH225727   3.536   4.820   5.388 -0.2908  0.3892 -0.1396
 8588TIP3    H125728   3.540   4.724   5.387  1.0171  0.4427 -0.9817
 8588TIP3    H225729   3.554   4.847   5.298  0.4327  1.4592  0.3030
 8589TIP3   OH225730   4.884   3.794   1.236  0.1864 -0.1305 -0.7541
 8589TIP3    H125731   4.974   3.806   1.266 -0.0465  2.7964 -0.8992
 8589TIP3    H225732   4.881   3.704   1.204  2.3949 -1.0587  1.3282
 8590TIP3   OH225733   4.917   4.549   3.146  0.0197 -0.0555 -0.2348
 8590TIP3    H125734   5.011   4.559   3.153 -0.0278  1.1311 -0.8980
 8590TIP3    H225735   4.898   4.464   3.185  1.6726 -1.5362 -2.4547
 8591TIP3   OH225736   0.045   0.352   1.847 -0.8245  0.0500 -0.4020
 8591TIP3    H125737   0.115   0.288   1.860 -0.1257  0.9640  0.4460
 8591TIP3    H225738   0.058   0.385   1.758 -0.8843 -0.6135 -0.6579
 8592TIP3   OH225739   7.081   5.760   0.738  0.1220  0.6424 -0.3007
 8592TIP3    H125740   7.071   5.852   0.760 -0.1143  0.7881 -0.9777
 8592TIP3    H225741   6.999   5.720   0.766 -0.4725  0.9572 -1.5080
 8593TIP3   OH225742   2.467   0.030   0.374 -0.1988  0.1610  0.3302
 8593TIP3    H125743   2.397   0.088   0.343  0.6293  0.5492 -0.8833
 8593TIP3    H225744   2.436  -0.000   0.459 -3.1444 -1.8743 -1.2689
 8594TIP3   OH225745   5.583   5.739   2.400  0.3039  0.7316 -0.1870
 8594TIP3    H125746   5.558   5.829   2.382 -2.3847  0.3825  1.3487
 8594TIP3    H225747   5.633   5.743   2.482  1.3179  0.9249 -0.7980
 8595TIP3   OH225748   2.686   3.793   0.621 -0.4952  0.0123  0.2193
 8595TIP3    H125749   2.697   3.700   0.643  0.5824  0.1679  0.3994
 8595TIP3    H225750   2.607   3.796   0.568 -1.1432 -0.8678  1.0926
 8596TIP3   OH225751   0.126   0.988   5.092  0.7231 -0.5148  0.3964
 8596TIP3    H125752   0.171   0.913   5.131  0.7533 -1.0083 -0.5533
 8596TIP3    H225753   0.045   0.996   5.143  1.4529 -0.1748  1.5363
 8597TIP3   OH225754   3.286   2.561   0.830  0.5450  0.3213 -1.1295
 8597TIP3    H125755   3.291   2.614   0.751  1.7518 -0.9891 -1.9723
 8597TIP3    H225756   3.307   2.472   0.802 -1.2445 -0.6259  0.2781
 8598TIP3   OH225757   6.703   0.882   3.662  0.5698  0.0168 -0.4579
 8598TIP3    H125758   6.783   0.842   3.694  0.2724 -0.4141 -0.2371
 8598TIP3    H225759   6.703   0.970   3.699  0.1938 -0.4966  0.8157
 8599TIP3   OH225760   2.320   0.821   2.780  0.5600  0.2745 -0.1954
 8599TIP3    H125761   2.397   0.878   2.773  1.0531 -0.3115  0.3805
 8599TIP3    H225762   2.277   0.848   2.861  1.1608 -0.6143  0.4221
 8600TIP3   OH225763   5.623   2.582   2.065 -0.1817 -0.5792  0.3980
 8600TIP3    H125764   5.578   2.641   2.125 -0.4169 -0.6158  0.2592
 8600TIP3    H225765   5.694   2.634   2.028 -0.5474 -0.3048  0.0824
 8601TIP3   OH225766   1.002   0.888   0.809  0.8061 -0.2995  0.4467
 8601TIP3    H125767   1.044   0.974   0.809  1.8375 -0.7590  2.3785
 8601TIP3    H225768   1.022   0.852   0.722 -1.1882  2.0459 -1.1427
 8602TIP3   OH225769   3.147   2.627   1.917  0.4156 -0.1135  0.2470
 8602TIP3    H125770   3.105   2.665   1.994  0.9886  0.9163  0.0716
 8602TIP3    H225771   3.237   2.658   1.922  0.4294  0.0523 -0.8903
 8603TIP3   OH225772   4.050   1.589   3.859  0.7036  0.3859  0.1397
 8603TIP3    H125773   4.080   1.648   3.791  0.5391  0.1483 -0.1405
 8603TIP3    H225774   3.982   1.536   3.817 -0.7214  1.4849  0.9754
 8604TIP3   OH225775   5.035   1.271   4.059 -0.2729 -0.1959 -0.0844
 8604TIP3    H125776   5.125   1.250   4.036 -0.0876  0.1253  0.3416
 8604TIP3    H225777   4.994   1.296   3.976  0.2872  0.6043 -0.1308
 8605TIP3   OH225778   5.835   1.540   0.669 -0.2600  0.9995 -0.0190
 8605TIP3    H125779   5.922   1.507   0.645 -0.4710  1.0059 -0.8065
 8605TIP3    H225780   5.841   1.555   0.764  0.9699  2.0984 -0.2336
 8606TIP3   OH225781   6.097   3.135   4.627  0.0977 -0.3158 -0.4376
 8606TIP3    H125782   6.163   3.190   4.586  2.0787 -1.3756  1.1545
 8606TIP3    H225783   6.050   3.094   4.554 -0.5812  2.3777 -1.6347
 8607TIP3   OH225784   1.679   3.173   5.346 -0.5599 -0.1135  0.4588
 8607TIP3    H125785   1.769   3.156   5.374  0.1396  0.7154 -1.1859
 8607TIP3    H225786   1.658   3.259   5.383 -0.5950 -0.1919  0.6240
 8608TIP3   OH225787   3.399   5.824   3.762 -0.1124  0.5617 -0.0528
 8608TIP3    H125788   3.459   5.894   3.791 -1.2135  1.9121 -0.9055
 8608TIP3    H225789   3.378   5.846   3.671 -1.6680 -0.0390  0.1288
 8609TIP3   OH225790   4.249   2.676   1.989  0.4326 -0.1443 -0.6719
 8609TIP3    H125791   4.265   2.724   1.908  3.6420  1.7943  0.9317
 8609TIP3    H225792   4.266   2.584   1.966  1.7321  0.4147 -2.1006
 8610TIP3   OH225793   6.701   4.000   4.335 -0.0513 -0.1947  0.4001
 8610TIP3    H125794   6.674   3.940   4.265  1.6024  0.1106 -0.5604
 8610TIP3    H225795   6.625   4.057   4.349 -0.6313 -0.6696 -0.7165
 8611TIP3   OH225796   6.644   4.699   2.411 -0.2549  0.5091 -0.7695
 8611TIP3    H125797   6.578   4.631   2.400 -1.4632  1.3475  0.9883
 8611TIP3    H225798   6.629   4.734   2.499  2.7160  0.5407 -0.1653
 8612TIP3   OH225799   1.989   2.950   1.006 -0.4547 -0.6920 -0.7333
 8612TIP3    H125800   2.010   3.026   0.952  0.5197 -1.0642 -0.8809
 8612TIP3    H225801   1.992   2.983   1.096  2.7092 -1.1182 -0.5837
 8613TIP3   OH225802   6.323   3.380   2.388 -0.1885  0.4798  0.1760
 8613TIP3    H125803   6.305   3.351   2.477  0.4801  0.2565  0.2437
 8613TIP3    H225804   6.327   3.300   2.336 -0.7920  0.6201 -0.1066
 8614TIP3   OH225805   6.677   4.625   2.109  0.7545  0.7488  0.4344
 8614TIP3    H125806   6.669   4.645   2.202 -0.5658  1.2740  0.2164
 8614TIP3    H225807   6.628   4.544   2.098  0.9169  0.6820  0.1848
 8615TIP3   OH225808   4.171   6.020   2.753  0.2067  0.0611  0.2401
 8615TIP3    H125809   4.085   6.055   2.728  0.4525  0.6574  0.2230
 8615TIP3    H225810   4.234   6.084   2.721  0.6307 -0.1019  0.7286
 8616TIP3   OH225811   6.764   2.080   3.984 -0.5391 -0.5965 -0.8140
 8616TIP3    H125812   6.748   2.112   4.073  0.5322 -1.2753 -0.3500
 8616TIP3    H225813   6.847   2.033   3.991 -1.2510 -2.0576 -1.8144
 8617TIP3   OH225814   0.728   5.474   1.670  0.1301  0.1320 -0.1995
 8617TIP3    H125815   0.693   5.463   1.759 -0.3242 -0.1681 -0.4130
 8617TIP3    H225816   0.767   5.562   1.671 -1.2248  0.7715 -0.1422
 8618TIP3   OH225817   5.796   1.624   5.809  0.1565  0.1262  0.2387
 8618TIP3    H125818   5.803   1.547   5.753  2.2320  0.2356  0.2552
 8618TIP3    H225819   5.848   1.691   5.763 -0.5298  1.1121  0.8647
 8619TIP3   OH225820   3.737   0.172   1.160 -0.6242 -0.5694  0.0601
 8619TIP3    H125821   3.764   0.259   1.131  0.8046 -0.7897  0.6359
 8619TIP3    H225822   3.644   0.180   1.177 -0.3325  1.1232  1.0457
 8620TIP3   OH225823   1.308   0.166   2.231  0.4770  0.8842 -0.2665
 8620TIP3    H125824   1.310   0.213   2.314  0.8174  0.1620  0.1509
 8620TIP3    H225825   1.392   0.187   2.190 -0.3939  2.6423 -1.2590
 8621TIP3   OH225826   6.865   0.354   0.488  0.0008  0.2573  0.3501
 8621TIP3    H125827   6.892   0.445   0.502  2.3441 -0.3921  0.4941
 8621TIP3    H225828   6.943   0.312   0.452 -1.1194 -1.6433  0.0622
 8622TIP3   OH225829   0.921   4.320   5.389 -0.0302 -0.7869  0.0456
 8622TIP3    H125830   0.891   4.397   5.437 -3.7492 -3.1117  1.9221
 8622TIP3    H225831   0.854   4.307   5.321  0.5174 -2.3621 -0.2202
 8623TIP3   OH225832   0.723   1.411   1.811 -0.0222  0.0688  0.0155
 8623TIP3    H125833   0.814   1.440   1.798  0.5000 -1.0674  1.0095
 8623TIP3    H225834   0.709   1.345   1.743 -0.7914  1.6288 -1.4166
 8624TIP3   OH225835   0.047   2.604   2.590 -0.0968  0.0952 -0.3794
 8624TIP3    H125836   0.009   2.599   2.502  1.2129  1.1998 -1.0534
 8624TIP3    H225837   0.088   2.519   2.603 -0.7467 -0.2642 -0.6092
 8625TIP3   OH225838   1.203   6.027   4.139 -0.1420 -0.2362 -0.3591
 8625TIP3    H125839   1.108   6.022   4.149 -0.2269  0.6122 -0.6738
 8625TIP3    H225840   1.217   6.094   4.071  0.5770 -2.3689 -2.4751
 8626TIP3   OH225841   5.360   5.094   5.555  0.2735 -0.2538  0.1634
 8626TIP3    H125842   5.383   5.137   5.473  0.1859 -0.9662 -0.2405
 8626TIP3    H225843   5.346   5.002   5.532 -0.8338 -0.2653  0.7709
 8627TIP3   OH225844   2.415   4.562   0.665 -0.1908  0.0023 -0.0678
 8627TIP3    H125845   2.494   4.523   0.701  0.2173 -1.9721 -2.7855
 8627TIP3    H225846   2.417   4.653   0.694  1.6870 -0.6362  2.0408
 8628TIP3   OH225847   0.862   0.249   0.467 -0.5719  0.0001  0.1326
 8628TIP3    H125848   0.815   0.178   0.509 -0.4913  2.0051  4.0988
 8628TIP3    H225849   0.933   0.270   0.528 -0.9198  3.7344 -0.4998
 8629TIP3   OH225850   5.079   6.557   1.845  0.4292  0.3246  0.4294
 8629TIP3    H125851   5.130   6.610   1.783 -2.3984  2.6135 -0.1442
 8629TIP3    H225852   5.023   6.620   1.889 -2.1272 -2.0480  0.7899
 8630TIP3   OH225853   2.633   1.460   4.254  0.4591  0.3521  0.3034
 8630TIP3    H125854   2.700   1.393   4.265 -1.5697 -1.6025  1.6357
 8630TIP3    H225855   2.613   1.460   4.161  1.5250  0.1905  0.0672
 8631TIP3   OH225856   0.523   5.541   0.018  0.0011 -0.1527  0.3172
 8631TIP3    H125857   0.472   5.581   0.088 -0.2249 -0.0184  0.0795
 8631TIP3    H225858   0.506   5.447   0.026 -0.0664 -0.1322  0.4114
 8632TIP3   OH225859   4.323   0.036   1.615 -0.0563  0.2450  0.1731
 8632TIP3    H125860   4.238   0.024   1.657  0.0615 -1.1911  0.0680
 8632TIP3    H225861   4.385  -0.009   1.673  0.4936  0.4876 -0.2163
 8633TIP3   OH225862   4.904   4.002   1.622  0.2306  0.1692 -0.0630
 8633TIP3    H125863   4.982   3.979   1.671 -0.7606  0.4794  1.7247
 8633TIP3    H225864   4.932   4.073   1.564  1.3191  0.1416  0.4118
 8634TIP3   OH225865   5.787   2.765   4.905 -0.4015 -0.6724 -0.0315
 8634TIP3    H125866   5.830   2.699   4.851  0.6009  0.3023 -0.4729
 8634TIP3    H225867   5.847   2.839   4.905 -1.6522  0.3883  0.1239
 8635TIP3   OH225868   2.246   5.397   2.036 -0.1036 -0.0513 -0.1629
 8635TIP3    H125869   2.275   5.318   1.989  1.0089 -0.9035  1.8135
 8635TIP3    H225870   2.281   5.470   1.985  0.8645 -0.9195 -0.7786
 8636TIP3   OH225871   5.424   2.775   1.458  0.2905  0.0890  0.4601
 8636TIP3    H125872   5.467   2.860   1.465  0.1764  0.0782  1.3849
 8636TIP3    H225873   5.462   2.722   1.528  0.8713 -0.8651 -0.5350
 8637TIP3   OH225874   6.718   4.154   3.924  0.5476 -0.1512  0.0529
 8637TIP3    H125875   6.654   4.217   3.956  0.6392 -0.6411  1.2206
 8637TIP3    H225876   6.802   4.197   3.937  0.5125  0.3256 -1.1097
 8638TIP3   OH225877   3.974   6.755   2.978  0.1177 -0.1701 -0.3536
 8638TIP3    H125878   3.994   6.840   3.017  0.3421 -0.4249  0.0910
 8638TIP3    H225879   3.886   6.734   3.009 -0.3000  0.3026 -1.1792
 8639TIP3   OH225880   0.383   2.014   1.916 -0.2630 -0.4621  0.2154
 8639TIP3    H125881   0.416   1.926   1.897  0.7508 -0.1740  0.5707
 8639TIP3    H225882   0.311   1.999   1.978 -0.4738 -1.0670 -0.1606
 8640TIP3   OH225883   6.317   5.199   0.269 -0.2472  0.2874 -0.3080
 8640TIP3    H125884   6.309   5.210   0.174 -0.3803 -0.1569 -0.3534
 8640TIP3    H225885   6.264   5.122   0.288 -0.3151  0.4446  0.1470
 8641TIP3   OH225886   5.165   6.385   0.007 -0.4099  0.5262  0.5414
 8641TIP3    H125887   5.092   6.418   0.060  0.1723  1.3014  0.8730
 8641TIP3    H225888   5.241   6.436   0.035  0.2848 -0.3019  0.2421
 8642TIP3   OH225889   3.706   6.582   0.928  0.4491  0.3995  0.2309
 8642TIP3    H125890   3.707   6.574   1.023 -0.3142  1.1440  0.3060
 8642TIP3    H225891   3.624   6.626   0.908 -0.6796 -2.0135 -0.9521
 8643TIP3   OH225892   6.234   4.897   4.002  0.4141 -0.0010  0.2273
 8643TIP3    H125893   6.309   4.956   4.002  1.1274 -0.8400 -1.6268
 8643TIP3    H225894   6.217   4.878   3.910  0.0634 -2.4830  0.7261
 8644TIP3   OH225895   2.383   0.497   3.216 -0.4195  0.6543 -0.4241
 8644TIP3    H125896   2.322   0.488   3.143 -3.0715  1.8921  1.5154
 8644TIP3    H225897   2.443   0.567   3.188 -1.9452  1.7471 -1.1257
 8645TIP3   OH225898   5.576   3.632   0.109 -0.2018  0.1521  0.3353
 8645TIP3    H125899   5.586   3.634   0.014  0.6656 -0.7238  0.3900
 8645TIP3    H225900   5.508   3.696   0.128  1.6623  2.5690 -0.6129
 8646TIP3   OH225901   0.929   0.503   2.214 -0.0413 -0.5276 -0.0196
 8646TIP3    H125902   0.883   0.585   2.197 -0.0023 -0.3982  0.4950
 8646TIP3    H225903   1.009   0.508   2.162  0.5181  0.2529  0.9020
 8647TIP3   OH225904   3.470   1.386   0.298 -0.4355 -0.3533  0.4605
 8647TIP3    H125905   3.414   1.446   0.347 -1.8712 -1.1619 -0.1126
 8647TIP3    H225906   3.454   1.407   0.206  3.6100  2.4070  0.1360
 8648TIP3   OH225907   6.178   3.333   0.473 -0.1791  0.0430 -0.1857
 8648TIP3    H125908   6.156   3.419   0.507  1.5868 -0.5742  2.8428
 8648TIP3    H225909   6.134   3.271   0.532 -0.8298 -1.2000 -1.8675
 8649TIP3   OH225910   4.909   5.994   5.624 -0.7944 -0.3775  0.2806
 8649TIP3    H125911   5.000   5.998   5.653 -0.8729  1.0429  0.3655
 8649TIP3    H225912   4.900   6.067   5.563 -1.4118 -1.5786 -1.1523
 8650TIP3   OH225913   0.483   5.544   0.619  0.3643  0.4398  0.3108
 8650TIP3    H125914   0.498   5.480   0.550  0.8987  0.8951 -0.0078
 8650TIP3    H225915   0.394   5.527   0.649  0.4060 -0.2682  0.0447
 8651TIP3   OH225916   5.906   2.353   4.265  0.3648 -0.4924 -0.1424
 8651TIP3    H125917   5.825   2.392   4.297  0.2987 -0.8031  0.0785
 8651TIP3    H225918   5.878   2.285   4.203  0.3363 -2.1380  1.5817
 8652TIP3   OH225919   6.669   2.597   2.542 -0.3731 -0.1731 -0.6071
 8652TIP3    H125920   6.594   2.646   2.576  0.5500  0.6788  0.2827
 8652TIP3    H225921   6.644   2.573   2.453 -1.5218  0.4894 -0.4799
 8653TIP3   OH225922   5.161   5.863   3.245  0.3138 -0.0274  0.4562
 8653TIP3    H125923   5.151   5.951   3.207  0.8534  0.0201  0.4068
 8653TIP3    H225924   5.079   5.818   3.224 -1.5456  1.5805  3.5567
 8654TIP3   OH225925   0.634   4.394   3.675 -0.1300  0.2152 -0.3486
 8654TIP3    H125926   0.633   4.490   3.683  1.5510  0.3874 -1.5402
 8654TIP3    H225927   0.614   4.362   3.762  0.4667  1.6817  0.3546
 8655TIP3   OH225928   5.300   1.951   1.286 -0.3283 -0.5227  0.2117
 8655TIP3    H125929   5.370   2.012   1.265 -0.5773 -0.6976 -1.1870
 8655TIP3    H225930   5.344   1.880   1.333  0.5187 -0.8056 -0.9561
 8656TIP3   OH225931   1.176   2.911   5.111  0.2164  0.2167  0.1083
 8656TIP3    H125932   1.259   2.866   5.127  1.4409  0.2652 -4.5624
 8656TIP3    H225933   1.110   2.855   5.152  2.1666 -2.7663 -0.4653
 8657TIP3   OH225934   4.097   4.604   4.314 -0.2756 -0.4008 -0.0082
 8657TIP3    H125935   4.017   4.551   4.311 -0.1080 -0.6203 -2.3952
 8657TIP3    H225936   4.167   4.540   4.329 -0.2493 -0.6949 -1.2273
 8658TIP3   OH225937   2.857   1.913   5.752  0.4715  0.2954  0.2992
 8658TIP3    H125938   2.788   1.857   5.716  0.1602  1.0579 -0.3115
 8658TIP3    H225939   2.844   1.910   5.847  0.0423 -0.1214  0.2300
 8659TIP3   OH225940   3.390   5.718   4.956 -0.3368 -0.0176 -0.1684
 8659TIP3    H125941   3.353   5.787   4.902  1.6245  0.6628 -0.7222
 8659TIP3    H225942   3.443   5.665   4.896  0.0860 -0.5912  0.6817
 8660TIP3   OH225943   6.383   1.858   1.117 -0.2705 -0.1102  0.0408
 8660TIP3    H125944   6.431   1.809   1.050 -1.5126 -1.6552  0.2230
 8660TIP3    H225945   6.441   1.858   1.193  0.5612  0.4493 -0.5784
 8661TIP3   OH225946   4.180   0.546   3.054 -0.4926  0.5245  0.3737
 8661TIP3    H125947   4.092   0.561   3.091 -0.8389  2.1364 -0.9794
 8661TIP3    H225948   4.166   0.482   2.985 -0.1915 -0.9178  1.6048
 8662TIP3   OH225949   6.617   4.963   2.111 -0.2559 -0.4781 -0.4265
 8662TIP3    H125950   6.601   5.052   2.081  2.1278  0.0642 -0.2526
 8662TIP3    H225951   6.668   4.922   2.042  2.6220 -0.1869  1.3761
 8663TIP3   OH225952   3.779   3.150   4.418  0.3500 -0.0177  0.0418
 8663TIP3    H125953   3.849   3.088   4.398  0.4944 -0.1825  1.0284
 8663TIP3    H225954   3.818   3.236   4.402  1.1092 -0.0596  1.4894
 8664TIP3   OH225955   5.876   0.481   0.122  0.4407 -0.3822  0.5362
 8664TIP3    H125956   5.838   0.558   0.163  0.8922 -0.2394  0.6938
 8664TIP3    H225957   5.961   0.471   0.164  0.0531 -1.4534  1.1062
 8665TIP3   OH225958   1.980   5.081   2.165  0.0883  0.2386 -0.4413
 8665TIP3    H125959   1.900   5.066   2.215 -0.5459 -0.3408 -1.5726
 8665TIP3    H225960   1.962   5.042   2.079  1.7326 -0.2670 -0.6016
 8666TIP3   OH225961   6.953   0.952   4.363 -0.1732  0.0716  0.0971
 8666TIP3    H125962   7.023   0.963   4.427  0.6560 -0.0959 -0.7423
 8666TIP3    H225963   6.968   1.022   4.299  2.0742 -2.5287 -2.5547
 8667TIP3   OH225964   6.598   3.089   4.713  0.4241  0.4998  0.0865
 8667TIP3    H125965   6.628   3.179   4.728 -0.1634  0.6820  0.1850
 8667TIP3    H225966   6.503   3.093   4.723  0.3003  0.0519 -0.8458
 8668TIP3   OH225967   2.193   4.587   2.972  0.0006  0.4703 -0.1588
 8668TIP3    H125968   2.171   4.628   2.889  0.4398  1.8452  0.3638
 8668TIP3    H225969   2.160   4.648   3.039  1.5894  0.5132  0.6435
 8669TIP3   OH225970   6.434   1.408   0.806  0.7499  0.0322 -0.2980
 8669TIP3    H125971   6.406   1.499   0.815  1.5887  0.1475  1.7506
 8669TIP3    H225972   6.498   1.410   0.735  2.3406  1.5045  1.0695
 8670TIP3   OH225973   2.556   5.705   5.434  0.2398  0.3762 -0.0496
 8670TIP3    H125974   2.632   5.648   5.425  0.1344  0.3133 -0.5744
 8670TIP3    H225975   2.483   5.653   5.402  0.0862  0.6797 -0.1971
 8671TIP3   OH225976   2.127   6.337   2.450 -0.2837 -0.8392 -0.9168
 8671TIP3    H125977   2.054   6.346   2.388 -0.7507 -1.1871 -0.4248
 8671TIP3    H225978   2.186   6.274   2.408 -0.7151 -1.2598 -0.9107
 8672TIP3   OH225979   1.719   4.436   5.075 -0.5137  0.1149 -0.1736
 8672TIP3    H125980   1.773   4.377   5.022  0.3847  1.8165 -1.2757
 8672TIP3    H225981   1.766   4.445   5.157  0.4353  0.8387 -0.7705
 8673TIP3   OH225982   4.418   3.599   1.917 -0.0060 -0.0885  0.8534
 8673TIP3    H125983   4.346   3.537   1.929  0.0163 -0.4354 -0.5627
 8673TIP3    H225984   4.388   3.657   1.847  1.5530 -1.0620 -0.7237
 8674TIP3   OH225985   1.445   4.188   2.275  0.0395 -0.0204 -0.1113
 8674TIP3    H125986   1.495   4.261   2.239  2.2258 -0.2984  2.1155
 8674TIP3    H225987   1.401   4.225   2.352 -2.0800 -0.1701 -1.1720
 8675TIP3   OH225988   1.412   2.572   1.595  0.0165 -0.1678 -0.1255
 8675TIP3    H125989   1.421   2.477   1.594  0.9878 -0.1024  0.7304
 8675TIP3    H225990   1.473   2.601   1.663 -1.5323  0.9409  0.8427
 8676TIP3   OH225991   0.675   1.083   1.096 -0.5814  0.1227  0.6163
 8676TIP3    H125992   0.664   1.050   1.185  2.4973  3.4207  2.4773
 8676TIP3    H225993   0.637   1.171   1.099  1.5154  1.1362 -0.5919
 8677TIP3   OH225994   2.709   0.211   4.606  0.2624 -0.4921  0.1607
 8677TIP3    H125995   2.662   0.273   4.662 -0.5837 -0.6092 -0.4054
 8677TIP3    H225996   2.664   0.216   4.522  1.8237  0.0409 -0.6760
 8678TIP3   OH225997   2.056   2.116   1.333  0.3282  0.0125 -0.3065
 8678TIP3    H125998   2.022   2.204   1.347  1.0781  0.4571 -1.1431
 8678TIP3    H225999   2.094   2.118   1.245 -1.1451 -1.6373 -1.0565
 8679TIP3   OH226000   0.331   3.159   4.300 -0.4646 -0.5075 -0.1272
 8679TIP3    H126001   0.332   3.064   4.309 -2.2357 -0.5544  0.0940
 8679TIP3    H226002   0.373   3.191   4.380  1.5757 -1.0748 -0.9166
 8680TIP3   OH226003   4.993   1.878   4.045 -0.0715 -0.1281 -0.4011
 8680TIP3    H126004   4.925   1.875   3.978 -1.6334 -0.2077  1.1053
 8680TIP3    H226005   5.032   1.790   4.043  0.0544 -0.0589 -1.3309
 8681TIP3   OH226006   2.346   6.679   4.903  0.1590 -0.3462  0.3422
 8681TIP3    H126007   2.260   6.638   4.906  0.7945 -1.7051  2.2860
 8681TIP3    H226008   2.366   6.686   4.810 -1.8977 -0.2959 -0.1379
 8682TIP3   OH226009   0.436   3.659   4.519 -0.2243  0.4536  0.5637
 8682TIP3    H126010   0.524   3.635   4.490 -0.5883 -1.0907  0.6533
 8682TIP3    H226011   0.401   3.713   4.448  0.2543 -0.1746 -0.1627
 8683TIP3   OH226012   4.675   2.189   3.117 -0.5916  0.1753 -0.0614
 8683TIP3    H126013   4.638   2.274   3.139  1.2543  0.8958  0.3946
 8683TIP3    H226014   4.724   2.163   3.194 -1.6337 -1.6481  0.0569
 8684TIP3   OH226015   5.122   0.339   3.594  0.1442  0.0557  0.1895
 8684TIP3    H126016   5.212   0.312   3.616  0.1206  2.0422  3.3531
 8684TIP3    H226017   5.132   0.417   3.540  0.3645  0.7825  1.2623
 8685TIP3   OH226018   3.354   4.007   3.368  0.3473 -0.2985 -0.0713
 8685TIP3    H126019   3.356   4.002   3.464  0.1302  2.7767  0.2024
 8685TIP3    H226020   3.438   4.047   3.345  0.2667 -0.7430 -1.1655
 8686TIP3   OH226021   0.514   4.359   5.358  0.2763  0.4722 -0.2732
 8686TIP3    H126022   0.445   4.362   5.292  0.2739 -0.5850 -0.3379
 8686TIP3    H226023   0.592   4.331   5.311 -0.0545 -1.7377  0.3953
 8687TIP3   OH226024   7.113   6.285   1.511  0.0156 -0.5645  0.0821
 8687TIP3    H126025   7.194   6.252   1.549  0.2011  1.9597  2.1559
 8687TIP3    H226026   7.050   6.214   1.523  1.0901 -1.3116  1.5259
 8688TIP3   OH226027   3.476   4.533   5.388 -0.4666  0.1088  0.5448
 8688TIP3    H126028   3.491   4.452   5.436 -1.3473  0.1793  0.9604
 8688TIP3    H226029   3.460   4.506   5.298  2.0430  0.0253  0.0430
 8689TIP3   OH226030   1.843   6.290   5.619 -0.2742 -0.2074 -0.2826
 8689TIP3    H126031   1.781   6.263   5.551  1.0376 -1.9967 -0.8576
 8689TIP3    H226032   1.884   6.369   5.585  0.1308 -0.8973 -1.4643
 8690TIP3   OH226033   2.048   2.980   0.685 -0.6133  0.0958 -0.3131
 8690TIP3    H126034   2.037   2.885   0.698 -0.2029  0.1523  0.5261
 8690TIP3    H226035   1.959   3.015   0.692 -0.9222 -0.3292 -1.7093
 8691TIP3   OH226036   1.458   5.761   3.560  0.5030  0.0687  0.3977
 8691TIP3    H126037   1.418   5.847   3.553 -1.9147 -0.9474  0.4967
 8691TIP3    H226038   1.434   5.730   3.648  1.2040 -0.7591  0.3180
 8692TIP3   OH226039   1.523   5.829   4.066  0.2572 -0.3225  0.2648
 8692TIP3    H126040   1.501   5.890   4.137 -0.8142 -2.3668  1.7992
 8692TIP3    H226041   1.588   5.771   4.105 -0.0868 -1.2661 -0.5416
 8693TIP3   OH226042   1.130   0.573   2.833 -0.0094 -0.2455 -0.3462
 8693TIP3    H126043   1.212   0.571   2.883  0.8117  0.9738 -1.5632
 8693TIP3    H226044   1.140   0.504   2.768  0.7739  0.8978 -1.4953
 8694TIP3   OH226045   0.844   3.209   0.970 -0.3327 -0.2491  0.3828
 8694TIP3    H126046   0.781   3.197   1.041  0.0223  0.7347  0.8877
 8694TIP3    H226047   0.808   3.281   0.917  0.2731  0.2241  0.5964
 8695TIP3   OH226048   6.163   3.438   4.118  0.0688 -0.2640  0.0148
 8695TIP3    H126049   6.222   3.497   4.166 -0.3415 -0.1823  0.4215
 8695TIP3    H226050   6.222   3.384   4.065  0.5208 -0.2498  0.4909
 8696TIP3   OH226051   3.828   0.515   2.873  0.0142  0.2139  0.4050
 8696TIP3    H126052   3.745   0.540   2.912 -0.3932 -0.5386  0.0294
 8696TIP3    H226053   3.826   0.419   2.869  0.7299  0.2002  0.0301
 8697TIP3   OH226054   0.295   3.430   0.227 -0.4487  0.4533  1.0757
 8697TIP3    H126055   0.348   3.402   0.302  0.6648  0.2355  0.2256
 8697TIP3    H226056   0.310   3.364   0.160 -2.4976 -0.0928  1.0784
 8698TIP3   OH226057   3.512   2.892   1.526  0.5172 -0.2640 -0.0902
 8698TIP3    H126058   3.486   2.955   1.459 -0.1386  0.1437  0.5349
 8698TIP3    H226059   3.571   2.940   1.584  1.1278 -0.6328 -0.3895
 8699TIP3   OH226060   2.202   2.896   0.439  0.0500  0.3329 -0.3771
 8699TIP3    H126061   2.133   2.905   0.374  0.5183 -1.0586 -1.0935
 8699TIP3    H226062   2.163   2.931   0.520 -1.1472  0.4340 -0.9804
 8700TIP3   OH226063   0.661   6.385   0.362 -0.3801  0.1606 -0.1368
 8700TIP3    H126064   0.590   6.426   0.412 -0.1280 -1.6145  1.8029
 8700TIP3    H226065   0.618   6.316   0.312 -0.0392 -1.1368  1.2968
 8701TIP3   OH226066   4.765   0.899   0.776  0.4199  0.4756  0.5724
 8701TIP3    H126067   4.707   0.837   0.730 -0.2378  2.0875 -0.9171
 8701TIP3    H226068   4.800   0.850   0.850 -1.0053 -1.2927  0.1404
 8702TIP3   OH226069   0.709   3.047   3.673 -0.0436 -0.0063 -0.4185
 8702TIP3    H126070   0.679   3.052   3.764  0.5961  1.1255 -0.2472
 8702TIP3    H226071   0.630   3.024   3.623 -0.4855 -0.2610  0.3766
 8703TIP3   OH226072   0.723   2.312   0.522  0.1202  0.0021 -0.6292
 8703TIP3    H126073   0.723   2.241   0.586 -0.6840  0.7409  0.2147
 8703TIP3    H226074   0.802   2.297   0.470  2.2148  0.7289  2.0715
 8704TIP3   OH226075   1.688   4.775   1.019 -0.5567 -0.5169 -0.2078
 8704TIP3    H126076   1.758   4.759   1.083  0.0431 -2.2793 -1.2324
 8704TIP3    H226077   1.614   4.805   1.072  0.5870  0.1836  1.0501
 8705TIP3   OH226078   0.904   3.225   0.035 -0.0722  0.7851  0.3478
 8705TIP3    H126079   0.891   3.131   0.020 -2.7386  0.9536  1.2097
 8705TIP3    H226080   0.953   3.230   0.118  0.7032  0.1815 -0.0594
 8706TIP3   OH226081   5.795   0.484   1.536  0.2165  0.8446 -0.0029
 8706TIP3    H126082   5.776   0.505   1.445 -1.2596  3.0423  0.7270
 8706TIP3    H226083   5.769   0.392   1.545  1.8356  0.0878 -2.1031
 8707TIP3   OH226084   6.559   0.676   0.627  0.3564  0.0274 -0.1658
 8707TIP3    H126085   6.514   0.758   0.647 -0.1263  0.2123 -1.7870
 8707TIP3    H226086   6.518   0.647   0.545 -0.2096 -2.3754  0.8994
 8708TIP3   OH226087   4.763   6.685   4.763  0.3702 -0.1735  0.1566
 8708TIP3    H126088   4.721   6.711   4.681  1.2356  0.5524 -0.0652
 8708TIP3    H226089   4.703   6.619   4.800 -0.0224 -0.5295 -1.0514
 8709TIP3   OH226090   2.016   4.066   2.273 -0.1200  0.6484 -0.2445
 8709TIP3    H126091   1.967   4.134   2.227 -0.4015 -0.2468 -1.3141
 8709TIP3    H226092   2.104   4.102   2.285 -0.4501  1.4424 -0.2240
 8710TIP3   OH226093   6.437   5.640   4.664 -0.2802  0.1814  0.0632
 8710TIP3    H126094   6.527   5.644   4.632 -0.5622 -0.9704 -0.9526
 8710TIP3    H226095   6.444   5.592   4.747 -0.0932 -1.1951 -0.7128
 8711TIP3   OH226096   0.480   2.914   1.292 -0.1419  0.2454 -0.1521
 8711TIP3    H126097   0.536   2.881   1.363 -2.2837 -1.8054  0.6870
 8711TIP3    H226098   0.394   2.926   1.332 -0.6027  2.5099 -1.6156
 8712TIP3   OH226099   4.101   0.362   1.611  0.2610 -0.4772 -0.6574
 8712TIP3    H126100   4.077   0.401   1.527 -0.8170  1.2432  0.4054
 8712TIP3    H226101   4.167   0.421   1.647  0.0616 -0.7062  0.0993
 8713TIP3   OH226102   1.574   5.976   2.560  0.5263 -0.2502  0.3338
 8713TIP3    H126103   1.648   6.017   2.515 -0.9386 -0.2676 -2.2394
 8713TIP3    H226104   1.610   5.895   2.596  2.1488  0.5989  0.7825
 8714TIP3   OH226105   4.965   6.359   4.562  0.3862 -0.4145  0.6836
 8714TIP3    H126106   5.018   6.280   4.576  1.3593  0.2982  1.0967
 8714TIP3    H226107   5.004   6.402   4.487 -0.1925 -0.3531  0.4120
 8715TIP3   OH226108   6.831   3.907   2.113  0.5746 -0.5474  0.1804
 8715TIP3    H126109   6.759   3.948   2.160  0.3595  0.6969 -1.1381
 8715TIP3    H226110   6.816   3.813   2.122 -0.5313 -0.3188  0.9182
 8716TIP3   OH226111   5.391   2.058   1.815  0.4519  0.3511 -0.2906
 8716TIP3    H126112   5.372   2.103   1.897  3.9163  0.7836  0.4555
 8716TIP3    H226113   5.355   2.114   1.747 -0.9304  0.8964  0.8452
 8717TIP3   OH226114   4.864   5.505   1.941  0.6038 -0.0682  0.2617
 8717TIP3    H126115   4.891   5.414   1.928  1.7931  0.4791 -1.4529
 8717TIP3    H226116   4.769   5.502   1.939  0.5607 -1.4697  1.9236
 8718TIP3   OH226117   6.195   1.326   2.851  0.4673  0.2200  0.1841
 8718TIP3    H126118   6.138   1.250   2.849  0.6109  0.1262 -0.8042
 8718TIP3    H226119   6.228   1.329   2.941 -1.9713  0.9457  1.1345
 8719TIP3   OH226120   0.336   4.632   5.868 -0.2300 -0.1791 -0.3508
 8719TIP3    H126121   0.376   4.551   5.898 -1.1154 -1.3725 -2.2065
 8719TIP3    H226122   0.402   4.672   5.812  0.3076  0.5702  0.7695
 8720TIP3   OH226123   5.785   0.526   5.517 -0.1360  0.3380  0.2914
 8720TIP3    H126124   5.720   0.492   5.456  0.3440  1.3290 -0.8000
 8720TIP3    H226125   5.869   0.498   5.481  0.1957  1.5960  0.0526
 8721TIP3   OH226126   1.401   4.803   3.044  0.4761  0.2451  0.1534
 8721TIP3    H126127   1.438   4.856   3.115  0.2190  0.5456  0.0630
 8721TIP3    H226128   1.351   4.734   3.089  2.6123 -1.2922  0.3449
 8722TIP3   OH226129   4.710   6.552   3.266 -0.3778  0.3127  0.5172
 8722TIP3    H126130   4.624   6.576   3.231 -0.3945  0.0986  0.4151
 8722TIP3    H226131   4.772   6.597   3.208 -0.3902 -0.4339 -0.0914
 8723TIP3   OH226132   5.747   5.938   0.163 -0.4432  0.0226 -0.2473
 8723TIP3    H126133   5.668   5.969   0.208 -0.5924 -1.3106  0.4518
 8723TIP3    H226134   5.815   5.941   0.230 -0.3011 -0.4898 -0.3674
 8724TIP3   OH226135   2.536   4.870   0.311  0.3367 -0.4161  0.4513
 8724TIP3    H126136   2.459   4.927   0.312  0.3181 -0.4478  0.7301
 8724TIP3    H226137   2.551   4.848   0.403 -0.5667 -2.1181  0.2217
 8725TIP3   OH226138   4.168   3.962   4.225 -0.1890  0.2434  0.1898
 8725TIP3    H126139   4.181   4.008   4.307 -0.7571  2.1059 -0.7115
 8725TIP3    H226140   4.230   4.003   4.164 -0.7535 -0.1228 -0.6634
 8726TIP3   OH226141   1.047   0.787   1.071  0.4065  0.0518 -0.0355
 8726TIP3    H126142   1.030   0.803   0.978  0.3026  0.4255  0.0457
 8726TIP3    H226143   1.033   0.872   1.113 -0.2421 -0.2691  0.4224
 8727TIP3   OH226144   2.922   4.733   2.603 -0.2635  0.3396 -0.0031
 8727TIP3    H126145   2.863   4.731   2.679  0.4111  1.4856  0.5910
 8727TIP3    H226146   2.915   4.646   2.565 -1.4115  0.0624  0.7651
 8728TIP3   OH226147   5.695   0.650   0.262  0.3244  0.1288 -0.2802
 8728TIP3    H126148   5.702   0.743   0.283 -0.8828  0.2336 -0.2480
 8728TIP3    H226149   5.668   0.648   0.170  0.0362 -0.1693 -0.1936
 8729TIP3   OH226150   6.804   6.127   3.088 -0.6589 -0.0582 -0.4250
 8729TIP3    H126151   6.768   6.153   3.173  1.3433 -1.6516  1.0027
 8729TIP3    H226152   6.769   6.040   3.072 -0.4894 -0.0373 -0.9378
 8730TIP3   OH226153   3.913   5.928   0.593 -0.3437 -0.7303  0.4611
 8730TIP3    H126154   3.994   5.969   0.625 -0.0874  0.0556 -1.1034
 8730TIP3    H226155   3.844   5.968   0.646 -0.1759  2.3224 -1.3986
 8731TIP3   OH226156   4.452   4.087   2.571  0.3117  0.1623 -0.0483
 8731TIP3    H126157   4.479   4.027   2.501 -2.8352 -0.4662 -0.8433
 8731TIP3    H226158   4.360   4.066   2.587 -0.4275  3.5524  0.9282
 8732TIP3   OH226159   4.551   0.564   5.063  0.2359 -0.2143  0.1768
 8732TIP3    H126160   4.564   0.521   4.978  0.7679  0.8993 -0.3194
 8732TIP3    H226161   4.591   0.650   5.053 -0.6772  0.3582  1.1999
 8733TIP3   OH226162   4.557   6.452   3.823 -0.0069 -0.3480 -0.6569
 8733TIP3    H126163   4.577   6.412   3.908  0.2590  1.7624  0.3287
 8733TIP3    H226164   4.566   6.380   3.761  3.0241 -1.3263  0.6824
 8734TIP3   OH226165   6.434   3.996   3.852  0.6730  0.5509  0.2008
 8734TIP3    H126166   6.450   3.912   3.811  0.9779  0.3745  0.6828
 8734TIP3    H226167   6.509   4.050   3.829  0.3046  0.8115 -0.4131
 8735TIP3   OH226168   6.336   0.606   3.368  0.3824  0.8112 -0.2940
 8735TIP3    H126169   6.410   0.634   3.421  1.1940  0.6297 -1.3035
 8735TIP3    H226170   6.362   0.625   3.278 -0.6785  0.4769 -0.6864
 8736TIP3   OH226171   3.773   1.289   0.587  0.6196  0.2533  0.4496
 8736TIP3    H126172   3.769   1.334   0.503 -0.4213 -0.1802  0.2566
 8736TIP3    H226173   3.777   1.359   0.652 -0.3001  0.6226  0.1216
 8737TIP3   OH226174   1.653   3.302   3.879  0.2946 -0.0975 -0.7128
 8737TIP3    H126175   1.666   3.371   3.944  0.9225  0.1655 -1.1073
 8737TIP3    H226176   1.663   3.220   3.929 -1.4851  0.0598 -0.0346
 8738TIP3   OH226177   1.598   5.331   1.057  0.0181  0.3887  0.6337
 8738TIP3    H126178   1.540   5.271   1.105  0.4905 -0.7260 -0.1293
 8738TIP3    H226179   1.624   5.397   1.122 -3.2292  1.8141  0.6523
 8739TIP3   OH226180   7.083   6.149   3.423  0.6878 -0.0684 -0.2718
 8739TIP3    H126181   7.020   6.170   3.491 -0.1762 -0.7047 -0.8434
 8739TIP3    H226182   7.097   6.231   3.376  0.8400  0.2375  0.3112
 8740TIP3   OH226183   1.906   5.877   5.350  0.4088  0.0130 -0.4146
 8740TIP3    H126184   2.001   5.866   5.359  1.0248  1.0627 -3.8781
 8740TIP3    H226185   1.878   5.912   5.434  2.7652 -1.8679  1.2982
 8741TIP3   OH226186   1.281   6.797   3.411 -0.4916  0.0590 -0.3500
 8741TIP3    H126187   1.208   6.859   3.413  0.4558  1.1916  0.3083
 8741TIP3    H226188   1.251   6.726   3.354 -2.4143  0.0972  0.5346
 8742TIP3   OH226189   6.785   0.413   3.702  0.1803  0.0206  0.7034
 8742TIP3    H126190   6.784   0.443   3.611  1.7109 -0.0590  0.6410
 8742TIP3    H226191   6.712   0.460   3.743  1.2366  2.2971  0.1355
 8743TIP3   OH226192   6.059   1.775   5.683  0.1350  0.2116  0.1808
 8743TIP3    H126193   5.986   1.824   5.646 -0.5542 -0.6875  0.3238
 8743TIP3    H226194   6.133   1.836   5.679  0.0712  0.2175 -2.4980
 8744TIP3   OH226195   7.048   2.632   3.179  0.2946  0.5649 -0.1313
 8744TIP3    H126196   7.129   2.676   3.205  0.0365  1.0946 -0.2219
 8744TIP3    H226197   7.062   2.540   3.204  0.9479  0.6371 -0.2046
 8745TIP3   OH226198   1.955   6.208   0.758 -0.5026 -0.3588  0.0642
 8745TIP3    H126199   1.947   6.303   0.768  3.2786 -0.0677  1.7467
 8745TIP3    H226200   1.875   6.183   0.710 -1.8027  3.5551 -0.2065
 8746TIP3   OH226201   2.258   3.201   1.065  0.6572 -0.0835 -0.0814
 8746TIP3    H126202   2.199   3.176   0.994  0.0824 -1.0832  0.7109
 8746TIP3    H226203   2.268   3.295   1.057 -0.0071 -0.0879 -1.0241
 8747TIP3   OH226204   4.186   4.773   2.977 -0.2383 -0.2484 -0.3150
 8747TIP3    H126205   4.195   4.752   2.884  0.4771 -1.1879 -0.0514
 8747TIP3    H226206   4.254   4.721   3.020  0.7357  1.6429  0.5473
 8748TIP3   OH226207   4.902   4.316   1.799  0.7908  0.3110  0.0373
 8748TIP3    H126208   4.948   4.379   1.855  0.2166  0.1023  0.7554
 8748TIP3    H226209   4.811   4.321   1.827  0.7639 -0.9983  0.2667
 8749TIP3   OH226210   6.189   5.784   3.972 -0.2615 -0.3323 -0.2289
 8749TIP3    H126211   6.110   5.761   3.922 -0.5778 -0.4961  0.3406
 8749TIP3    H226212   6.253   5.718   3.947 -0.9559 -1.4635  0.8847
 8750TIP3   OH226213   0.008   2.618   0.595  0.2891  0.4922  0.4574
 8750TIP3    H126214  -0.009   2.578   0.680 -0.2548  0.9643  0.5803
 8750TIP3    H226215   0.096   2.589   0.571 -1.0386 -3.1057 -0.7601
 8751TIP3   OH226216   0.583   1.904   2.603  0.1399 -0.3367 -0.2193
 8751TIP3    H126217   0.578   1.977   2.541  0.8318  0.1530  0.2806
 8751TIP3    H226218   0.643   1.935   2.671 -1.7634 -0.2368  1.5140
 8752TIP3   OH226219   6.349   2.117   2.517  0.4144  0.3234  0.1290
 8752TIP3    H126220   6.281   2.104   2.584  1.3424 -0.0734  1.0168
 8752TIP3    H226221   6.301   2.148   2.440 -0.5186  2.2912  1.4294
 8753TIP3   OH226222   2.433   4.799   0.861 -0.2379 -0.4150  0.7880
 8753TIP3    H126223   2.467   4.802   0.951  0.2053 -2.1087  0.7226
 8753TIP3    H226224   2.339   4.781   0.873  0.1973 -2.9754  0.9649
 8754TIP3   OH226225   0.887   3.383   4.365 -0.3674  0.4034 -0.3065
 8754TIP3    H126226   0.855   3.293   4.374  0.7252  0.1948  2.1656
 8754TIP3    H226227   0.964   3.376   4.308  0.3982 -0.4333  0.8004
 8755TIP3   OH226228   4.875   1.242   1.021 -0.2844 -0.0857 -0.5717
 8755TIP3    H126229   4.906   1.258   1.110 -1.6296 -0.3044 -0.0502
 8755TIP3    H226230   4.921   1.308   0.968  1.4958 -0.7655  0.0614
 8756TIP3   OH226231   6.711   3.156   5.613  0.1717  0.1908  0.3685
 8756TIP3    H126232   6.748   3.158   5.701  1.9198  0.0744 -0.3420
 8756TIP3    H226233   6.784   3.132   5.556 -1.6045 -3.3354 -0.7501
 8757TIP3   OH226234   1.151   5.575   5.420 -0.5176 -0.3078  0.3414
 8757TIP3    H126235   1.083   5.550   5.357 -0.6776 -0.0688  0.4192
 8757TIP3    H226236   1.123   5.661   5.452 -0.2276 -0.2519  0.4431
 8758TIP3   OH226237   0.189   4.292   0.218 -0.5984 -0.3893 -0.1251
 8758TIP3    H126238   0.165   4.211   0.174 -0.8903  0.4950 -1.6699
 8758TIP3    H226239   0.172   4.275   0.311 -2.2479 -1.5418 -0.5933
 8759TIP3   OH226240   4.735   0.154   4.634 -0.1113  0.0243 -0.3983
 8759TIP3    H126241   4.825   0.160   4.667 -0.3863  1.2407  0.1726
 8759TIP3    H226242   4.716   0.241   4.599 -1.4548  0.1613  0.5663
 8760TIP3   OH226243   1.334   1.158   3.959  0.4500 -0.1787 -0.2371
 8760TIP3    H126244   1.351   1.241   4.003 -0.7972 -0.1855  0.3025
 8760TIP3    H226245   1.364   1.091   4.021  2.0511 -0.1591 -0.9334
 8761TIP3   OH226246   4.848   0.512   1.500 -0.1365  0.4946 -0.2889
 8761TIP3    H126247   4.924   0.554   1.460  0.7371  0.0165  0.8296
 8761TIP3    H226248   4.877   0.422   1.519 -1.5354 -0.2394 -1.4006
 8762TIP3   OH226249   1.199   5.448   4.744 -0.0168 -0.3890 -0.2844
 8762TIP3    H126250   1.169   5.436   4.834 -0.9005  3.5585  0.1277
 8762TIP3    H226251   1.294   5.448   4.750 -0.0649 -0.3533  0.6247
 8763TIP3   OH226252   2.840   4.078   0.625 -0.0156  0.1296 -0.3563
 8763TIP3    H126253   2.752   4.061   0.593 -0.3745  0.0416  0.6386
 8763TIP3    H226254   2.897   4.061   0.550 -0.8686  0.5393 -1.1134
 8764TIP3   OH226255   6.796   5.369   3.056  0.2264  0.0485 -0.0001
 8764TIP3    H126256   6.881   5.336   3.086 -0.9746 -2.5372  0.8592
 8764TIP3    H226257   6.787   5.335   2.967  1.0042  2.2499 -0.9779
 8765TIP3   OH226258   4.216   5.861   2.229  0.1594 -0.4911  0.4115
 8765TIP3    H126259   4.288   5.923   2.236 -1.1578  1.0010  1.3409
 8765TIP3    H226260   4.183   5.852   2.319  0.1443 -2.3747  0.2751
 8766TIP3   OH226261   3.464   3.742   1.315 -0.2230 -0.6510 -0.7062
 8766TIP3    H126262   3.406   3.812   1.344 -0.9049 -0.9713 -1.2796
 8766TIP3    H226263   3.413   3.662   1.326  0.6906 -1.1233  0.3299
 8767TIP3   OH226264   0.981   0.248   3.690 -0.2377  0.2351  0.1659
 8767TIP3    H126265   1.019   0.239   3.777  0.7458  0.2718 -0.2461
 8767TIP3    H226266   1.012   0.333   3.659  0.5195 -0.3497 -0.7333
 8768TIP3   OH226267   3.107   4.546   4.248 -0.1783 -0.5234  0.0888
 8768TIP3    H126268   3.163   4.552   4.171 -1.2834 -0.8001 -0.7607
 8768TIP3    H226269   3.019   4.565   4.216 -0.6457 -0.4973  1.3149
 8769TIP3   OH226270   0.231   3.333   3.215  0.3334  0.4639  0.2125
 8769TIP3    H126271   0.281   3.253   3.197  1.6122  1.3262 -0.2156
 8769TIP3    H226272   0.235   3.383   3.133  0.5256  1.4699  0.8195
 8770TIP3   OH226273   2.839   4.792   4.716 -0.1378  0.1747  0.4551
 8770TIP3    H126274   2.773   4.843   4.670  0.1657  0.6852  0.5808
 8770TIP3    H226275   2.921   4.841   4.703  0.4180 -0.9746 -0.5751
 8771TIP3   OH226276   6.626   4.573   2.810  0.0763 -0.1213 -0.1141
 8771TIP3    H126277   6.554   4.583   2.873  2.8899  1.3428  3.2169
 8771TIP3    H226278   6.626   4.656   2.762  0.9323  0.9471  1.6238
 8772TIP3   OH226279   6.350   6.624   4.672 -0.1791  0.2278 -0.4864
 8772TIP3    H126280   6.297   6.702   4.691 -0.6687 -0.1933 -0.1157
 8772TIP3    H226281   6.423   6.658   4.620  0.2359  1.1267  0.6333
 8773TIP3   OH226282   1.230   1.016   1.611  0.1083 -0.5691  0.3157
 8773TIP3    H126283   1.283   1.076   1.558 -0.0323  0.4578  1.2798
 8773TIP3    H226284   1.248   0.929   1.576 -0.6456  0.1195 -1.9820
 8774TIP3   OH226285   0.195   4.140   5.168  0.5847 -0.1062 -0.0822
 8774TIP3    H126286   0.241   4.077   5.113  0.0857 -0.3955 -0.1800
 8774TIP3    H226287   0.183   4.096   5.252  1.1196  0.2401  0.1780
 8775TIP3   OH226288   3.072   1.264   1.256  0.2909  0.0835  0.3309
 8775TIP3    H126289   3.143   1.301   1.203  1.5304 -1.4771  0.8342
 8775TIP3    H226290   3.083   1.169   1.248 -1.9390 -0.2230  0.1954
 8776TIP3   OH226291   0.092   1.558   2.031 -0.3582 -0.2679  0.2372
 8776TIP3    H126292   0.061   1.597   1.949 -1.6175 -0.0181  0.8086
 8776TIP3    H226293   0.022   1.577   2.094  1.0548  0.4828  1.6458
 8777TIP3   OH226294   1.477   2.090   3.659  0.0384  0.8186  0.8303
 8777TIP3    H126295   1.400   2.038   3.637  1.4119 -0.9916  0.0050
 8777TIP3    H226296   1.505   2.127   3.575  1.6143 -0.8445  0.5543
 8778TIP3   OH226297   0.611   2.427   5.585  0.3052  0.1350  0.1806
 8778TIP3    H126298   0.618   2.439   5.490  0.2278  0.0345  0.1616
 8778TIP3    H226299   0.519   2.441   5.604  0.0650 -1.1126  0.0521
 8779TIP3   OH226300   6.869   5.050   4.778  0.3847  0.4998 -0.2931
 8779TIP3    H126301   6.776   5.047   4.758  0.5359  0.7196 -1.0540
 8779TIP3    H226302   6.900   4.960   4.767  0.7153  0.8225 -2.3444
 8780TIP3   OH226303   7.007   2.772   1.333  0.3417 -0.4674  0.3069
 8780TIP3    H126304   6.991   2.865   1.315 -0.4209 -0.6149  0.2010
 8780TIP3    H226305   6.942   2.726   1.280 -0.4728 -0.9823  1.6971
 8781TIP3   OH226306   6.750   0.599   4.957  0.0140  0.0402 -0.3076
 8781TIP3    H126307   6.754   0.594   4.861 -2.0188 -0.4455 -0.4225
 8781TIP3    H226308   6.662   0.569   4.979  0.2417  0.6559  1.6966
 8782TIP3   OH226309   4.342   0.484   1.671 -0.2953 -0.1731 -0.2716
 8782TIP3    H126310   4.381   0.565   1.638  0.1335 -0.1473  0.2669
 8782TIP3    H226311   4.414   0.421   1.671 -0.4013 -0.3020  0.1520
 8783TIP3   OH226312   6.273   6.652   2.747 -0.3093  0.4923  0.8635
 8783TIP3    H126313   6.352   6.635   2.798  1.1845  1.0241 -1.1824
 8783TIP3    H226314   6.270   6.747   2.737 -0.2507  0.3761 -0.4716
 8784TIP3   OH226315   7.125   0.935   1.184 -0.3525 -0.1031  0.0501
 8784TIP3    H126316   7.199   0.919   1.126 -0.1025  1.6295 -0.1733
 8784TIP3    H226317   7.050   0.945   1.126 -0.4655 -0.2985  0.1621
 8785TIP3   OH226318   1.623   4.307   3.072 -0.0252  0.4487  0.0946
 8785TIP3    H126319   1.685   4.350   3.013  0.0724  0.3984  0.1600
 8785TIP3    H226320   1.539   4.309   3.025 -0.5123  2.5475  0.9308
 8786TIP3   OH226321   2.361   0.695   3.478 -0.6532 -0.2533  0.1336
 8786TIP3    H126322   2.413   0.773   3.499 -2.8153  1.0945  0.8274
 8786TIP3    H226323   2.331   0.710   3.388 -1.5712  0.0553  0.4760
 8787TIP3   OH226324   4.392   5.475   1.729 -0.0914  0.2626  0.2668
 8787TIP3    H126325   4.457   5.407   1.714  0.3330  0.2971  1.7387
 8787TIP3    H226326   4.400   5.533   1.653  1.2980  0.0214  0.1979
 8788TIP3   OH226327   1.887   1.094   5.365  0.2444  0.1356  0.2171
 8788TIP3    H126328   1.817   1.076   5.301  0.9937  1.9293 -1.2068
 8788TIP3    H226329   1.842   1.136   5.438 -0.2908  0.5074 -0.3117
 8789TIP3   OH226330   0.290   4.895   0.538  0.9415  0.3686 -0.0243
 8789TIP3    H126331   0.285   4.960   0.608 -0.2946  0.6600 -0.3553
 8789TIP3    H226332   0.344   4.937   0.471  1.4139  0.4368  0.3940
 8790TIP3   OH226333   4.474   0.534   3.112  0.2608  0.4003  0.2699
 8790TIP3    H126334   4.516   0.603   3.061  0.1709  0.3361  0.1093
 8790TIP3    H226335   4.382   0.538   3.086  0.4034 -0.3539 -0.3827
 8791TIP3   OH226336   6.643   4.292   2.215 -0.0489  0.0564 -0.0009
 8791TIP3    H126337   6.613   4.201   2.211  0.2461 -0.0114 -1.0824
 8791TIP3    H226338   6.600   4.335   2.140 -0.0363  0.7657  0.3835
 8792TIP3   OH226339   2.011   3.406   2.945 -0.6720 -0.6486 -0.0865
 8792TIP3    H126340   2.102   3.378   2.955 -0.8916 -1.1957  0.4230
 8792TIP3    H226341   1.960   3.338   2.989 -1.3016 -0.0970  0.0500
 8793TIP3   OH226342   4.513   6.224   5.834  0.0584 -0.1357  0.2333
 8793TIP3    H126343   4.460   6.252   5.759 -0.7775  1.7554  1.4594
 8793TIP3    H226344   4.603   6.246   5.809 -0.1861  0.2649 -0.3069
 8794TIP3   OH226345   5.449   4.917   5.374  0.0924 -0.8895 -0.4631
 8794TIP3    H126346   5.417   4.829   5.358 -0.6999 -0.3459 -2.1300
 8794TIP3    H226347   5.490   4.943   5.291  3.5338 -0.9393  1.0467
 8795TIP3   OH226348   4.499   3.638   4.167 -0.3957  0.3090  0.3781
 8795TIP3    H126349   4.494   3.589   4.249  1.2112 -0.4987  0.0428
 8795TIP3    H226350   4.564   3.590   4.115 -0.7998  1.2599 -1.0572
 8796TIP3   OH226351   1.217   5.711   0.312  0.1143 -0.1850  0.0016
 8796TIP3    H126352   1.161   5.744   0.382  0.0225 -1.2043  0.4383
 8796TIP3    H226353   1.157   5.687   0.242  0.1686  0.4295 -0.2585
 8797TIP3   OH226354   4.839   2.973   5.386  0.0101 -0.3307 -0.3399
 8797TIP3    H126355   4.799   3.058   5.369  0.3530 -0.3400 -1.2539
 8797TIP3    H226356   4.932   2.985   5.364  0.3648 -0.5318  0.9700
 8798TIP3   OH226357   1.205   1.376   5.840 -0.0715 -0.4011 -0.0528
 8798TIP3    H126358   1.194   1.284   5.864 -1.1333 -0.5335 -1.0272
 8798TIP3    H226359   1.118   1.414   5.847  0.3993  0.6143  0.6037
 8799TIP3   OH226360   1.335   6.640   5.349 -0.2740  0.3687  0.2774
 8799TIP3    H126361   1.249   6.620   5.313 -0.8029 -0.3250  1.8544
 8799TIP3    H226362   1.394   6.579   5.305 -0.3582  1.6033 -1.6434
 8800TIP3   OH226363   2.126   0.698   2.590  0.1499  0.1356 -0.0257
 8800TIP3    H126364   2.179   0.737   2.659  0.7860 -2.1673  0.8682
 8800TIP3    H226365   2.181   0.701   2.512  0.6834 -0.1344  0.3394
 8801TIP3   OH226366   2.670   5.382   3.070 -0.6767  0.3376  0.6770
 8801TIP3    H126367   2.600   5.431   3.114  0.8879  3.5308 -0.0535
 8801TIP3    H226368   2.674   5.421   2.982  1.6240 -0.1241  0.5166
 8802TIP3   OH226369   5.110   0.419   1.708  0.3113  0.3665 -0.1670
 8802TIP3    H126370   5.158   0.367   1.773  0.4507 -0.2931 -0.7873
 8802TIP3    H226371   5.043   0.360   1.674  0.2318  0.7056 -0.6119
 8803TIP3   OH226372   4.129   3.087   3.022 -0.8548  0.1809 -0.2954
 8803TIP3    H126373   4.140   2.996   2.995  2.8550  0.6174 -0.8722
 8803TIP3    H226374   4.127   3.136   2.940 -2.3831  0.6926  0.0247
 8804TIP3   OH226375   2.176   5.577   0.540  0.4966  0.0517  0.0141
 8804TIP3    H126376   2.098   5.566   0.485 -0.4348  0.6636  1.1490
 8804TIP3    H226377   2.217   5.490   0.542 -0.6844 -0.5197  0.1563
 8805TIP3   OH226378   4.943   0.701   1.805  0.4307  0.5246  0.4808
 8805TIP3    H126379   5.034   0.675   1.823  0.5948  0.6942 -0.0695
 8805TIP3    H226380   4.898   0.619   1.787  0.7989  0.5415 -0.6059
 8806TIP3   OH226381   2.774   2.352   0.765 -0.0005  0.4913  0.3630
 8806TIP3    H126382   2.692   2.402   0.765 -0.2143  0.1560  1.0967
 8806TIP3    H226383   2.780   2.317   0.854  1.2055  0.9446  0.4705
 8807TIP3   OH226384   6.655   5.245   2.058 -0.3670  0.0609  0.4726
 8807TIP3    H126385   6.747   5.259   2.033 -0.4321  1.3481  0.9039
 8807TIP3    H226386   6.615   5.205   1.980  0.1015  1.3444 -0.4570
 8808TIP3   OH226387   4.280   4.369   4.675  0.6912 -0.1389  0.1192
 8808TIP3    H126388   4.267   4.322   4.757 -1.9002 -1.6420 -1.0325
 8808TIP3    H226389   4.228   4.449   4.684 -0.1056 -0.6022 -0.2414
 8809TIP3   OH226390   1.785   2.295   2.403  0.0795  0.4414  0.2655
 8809TIP3    H126391   1.698   2.263   2.426  0.9983 -2.5387  0.1120
 8809TIP3    H226392   1.839   2.272   2.479  1.3450 -0.9475 -0.9938
 8810TIP3   OH226393   4.520   1.984   3.234  0.0776  0.1313  0.2387
 8810TIP3    H126394   4.548   2.071   3.206  0.8296 -0.5968 -1.4824
 8810TIP3    H226395   4.441   1.966   3.183  0.4418 -0.5314 -0.1112
 8811TIP3   OH226396   3.096   4.349   1.895  0.6130 -0.5835 -0.0754
 8811TIP3    H126397   3.053   4.352   1.809  1.4448  1.7932 -0.4890
 8811TIP3    H226398   3.024   4.339   1.957 -0.1666 -0.6702 -0.9696
 8812TIP3   OH226399   2.976   6.578   2.126 -0.1837 -0.1888  0.3626
 8812TIP3    H126400   2.920   6.617   2.192 -1.8536 -0.9283 -0.5401
 8812TIP3    H226401   2.957   6.484   2.131  1.3058 -0.5284  0.2930
 8813TIP3   OH226402   1.988   4.647   2.557  0.1550  0.6301  0.0803
 8813TIP3    H126403   1.994   4.740   2.583  0.3374  1.6194 -3.1097
 8813TIP3    H226404   1.913   4.614   2.607 -0.5550  2.7663  0.5700
 8814TIP3   OH226405   1.777   4.119   1.857  0.1595  0.0988 -0.2117
 8814TIP3    H126406   1.745   4.062   1.927 -1.0051  0.9650 -0.0137
 8814TIP3    H226407   1.864   4.147   1.887  0.6356 -1.3021 -0.1799
 8815TIP3   OH226408   3.937   6.122   4.888 -0.2545  0.0905  0.3518
 8815TIP3    H126409   3.923   6.139   4.981 -2.0428 -1.9149  0.5286
 8815TIP3    H226410   3.932   6.027   4.880  0.7341  0.1543 -1.6945
 8816TIP3   OH226411   0.687   0.875   0.218  0.6339 -0.4247  0.3109
 8816TIP3    H126412   0.718   0.789   0.188  1.1161  1.0148 -3.9021
 8816TIP3    H226413   0.593   0.874   0.199  0.9653  0.5449 -1.6165
 8817TIP3   OH226414   1.184   0.190   4.966  0.1195 -0.2015 -0.2101
 8817TIP3    H126415   1.103   0.144   4.989  0.8134 -1.0261  0.6811
 8817TIP3    H226416   1.242   0.175   5.041  1.7113 -1.1272 -1.5512
 8818TIP3   OH226417   3.995   6.343   0.545 -0.2960 -0.5042 -0.1441
 8818TIP3    H126418   4.075   6.363   0.594 -0.7701 -0.5922  0.6850
 8818TIP3    H226419   4.022   6.276   0.482  0.2681 -0.5988  0.1870
 8819TIP3   OH226420   5.044   6.336   1.226 -0.4227 -0.4473 -0.5063
 8819TIP3    H126421   5.122   6.384   1.256  1.4221 -3.4636 -0.0936
 8819TIP3    H226422   4.988   6.331   1.304 -0.0426 -0.1030 -0.2035
 8820TIP3   OH226423   2.130   0.382   0.986  0.4586 -0.4352 -0.0116
 8820TIP3    H126424   2.045   0.394   0.944  0.4827 -0.6519 -0.1268
 8820TIP3    H226425   2.109   0.347   1.073  0.4835 -2.1289 -0.6564
 8821TIP3   OH226426   2.101   2.971   2.607 -0.0472  0.4971  0.0196
 8821TIP3    H126427   2.016   3.015   2.611 -0.5061 -0.4111  3.1163
 8821TIP3    H226428   2.120   2.965   2.514 -3.4350  0.6590 -0.8323
 8822TIP3   OH226429   3.298   2.317   2.769 -0.2860  0.4891  0.6424
 8822TIP3    H126430   3.251   2.398   2.787 -0.1295  0.5763  0.6504
 8822TIP3    H226431   3.389   2.343   2.758 -0.4999  0.5956 -1.2495
 8823TIP3   OH226432   3.093   4.882   4.715  0.3942  0.4140  0.5681
 8823TIP3    H126433   3.139   4.813   4.762 -1.3721 -1.2975 -0.0653
 8823TIP3    H226434   3.162   4.938   4.680  1.8398 -0.1725  2.3321
 8824TIP3   OH226435   2.744   0.387   2.013 -0.0086 -0.1499  0.0989
 8824TIP3    H126436   2.747   0.410   1.920 -0.5693  0.5874  0.2527
 8824TIP3    H226437   2.657   0.416   2.041 -0.5365 -1.9399  0.4566
 8825TIP3   OH226438   5.312   3.015   5.058 -0.2116 -0.8220  0.1345
 8825TIP3    H126439   5.353   3.080   5.001 -1.4936 -0.8336 -0.8318
 8825TIP3    H226440   5.343   2.931   5.023 -1.5956 -0.8622 -1.0666
 8826TIP3   OH226441   2.562   5.520   3.349  0.0047 -0.4488  0.0728
 8826TIP3    H126442   2.580   5.588   3.414 -1.1477  0.3746 -0.4229
 8826TIP3    H226443   2.601   5.554   3.268 -0.0587 -0.6578 -0.0473
 8827TIP3   OH226444   5.035   0.620   3.493  0.2388  0.1941 -0.4599
 8827TIP3    H126445   5.053   0.712   3.510  0.5586  0.0346  0.0916
 8827TIP3    H226446   5.113   0.588   3.448  0.2511  0.1266 -0.3923
 8828TIP3   OH226447   2.302   4.278   3.116  0.3354  0.2122 -0.1502
 8828TIP3    H126448   2.321   4.190   3.150  0.8551  0.5781  0.5105
 8828TIP3    H226449   2.346   4.280   3.031  0.2294 -0.2023 -0.2210
 8829TIP3   OH226450   2.521   2.501   0.789 -0.5954 -0.0690 -0.2276
 8829TIP3    H126451   2.548   2.560   0.859  0.2722 -0.1884 -0.4565
 8829TIP3    H226452   2.448   2.547   0.747 -1.2529 -0.0770  0.8537
 8830TIP3   OH226453   0.045   0.242   2.169 -0.2166 -0.2202  1.1460
 8830TIP3    H126454   0.116   0.225   2.107  0.0327  0.5379  1.2250
 8830TIP3    H226455   0.008   0.155   2.186 -0.5434 -0.4153 -0.3682
 8831TIP3   OH226456  -0.024   1.543   2.591  0.3279  0.2420 -0.7611
 8831TIP3    H126457   0.020   1.511   2.670  1.8291 -0.8128 -1.9648
 8831TIP3    H226458   0.046   1.556   2.528 -0.8851  0.5586 -2.1040
 8832TIP3   OH226459   5.726   3.643   0.861 -0.0090 -0.1366 -0.1245
 8832TIP3    H126460   5.803   3.627   0.807  0.4259 -1.2759  0.7876
 8832TIP3    H226461   5.715   3.562   0.911 -0.5215  0.7961  1.3346
 8833TIP3   OH226462   6.325   0.524   1.388 -0.1386 -0.9685 -0.6562
 8833TIP3    H126463   6.351   0.469   1.462  0.5226  1.1579  0.7943
 8833TIP3    H226464   6.234   0.546   1.405 -0.3165 -1.3602 -1.0808
 8834TIP3   OH226465   5.782   4.103   1.318  0.0542  0.7208  0.3694
 8834TIP3    H126466   5.700   4.131   1.278  1.1504  0.7051 -2.0978
 8834TIP3    H226467   5.789   4.010   1.294  0.7840  0.7307  0.5350
 8835TIP3   OH226468   1.213   3.711   1.899 -0.0314  0.0666 -0.2721
 8835TIP3    H126469   1.187   3.708   1.807 -0.0175  0.5016 -0.2902
 8835TIP3    H226470   1.287   3.650   1.904 -0.3213 -0.2997 -0.4541
 8836TIP3   OH226471   6.649   6.100   5.649  0.1740  0.1487 -0.4201
 8836TIP3    H126472   6.645   6.193   5.671 -0.9327  0.2027 -0.8161
 8836TIP3    H226473   6.588   6.089   5.576 -0.2223 -1.0033  0.0489
 8837TIP3   OH226474   1.070   5.561   3.525 -0.6312  0.9940 -0.3975
 8837TIP3    H126475   1.151   5.573   3.476  0.6236  0.3406  1.4262
 8837TIP3    H226476   1.023   5.493   3.477  0.4166  0.5838 -0.8694
 8838TIP3   OH226477   2.815   5.055   0.646 -0.1173 -0.7484 -0.6672
 8838TIP3    H126478   2.858   4.974   0.619  0.6478 -1.0064  1.1646
 8838TIP3    H226479   2.775   5.034   0.730  1.1190  1.0521  0.4458
 8839TIP3   OH226480   0.996   5.391   1.068 -0.1307 -0.1803  0.4754
 8839TIP3    H126481   1.049   5.470   1.054 -0.2971 -0.1219  0.1550
 8839TIP3    H226482   0.994   5.349   0.982  1.1159 -1.2674  0.9501
 8840TIP3   OH226483   4.358   6.391   1.974  0.1322 -0.3398  0.3906
 8840TIP3    H126484   4.357   6.483   2.002  1.4338 -0.5824  1.3224
 8840TIP3    H226485   4.276   6.355   2.008 -0.2290  0.3939  0.3131
 8841TIP3   OH226486   7.050   0.920   2.022  0.4561 -0.2041 -0.2261
 8841TIP3    H126487   7.102   0.869   2.084  0.9103 -0.1249 -0.5363
 8841TIP3    H226488   6.969   0.871   2.013 -0.1777  0.4732  1.4571
 8842TIP3   OH226489   1.144   0.065   5.801  0.2979  0.3221 -0.0087
 8842TIP3    H126490   1.073   0.082   5.863  1.4089 -0.0200  1.4273
 8842TIP3    H226491   1.133  -0.027   5.778 -0.3139  0.5362 -0.5870
 8843TIP3   OH226492   2.523   1.723   4.240  0.3710  0.2674  0.2084
 8843TIP3    H126493   2.593   1.783   4.216  0.1743  0.1642 -0.6691
 8843TIP3    H226494   2.568   1.640   4.259  0.5102  0.2640 -0.1291
 8844TIP3   OH226495   5.929   1.323   2.005  0.2443  0.3325  0.0003
 8844TIP3    H126496   5.884   1.372   2.074 -0.6679  0.3392 -0.5776
 8844TIP3    H226497   5.902   1.233   2.018  0.5795  0.2347  0.0344
 8845TIP3   OH226498   0.211   5.022   5.523 -0.4692 -0.0971 -0.2156
 8845TIP3    H126499   0.215   5.060   5.436 -0.5212  0.4607  0.0219
 8845TIP3    H226500   0.287   5.058   5.569 -0.9630  0.3586  0.2613
 8846TIP3   OH226501   1.367  -0.004   0.569 -0.3208 -0.3852 -0.2806
 8846TIP3    H126502   1.273   0.013   0.558 -0.1455  1.1341  0.3268
 8846TIP3    H226503   1.404   0.081   0.591  1.3055 -0.8530 -1.0668
 8847TIP3   OH226504   2.783   2.154   4.826  0.0518 -0.1633 -0.1278
 8847TIP3    H126505   2.736   2.083   4.783 -0.7331 -0.5486  1.2849
 8847TIP3    H226506   2.806   2.214   4.755 -2.4452 -0.0379 -0.9578
 8848TIP3   OH226507   3.380   6.113   5.239 -0.2500 -0.2909  0.1786
 8848TIP3    H126508   3.353   6.084   5.152 -0.0077  1.1335 -0.3980
 8848TIP3    H226509   3.299   6.113   5.290 -0.2410 -2.0535  0.2560
 8849TIP3   OH226510   5.718   0.188   4.526  0.0080 -0.1371 -0.0155
 8849TIP3    H126511   5.801   0.205   4.482 -1.2190 -0.1587 -2.4714
 8849TIP3    H226512   5.733   0.106   4.575  1.7951  0.5876  0.7384
 8850TIP3   OH226513   4.195   4.830   5.256 -0.0210  0.1887 -0.3113
 8850TIP3    H126514   4.218   4.835   5.163  1.0377  0.1023 -0.0744
 8850TIP3    H226515   4.234   4.748   5.285  0.5822  0.7312  0.4455
 8851TIP3   OH226516   1.180   1.459   4.499 -0.3850 -0.3213  0.2001
 8851TIP3    H126517   1.172   1.365   4.516 -1.2445 -0.2806  0.0666
 8851TIP3    H226518   1.274   1.474   4.494 -0.2430 -1.2236 -0.0624
 8852TIP3   OH226519   1.016   4.313   2.365  0.2113  0.3224  0.2922
 8852TIP3    H126520   0.994   4.228   2.403  0.3728 -0.2957 -0.9712
 8852TIP3    H226521   0.944   4.333   2.306  0.2695  0.9747  0.4340
 8853TIP3   OH226522   6.418   3.990   1.860 -0.2156 -0.0572 -0.2363
 8853TIP3    H126523   6.439   3.929   1.931 -0.0008 -0.0107 -0.2595
 8853TIP3    H226524   6.498   4.042   1.849  0.1322 -0.7585 -1.2053
 8854TIP3   OH226525   6.130   5.909   1.264  0.9142  0.1303 -0.3895
 8854TIP3    H126526   6.100   5.848   1.331  0.1413  0.1223 -0.7419
 8854TIP3    H226527   6.219   5.932   1.291  0.8197 -0.3240  0.3205
 8855TIP3   OH226528   0.368   5.945   5.269 -0.4863 -0.1671  0.2151
 8855TIP3    H126529   0.365   5.958   5.175 -0.1786  0.7612  0.3234
 8855TIP3    H226530   0.356   5.851   5.281  1.0120 -0.5180 -0.8302
 8856TIP3   OH226531   4.513   4.212   1.053 -0.0005  0.3906 -0.7175
 8856TIP3    H126532   4.438   4.156   1.071  0.9525 -1.7116 -2.7548
 8856TIP3    H226533   4.587   4.166   1.094  0.5380  1.1548 -0.8157
 8857TIP3   OH226534   0.604   2.471   1.339 -0.5986 -0.1124 -0.2638
 8857TIP3    H126535   0.515   2.476   1.375 -0.8609  1.8459 -1.0206
 8857TIP3    H226536   0.653   2.538   1.387 -0.3269  0.8305 -1.7824
 8858TIP3   OH226537   0.051   4.041   3.691 -0.3422  0.3187 -0.1526
 8858TIP3    H126538   0.051   4.090   3.609  0.4403 -0.5538 -0.7035
 8858TIP3    H226539   0.134   3.993   3.689 -0.8756 -0.6626  0.5644
 8859TIP3   OH226540   1.304  -0.002   4.617  0.5823  0.4965 -0.1230
 8859TIP3    H126541   1.209   0.007   4.617  0.4689 -0.0833  1.6664
 8859TIP3    H226542   1.337   0.086   4.633  0.2669  0.4881  0.6113
 8860TIP3   OH226543   2.016   1.235   2.049 -0.3567 -0.3292  0.1053
 8860TIP3    H126544   1.986   1.224   1.959  0.9622  1.9121 -0.6815
 8860TIP3    H226545   1.936   1.247   2.100 -1.0266  0.4187 -1.0984
 8861TIP3   OH226546   2.874   0.194   3.131  1.3054  0.1142 -0.4533
 8861TIP3    H126547   2.837   0.106   3.124  0.2279  0.3752  1.2751
 8861TIP3    H226548   2.840   0.241   3.055 -0.8040 -0.0887  0.2887
 8862TIP3   OH226549   2.401   3.604   5.101  0.2669 -0.5191 -1.0143
 8862TIP3    H126550   2.390   3.593   5.007 -2.4460 -1.1977 -0.7155
 8862TIP3    H226551   2.349   3.533   5.139  2.8955 -1.4928  1.0345
 8863TIP3   OH226552   0.258   6.460   0.687 -0.2706 -0.0135  0.1317
 8863TIP3    H126553   0.345   6.496   0.667  0.0195 -0.4928  0.5098
 8863TIP3    H226554   0.224   6.431   0.603  0.0383 -0.0409  0.0134
 8864TIP3   OH226555   1.450   0.582   5.308  0.3942  0.3904  0.4573
 8864TIP3    H126556   1.503   0.552   5.382 -1.0092 -0.4379  1.1691
 8864TIP3    H226557   1.467   0.676   5.304  0.3137  0.5016  2.0147
 8865TIP3   OH226558   1.713   2.577   4.313 -0.3161 -0.0185  0.2484
 8865TIP3    H126559   1.743   2.583   4.404  0.4931 -1.1403  0.0813
 8865TIP3    H226560   1.793   2.586   4.261 -0.8588  1.3243 -0.3979
 8866TIP3   OH226561   5.807   3.167   3.797 -0.3486  0.6590  0.4538
 8866TIP3    H126562   5.889   3.157   3.749 -0.0721 -0.8166  1.1796
 8866TIP3    H226563   5.741   3.182   3.730  0.2724  0.2519 -0.2588
 8867TIP3   OH226564   3.508   4.060   2.297 -0.1111  0.2906  0.0649
 8867TIP3    H126565   3.415   4.056   2.275 -0.4569  1.6312  1.1742
 8867TIP3    H226566   3.552   4.082   2.215 -0.6529 -1.1444 -0.6487
 8868TIP3   OH226567   1.379   3.726   1.334  0.1613  0.0800  0.8224
 8868TIP3    H126568   1.327   3.800   1.302 -1.7519 -0.9503  1.3812
 8868TIP3    H226569   1.335   3.649   1.297  2.0018 -0.8017  0.3895
 8869TIP3   OH226570   6.519   0.320   4.732 -0.8007 -0.1972  0.2164
 8869TIP3    H126571   6.446   0.378   4.710 -0.6573  0.0898  0.4925
 8869TIP3    H226572   6.544   0.280   4.649  0.8643  2.1618 -0.4990
 8870TIP3   OH226573   0.124   3.359   2.947  0.2277 -0.0511  0.0427
 8870TIP3    H126574   0.193   3.425   2.932 -0.7799  0.6980 -1.5856
 8870TIP3    H226575   0.048   3.410   2.976 -0.2331 -0.6443 -0.1036
 8871TIP3   OH226576   6.106   1.691   1.371 -0.2290 -0.6690  0.3411
 8871TIP3    H126577   6.158   1.639   1.311  0.8963  2.0737 -1.2105
 8871TIP3    H226578   6.021   1.646   1.375  0.4053 -2.1378 -1.5514
 8872TIP3   OH226579   5.016   2.647   4.738 -0.2033  0.2865 -0.6492
 8872TIP3    H126580   5.060   2.617   4.658  0.1299  1.5534 -0.9670
 8872TIP3    H226581   4.976   2.568   4.775 -0.4970 -0.2900 -2.1446
 8873TIP3   OH226582   1.050   5.643   0.048 -0.4002 -0.4898 -0.6261
 8873TIP3    H126583   1.084   5.732   0.039  1.8692 -0.8582  2.7813
 8873TIP3    H226584   0.956   5.654   0.061 -0.0332  1.5035  0.5867
 8874TIP3   OH226585   4.389   0.263   0.899  0.0813 -0.4695 -0.1991
 8874TIP3    H126586   4.393   0.357   0.913 -2.5668 -0.0284 -1.6185
 8874TIP3    H226587   4.402   0.224   0.986  0.5100  1.2220  0.5193
 8875TIP3   OH226588   5.486   2.548   4.180 -0.0873  0.2698 -0.0300
 8875TIP3    H126589   5.406   2.589   4.214  0.0796  1.8329 -1.3991
 8875TIP3    H226590   5.483   2.565   4.086  0.5931 -1.9184 -0.5008
 8876TIP3   OH226591   6.752   6.313   4.605 -0.3944  0.6442 -0.3126
 8876TIP3    H126592   6.687   6.260   4.651  0.5831 -0.4474 -0.1458
 8876TIP3    H226593   6.836   6.286   4.642  0.1536  2.2794 -0.2597
 8877TIP3   OH226594   6.566   2.649   2.981 -0.3041  0.1320 -0.2436
 8877TIP3    H126595   6.486   2.626   3.027  0.1282 -0.2130  0.3545
 8877TIP3    H226596   6.607   2.716   3.036  0.7791 -1.0916  0.4981
 8878TIP3   OH226597   1.323   5.547   5.656  0.3618  0.2478  0.0608
 8878TIP3    H126598   1.334   5.641   5.665  0.6903  0.2706 -0.5216
 8878TIP3    H226599   1.277   5.536   5.572  0.1025 -0.0939  0.2439
 8879TIP3   OH226600   1.509   3.697   5.291  0.2418 -0.7347  0.3067
 8879TIP3    H126601   1.450   3.771   5.280  2.3676  1.1654  0.9288
 8879TIP3    H226602   1.480   3.633   5.227 -2.2627  0.2102  0.4044
 8880TIP3   OH226603   4.142   3.836   2.670  0.3683  0.2225  0.1296
 8880TIP3    H126604   4.146   3.910   2.609  1.7907  0.9133  0.9981
 8880TIP3    H226605   4.170   3.761   2.619 -0.7335  0.3276 -0.6679
 8881TIP3   OH226606   5.954   5.784   3.684  0.0662 -0.3198 -0.4432
 8881TIP3    H126607   5.944   5.796   3.589  1.3602 -1.8923 -0.8185
 8881TIP3    H226608   5.923   5.695   3.700 -0.3503  0.0162  0.6587
 8882TIP3   OH226609   5.036   2.465   5.141  0.1367  0.5425  0.0291
 8882TIP3    H126610   5.003   2.476   5.051  0.9673 -0.1959 -0.3829
 8882TIP3    H226611   4.983   2.525   5.193 -0.3269  1.0292 -0.9653
 8883TIP3   OH226612   0.742   2.235   1.285  0.1186 -0.1383 -0.7470
 8883TIP3    H126613   0.684   2.309   1.304  2.2370  1.1969  0.9351
 8883TIP3    H226614   0.690   2.178   1.227 -2.0778  1.9530 -0.9826
 8884TIP3   OH226615   6.042   2.155   4.410 -0.2460 -1.1581 -0.3571
 8884TIP3    H126616   6.063   2.171   4.318 -1.4841  1.4911 -0.2512
 8884TIP3    H226617   5.946   2.157   4.414 -0.2017  0.0990  1.1490
 8885TIP3   OH226618   0.284   5.627   5.291 -0.5863 -0.0190 -0.1462
 8885TIP3    H126619   0.288   5.619   5.386 -2.0078 -0.4959 -0.1057
 8885TIP3    H226620   0.191   5.644   5.272 -0.3295  0.0541 -1.4474
 8886TIP3   OH226621   2.962   5.121   5.898  0.4674  0.1385  0.2672
 8886TIP3    H126622   2.947   5.028   5.881 -0.2875  0.4853 -1.1510
 8886TIP3    H226623   3.053   5.135   5.873 -0.5307  0.5821 -3.7978
 8887TIP3   OH226624   0.757   3.189   2.676 -0.3155 -0.2826 -0.8224
 8887TIP3    H126625   0.673   3.150   2.654  0.1063  0.3821 -4.2481
 8887TIP3    H226626   0.822   3.123   2.650  0.3484 -0.9318  2.0779
 8888TIP3   OH226627   7.119   5.377   0.958  0.2534 -0.8993  0.1028
 8888TIP3    H126628   7.131   5.415   1.045  3.4844  0.6160 -0.8351
 8888TIP3    H226629   7.039   5.418   0.925  0.9694  1.4496  1.0301
 8889TIP3   OH226630   6.518   0.896   1.244 -0.4072 -0.1771  0.1676
 8889TIP3    H126631   6.500   0.841   1.321  0.7249 -0.0400  0.5612
 8889TIP3    H226632   6.589   0.850   1.199 -0.5907  0.1064 -0.4104
 8890TIP3   OH226633   1.556   0.755   1.045  0.0903  0.8343  0.3815
 8890TIP3    H126634   1.571   0.661   1.059 -1.3419  0.1874 -1.8966
 8890TIP3    H226635   1.632   0.797   1.085  3.5930 -1.6423 -2.8979
 8891TIP3   OH226636   3.430   3.010   4.281  0.1158 -0.1081 -0.3076
 8891TIP3    H126637   3.350   2.958   4.278 -0.5821  0.9143  0.0397
 8891TIP3    H226638   3.457   3.006   4.373  1.0762 -1.3070 -0.6048
 8892TIP3   OH226639   0.159   5.591   2.175 -0.5605 -0.6153 -0.0464
 8892TIP3    H126640   0.184   5.512   2.222  0.0321  0.0396  0.7859
 8892TIP3    H226641   0.084   5.626   2.223  0.5551  0.4982  0.9702
 8893TIP3   OH226642   5.163   3.301   3.740 -0.6500 -0.1552 -0.2068
 8893TIP3    H126643   5.126   3.215   3.760 -1.1148  0.2269  0.6549
 8893TIP3    H226644   5.087   3.355   3.721 -0.2696 -0.3567 -2.6429
 8894TIP3   OH226645   2.457   2.302   3.574  0.2248 -0.8283 -0.8360
 8894TIP3    H126646   2.382   2.279   3.519 -1.1173  0.1342  0.5158
 8894TIP3    H226647   2.419   2.335   3.655  2.0916  0.5525 -0.4361
 8895TIP3   OH226648   0.186   4.070   2.376  0.0907  0.5527 -0.1637
 8895TIP3    H126649   0.248   4.132   2.339 -1.7144  1.9451 -1.0025
 8895TIP3    H226650   0.186   4.088   2.470 -2.7838  4.2914 -0.6691
 8896TIP3   OH226651   6.098   4.501   0.415  0.2693 -0.3478  0.3316
 8896TIP3    H126652   6.190   4.519   0.399  0.6933 -3.0764 -0.9424
 8896TIP3    H226653   6.096   4.465   0.504  0.2582  0.6528  0.7428
 8897TIP3   OH226654   6.497   4.312   1.366  0.2725 -0.8150  0.0227
 8897TIP3    H126655   6.500   4.371   1.290 -0.2723 -1.7118 -0.7200
 8897TIP3    H226656   6.500   4.370   1.441  3.1161  0.0196 -0.6300
 8898TIP3   OH226657   0.212   6.150   3.490 -0.3523 -0.0558  0.3511
 8898TIP3    H126658   0.122   6.179   3.505 -0.1341  1.5605 -1.2308
 8898TIP3    H226659   0.202   6.067   3.443 -1.0898  1.1645 -1.7655
 8899TIP3   OH226660   1.892   1.818   2.359 -0.4555 -0.1162  0.1679
 8899TIP3    H126661   1.911   1.871   2.437 -1.7566 -1.1541  1.2249
 8899TIP3    H226662   1.978   1.798   2.323  0.2598 -0.6055  2.0253
 8900TIP3   OH226663   0.991   0.848   3.575 -0.4043  0.7113  0.5798
 8900TIP3    H126664   0.915   0.857   3.633 -0.4583  1.3420  0.4172
 8900TIP3    H226665   0.961   0.883   3.491 -1.0516 -2.1644 -0.5160
 8901TIP3   OH226666   0.245   5.893   1.866 -0.0704 -0.0367  0.1360
 8901TIP3    H126667   0.153   5.911   1.886  0.2043  1.3902  0.2139
 8901TIP3    H226668   0.243   5.820   1.805 -1.1902 -0.9009  1.1528
 8902TIP3   OH226669   3.000   2.175   3.440  0.3557 -0.0005 -0.1779
 8902TIP3    H126670   2.964   2.190   3.353 -1.6876 -1.7347  0.2874
 8902TIP3    H226671   2.969   2.249   3.492 -0.0075  0.0872 -0.5118
 8903TIP3   OH226672   7.187   4.382   3.109  0.1408 -0.0837  0.6609
 8903TIP3    H126673   7.210   4.458   3.163  0.5110 -1.0162  1.8543
 8903TIP3    H226674   7.137   4.325   3.168  0.5869 -1.1462  0.0372
 8904TIP3   OH226675   1.337   5.561   2.047  0.3046  0.1385  0.5843
 8904TIP3    H126676   1.349   5.556   2.142  0.3383 -0.2405  0.5635
 8904TIP3    H226677   1.408   5.617   2.017  0.3648  0.1646  0.7717
 8905TIP3   OH226678   5.707   2.937   3.003  0.3373 -0.1799 -0.0582
 8905TIP3    H126679   5.776   2.882   2.966 -0.7320 -0.2010 -2.2050
 8905TIP3    H226680   5.643   2.945   2.932 -2.0416 -0.4482  1.9295
 8906TIP3   OH226681   4.081   2.457   3.248  0.8074 -0.0376 -0.0692
 8906TIP3    H126682   4.167   2.417   3.248  0.8482  0.0183 -1.2180
 8906TIP3    H226683   4.063   2.476   3.156  0.1652  1.2352  0.2975
 8907TIP3   OH226684   3.936   0.092   3.371  0.0949 -0.1349 -0.1644
 8907TIP3    H126685   3.961   0.106   3.463 -0.5139  1.5617 -0.2333
 8907TIP3    H226686   3.841   0.083   3.373 -0.2481  2.5563 -0.8635
 8908TIP3   OH226687   6.178   3.978   1.472  0.3990 -0.3775  0.0216
 8908TIP3    H126688   6.134   3.901   1.507  0.7659 -0.7609 -0.3482
 8908TIP3    H226689   6.251   3.943   1.420 -0.1862  0.1549 -1.2168
 8909TIP3   OH226690   3.406   1.261   3.958  0.5377  0.3499 -0.5780
 8909TIP3    H126691   3.355   1.215   4.025 -0.9619  3.3212  0.5070
 8909TIP3    H226692   3.492   1.218   3.960 -0.4135 -1.6606  1.0243
 8910TIP3   OH226693   2.568   5.309   1.303 -0.0762  0.2166  0.0190
 8910TIP3    H126694   2.633   5.247   1.334 -0.8842 -1.5236 -1.5675
 8910TIP3    H226695   2.547   5.363   1.380  0.2787 -1.8119  1.6301
 8911TIP3   OH226696   6.582   6.372   4.228 -1.1615  0.2851 -0.0027
 8911TIP3    H126697   6.580   6.276   4.234  0.1277  0.3078  1.2326
 8911TIP3    H226698   6.490   6.398   4.239 -1.3583 -0.7527  1.0877
 8912TIP3   OH226699   4.002   5.407   0.084 -1.0710  0.2611  0.2149
 8912TIP3    H126700   4.076   5.428   0.141 -0.9047 -0.6676  0.3634
 8912TIP3    H226701   4.032   5.332   0.032 -1.4131  0.7527 -0.7218
 8913TIP3   OH226702   0.437   0.625   0.141 -0.6973  0.3928  0.1576
 8913TIP3    H126703   0.393   0.603   0.060  1.4179  0.7604 -1.1717
 8913TIP3    H226704   0.397   0.708   0.169 -1.9705 -0.1273 -0.0569
 8914TIP3   OH226705   4.057   6.446   4.587  0.2553 -0.2705  0.1767
 8914TIP3    H126706   3.987   6.381   4.595 -0.4779  0.0006 -2.7514
 8914TIP3    H226707   4.082   6.442   4.495  1.8320  1.9782  0.4376
 8915TIP3   OH226708   2.815   5.488   4.612 -0.6783  0.3276 -0.0088
 8915TIP3    H126709   2.802   5.539   4.532 -2.0983  0.1540  0.0700
 8915TIP3    H226710   2.790   5.399   4.587 -0.7568  0.1953  0.5229
 8916TIP3   OH226711   3.259   0.821   3.294 -0.0646 -0.0117  0.2366
 8916TIP3    H126712   3.198   0.854   3.228  0.3339  0.2101 -0.0238
 8916TIP3    H226713   3.324   0.772   3.243 -0.8875 -1.6125  0.6375
 8917TIP3   OH226714   6.843   1.563   0.434 -0.4494  0.2015  0.5781
 8917TIP3    H126715   6.869   1.497   0.499  1.6818  1.2419  0.8655
 8917TIP3    H226716   6.918   1.568   0.374 -0.9873  1.6440 -0.0156
 8918TIP3   OH226717   3.061   1.285   1.945 -0.1546 -0.4977 -0.1062
 8918TIP3    H126718   3.002   1.265   2.017  0.7088 -0.2600  0.6944
 8918TIP3    H226719   3.022   1.242   1.869 -1.0408 -0.8210  0.5138
 8919TIP3   OH226720   5.026   3.752   3.476 -0.4922 -0.4921 -0.5767
 8919TIP3    H126721   5.046   3.793   3.391 -1.3324 -1.6707 -1.3647
 8919TIP3    H226722   4.937   3.719   3.467 -0.8528 -0.0489  1.0198
 8920TIP3   OH226723   2.503   5.925   1.256 -0.0693  0.0682 -0.1537
 8920TIP3    H126724   2.410   5.931   1.234 -0.1152 -1.6703 -0.5682
 8920TIP3    H226725   2.543   5.879   1.182  1.0024  0.1879  0.3239
 8921TIP3   OH226726   4.342   3.850   5.096 -0.3769 -0.5605 -0.1446
 8921TIP3    H126727   4.265   3.907   5.091 -0.0693 -0.1191  0.1705
 8921TIP3    H226728   4.400   3.881   5.027 -1.4866 -2.4183 -2.0158
 8922TIP3   OH226729   7.079   0.788   5.776 -0.4635 -0.7003 -0.1548
 8922TIP3    H126730   7.079   0.727   5.849  0.1244 -0.6874 -0.1359
 8922TIP3    H226731   7.172   0.805   5.759 -0.6042 -0.3530 -0.6087
 8923TIP3   OH226732   6.981   3.855   2.781  0.2768 -0.5205 -0.6787
 8923TIP3    H126733   6.932   3.773   2.788 -0.4207 -0.1285 -0.9125
 8923TIP3    H226734   6.927   3.911   2.725  0.5527  0.2474 -0.1866
 8924TIP3   OH226735   1.986   2.849   5.616  0.0231  0.6595  0.3406
 8924TIP3    H126736   2.069   2.856   5.570 -0.0660  2.4733  0.3714
 8924TIP3    H226737   1.961   2.940   5.636 -2.5528  0.2798 -0.7051
 8925TIP3   OH226738   0.439   6.318   1.567  0.1813 -0.2163 -0.1657
 8925TIP3    H126739   0.520   6.283   1.529  0.2089  0.5239 -0.8228
 8925TIP3    H226740   0.464   6.405   1.599 -0.4790  0.2721 -0.9238
 8926TIP3   OH226741   7.008   4.970   5.615  0.0056 -0.4955 -0.1320
 8926TIP3    H126742   7.098   4.940   5.623  0.6828  0.8369 -2.1048
 8926TIP3    H226743   7.006   5.053   5.662 -0.5639 -1.1296  1.0085
 8927TIP3   OH226744   5.871   6.784   0.576 -0.3828  0.0467 -0.2045
 8927TIP3    H126745   5.788   6.785   0.623  0.1223 -2.1596  0.8736
 8927TIP3    H226746   5.871   6.700   0.530  2.1096 -1.0845  1.5998
 8928TIP3   OH226747   2.277   4.419   2.033 -0.1123 -0.3028  0.0800
 8928TIP3    H126748   2.350   4.437   2.091  0.5295  0.8688 -1.0592
 8928TIP3    H226749   2.202   4.464   2.074  0.3952  0.7582 -0.1348
 8929TIP3   OH226750   0.050   1.107   2.665  0.3484 -0.1299  0.6446
 8929TIP3    H126751  -0.015   1.144   2.605 -0.3075  0.5398  1.7444
 8929TIP3    H226752   0.099   1.045   2.611 -1.6581 -1.1974 -0.0611
 8930TIP3   OH226753   7.073   3.833   5.531 -0.7078 -0.1872  0.0169
 8930TIP3    H126754   7.048   3.822   5.439  1.6937 -1.4515 -0.5843
 8930TIP3    H226755   7.034   3.759   5.576  0.3912 -1.1367 -0.5540
 8931TIP3   OH226756   5.421   6.645   5.306  0.2716  0.6107 -0.3962
 8931TIP3    H126757   5.508   6.608   5.322 -0.2058 -0.0652  0.7746
 8931TIP3    H226758   5.374   6.576   5.260 -0.2834  0.1455  0.8321
 8932TIP3   OH226759   3.472   3.095   0.281  0.1050  0.7698  0.0542
 8932TIP3    H126760   3.513   3.095   0.194  1.7546  1.6548  0.7924
 8932TIP3    H226761   3.457   3.187   0.300 -0.1343  0.5908  0.7551
 8933TIP3   OH226762   6.247   5.824   5.249 -0.6718 -1.3076  0.3253
 8933TIP3    H126763   6.266   5.864   5.164  0.5162 -1.6651  0.4038
 8933TIP3    H226764   6.200   5.743   5.227  0.0741 -1.6559 -0.0322
 8934TIP3   OH226765   1.681   4.616   3.496 -0.0304 -0.7001 -0.2480
 8934TIP3    H126766   1.595   4.653   3.517 -1.1111 -2.3693 -1.4491
 8934TIP3    H226767   1.722   4.682   3.440  1.0679  1.7581  3.0989
 8935TIP3   OH226768   2.485   5.869   5.640  0.5083 -0.1380 -0.1757
 8935TIP3    H126769   2.554   5.928   5.668  0.1949  0.3442 -0.3977
 8935TIP3    H226770   2.529   5.805   5.585  0.9679 -0.5330  0.6302
 8936TIP3   OH226771   6.620   5.618   3.095 -0.1705 -0.3852  0.5852
 8936TIP3    H126772   6.543   5.601   3.041  0.2832  2.2328 -1.0873
 8936TIP3    H226773   6.685   5.554   3.066 -0.3996  0.0819 -1.0446
 8937TIP3   OH226774   1.807   5.916   0.764 -0.8972 -0.2584  0.4713
 8937TIP3    H126775   1.897   5.895   0.738 -0.8157  1.2141 -0.5623
 8937TIP3    H226776   1.754   5.844   0.729  0.0486 -2.2990  2.9457
 8938TIP3   OH226777   3.221   0.310   2.566 -0.2382 -0.2596 -0.1514
 8938TIP3    H126778   3.274   0.320   2.487  0.8254  0.8890  0.6822
 8938TIP3    H226779   3.131   0.303   2.533 -0.3549  4.0789 -1.3951
 8939TIP3   OH226780   3.472   1.821   5.641  0.3624 -0.0505  0.0920
 8939TIP3    H126781   3.512   1.908   5.644 -0.9536  0.6052 -0.4130
 8939TIP3    H226782   3.419   1.823   5.561 -0.9572 -0.7402  0.9307
 8940TIP3   OH226783   6.131   1.531   1.105 -0.1227 -0.1830  0.0486
 8940TIP3    H126784   6.223   1.554   1.092 -0.3887  1.2102  0.4637
 8940TIP3    H226785   6.082   1.599   1.058 -0.9540 -1.2057 -0.6223
 8941TIP3   OH226786   4.023   4.485   0.428 -0.2031 -0.3666  0.1410
 8941TIP3    H126787   4.059   4.517   0.346  0.3818 -0.3750  0.3896
 8941TIP3    H226788   4.006   4.564   0.480 -2.2759 -0.2303 -0.6543
 8942TIP3   OH226789   1.689   3.944   0.701 -0.5544  0.3960 -0.4012
 8942TIP3    H126790   1.717   3.902   0.619  1.0287  0.7898 -0.0947
 8942TIP3    H226791   1.771   3.967   0.745 -1.3834  0.5564  1.1144
 8943TIP3   OH226792   4.495   5.708   5.065  0.4612 -0.2461 -0.0020
 8943TIP3    H126793   4.455   5.792   5.086 -0.1363 -0.1963 -1.2191
 8943TIP3    H226794   4.589   5.725   5.063  0.2777  1.0036 -2.4778
 8944TIP3   OH226795   4.567   4.402   4.752  0.7434 -0.5375  0.1117
 8944TIP3    H126796   4.518   4.414   4.833  0.4246  2.3599 -0.4220
 8944TIP3    H226797   4.630   4.474   4.751  0.7840 -0.5268 -2.1628
 8945TIP3   OH226798   3.650   0.008   2.660 -0.2317  0.2519  0.3166
 8945TIP3    H126799   3.653  -0.062   2.725 -0.2123 -1.2836 -1.2480
 8945TIP3    H226800   3.591   0.073   2.697 -0.2092 -0.5641  1.8602
 8946TIP3   OH226801   1.748   3.315   3.468 -0.3121 -0.5515 -0.3807
 8946TIP3    H126802   1.813   3.362   3.520 -1.8511  0.8359  0.3944
 8946TIP3    H226803   1.740   3.365   3.387 -0.3233 -0.7996 -0.5342
 8947TIP3   OH226804   0.315   6.375   5.295  0.2366 -0.4498 -0.2974
 8947TIP3    H126805   0.235   6.337   5.331  0.0162 -1.5221 -1.8132
 8947TIP3    H226806   0.383   6.309   5.310  0.9135  0.5404  1.1640
 8948TIP3   OH226807   3.801   6.770   4.918  0.8128 -0.1846 -0.1054
 8948TIP3    H126808   3.860   6.789   4.990 -0.1710 -0.4321  0.7860
 8948TIP3    H226809   3.822   6.680   4.892  1.8496  0.2431 -0.8158
 8949TIP3   OH226810   1.525   0.109   2.837 -0.1223  0.8915 -0.5334
 8949TIP3    H126811   1.472   0.170   2.785  0.2255  1.0588 -0.6964
 8949TIP3    H226812   1.553   0.160   2.913  0.1901  0.9454 -0.6828
 8950TIP3   OH226813   6.555   3.788   3.727 -0.7416 -0.8322 -0.4275
 8950TIP3    H126814   6.520   3.742   3.651 -0.5035 -1.5004 -0.1441
 8950TIP3    H226815   6.613   3.724   3.769 -0.0260 -0.1134 -0.2861
 8951TIP3   OH226816   0.707   2.219   3.037 -0.3784 -0.1727 -0.0091
 8951TIP3    H126817   0.642   2.150   3.052 -1.8066  1.3501  1.2690
 8951TIP3    H226818   0.659   2.286   2.987  0.6161  0.3857 -0.2363
 8952TIP3   OH226819   4.894   0.285   4.195 -0.4807 -0.1509  0.4078
 8952TIP3    H126820   4.926   0.263   4.282  1.0385 -1.2238 -0.3720
 8952TIP3    H226821   4.878   0.379   4.199 -0.5709 -0.2065  1.8739
 8953TIP3   OH226822   1.773   6.562   3.022  0.4128 -0.4077 -0.1269
 8953TIP3    H126823   1.723   6.550   2.941 -0.7727 -0.1088  0.5354
 8953TIP3    H226824   1.819   6.645   3.010 -0.5742  0.1568 -0.1021
 8954TIP3   OH226825   3.967   5.566   5.023  0.2023 -0.0113 -0.1518
 8954TIP3    H126826   3.896   5.589   5.083 -0.5134  0.3193 -1.1061
 8954TIP3    H226827   3.974   5.471   5.029 -0.8479 -0.1340 -0.6094
 8955TIP3   OH226828   5.032   2.913   1.308  0.5567 -0.1483 -0.0907
 8955TIP3    H126829   4.981   2.933   1.387 -1.2352 -0.2777 -1.1598
 8955TIP3    H226830   5.067   2.826   1.324 -1.3685 -0.9890 -0.1338
 8956TIP3   OH226831   2.747   2.322   2.711  0.3871  0.0925  0.4031
 8956TIP3    H126832   2.820   2.314   2.772  0.4377 -1.1655  0.2062
 8956TIP3    H226833   2.761   2.405   2.667  1.6417 -0.0779  0.4472
 8957TIP3   OH226834   6.367   0.256   0.723 -0.1255 -0.0011 -0.6727
 8957TIP3    H126835   6.333   0.245   0.634 -1.6681 -1.0695  0.0172
 8957TIP3    H226836   6.462   0.266   0.711 -0.4613  1.5900 -2.5341
 8958TIP3   OH226837   0.443   2.050   1.507 -0.6088  0.1511 -0.0928
 8958TIP3    H126838   0.475   2.120   1.564 -0.6199  0.6148 -0.6424
 8958TIP3    H226839   0.422   2.095   1.425  1.6984 -0.8464 -1.3124
 8959TIP3   OH226840   2.776   6.721   5.618  0.4306 -0.1819  0.0340
 8959TIP3    H126841   2.798   6.635   5.583  0.0291 -0.8091  1.2702
 8959TIP3    H226842   2.859   6.757   5.648  0.6075 -0.0960 -0.5384
 8960TIP3   OH226843   3.907   1.970   2.835  0.0708 -0.1700 -0.3900
 8960TIP3    H126844   3.856   1.925   2.902  0.2154  0.9017  0.4559
 8960TIP3    H226845   3.888   2.063   2.847  0.2743  0.0679 -1.6970
 8961TIP3   OH226846   5.955   3.979   2.883  0.3661  0.1719 -0.0931
 8961TIP3    H126847   5.986   4.032   2.957 -0.0122  0.4267 -0.1104
 8961TIP3    H226848   5.860   3.975   2.895  0.3349 -0.0478 -0.3942
 8962TIP3   OH226849   5.286   0.188   4.134  0.2784 -0.5728  0.5475
 8962TIP3    H126850   5.363   0.167   4.081  1.5207  2.1961  1.0523
 8962TIP3    H226851   5.220   0.216   4.071  0.4805 -0.7803  0.2391
 8963TIP3   OH226852   3.591   0.084   2.205 -0.1792  0.4469 -0.4332
 8963TIP3    H126853   3.558   0.044   2.285 -0.2392 -1.3490 -1.3200
 8963TIP3    H226854   3.608   0.011   2.146 -0.1661  1.7274 -2.0913
 8964TIP3   OH226855   0.239   6.024   4.510  0.4277 -0.1232 -0.2631
 8964TIP3    H126856   0.258   5.960   4.579  1.1292 -0.3987 -0.7035
 8964TIP3    H226857   0.312   6.016   4.449  0.2163  0.6792 -0.6356
 8965TIP3   OH226858   1.597   0.590   2.664 -0.6749  0.2109 -0.2679
 8965TIP3    H126859   1.686   0.591   2.701  0.1290  1.8029 -2.0381
 8965TIP3    H226860   1.604   0.533   2.587 -1.5159 -0.6005  0.2405
 8966TIP3   OH226861   6.412   6.162   2.032 -0.2980  0.8360 -0.6486
 8966TIP3    H126862   6.422   6.246   1.988  2.2733  0.8666 -0.1521
 8966TIP3    H226863   6.355   6.111   1.974  1.3550  1.5646 -3.0590
 8967TIP3   OH226864   5.113   6.220   1.831 -0.0589 -0.1821 -0.1097
 8967TIP3    H126865   5.070   6.149   1.783  1.1611 -0.3602 -0.9689
 8967TIP3    H226866   5.129   6.184   1.918 -3.6824  0.6417  1.0861
 8968TIP3   OH226867   6.684   6.078   3.941  0.4392 -0.5516 -0.2278
 8968TIP3    H126868   6.640   6.066   3.857  0.0726 -2.2134  0.1654
 8968TIP3    H226869   6.719   6.167   3.937 -0.5846 -0.1701 -1.6533
 8969TIP3   OH226870   2.021   5.431   5.659 -0.5604 -0.0722 -0.0152
 8969TIP3    H126871   1.987   5.520   5.670 -1.9143 -0.2139 -2.4780
 8969TIP3    H226872   2.116   5.443   5.651 -0.4288  0.8258  2.1201
 8970TIP3   OH226873   6.423   4.571   1.719  1.0305  0.3167 -0.8181
 8970TIP3    H126874   6.439   4.478   1.705  0.2139 -0.3260  2.0005
 8970TIP3    H226875   6.500   4.602   1.766  0.5098  0.6057 -0.1338
 8971TIP3   OH226876   4.147   5.989   3.500 -0.3631  0.6555 -0.1589
 8971TIP3    H126877   4.061   5.972   3.464 -0.5473  0.3489  0.4045
 8971TIP3    H226878   4.204   6.002   3.424 -0.3640 -1.6900 -0.6608
 8972TIP3   OH226879   6.963   5.540   2.867  0.7162 -0.1415  0.1839
 8972TIP3    H126880   7.026   5.546   2.939  0.7551 -0.3637  0.1673
 8972TIP3    H226881   6.928   5.451   2.873  0.5695 -0.0917  0.0542
 8973TIP3   OH226882   5.999   2.789   3.550  0.1229 -0.6364  0.2627
 8973TIP3    H126883   5.922   2.779   3.606 -0.5511 -0.8555 -0.6827
 8973TIP3    H226884   6.066   2.735   3.592 -0.1843 -0.3303  1.1716
 8974TIP3   OH226885   3.795   5.606   2.966  0.5309  0.3207 -0.1155
 8974TIP3    H126886   3.710   5.568   2.991  0.3389  0.1219 -1.0504
 8974TIP3    H226887   3.812   5.572   2.879  2.5713 -1.2896  0.8497
 8975TIP3   OH226888   2.380   5.000   2.461 -0.1348 -0.1266  0.1819
 8975TIP3    H126889   2.341   4.926   2.415 -1.3003  0.5996 -0.0429
 8975TIP3    H226890   2.352   4.989   2.552  1.0810 -0.8456  0.4957
 8976TIP3   OH226891   1.081   5.891   3.492 -0.8962 -0.0730 -0.6625
 8976TIP3    H126892   1.085   5.797   3.473 -1.4279 -0.8681  2.5743
 8976TIP3    H226893   1.159   5.907   3.545 -1.1763  1.1735 -0.6079
 8977TIP3   OH226894   6.972   1.258   3.405 -0.4236  0.0537 -0.4851
 8977TIP3    H126895   7.031   1.237   3.478  0.7659  1.0914 -1.1173
 8977TIP3    H226896   6.965   1.354   3.407 -2.3461 -0.0596 -0.2494
 8978TIP3   OH226897   1.336   2.120   5.458 -0.1968  0.1979  0.5140
 8978TIP3    H126898   1.289   2.187   5.507  2.2724  1.4217  1.3341
 8978TIP3    H226899   1.373   2.062   5.525 -0.0928 -0.4450 -0.0832
 8979TIP3   OH226900   2.156   1.462   4.573 -0.1584  0.2946 -0.2787
 8979TIP3    H126901   2.224   1.511   4.527  0.0833  0.0812 -0.1529
 8979TIP3    H226902   2.159   1.497   4.663  0.1648 -0.1046 -0.1333
 8980TIP3   OH226903   2.197   3.134   5.090 -0.2954 -0.1092  0.3040
 8980TIP3    H126904   2.256   3.160   5.019 -1.0603  0.3950 -0.1670
 8980TIP3    H226905   2.111   3.130   5.049 -0.9153  1.1652  1.3943
 8981TIP3   OH226906   3.430   0.917   5.371  0.2784 -0.8010  0.4237
 8981TIP3    H126907   3.397   0.829   5.388 -2.0541 -0.1034 -0.1391
 8981TIP3    H226908   3.430   0.925   5.276 -1.1639  0.3287  0.4851
 8982TIP3   OH226909   2.212   1.727   5.444 -0.2932  0.0059  0.2322
 8982TIP3    H126910   2.129   1.754   5.404 -0.3901 -0.0922  0.3658
 8982TIP3    H226911   2.186   1.671   5.517 -0.1000 -0.7622 -0.2677
 8983TIP3   OH226912   0.124   1.306   4.096 -0.0024 -0.3024 -0.5459
 8983TIP3    H126913   0.056   1.245   4.067  0.9712 -1.2154 -0.9767
 8983TIP3    H226914   0.187   1.308   4.024  0.6377  0.2023  0.0171
 8984TIP3   OH226915   6.177   6.772   1.958 -0.2595  0.6620  0.1493
 8984TIP3    H126916   6.208   6.791   1.869  0.8177  1.4574  0.6790
 8984TIP3    H226917   6.083   6.790   1.954 -0.4115 -0.2242 -1.0626
 8985TIP3   OH226918   2.966   2.257   1.241 -0.3224  0.2404  0.0274
 8985TIP3    H126919   2.966   2.162   1.254 -1.1143  0.2963  0.5162
 8985TIP3    H226920   2.942   2.270   1.149  1.9473 -0.0781 -0.6594
 8986TIP3   OH226921   6.568   4.694   4.953  0.0788 -0.4136  0.2973
 8986TIP3    H126922   6.625   4.629   4.993 -1.0395 -0.6819  1.5156
 8986TIP3    H226923   6.529   4.648   4.878  1.1505 -0.3301 -0.3408
 8987TIP3   OH226924   5.320   5.958   0.460  0.0297 -0.0163 -0.2799
 8987TIP3    H126925   5.385   5.896   0.492 -0.2780  0.6471  1.8328
 8987TIP3    H226926   5.372   6.034   0.431  0.3332 -0.7212 -1.6318
 8988TIP3   OH226927   2.045   4.105   2.680 -0.2541  0.3573 -0.0921
 8988TIP3    H126928   2.079   4.054   2.606 -0.1636  1.6670 -1.0060
 8988TIP3    H226929   2.108   4.177   2.690  0.4858 -0.5322  2.1905
 8989TIP3   OH226930   4.335   4.373   2.650 -0.0947  0.0388  0.1545
 8989TIP3    H126931   4.358   4.407   2.736 -2.6834  2.6931 -0.0458
 8989TIP3    H226932   4.412   4.323   2.623  2.2944  2.1722  2.4284
 8990TIP3   OH226933   0.221   3.901   4.408 -0.2950  0.1697  0.2655
 8990TIP3    H126934   0.276   3.965   4.452  0.0088 -1.0615  1.7538
 8990TIP3    H226935   0.134   3.914   4.445 -0.1753 -0.4271  0.7851
 8991TIP3   OH226936   2.845   2.852   3.822  0.6975  0.3924  0.0294
 8991TIP3    H126937   2.844   2.844   3.917 -0.4974  1.8739  0.1785
 8991TIP3    H226938   2.772   2.798   3.792 -0.2296  1.5433  0.1444
 8992TIP3   OH226939   2.057   6.751   4.902 -0.3977  0.6594 -0.2044
 8992TIP3    H126940   2.025   6.692   4.834  0.1874 -0.5396  0.5278
 8992TIP3    H226941   1.998   6.735   4.976  0.9365 -0.5028  0.6635
 8993TIP3   OH226942   5.775   1.157   4.492 -0.2990 -0.5019  0.5175
 8993TIP3    H126943   5.757   1.079   4.438 -1.9233  1.0784 -1.3847
 8993TIP3    H226944   5.689   1.184   4.524  0.1710  0.7733  0.7644
 8994TIP3   OH226945   4.031   0.659   2.053 -0.0829  0.1328  0.3648
 8994TIP3    H126946   4.087   0.587   2.025  1.8863  1.3097  1.0703
 8994TIP3    H226947   4.001   0.700   1.972  0.9093  0.0811 -0.0331
 8995TIP3   OH226948   0.944   3.653   0.791  0.2262  0.5381 -0.3794
 8995TIP3    H126949   0.963   3.679   0.701 -1.1168 -0.9452 -1.1450
 8995TIP3    H226950   0.983   3.566   0.800 -2.3180 -0.7337 -0.6420
 8996TIP3   OH226951   6.622   6.596   5.288  0.2055 -1.0979 -0.0682
 8996TIP3    H126952   6.553   6.564   5.348  0.4188 -1.4142  0.0132
 8996TIP3    H226953   6.677   6.652   5.342  0.7758 -1.9024  0.2031
 8997TIP3   OH226954   3.813   5.657   5.259  0.6365  0.0833 -0.2201
 8997TIP3    H126955   3.751   5.650   5.332 -0.2842  0.9666 -0.8896
 8997TIP3    H226956   3.870   5.581   5.270  0.8657  0.4750  1.7101
 8998TIP3   OH226957   0.343   0.721   5.495 -0.3335 -0.7642  0.2411
 8998TIP3    H126958   0.402   0.722   5.570  0.2536 -1.2603 -0.2015
 8998TIP3    H226959   0.350   0.632   5.461  1.3271  0.0873 -1.8872
 8999TIP3   OH226960   3.537   6.241   1.342  0.3030  0.3582 -0.0808
 8999TIP3    H126961   3.619   6.283   1.367  0.7552 -1.0410  0.9593
 8999TIP3    H226962   3.516   6.183   1.416 -0.7831 -0.4939 -1.0064
 9000TIP3   OH226963   4.333   5.216   0.139  0.4971 -0.5489  1.0704
 9000TIP3    H126964   4.315   5.163   0.216  1.9065 -0.9931  1.1356
 9000TIP3    H226965   4.317   5.306   0.167  3.0878 -0.4585  2.6524
 9001TIP3   OH226966   1.080   0.877   2.229  0.0123 -0.3084  0.0320
 9001TIP3    H126967   1.160   0.861   2.280  0.0720 -0.3000 -0.0575
 9001TIP3    H226968   1.009   0.850   2.287  0.0813 -0.3370  0.1049
 9002TIP3   OH226969   3.632   1.820   4.878  0.0481 -0.0767 -0.0522
 9002TIP3    H126970   3.537   1.820   4.878  0.0302  0.5695  1.0081
 9002TIP3    H226971   3.657   1.845   4.789 -0.8306  3.5428  0.5726
 9003TIP3   OH226972   2.012   3.749   2.229  0.2454  0.0209 -0.2767
 9003TIP3    H126973   2.081   3.704   2.279 -0.1484 -0.2325  0.0462
 9003TIP3    H226974   2.034   3.842   2.237  0.1587 -0.0093  0.4331
 9004TIP3   OH226975   2.805   3.211   2.037  0.2481 -0.7076  0.4737
 9004TIP3    H126976   2.724   3.167   2.061  0.4785 -1.1010  0.5374
 9004TIP3    H226977   2.808   3.204   1.941 -0.0564 -0.2205  0.4236
 9005TIP3   OH226978   2.679   2.666   5.608  0.2759  0.5161  0.1443
 9005TIP3    H126979   2.654   2.593   5.664 -3.2340  0.0226 -1.7327
 9005TIP3    H226980   2.731   2.627   5.539 -0.2851  0.0469 -0.0204
 9006TIP3   OH226981   5.847   5.920   0.616 -0.1721 -0.2771 -0.2355
 9006TIP3    H126982   5.929   5.872   0.629 -0.3076 -0.4096  0.1176
 9006TIP3    H226983   5.871   5.993   0.558  0.6614  0.9497  1.5657
 9007TIP3   OH226984   2.565   4.356   4.159 -0.0610 -0.9675 -0.1572
 9007TIP3    H126985   2.586   4.296   4.230 -0.2886 -0.6784  0.1567
 9007TIP3    H226986   2.495   4.312   4.111  0.4791 -1.4196 -0.5438
 9008TIP3   OH226987   6.729   0.112   0.412  0.7274 -0.1262  0.4780
 9008TIP3    H126988   6.732   0.160   0.495  0.6570 -3.9518  2.9068
 9008TIP3    H226989   6.643   0.071   0.411  0.2246  0.8037 -2.2002
 9009TIP3   OH226990   3.645   0.450   0.343 -0.2371 -0.1388  0.0482
 9009TIP3    H126991   3.701   0.395   0.397 -0.6254 -0.9569 -0.3637
 9009TIP3    H226992   3.556   0.421   0.363 -0.4314  0.1475 -0.3837
 9010TIP3   OH226993   4.752   2.683   5.002 -0.0069  0.9303 -0.5102
 9010TIP3    H126994   4.692   2.634   4.946  0.0808  0.8969 -0.5746
 9010TIP3    H226995   4.740   2.644   5.089 -0.6802  1.4673 -0.3517
 9011TIP3   OH226996   1.642   3.517   0.692 -0.1096 -0.1945  0.3292
 9011TIP3    H126997   1.718   3.546   0.642 -1.0621  1.9476  0.0337
 9011TIP3    H226998   1.646   3.567   0.773 -1.2148 -0.0043  0.2835
 9012TIP3   OH226999   0.973   5.142   5.355 -0.4649 -0.2416  0.6051
 9012TIP3    H127000   1.035   5.085   5.309  1.2925  0.0776  2.4675
 9012TIP3    H227001   0.978   5.226   5.309 -1.1699 -0.8110 -0.5706
 9013TIP3   OH227002   3.623   3.841   0.448 -0.3172  0.4969  0.0315
 9013TIP3    H127003   3.598   3.922   0.404  0.4149  0.8465  0.2370
 9013TIP3    H227004   3.542   3.790   0.452 -0.2709  0.1185 -2.3825
 9014TIP3   OH227005   6.178   6.585   2.181 -0.3724 -0.2541 -0.6631
 9014TIP3    H127006   6.154   6.665   2.135 -0.0432  0.2449  0.0201
 9014TIP3    H227007   6.263   6.604   2.220 -0.7523 -0.5727  0.3522
 9015TIP3   OH227008   6.099   5.957   2.022 -0.2966  0.5833  0.0076
 9015TIP3    H127009   6.151   5.917   1.952  0.7236  1.5590  0.1850
 9015TIP3    H227010   6.052   5.883   2.062 -2.6031  0.2009 -3.0264
 9016TIP3   OH227011   0.151   5.753   4.207  0.0170  0.0506  0.0425
 9016TIP3    H127012   0.224   5.814   4.197 -0.5236  0.9110  1.1039
 9016TIP3    H227013   0.157   5.695   4.132  0.8206  1.1414 -0.7603
 9017TIP3   OH227014   5.317   2.960   2.229  0.3612  0.2773 -0.1155
 9017TIP3    H127015   5.337   3.027   2.295  1.7341  0.8678 -1.0894
 9017TIP3    H227016   5.330   3.004   2.145 -0.7380 -0.6456 -0.7995
 9018TIP3   OH227017   1.649   6.443   5.052  0.1876 -0.5517  0.4663
 9018TIP3    H127018   1.732   6.401   5.033 -0.3696 -1.0478 -1.0231
 9018TIP3    H227019   1.646   6.518   4.992 -0.4775 -0.6067  0.4223
 9019TIP3   OH227020   2.135   5.570   4.048 -0.0276 -0.0519  0.1694
 9019TIP3    H127021   2.051   5.594   4.008 -0.4325 -1.3803  0.1979
 9019TIP3    H227022   2.201   5.606   3.988 -0.6244 -0.0655 -0.5053
 9020TIP3   OH227023   7.050   6.323   1.802  0.0173 -0.1079  0.1287
 9020TIP3    H127024   7.073   6.249   1.857 -0.9455 -0.0764  0.6027
 9020TIP3    H227025   6.966   6.299   1.763  0.2105  0.2888 -0.5523
 9021TIP3   OH227026   4.928   3.434   3.818 -0.3505 -0.5072  0.0048
 9021TIP3    H127027   4.834   3.448   3.822 -0.0967  1.1657  3.8729
 9021TIP3    H227028   4.963   3.517   3.787 -0.0558 -0.6341 -0.0054
 9022TIP3   OH227029   5.464   4.193   0.161  0.3964  0.3221  0.0596
 9022TIP3    H127030   5.368   4.194   0.162  0.3638 -0.1466 -0.9799
 9022TIP3    H227031   5.488   4.277   0.122  0.3808  0.1468 -0.3343
 9023TIP3   OH227032   1.319   5.604   3.058 -0.1072  0.3025 -0.1081
 9023TIP3    H127033   1.254   5.636   3.121  0.6250 -1.8629  1.8613
 9023TIP3    H227034   1.402   5.638   3.090  0.3558 -1.3785  0.5557
 9024TIP3   OH227035   5.114   2.185   5.028  0.1838  0.0085 -0.9449
 9024TIP3    H127036   5.065   2.262   5.057  2.4151  0.9757  0.5724
 9024TIP3    H227037   5.070   2.111   5.071 -0.0007  0.8355  0.3432
 9025TIP3   OH227038   5.441   5.814   3.850  0.1012 -0.2384  0.2462
 9025TIP3    H127039   5.358   5.767   3.854 -0.0767 -0.0804 -1.1436
 9025TIP3    H227040   5.420   5.897   3.807  0.5512  0.8227  1.9708
 9026TIP3   OH227041   3.241   4.383   1.398  0.5065  0.5879  0.4742
 9026TIP3    H127042   3.183   4.324   1.445  0.5708 -0.6736 -0.9319
 9026TIP3    H227043   3.187   4.458   1.375 -0.5544 -0.5009 -0.6888
 9027TIP3   OH227044   0.456   0.374   1.262 -0.3052 -0.0436  0.3387
 9027TIP3    H127045   0.399   0.372   1.185  0.8750 -2.0974 -0.5605
 9027TIP3    H227046   0.490   0.464   1.264 -0.7719  0.2031 -1.2398
 9028TIP3   OH227047   0.456   1.689   5.666  0.3962  0.0132  0.2077
 9028TIP3    H127048   0.375   1.646   5.693  0.9188  0.5011  2.8202
 9028TIP3    H227049   0.523   1.621   5.673  0.4066 -0.1172 -0.9513
 9029TIP3   OH227050   3.205   2.812   0.211  0.2240 -0.2955  0.0322
 9029TIP3    H127051   3.160   2.739   0.169 -0.4029  0.6683 -1.0392
 9029TIP3    H227052   3.222   2.874   0.139  3.7785 -0.8159  0.2275
 9030TIP3   OH227053   2.765   0.194   0.881  0.0189  0.2020 -0.1563
 9030TIP3    H127054   2.743   0.267   0.822  1.0883  3.0505  2.6335
 9030TIP3    H227055   2.701   0.201   0.952 -1.6625 -3.5293 -1.0864
 9031TIP3   OH227056   0.468   6.400   0.048 -0.2693 -0.0053  0.9004
 9031TIP3    H127057   0.562   6.417   0.041  0.1537 -2.5306 -0.7228
 9031TIP3    H227058   0.428   6.463  -0.012  0.5043  0.2923  0.6842
 9032TIP3   OH227059   7.078   1.313   1.547  0.1721  0.1230 -0.3462
 9032TIP3    H127060   7.144   1.368   1.590 -1.6959  1.8775  0.4380
 9032TIP3    H227061   7.037   1.264   1.619  0.0151 -0.2870 -0.7098
 9033TIP3   OH227062   6.921   6.535   4.236 -0.2777  1.0609  0.2085
 9033TIP3    H127063   6.906   6.443   4.213 -0.8615  1.2031  0.0068
 9033TIP3    H227064   6.949   6.575   4.153  0.4111  0.9752  0.3950
 9034TIP3   OH227065   4.682   6.534   1.102 -0.3395 -0.3247 -0.1219
 9034TIP3    H127066   4.742   6.468   1.067 -1.8936 -1.7133 -0.3163
 9034TIP3    H227067   4.711   6.548   1.192 -0.2955 -1.7016  0.1002
 9035TIP3   OH227068   2.493   0.624   4.833 -0.1792  0.0674 -0.1246
 9035TIP3    H127069   2.580   0.653   4.808 -0.6424  1.4170 -0.2322
 9035TIP3    H227070   2.471   0.676   4.910 -0.8314 -0.3571 -0.0149
 9036TIP3   OH227071   3.684   4.055   1.486 -0.2413  0.8405 -0.1589
 9036TIP3    H127072   3.728   3.971   1.494 -2.2567 -0.2103  0.6592
 9036TIP3    H227073   3.677   4.087   1.576 -0.4570  1.3505 -0.3530
 9037TIP3   OH227074   3.655   5.451   0.045  0.2360  0.4521  0.3389
 9037TIP3    H127075   3.727   5.473   0.103  1.0711  2.2513 -1.2673
 9037TIP3    H227076   3.682   5.370   0.002  1.2870  1.0316 -0.1394
 9038TIP3   OH227077   3.039   0.573   1.374 -0.1167 -0.0133  0.0818
 9038TIP3    H127078   3.088   0.499   1.337  0.0464  1.1757 -2.2628
 9038TIP3    H227079   3.107   0.633   1.405 -0.1723  0.3530 -0.5067
 9039TIP3   OH227080   4.521   3.624   1.155 -0.5198  0.4433  0.0063
 9039TIP3    H127081   4.582   3.688   1.118 -0.7766  0.5701 -0.2010
 9039TIP3    H227082   4.556   3.604   1.241 -1.5916  2.5038  0.9890
 9040TIP3   OH227083   2.393   5.182   1.937  0.0343  0.0072 -0.3417
 9040TIP3    H127084   2.440   5.101   1.958  1.7174  0.6048 -1.5338
 9040TIP3    H227085   2.305   5.154   1.914 -0.5363 -1.1032  2.7256
 9041TIP3   OH227086   3.434   6.760   0.936  0.4072  0.1638  0.4109
 9041TIP3    H127087   3.345   6.738   0.908  0.8395  0.4168 -1.2771
 9041TIP3    H227088   3.449   6.847   0.900  1.3115  0.1604  0.7628
 9042TIP3   OH227089   2.347   5.826   4.247  0.2818 -0.1300 -0.3538
 9042TIP3    H127090   2.381   5.876   4.322 -1.1470 -0.8280  0.8096
 9042TIP3    H227091   2.263   5.868   4.227 -0.0508 -0.8983 -0.5727
 9043TIP3   OH227092   0.019   4.304   2.565 -0.1653 -0.1403  0.1085
 9043TIP3    H127093   0.055   4.393   2.557  2.1578 -0.9126  1.2274
 9043TIP3    H227094  -0.069   4.311   2.527 -0.0657  2.6273  0.1713
 9044TIP3   OH227095   1.499   0.118   3.278 -0.1477  0.4228 -0.3028
 9044TIP3    H127096   1.418   0.121   3.329  0.0434  0.8941 -0.0118
 9044TIP3    H227097   1.556   0.182   3.321  1.6075 -2.2264  1.5646
 9045TIP3   OH227098   5.654   2.239   1.472  0.2973  0.6062  0.3378
 9045TIP3    H127099   5.564   2.230   1.502 -0.2210  0.9228 -1.0603
 9045TIP3    H227100   5.694   2.154   1.494 -0.1334  0.6840  1.5383
 9046TIP3   OH227101   0.896   6.121   2.438 -0.2651 -0.2252  0.2288
 9046TIP3    H127102   0.961   6.143   2.504  1.1442 -1.1314 -0.8151
 9046TIP3    H227103   0.900   6.026   2.431  0.8224 -0.0676 -2.2887
 9047TIP3   OH227104   0.378   5.861   1.050  0.0929 -0.4612  0.1535
 9047TIP3    H127105   0.437   5.879   1.123  1.0106  0.0228 -0.6823
 9047TIP3    H227106   0.379   5.941   0.998 -2.4405  0.1026  0.8606
 9048TIP3   OH227107   2.594   0.913   3.805  0.3536 -0.1042 -0.3883
 9048TIP3    H127108   2.655   0.893   3.876 -0.1953 -0.5755 -0.0457
 9048TIP3    H227109   2.549   0.993   3.833  1.1886  0.5661 -0.8926
 9049TIP3   OH227110   3.570   2.336   2.504  0.0241  0.1201  0.4301
 9049TIP3    H127111   3.532   2.279   2.436 -1.9917  0.3134  1.3046
 9049TIP3    H227112   3.613   2.276   2.564  0.6271 -0.1741 -0.2756
 9050TIP3   OH227113   4.349   1.796   2.368  0.3315 -0.3561 -0.0556
 9050TIP3    H127114   4.291   1.838   2.305  2.5300 -0.4833 -2.2784
 9050TIP3    H227115   4.338   1.702   2.353  0.4603 -0.4074  0.1607
 9051TIP3   OH227116   4.884   4.334   4.245 -0.4720  0.2806  0.2717
 9051TIP3    H127117   4.932   4.293   4.173 -3.1481 -2.2787 -0.2571
 9051TIP3    H227118   4.834   4.405   4.203  1.0266  1.4938  0.4401
 9052TIP3   OH227119   2.001   2.848   4.511 -0.1945  0.0011  0.5835
 9052TIP3    H127120   1.985   2.919   4.574 -1.9499 -0.4938  0.7457
 9052TIP3    H227121   1.966   2.770   4.553  0.8325 -0.7992 -0.0085
 9053TIP3   OH227122   4.210   4.441   0.878  0.1422  0.1768 -0.3165
 9053TIP3    H127123   4.212   4.346   0.863 -0.2924 -0.0790  1.0767
 9053TIP3    H227124   4.279   4.475   0.821  2.0521 -1.2858  0.9673
 9054TIP3   OH227125   3.738   3.490   5.368  0.2939  0.6684 -0.4781
 9054TIP3    H127126   3.682   3.506   5.444 -0.8616 -1.6223 -0.7405
 9054TIP3    H227127   3.731   3.570   5.316 -2.6396  0.5800 -0.3953
 9055TIP3   OH227128   5.394   3.615   2.295  0.1095 -0.2136 -0.4951
 9055TIP3    H127129   5.312   3.585   2.255  0.5924 -1.2269 -0.7581
 9055TIP3    H227130   5.412   3.699   2.251 -0.5281 -0.2145 -0.7792
 9056TIP3   OH227131   3.763   5.689   2.096 -0.1663 -0.4548  0.5645
 9056TIP3    H127132   3.783   5.646   2.180  0.1554 -1.5299 -0.0409
 9056TIP3    H227133   3.848   5.694   2.051 -0.2869  0.3980  0.4256
 9057TIP3   OH227134   4.035   1.508   2.075 -0.5164 -0.0016 -0.1542
 9057TIP3    H127135   4.063   1.533   1.986  1.8143 -3.6704 -0.6612
 9057TIP3    H227136   3.960   1.450   2.061 -0.7288  0.1429  0.3612
 9058TIP3   OH227137   5.944   3.677   0.663 -0.0931 -0.0511 -0.7570
 9058TIP3    H127138   6.027   3.667   0.709  0.4471 -0.1761 -1.7327
 9058TIP3    H227139   5.961   3.646   0.575 -0.7995  1.1731 -1.3611
 9059TIP3   OH227140   6.273   3.359   1.195 -0.2541  0.4267 -0.2779
 9059TIP3    H127141   6.355   3.318   1.166  0.0377 -0.7388  2.0029
 9059TIP3    H227142   6.298   3.448   1.221 -0.0421  0.6021 -1.0422
 9060TIP3   OH227143   2.936   2.585   0.706  0.2294 -0.2034 -0.6061
 9060TIP3    H127144   2.876   2.516   0.734  1.5886 -0.3187  2.3321
 9060TIP3    H227145   3.009   2.539   0.666  1.4499 -0.6469  1.9477
 9061TIP3   OH227146   2.664   1.040   2.371 -0.4628  0.2646 -0.3452
 9061TIP3    H127147   2.628   1.111   2.425 -0.7270  0.6330 -0.9889
 9061TIP3    H227148   2.745   1.077   2.335 -0.5560  0.2075 -0.6135
 9062TIP3   OH227149   3.263   2.517   1.563  0.0376 -0.4661  0.2282
 9062TIP3    H127150   3.313   2.566   1.628 -0.6442 -0.3862  0.7056
 9062TIP3    H227151   3.221   2.447   1.612  1.2240 -1.7361 -0.4916
 9063TIP3   OH227152   5.324   3.712   0.201 -0.2679 -0.3340  0.3476
 9063TIP3    H127153   5.307   3.622   0.174 -1.7641  0.5210 -1.8123
 9063TIP3    H227154   5.263   3.727   0.273  0.5762 -1.2672  1.2857
 9064TIP3   OH227155   0.527   3.308   1.279  0.2300 -0.1816  0.0075
 9064TIP3    H127156   0.466   3.379   1.300 -1.5045 -1.4389 -0.5920
 9064TIP3    H227157   0.580   3.298   1.359  0.2436  1.4720  0.2541
 9065TIP3   OH227158   3.060   3.928   5.471 -0.0112 -0.3813 -0.4450
 9065TIP3    H127159   3.029   4.017   5.459  0.2915 -0.2011  0.0869
 9065TIP3    H227160   3.119   3.912   5.397  0.1460 -0.0447 -0.3921
 9066TIP3   OH227161   0.356   0.521   3.014 -0.2379  0.2396  0.4165
 9066TIP3    H127162   0.380   0.608   3.045  1.0131  0.2346 -0.4192
 9066TIP3    H227163   0.430   0.465   3.039  0.3726  0.0522 -1.6214
 9067TIP3   OH227164   5.660   3.031   4.759 -0.2692  0.0813 -0.0282
 9067TIP3    H127165   5.736   3.071   4.718 -0.0701 -0.3402 -0.0677
 9067TIP3    H227166   5.691   2.947   4.792 -0.4197  0.3984  0.9820
 9068TIP3   OH227167   3.271   3.299   1.265 -0.3405 -0.0288  0.1630
 9068TIP3    H127168   3.288   3.219   1.314  1.1967  0.3224  0.2424
 9068TIP3    H227169   3.176   3.297   1.248 -0.5262 -1.2434  1.2081
 9069TIP3   OH227170   2.244   6.002   3.972  0.3614 -0.0044 -0.6950
 9069TIP3    H127171   2.187   6.078   3.964  1.7237  1.2424  0.7734
 9069TIP3    H227172   2.245   5.963   3.885 -1.6127  0.7234 -1.0808
 9070TIP3   OH227173   2.290   0.444   3.853  0.2914  0.3732 -0.0699
 9070TIP3    H127174   2.322   0.529   3.822  0.5916  0.6180  0.8891
 9070TIP3    H227175   2.317   0.440   3.944  1.0978 -1.1576 -0.3454
 9071TIP3   OH227176   1.954   0.104   1.050 -0.1621  0.0096 -0.2503
 9071TIP3    H127177   1.876   0.094   1.104 -0.6762 -0.0732 -0.9843
 9071TIP3    H227178   2.027   0.096   1.111 -0.7411  1.3326  0.6484
 9072TIP3   OH227179   5.170   3.559   3.984  0.1301  0.2662 -0.2863
 9072TIP3    H127180   5.099   3.596   3.932  0.3743  0.7280 -0.2955
 9072TIP3    H227181   5.194   3.628   4.045 -0.6436 -0.5298  0.9535
 9073TIP3   OH227182   0.514   4.810   2.084  0.1765  0.1145  1.0623
 9073TIP3    H127183   0.539   4.897   2.053 -0.2604 -0.4826 -1.1535
 9073TIP3    H227184   0.586   4.784   2.142  0.8704  1.4893  0.8625
 9074TIP3   OH227185   1.348   5.763   1.505 -0.0288 -0.3444 -0.0719
 9074TIP3    H127186   1.351   5.689   1.444  2.8470 -0.8305  0.5099
 9074TIP3    H227187   1.368   5.839   1.451  2.8813 -0.8174  0.1448
 9075TIP3   OH227188   1.883   3.569   0.554  0.0972  0.5515  0.4473
 9075TIP3    H127189   1.933   3.543   0.477 -0.9242 -0.5568  0.1292
 9075TIP3    H227190   1.944   3.558   0.627  1.4575  2.7292 -0.2688
 9076TIP3   OH227191   4.629   5.496   2.717 -0.2477 -0.7462 -0.5829
 9076TIP3    H127192   4.617   5.426   2.781 -0.6578  0.1876  0.3937
 9076TIP3    H227193   4.720   5.524   2.729  0.4502 -2.1854 -2.1308
 9077TIP3   OH227194   1.950   5.178   4.779  0.2603 -0.0700  0.0664
 9077TIP3    H127195   2.045   5.187   4.782  0.1821  0.6565  0.6479
 9077TIP3    H227196   1.922   5.185   4.871 -0.2574 -1.5050  0.0454
 9078TIP3   OH227197   5.490   6.621   1.542  0.3084 -0.0540 -0.3243
 9078TIP3    H127198   5.515   6.529   1.539  2.4501  0.4878 -0.6428
 9078TIP3    H227199   5.568   6.668   1.513  0.0570  1.9803  1.9496
 9079TIP3   OH227200   5.033   5.384   3.056 -0.1653  0.0037  0.3009
 9079TIP3    H127201   5.023   5.470   3.015  0.8279 -1.5239 -3.5948
 9079TIP3    H227202   5.124   5.383   3.085  0.3760 -0.2901 -1.3046
 9080TIP3   OH227203   6.676   2.100   5.899 -0.1844 -0.1330  0.1645
 9080TIP3    H127204   6.685   2.111   5.804  1.8246 -0.5142  0.2736
 9080TIP3    H227205   6.587   2.130   5.918 -0.7255 -0.3023 -1.8682
 9081TIP3   OH227206   5.260   1.553   5.027 -0.8502  0.2511  0.0470
 9081TIP3    H127207   5.250   1.468   4.984 -0.8704  0.6486 -0.7462
 9081TIP3    H227208   5.204   1.546   5.104 -0.0624 -0.8152  0.5580
 9082TIP3   OH227209   4.837   3.309   3.013  0.3371  0.2190  0.0645
 9082TIP3    H127210   4.800   3.245   3.074 -0.8214  2.2916  1.6825
 9082TIP3    H227211   4.776   3.312   2.940 -0.5119  0.6569  0.7807
 9083TIP3   OH227212   1.892   3.661   4.363 -0.1907  0.3334 -0.3271
 9083TIP3    H127213   1.927   3.715   4.433  0.4737 -0.0330 -0.3769
 9083TIP3    H227214   1.919   3.705   4.282  0.4843 -0.1514 -0.3694
 9084TIP3   OH227215   2.837   0.978   2.992 -0.0796 -0.4898 -0.6250
 9084TIP3    H127216   2.866   1.050   2.934  0.2248  0.1173  0.2596
 9084TIP3    H227217   2.766   1.016   3.044 -0.7643 -1.2175 -1.0036
 9085TIP3   OH227218   4.406   1.989   5.223  0.5560  0.7881 -0.0418
 9085TIP3    H127219   4.463   1.947   5.288  0.9763  0.8380 -0.3734
 9085TIP3    H227220   4.327   2.011   5.272  0.5228  0.0538  0.2584
 9086TIP3   OH227221   1.022   2.023   5.780  0.0927  0.1448  0.5453
 9086TIP3    H127222   1.100   2.041   5.834  0.5685 -0.5986  0.1109
 9086TIP3    H227223   0.957   1.990   5.842  0.7138 -0.9267  0.6459
 9087TIP3   OH227224   0.976   0.091   4.485  0.6648 -0.3653  0.2329
 9087TIP3    H127225   0.956   0.182   4.507  0.3907 -0.5671  0.8475
 9087TIP3    H227226   0.975   0.088   4.389 -0.2500  0.0790  0.2147
 9088TIP3   OH227227   3.944   0.166   4.946 -0.1211  0.3767 -0.1819
 9088TIP3    H127228   3.933   0.150   4.852 -2.0190  0.9148 -0.0881
 9088TIP3    H227229   3.933   0.080   4.986 -0.2645  0.2954 -0.3896
 9089TIP3   OH227230   0.521   6.118   1.257  0.1024 -0.2425 -0.7558
 9089TIP3    H127231   0.472   6.200   1.268 -1.5214 -0.8253 -2.7551
 9089TIP3    H227232   0.472   6.054   1.309 -0.6512 -0.5753 -1.8178
 9090TIP3   OH227233   3.107   6.318   4.595  0.2722 -0.0161  0.1206
 9090TIP3    H127234   3.080   6.274   4.676 -0.7333  0.5407  0.1016
 9090TIP3    H227235   3.103   6.250   4.528  1.4381 -0.5659  0.5861
 9091TIP3   OH227236   0.264   1.595   2.824  0.0802 -0.4934  0.5361
 9091TIP3    H127237   0.312   1.530   2.773 -1.0598 -0.8965 -0.0783
 9091TIP3    H227238   0.272   1.676   2.773  2.4705  0.1960  1.8788
 9092TIP3   OH227239   5.354   4.700   0.916  0.0448  0.2112 -0.3635
 9092TIP3    H127240   5.330   4.788   0.885 -1.8161 -0.6409 -1.4987
 9092TIP3    H227241   5.270   4.659   0.939  0.9681 -0.9616  1.0619
 9093TIP3   OH227242   6.234   2.885   5.361  0.2124 -0.2608  0.2638
 9093TIP3    H127243   6.212   2.978   5.369  0.3346 -0.2766  0.8238
 9093TIP3    H227244   6.329   2.883   5.368  0.1766 -0.4719  0.7292
 9094TIP3   OH227245   0.518   5.768   3.531  0.6212 -0.6945  0.4382
 9094TIP3    H127246   0.509   5.677   3.500 -0.5841  0.1168 -1.9062
 9094TIP3    H227247   0.438   5.784   3.580 -0.2651 -0.3019 -1.0501
 9095TIP3   OH227248   5.640   3.860   4.154 -0.9503  0.0500  0.0176
 9095TIP3    H127249   5.559   3.865   4.104 -0.8872 -0.5278 -0.1470
 9095TIP3    H227250   5.618   3.895   4.240 -1.9083 -1.9091  0.6270
 9096TIP3   OH227251   5.452   5.231   4.938  0.9170 -0.4106  0.2229
 9096TIP3    H127252   5.450   5.326   4.946  1.1922 -0.5029  1.6398
 9096TIP3    H227253   5.492   5.215   4.852  2.6244  0.7551  0.7390
 9097TIP3   OH227254   4.698   0.394   0.758 -0.2847  0.1841  0.3955
 9097TIP3    H127255   4.711   0.425   0.668 -1.7748  1.1432  0.4659
 9097TIP3    H227256   4.783   0.403   0.800  0.1789  0.7046 -0.6384
 9098TIP3   OH227257   3.260   6.100   3.575  0.1911 -0.1857  0.6607
 9098TIP3    H127258   3.352   6.079   3.589  0.2317  0.7114  1.8718
 9098TIP3    H227259   3.259   6.194   3.557 -0.4081 -0.3466 -0.2074
 9099TIP3   OH227260   5.802   3.302   2.075 -0.4110 -0.2722 -0.0704
 9099TIP3    H127261   5.831   3.391   2.093  1.4012 -1.0001  0.8430
 9099TIP3    H227262   5.734   3.285   2.140  0.5568 -0.1764  0.9957
 9100TIP3   OH227263   0.297   1.910   0.815  0.4863 -0.6967  0.3513
 9100TIP3    H127264   0.311   1.913   0.909 -3.6258 -0.4649  1.1222
 9100TIP3    H227265   0.222   1.967   0.800 -0.0146 -1.9776 -2.8274
 9101TIP3   OH227266   4.334   1.409   5.854 -0.2098 -0.1603  0.3981
 9101TIP3    H127267   4.383   1.367   5.925  2.0253 -1.1197 -1.5408
 9101TIP3    H227268   4.324   1.500   5.882  0.9664 -0.4184  1.7665
 9102TIP3   OH227269   0.588   2.061   2.383  0.0637  0.0514  0.2713
 9102TIP3    H127270   0.566   2.044   2.292 -0.0220  0.2292  0.2580
 9102TIP3    H227271   0.651   2.132   2.380  1.2973 -1.0026  0.2657
 9103TIP3   OH227272   2.813   1.606   5.889  0.1910 -0.0503 -0.1666
 9103TIP3    H127273   2.744   1.577   5.948 -0.0934  2.6677  0.9889
 9103TIP3    H227274   2.766   1.645   5.815  0.4259  1.4821  0.4537
 9104TIP3   OH227275   0.349   1.325   0.726  0.0908 -0.2083  0.2203
 9104TIP3    H127276   0.298   1.329   0.645 -0.0883  1.0640  0.3804
 9104TIP3    H227277   0.437   1.302   0.697  0.0763  0.4325 -0.3719
 9105TIP3   OH227278   3.206   0.307   4.331  0.1815  0.1176 -0.2657
 9105TIP3    H127279   3.246   0.394   4.340 -0.4343  0.3760  0.0613
 9105TIP3    H227280   3.272   0.255   4.285 -0.9351  1.8555 -4.3650
 9106TIP3   OH227281   7.019   2.313   0.611 -0.0654 -0.4181 -0.1581
 9106TIP3    H127282   7.015   2.381   0.544 -0.8133  0.1162  0.4119
 9106TIP3    H227283   7.001   2.359   0.693  1.3667 -0.9570  0.4993
 9107TIP3   OH227284   2.252   6.117   4.746  0.0351 -0.0299  1.6249
 9107TIP3    H127285   2.219   6.135   4.658 -1.4590  1.2843  2.3918
 9107TIP3    H227286   2.265   6.204   4.785  1.8211 -0.5648  2.3374
 9108TIP3   OH227287   4.970   1.741   2.506  0.4403 -0.0956 -0.6306
 9108TIP3    H127288   4.924   1.825   2.515  0.9215  0.0590  0.5209
 9108TIP3    H227289   5.057   1.757   2.541  0.5925 -1.0461 -0.5441
 9109TIP3   OH227290   1.155   3.899   3.435  0.2019  0.1165 -0.1243
 9109TIP3    H127291   1.185   3.975   3.384 -2.7188  0.5820 -1.3132
 9109TIP3    H227292   1.099   3.936   3.503  0.1365 -0.8749  0.3797
 9110TIP3   OH227293   5.123   5.690   0.471 -0.4630  0.3474 -0.1052
 9110TIP3    H127294   5.130   5.783   0.451 -0.1340  0.7627  1.7244
 9110TIP3    H227295   5.206   5.653   0.442 -0.1884  0.8157  0.0672
 9111TIP3   OH227296   1.086   3.496   3.547 -0.5335 -0.3311  0.6769
 9111TIP3    H127297   1.040   3.547   3.481  1.0755  0.6896  0.2633
 9111TIP3    H227298   1.026   3.426   3.570 -1.4566 -0.2676 -1.3022
 9112TIP3   OH227299   4.599   4.605   1.408 -0.1121  0.4320  0.1766
 9112TIP3    H127300   4.512   4.589   1.370 -0.2167 -0.8040  0.8741
 9112TIP3    H227301   4.660   4.562   1.348  0.1617  2.3136 -0.9537
 9113TIP3   OH227302   7.139   5.214   2.733 -0.5137  0.2312  0.1504
 9113TIP3    H127303   7.215   5.249   2.688 -0.2991  1.4066  1.3628
 9113TIP3    H227304   7.079   5.188   2.663  0.4368  0.5435 -0.8032
 9114TIP3   OH227305   1.270   1.096   4.357  0.9557  0.6005  0.6580
 9114TIP3    H127306   1.216   1.148   4.298 -2.3450 -1.4107  1.6528
 9114TIP3    H227307   1.261   1.139   4.442  1.0742  0.3240  0.8114
 9115TIP3   OH227308   1.001   2.799   2.952  0.2620 -0.0603 -0.0673
 9115TIP3    H127309   0.963   2.751   3.025  0.4980  0.8484  0.6812
 9115TIP3    H227310   0.934   2.863   2.928  0.2412 -0.2651 -0.5529
 9116TIP3   OH227311   3.210   0.822   2.213 -0.4952  0.7245 -0.0508
 9116TIP3    H127312   3.137   0.855   2.160  0.0020  1.2778 -0.4033
 9116TIP3    H227313   3.186   0.845   2.303 -2.5273 -2.3783  0.3404
 9117TIP3   OH227314   5.899   1.297   1.729  0.1737 -0.0048  0.3680
 9117TIP3    H127315   5.903   1.319   1.822  2.3638  0.9649  0.1166
 9117TIP3    H227316   5.990   1.306   1.699 -0.1199 -2.2363 -1.4397
 9118TIP3   OH227317   6.101   0.149   3.953 -0.2564  0.0185 -0.1539
 9118TIP3    H127318   6.010   0.150   3.926  0.4763 -0.4825 -2.9816
 9118TIP3    H227319   6.128   0.058   3.944  0.7673  0.3237 -0.3677
 9119TIP3   OH227320   4.884   6.397   2.326  0.6623  0.3016 -0.2070
 9119TIP3    H127321   4.871   6.383   2.232 -2.4592 -0.6951  0.2453
 9119TIP3    H227322   4.949   6.467   2.331  2.6993 -1.1921 -3.0092
 9120TIP3   OH227323   7.029   3.658   4.698  0.2147  0.4585 -0.1364
 9120TIP3    H127324   6.938   3.687   4.694 -0.0402 -0.4346 -2.6749
 9120TIP3    H227325   7.023   3.563   4.704  1.0154  0.4915  1.6450
 9121TIP3   OH227326   0.931   6.670   1.845 -0.0956 -0.0874 -0.1214
 9121TIP3    H127327   0.949   6.758   1.877 -0.5888 -0.3912  1.0389
 9121TIP3    H227328   1.009   6.620   1.869 -0.4693 -0.3173  0.6431
 9122TIP3   OH227329   6.616   0.042   1.628  0.3964 -0.2651 -0.0138
 9122TIP3    H127330   6.597   0.117   1.684  1.4512  1.8980 -2.3364
 9122TIP3    H227331   6.545   0.040   1.564  1.3857  0.0755 -1.1793
 9123TIP3   OH227332   2.622   5.852   2.851 -0.4618 -1.0042 -0.5940
 9123TIP3    H127333   2.647   5.760   2.841 -1.1600 -1.0858 -1.8299
 9123TIP3    H227334   2.589   5.858   2.940  1.8346 -1.3809  0.3323
 9124TIP3   OH227335   3.984   5.644   2.607  0.2101 -0.1232 -0.1510
 9124TIP3    H127336   4.060   5.603   2.650  0.4921  0.1177 -0.4145
 9124TIP3    H227337   3.912   5.631   2.668  0.1419 -1.5969 -0.5059
 9125TIP3   OH227338   5.824   1.849   5.604  0.0699 -0.4308 -0.0475
 9125TIP3    H127339   5.761   1.919   5.588  0.7617  0.2947  0.2743
 9125TIP3    H227340   5.786   1.771   5.565 -0.1891  0.3822 -1.4660
 9126TIP3   OH227341   6.197   3.781   1.914 -0.2096 -0.1118 -0.4388
 9126TIP3    H127342   6.104   3.759   1.913 -0.1166 -0.7407  1.1398
 9126TIP3    H227343   6.233   3.739   1.837 -1.2672  0.3723 -1.2244
 9127TIP3   OH227344   6.837   2.083   0.811  0.1333 -0.0380 -0.0919
 9127TIP3    H127345   6.844   2.096   0.905 -1.0853  0.7096 -0.0849
 9127TIP3    H227346   6.838   2.171   0.774  2.2965 -0.3561 -0.9504
 9128TIP3   OH227347   0.765   6.435   4.113 -0.4660 -0.0744 -0.0933
 9128TIP3    H127348   0.787   6.375   4.184 -0.5257  0.5707  0.4817
 9128TIP3    H227349   0.706   6.385   4.056 -0.7646 -0.4530  0.5444
 9129TIP3   OH227350   7.126   0.843   2.727  0.2097  0.5159 -0.1987
 9129TIP3    H127351   7.219   0.824   2.711  0.8480  2.4743  0.7588
 9129TIP3    H227352   7.127   0.903   2.801 -1.7950  1.0546 -0.5488
 9130TIP3   OH227353   2.634   4.720   0.534 -0.5474 -0.8850  0.1004
 9130TIP3    H127354   2.722   4.756   0.529 -0.7018 -0.5794 -0.5306
 9130TIP3    H227355   2.646   4.633   0.573 -0.3987  0.5484  3.5884
 9131TIP3   OH227356   4.900   2.155   1.956 -0.2767 -0.0772 -0.1670
 9131TIP3    H127357   4.956   2.230   1.977 -2.8649  1.9183  0.0426
 9131TIP3    H227358   4.910   2.096   2.031  0.2752  1.0115  0.6456
 9132TIP3   OH227359   2.361   2.688   0.425 -0.0039  0.2980 -0.7407
 9132TIP3    H127360   2.328   2.613   0.375 -0.8691  0.9756 -1.2245
 9132TIP3    H227361   2.313   2.763   0.390  0.3218  0.9817  0.2265
 9133TIP3   OH227362   1.836   5.961   1.259  0.5686  0.1876 -0.1071
 9133TIP3    H127363   1.841   6.015   1.338  0.0628 -1.3281  1.0050
 9133TIP3    H227364   1.765   6.001   1.208  0.8824  1.1784  0.2063
 9134TIP3   OH227365   5.224   0.772   2.055  0.1894  0.3586 -0.0444
 9134TIP3    H127366   5.218   0.867   2.059 -0.6535  0.3793 -1.3783
 9134TIP3    H227367   5.238   0.752   1.963 -0.7589 -0.8616  0.0519
 9135TIP3   OH227368   4.538   2.929   0.232  0.2835  0.2801  0.0913
 9135TIP3    H127369   4.612   2.935   0.172  1.0013 -1.3454  0.7688
 9135TIP3    H227370   4.575   2.942   0.319 -0.6394  1.8997  0.2904
 9136TIP3   OH227371   0.798   4.637   0.207  0.1776 -0.8610  0.0259
 9136TIP3    H127372   0.797   4.689   0.287  0.2334 -0.9384  0.0770
 9136TIP3    H227373   0.806   4.701   0.137 -0.6483 -0.7404  0.0375
 9137TIP3   OH227374   4.749   2.371   2.668  0.2292  0.8344 -0.5155
 9137TIP3    H127375   4.780   2.331   2.750 -0.4790 -1.3506 -1.2364
 9137TIP3    H227376   4.655   2.382   2.681  0.4293  2.5391 -0.2750
 9138TIP3   OH227377   4.848   2.305   5.680 -0.5105 -0.4978  0.1304
 9138TIP3    H127378   4.776   2.367   5.676  0.6690  0.9377  0.4336
 9138TIP3    H227379   4.859   2.286   5.773 -2.4523 -3.1680 -0.0707
 9139TIP3   OH227380   4.016   4.138   1.422  0.8390  0.5506 -0.4781
 9139TIP3    H127381   4.082   4.206   1.413 -0.3107  1.9363  1.1722
 9139TIP3    H227382   4.024   4.108   1.512 -0.8979  0.9021 -0.1774
 9140TIP3   OH227383   1.310   4.548   4.198 -0.2313 -0.3082  0.0852
 9140TIP3    H127384   1.314   4.631   4.150  1.0676 -0.4445 -0.0685
 9140TIP3    H227385   1.362   4.487   4.146  0.6043 -0.6486  1.2888
 9141TIP3   OH227386   2.919   5.607   5.525  0.4135  0.2516  0.2729
 9141TIP3    H127387   2.855   5.653   5.581 -1.3638  0.3727 -1.7190
 9141TIP3    H227388   2.867   5.542   5.478  2.1660 -1.0273  0.0346
 9142TIP3   OH227389   2.436   5.235   2.840 -0.2849 -0.1139 -0.0785
 9142TIP3    H127390   2.361   5.221   2.899 -0.0490  0.5404  0.3880
 9142TIP3    H227391   2.472   5.319   2.867  0.7419 -0.5127 -0.1623
 9143TIP3   OH227392   1.228   3.389   2.245  0.3580  0.5521  0.2959
 9143TIP3    H127393   1.284   3.451   2.292 -0.1647  1.4911 -0.3006
 9143TIP3    H227394   1.182   3.442   2.181  2.8462 -0.9688 -3.0534
 9144TIP3   OH227395   6.791   2.096   3.668 -0.5255  0.0390  0.0108
 9144TIP3    H127396   6.734   2.027   3.701 -0.7298 -0.2621 -0.9418
 9144TIP3    H227397   6.822   2.141   3.746  1.5568 -2.6168  0.8480
 9145TIP3   OH227398   5.567   1.277   1.510 -0.5569  0.2696  0.4361
 9145TIP3    H127399   5.504   1.260   1.580 -0.5460  1.7584  0.8393
 9145TIP3    H227400   5.641   1.219   1.529 -1.0497 -0.1857  0.9833
 9146TIP3   OH227401   6.097   6.331   3.776 -0.2314  0.1663  0.2356
 9146TIP3    H127402   6.053   6.371   3.701 -0.5366  0.4227  0.5454
 9146TIP3    H227403   6.125   6.245   3.745  0.6214  0.6905 -0.5178
 9147TIP3   OH227404   2.186   1.678   5.066 -0.1163 -0.2487 -0.0643
 9147TIP3    H127405   2.188   1.583   5.076 -0.8775 -0.3038 -0.3576
 9147TIP3    H227406   2.148   1.692   4.978  0.3783  0.3142 -0.1940
 9148TIP3   OH227407   2.133   1.693   0.115 -0.0221 -0.7212  0.0693
 9148TIP3    H127408   2.054   1.707   0.062 -0.1156  0.2697  0.4577
 9148TIP3    H227409   2.104   1.639   0.188 -0.4755  0.1045  0.5113
 9149TIP3   OH227410   6.209   5.978   2.957 -0.3177 -0.0544  0.2767
 9149TIP3    H127411   6.201   6.070   2.930 -0.3544 -0.3913 -0.8955
 9149TIP3    H227412   6.121   5.943   2.947  0.2843 -1.0386 -2.4697
 9150TIP3   OH227413   1.856   4.215   4.187  0.3868  0.0564 -0.1327
 9150TIP3    H127414   1.798   4.173   4.250  2.5796 -0.2914  1.7685
 9150TIP3    H227415   1.899   4.142   4.142 -0.3560  0.3166 -1.3350
 9151TIP3   OH227416   1.374   2.372   1.244  0.0852 -0.3382  0.2985
 9151TIP3    H127417   1.362   2.277   1.247  0.8635 -0.4397  0.6052
 9151TIP3    H227418   1.459   2.384   1.201  1.0430  0.1021  2.2049
 9152TIP3   OH227419   2.604   2.463   4.584  0.5172 -0.0509  0.2047
 9152TIP3    H127420   2.571   2.510   4.660  2.1566  0.3246  0.7182
 9152TIP3    H227421   2.581   2.371   4.600 -1.4462  0.3268 -0.1342
 9153TIP3   OH227422   5.026   4.150   1.428 -0.4228 -0.0421 -0.1260
 9153TIP3    H127423   5.007   4.209   1.355 -2.3297 -0.1857  0.1800
 9153TIP3    H227424   5.093   4.091   1.394  0.0164  0.9902 -1.1423
 9154TIP3   OH227425   2.607   2.811   4.557  0.3758 -0.2905  0.1414
 9154TIP3    H127426   2.555   2.764   4.622  0.9755  0.4464  1.1928
 9154TIP3    H227427   2.587   2.903   4.572  0.4320 -0.1151 -0.8161
 9155TIP3   OH227428   5.198   2.800   3.871  0.1433  0.3592 -0.0210
 9155TIP3    H127429   5.133   2.741   3.909 -1.1101  1.5688 -0.2127
 9155TIP3    H227430   5.165   2.888   3.890  1.1011  0.9969 -1.1660
 9156TIP3   OH227431   3.816   1.355   2.275  0.2094  0.0446 -0.2647
 9156TIP3    H127432   3.772   1.302   2.342  1.1076 -1.9395 -1.1683
 9156TIP3    H227433   3.746   1.380   2.215 -0.0357 -1.2948 -0.5557
 9157TIP3   OH227434   4.419   3.993   0.436 -0.4991  0.1539  0.6320
 9157TIP3    H127435   4.370   4.033   0.364  0.2152 -0.1820 -0.0523
 9157TIP3    H227436   4.442   3.906   0.404  0.4460  0.2600  0.9926
 9158TIP3   OH227437   0.659   5.123   0.307  0.1345  0.5280  0.0741
 9158TIP3    H127438   0.583   5.067   0.292 -1.1051  2.0806  0.3177
 9158TIP3    H227439   0.705   5.082   0.381 -1.7559  0.7796  1.4705
 9159TIP3   OH227440   1.290   0.974   1.886 -0.0131 -0.2325  0.1552
 9159TIP3    H127441   1.314   1.060   1.919 -3.1887  0.7340  0.2596
 9159TIP3    H227442   1.278   0.986   1.792  2.2621 -1.3311 -0.3565
 9160TIP3   OH227443   4.572   2.687   1.233 -0.1474  0.0468 -0.4912
 9160TIP3    H127444   4.660   2.651   1.224 -0.1094 -0.6991  2.0932
 9160TIP3    H227445   4.586   2.782   1.240  0.6476 -0.1690  1.3418
 9161TIP3   OH227446   5.776   0.502   1.268 -0.2795 -0.6287 -0.4051
 9161TIP3    H127447   5.790   0.596   1.259 -0.8384 -0.6360 -1.4562
 9161TIP3    H227448   5.857   0.463   1.234  0.1754 -0.5366  0.5273
 9162TIP3   OH227449   2.644   3.902   3.270  0.0995 -0.1847  0.4167
 9162TIP3    H127450   2.636   3.822   3.218  0.8196  1.0242 -1.6816
 9162TIP3    H227451   2.732   3.898   3.307  0.4971  0.0251 -0.4614
 9163TIP3   OH227452   4.937   3.816   5.798  0.7595 -0.0340 -0.1956
 9163TIP3    H127453   5.006   3.832   5.734 -0.2366 -0.3957 -1.3926
 9163TIP3    H227454   4.890   3.899   5.804  1.4471  0.3055  0.8493
 9164TIP3   OH227455   4.513   6.126   3.368  0.2153  0.0444  0.6289
 9164TIP3    H127456   4.551   6.039   3.358  0.2580  0.1180  0.1458
 9164TIP3    H227457   4.580   6.186   3.336  1.0210  0.4180  2.8900
 9165TIP3   OH227458   4.874   5.270   4.634 -0.6881  0.1844  0.2042
 9165TIP3    H127459   4.825   5.278   4.716  1.1104 -0.8937  1.4454
 9165TIP3    H227460   4.903   5.179   4.632  2.0776  0.9821  0.0480
 9166TIP3   OH227461   2.804   5.163   1.727 -0.2411  0.1465 -0.4424
 9166TIP3    H127462   2.846   5.084   1.761 -2.6122 -1.0579 -0.0734
 9166TIP3    H227463   2.812   5.227   1.797  0.1136 -0.3568 -0.0150
 9167TIP3   OH227464   5.045   5.077   0.861  0.1182 -0.3882  0.3252
 9167TIP3    H127465   5.023   5.013   0.928  0.6471  0.6596  1.5374
 9167TIP3    H227466   4.962   5.122   0.843  0.0267 -0.5128  0.4311
 9168TIP3   OH227467   4.403   2.883   0.863  0.6065  0.5424  0.2532
 9168TIP3    H127468   4.360   2.961   0.830 -0.0626 -0.4435 -1.3390
 9168TIP3    H227469   4.389   2.885   0.958 -0.7968  1.5167  0.0487
 9169TIP3   OH227470   6.906   0.782   5.239 -0.3168 -0.1700 -0.0940
 9169TIP3    H127471   6.850   0.825   5.175 -1.0689 -1.5669 -0.4172
 9169TIP3    H227472   6.914   0.692   5.208  1.3524 -0.2550  0.4660
 9170TIP3   OH227473   4.659   5.721   0.199  0.0636  0.2773 -0.4332
 9170TIP3    H127474   4.752   5.730   0.220  0.1838 -1.3072 -0.1477
 9170TIP3    H227475   4.617   5.795   0.242  1.1929  1.0556 -0.6192
 9171TIP3   OH227476   6.806   3.675   3.191 -0.2115 -0.3807 -0.1737
 9171TIP3    H127477   6.801   3.586   3.157 -0.1218 -0.8526  1.0069
 9171TIP3    H227478   6.897   3.686   3.217 -0.6768 -0.7759  1.7812
 9172TIP3   OH227479   0.458   1.489   4.752 -0.3048  0.3161 -0.1733
 9172TIP3    H127480   0.480   1.497   4.659  0.4427  0.8569  0.0370
 9172TIP3    H227481   0.453   1.395   4.767 -1.3367  0.2222 -0.9532
 9173TIP3   OH227482   3.271   4.477   4.022  0.0149 -0.4435 -0.3689
 9173TIP3    H127483   3.324   4.413   4.070 -0.2371  0.7717  1.6435
 9173TIP3    H227484   3.329   4.552   4.011 -1.0927  0.7991  1.6290
 9174TIP3   OH227485   2.281   5.787   3.395 -0.3772  0.0429  0.1390
 9174TIP3    H127486   2.197   5.746   3.371 -0.1032 -0.3975 -0.0924
 9174TIP3    H227487   2.259   5.878   3.412 -1.3126 -0.5425  2.3366
 9175TIP3   OH227488   5.439   6.556   1.129  0.4719 -0.2728 -0.2513
 9175TIP3    H127489   5.459   6.605   1.049  0.0996  0.8074  0.2846
 9175TIP3    H227490   5.394   6.620   1.185  1.1644 -0.8552  1.0162
 9176TIP3   OH227491   2.945   4.706   0.087  0.5593 -1.6578 -0.1235
 9176TIP3    H127492   2.893   4.648   0.142 -0.5116 -1.0730 -0.4934
 9176TIP3    H227493   2.897   4.711   0.004 -0.3379  1.0671  0.4660
 9177TIP3   OH227494   3.828   4.666   5.510 -0.6293 -0.4612 -0.8790
 9177TIP3    H127495   3.824   4.588   5.564 -0.1536 -1.6122 -2.4141
 9177TIP3    H227496   3.919   4.670   5.480 -0.2569  1.5348  0.3181
 9178TIP3   OH227497   7.107   6.533   2.122 -0.3916  0.3740  0.2875
 9178TIP3    H127498   7.166   6.592   2.169  0.1630 -1.9939  2.8409
 9178TIP3    H227499   7.031   6.525   2.180 -0.3549 -1.5123  0.1504
 9179TIP3   OH227500   1.351   0.147   0.240 -0.2855 -0.3586 -0.3167
 9179TIP3    H127501   1.446   0.148   0.231 -0.1762 -3.6217 -0.8968
 9179TIP3    H227502   1.319   0.122   0.153 -1.5814 -0.4941  0.1719
 9180TIP3   OH227503   3.815   4.352   1.473  0.0314  0.1115  0.0063
 9180TIP3    H127504   3.726   4.319   1.485 -1.0792  2.5605 -0.7659
 9180TIP3    H227505   3.859   4.285   1.422 -2.2514  0.0017 -2.0123
 9181TIP3   OH227506   0.388   1.972   0.564  0.3683  0.0745  0.2070
 9181TIP3    H127507   0.386   1.939   0.653 -2.0259 -1.3295 -0.2713
 9181TIP3    H227508   0.325   2.044   0.564 -1.2783 -1.2917 -0.7545
 9182TIP3   OH227509   0.649   6.237   3.971 -0.5239 -0.2347 -0.5034
 9182TIP3    H127510   0.617   6.168   4.030  0.4578  0.9059  1.4762
 9182TIP3    H227511   0.599   6.225   3.891 -1.3223 -2.4164  0.2365
 9183TIP3   OH227512   2.829   0.159   5.184  0.1615  0.4188  0.2838
 9183TIP3    H127513   2.889   0.201   5.123 -0.7085  0.0658 -0.8660
 9183TIP3    H227514   2.786   0.090   5.132 -0.0625 -0.3973  1.5061
 9184TIP3   OH227515   5.081   0.606   1.366 -0.0021 -0.4443 -0.4548
 9184TIP3    H127516   5.100   0.576   1.277  1.6414 -1.3763  0.1724
 9184TIP3    H227517   5.157   0.579   1.418 -0.0145  1.7888  0.8770
 9185TIP3   OH227518   1.746   3.582   5.673  0.0587  0.5429  0.1249
 9185TIP3    H127519   1.729   3.539   5.756  0.9000  0.5302  0.2941
 9185TIP3    H227520   1.841   3.589   5.668  0.0607 -0.0682 -1.1391
 9186TIP3   OH227521   3.165   4.113   0.599  0.7891 -0.0550  0.5057
 9186TIP3    H127522   3.159   4.178   0.668 -0.3204 -0.0038  0.3730
 9186TIP3    H227523   3.150   4.029   0.643  1.0999 -0.1240  0.4874
 9187TIP3   OH227524   4.577   4.738   3.781  0.0203  0.0430  0.4955
 9187TIP3    H127525   4.555   4.671   3.846 -1.6983  0.8142  0.7800
 9187TIP3    H227526   4.647   4.789   3.821  2.4952 -2.4533 -0.3752
 9188TIP3   OH227527   4.419   0.169   1.407  0.2146  0.4050 -0.1122
 9188TIP3    H127528   4.505   0.191   1.441 -0.4950  0.9956  1.4208
 9188TIP3    H227529   4.373   0.130   1.482 -0.6523 -0.4807 -1.0667
 9189TIP3   OH227530   0.876   4.676   5.035 -0.5440  0.3566  0.1602
 9189TIP3    H127531   0.864   4.606   4.971 -2.3576  1.3244 -0.6359
 9189TIP3    H227532   0.944   4.732   4.997 -0.1351 -0.1661  0.1067
 9190TIP3   OH227533   6.990   3.149   4.557 -0.3129 -0.7468  0.4093
 9190TIP3    H127534   7.077   3.189   4.553 -0.0577 -1.3285 -0.0536
 9190TIP3    H227535   6.946   3.196   4.628 -0.3052  0.8546 -0.6015
 9191TIP3   OH227536   7.007   2.152   3.436 -0.3715 -0.1113 -0.0043
 9191TIP3    H127537   6.951   2.222   3.470 -0.4731  0.4714 -1.3119
 9191TIP3    H227538   7.049   2.190   3.359  1.0766 -0.8609  0.3630
 9192TIP3   OH227539   0.807   0.232   1.589  0.2364 -0.2020  0.0515
 9192TIP3    H127540   0.760   0.279   1.520 -0.3551  1.3412  1.4335
 9192TIP3    H227541   0.884   0.195   1.545  0.2305  1.2840 -1.2952
 9193TIP3   OH227542   5.639   0.633   5.049  0.7612 -0.1230  0.0506
 9193TIP3    H127543   5.644   0.564   4.983  0.4173  0.1931 -0.3167
 9193TIP3    H227544   5.645   0.715   4.999 -0.5181  0.1431  0.2793
 9194TIP3   OH227545   4.049   1.854   4.345  0.4184 -0.3187 -0.1524
 9194TIP3    H127546   4.040   1.949   4.347  0.9322 -0.2536 -0.6234
 9194TIP3    H227547   4.066   1.834   4.253  0.6302 -0.8304 -0.0049
 9195TIP3   OH227548   0.285   5.288   0.028 -0.7058 -0.4219 -0.4334
 9195TIP3    H127549   0.268   5.194   0.021  0.7821 -0.7868  0.3977
 9195TIP3    H227550   0.379   5.295   0.043 -1.1514  1.0096  2.5138
 9196TIP3   OH227551   4.854   3.005   1.828 -0.3262 -0.6423  0.0121
 9196TIP3    H127552   4.935   3.056   1.840 -0.9308  0.6183 -0.9678
 9196TIP3    H227553   4.877   2.916   1.855  2.2762 -1.0452 -2.9539
 9197TIP3   OH227554   2.968   2.495   1.002 -0.1645 -0.5318 -0.3308
 9197TIP3    H127555   2.955   2.403   0.977  0.2741 -0.2789 -1.5444
 9197TIP3    H227556   2.994   2.538   0.921 -0.2433  0.6491  0.2574
 9198TIP3   OH227557   6.698   0.901   5.871 -0.0115  0.1286 -0.0067
 9198TIP3    H127558   6.643   0.858   5.937 -0.1625  1.7478  1.0062
 9198TIP3    H227559   6.659   0.877   5.787 -0.7200 -0.8063  0.5756
 9199TIP3   OH227560   1.815   6.481   2.482  0.2536 -0.6669 -0.4690
 9199TIP3    H127561   1.730   6.504   2.446 -0.0307  0.1079  0.6362
 9199TIP3    H227562   1.868   6.456   2.406 -0.2043  1.2243 -1.4615
 9200TIP3   OH227563   3.458   1.961   0.210 -0.7311 -0.4324 -0.5966
 9200TIP3    H127564   3.502   1.903   0.147 -1.4138 -0.5712 -0.9561
 9200TIP3    H227565   3.519   2.034   0.222 -1.6740  1.0146 -3.5545
 9201TIP3   OH227566   3.820   0.780   2.424 -0.0168  0.2482 -0.0459
 9201TIP3    H127567   3.883   0.712   2.403  0.7072  0.5117  1.1778
 9201TIP3    H227568   3.765   0.741   2.493 -0.8408  0.2204 -0.7034
 9202TIP3   OH227569   2.612   3.085   2.665  0.1888  0.2999 -0.2619
 9202TIP3    H127570   2.562   3.039   2.732  2.9800 -1.1110  1.0035
 9202TIP3    H227571   2.579   3.050   2.582 -1.0121 -0.4120  0.4907
 9203TIP3   OH227572   4.656   0.215   0.977  0.9891  0.0352 -0.0839
 9203TIP3    H127573   4.699   0.132   0.955  0.6929  0.0372 -0.7125
 9203TIP3    H227574   4.638   0.255   0.892  1.1970  0.7800  0.2189
 9204TIP3   OH227575   5.155   2.896   1.976 -0.0802 -0.7695  0.1757
 9204TIP3    H127576   5.101   2.819   1.991  0.9994 -1.5217  0.2780
 9204TIP3    H227577   5.217   2.870   1.908  0.8313 -0.2775  0.7877
 9205TIP3   OH227578   2.792   3.168   3.797  0.6494  0.5010  0.6878
 9205TIP3    H127579   2.809   3.157   3.890  0.5259 -0.8287  0.5723
 9205TIP3    H227580   2.759   3.083   3.768 -1.9920  1.6564 -0.0076
 9206TIP3   OH227581   6.524   1.802   0.658 -0.0056  0.1791 -0.0047
 9206TIP3    H127582   6.613   1.814   0.624 -0.2244  1.2495 -0.2424
 9206TIP3    H227583   6.472   1.868   0.612 -0.8588 -0.2178  0.3765
 9207TIP3   OH227584   5.381   2.475   1.797 -0.4021 -0.0081  0.2524
 9207TIP3    H127585   5.432   2.461   1.718 -0.0214  1.5963  0.1719
 9207TIP3    H227586   5.319   2.544   1.774 -2.1649 -1.4142  0.5672
 9208TIP3   OH227587   4.775   5.569   5.211  0.1178  0.0040 -0.3983
 9208TIP3    H127588   4.721   5.522   5.148 -0.3309  0.1760 -0.1512
 9208TIP3    H227589   4.713   5.624   5.259  0.3312 -0.6680  0.6912
 9209TIP3   OH227590   5.105   5.188   4.022  0.1506  0.2595  0.3542
 9209TIP3    H127591   5.156   5.221   4.096 -0.5546 -0.4218  1.1709
 9209TIP3    H227592   5.127   5.095   4.018  0.9059  0.4728 -0.9087
 9210TIP3   OH227593   0.471   6.665   3.455  0.0414 -0.0089 -0.1810
 9210TIP3    H127594   0.398   6.711   3.412 -0.3918  0.9330  1.4774
 9210TIP3    H227595   0.449   6.572   3.447 -1.7035  0.2739  0.8319
 9211TIP3   OH227596   4.016   6.532   2.093 -0.2155  0.3644 -0.2052
 9211TIP3    H127597   3.958   6.489   2.030  0.6359 -1.4453  0.1645
 9211TIP3    H227598   4.085   6.570   2.039 -0.3527  0.2368 -0.4765
 9212TIP3   OH227599   1.552   3.559   0.335 -0.0982 -0.0250 -0.2883
 9212TIP3    H127600   1.532   3.477   0.290 -1.6069  0.0835  0.1309
 9212TIP3    H227601   1.477   3.573   0.393  1.4132  0.2560  1.6944
 9213TIP3   OH227602   6.020   2.906   1.788  0.2962  0.2618 -0.4486
 9213TIP3    H127603   6.050   2.861   1.710 -1.4162  0.4570 -1.2804
 9213TIP3    H227604   5.979   2.986   1.756  0.1249  0.6602  0.6963
 9214TIP3   OH227605   1.736   4.851   5.110  0.0520  0.0391 -0.3381
 9214TIP3    H127606   1.719   4.794   5.034  0.0683  0.3546 -0.5805
 9214TIP3    H227607   1.649   4.880   5.137 -0.0002 -0.5061  0.1077
 9215TIP3   OH227608   5.474   3.015   1.864  0.0194 -0.0634 -0.3877
 9215TIP3    H127609   5.403   2.965   1.824 -0.5199 -0.0944  0.5865
 9215TIP3    H227610   5.485   3.091   1.805 -0.6084 -0.2134 -0.7086
 9216TIP3   OH227611   7.025   2.086   4.323  0.3300 -0.6438 -0.4696
 9216TIP3    H127612   7.024   2.062   4.415  1.4844 -3.2189 -1.0503
 9216TIP3    H227613   6.951   2.038   4.285 -0.6822  1.0730 -0.8095
 9217TIP3   OH227614   0.697   2.454   2.605 -0.3497  0.4999  0.2106
 9217TIP3    H127615   0.693   2.386   2.538  1.2541 -1.5090  2.0192
 9217TIP3    H227616   0.649   2.528   2.567  0.7291 -0.4078 -3.2388
 9218TIP3   OH227617   0.878   2.845   1.676  0.5997 -0.1781  0.2498
 9218TIP3    H127618   0.972   2.860   1.676  0.8321 -1.2983  2.3136
 9218TIP3    H227619   0.860   2.804   1.761 -2.0002  1.6055  0.6917
 9219TIP3   OH227620   5.549   1.101   4.047 -0.3367  0.2177  0.2905
 9219TIP3    H127621   5.638   1.088   4.081  1.6382  4.5464 -2.3464
 9219TIP3    H227622   5.543   1.040   3.973  0.9683  0.6948 -0.2373
 9220TIP3   OH227623   0.870   4.669   1.951 -0.0153  0.2755  0.3648
 9220TIP3    H127624   0.888   4.680   2.044  2.2740  1.2745 -0.1157
 9220TIP3    H227625   0.946   4.620   1.917  0.3973  1.9382 -1.3243
 9221TIP3   OH227626   0.327   4.973   4.962 -0.4652  0.1200 -0.0984
 9221TIP3    H127627   0.327   4.920   5.042  0.0178  1.3677  0.7640
 9221TIP3    H227628   0.372   4.919   4.897  0.0323 -0.5311  0.7623
 9222TIP3   OH227629   1.309   4.396   2.600  0.4255  0.0297 -0.9142
 9222TIP3    H127630   1.222   4.383   2.637  0.5282  0.2217 -0.5948
 9222TIP3    H227631   1.295   4.459   2.529  0.7561  2.9589  1.3734
 9223TIP3   OH227632   0.839   2.728   4.815  0.0511 -0.6373 -0.3073
 9223TIP3    H127633   0.836   2.671   4.892 -0.8007  0.9495  0.8995
 9223TIP3    H227634   0.926   2.768   4.818  0.7650 -2.0616 -1.3300
 9224TIP3   OH227635   2.591   6.622   4.328 -0.0439 -0.5811 -0.3732
 9224TIP3    H127636   2.573   6.566   4.253 -0.4341  0.8873 -1.4124
 9224TIP3    H227637   2.524   6.690   4.324  1.2903  0.8031 -0.0112
 9225TIP3   OH227638   6.193   3.886   0.604 -0.1636  0.3223 -0.3803
 9225TIP3    H127639   6.169   3.932   0.524  1.0677  0.4531 -0.6989
 9225TIP3    H227640   6.260   3.823   0.576 -0.6919 -0.5901  0.3158
 9226TIP3   OH227641   2.875   2.387   3.597 -0.0395  0.0512 -0.0588
 9226TIP3    H127642   2.934   2.373   3.671  3.3264  0.9722 -2.3171
 9226TIP3    H227643   2.824   2.464   3.620 -2.3382 -2.1097  2.9702
 9227TIP3   OH227644   0.091   1.360   1.109  0.1170 -0.2242 -0.0483
 9227TIP3    H127645   0.052   1.289   1.160  2.4873 -1.0487  0.7507
 9227TIP3    H227646   0.053   1.440   1.145 -0.2205 -0.9413  1.2167
 9228TIP3   OH227647   7.059   1.864   5.547  0.2108 -0.2029  0.5318
 9228TIP3    H127648   7.059   1.874   5.452  2.7503  1.6778  0.6337
 9228TIP3    H227649   7.047   1.953   5.580 -0.9845 -0.8697  2.0128
 9229TIP3   OH227650   2.163   2.604   3.660  0.2396  0.1744 -0.0768
 9229TIP3    H127651   2.129   2.575   3.575 -0.0143 -1.0316  0.4191
 9229TIP3    H227652   2.198   2.525   3.700 -0.1939  0.6183  1.2132
 9230TIP3   OH227653   2.377   2.114   5.327 -0.1782 -1.1061  0.2690
 9230TIP3    H127654   2.364   2.023   5.301  1.8715 -1.3682 -0.0727
 9230TIP3    H227655   2.319   2.164   5.270 -1.2278 -2.1814  0.3555
 9231TIP3   OH227656   6.585  -0.013   2.816  0.4990  0.4137  0.1139
 9231TIP3    H127657   6.500  -0.024   2.859  0.9506  0.4569  1.0326
 9231TIP3    H227658   6.604   0.081   2.825  1.5459  0.0898  1.6789
 9232TIP3   OH227659   6.005   4.583   2.510  0.1472 -0.0837  0.1966
 9232TIP3    H127660   5.946   4.509   2.503  0.2059 -0.1808  0.6752
 9232TIP3    H227661   5.998   4.628   2.426 -1.4670  0.5548  0.6438
 9233TIP3   OH227662   0.704   2.365   1.798 -0.0767  0.1700 -0.1117
 9233TIP3    H127663   0.784   2.357   1.745  0.3473 -0.0257  0.5540
 9233TIP3    H227664   0.637   2.323   1.745 -0.1353  1.8704 -1.4849
 9234TIP3   OH227665   4.056   2.231   1.436 -0.0788  0.6686 -0.1406
 9234TIP3    H127666   4.087   2.194   1.519 -0.5665  2.3715  0.8418
 9234TIP3    H227667   3.960   2.232   1.445 -0.1495  0.5104 -0.8818
 9235TIP3   OH227668   5.379   0.130   1.853 -0.4263  0.1555 -0.0226
 9235TIP3    H127669   5.399   0.205   1.796 -1.9083  2.0821  1.8442
 9235TIP3    H227670   5.284   0.131   1.862 -0.3746 -1.2281  1.0072
 9236TIP3   OH227671   7.007   3.226   4.031 -0.6273 -0.2205  0.2993
 9236TIP3    H127672   6.914   3.244   4.019 -0.4462  0.7868  0.3268
 9236TIP3    H227673   7.050   3.310   4.014  0.2248 -0.5205  0.8995
 9237TIP3   OH227674   6.431   4.192   5.734  0.1554  0.4194  0.6360
 9237TIP3    H127675   6.346   4.153   5.754  1.5364 -1.9916  2.2604
 9237TIP3    H227676   6.449   4.249   5.808 -1.1865  3.2529 -1.0372
 9238TIP3   OH227677   2.534   6.375   1.709  0.0314  0.0187  0.0177
 9238TIP3    H127678   2.544   6.308   1.777 -0.0911  0.5355  0.5547
 9238TIP3    H227679   2.623   6.400   1.687  0.1476 -1.2952 -1.1967
 9239TIP3   OH227680   6.800   0.047   5.349  0.3712  0.1662 -0.2803
 9239TIP3    H127681   6.807   0.140   5.330  1.2854  0.1827  0.0948
 9239TIP3    H227682   6.788   0.042   5.444  1.8437 -0.1364 -0.0811
 9240TIP3   OH227683   6.066   0.528   5.222 -0.3971  0.6444  0.1006
 9240TIP3    H127684   6.089   0.611   5.180  0.6325  0.9807  1.2675
 9240TIP3    H227685   6.066   0.548   5.316  1.1332 -0.9353  0.4950
 9241TIP3   OH227686   1.494   5.192   1.333 -0.2455  0.2805 -0.3114
 9241TIP3    H127687   1.471   5.188   1.426  0.8389 -0.3005 -0.0519
 9241TIP3    H227688   1.421   5.239   1.292 -0.8718  0.2924  0.7837
 9242TIP3   OH227689   0.039   1.777   3.075  0.4896 -0.0378 -0.3559
 9242TIP3    H127690   0.015   1.690   3.106  1.3729 -0.0539  0.2922
 9242TIP3    H227691  -0.023   1.794   3.004 -0.9706 -0.3913  0.7669
 9243TIP3   OH227692   1.092   6.350   1.869 -0.7150 -0.1984  0.2101
 9243TIP3    H127693   1.139   6.429   1.897  0.0347 -0.5766  0.0466
 9243TIP3    H227694   1.000   6.372   1.880 -0.5428  0.9605 -0.4897
 9244TIP3   OH227695   1.062   4.193   2.893  0.0673  0.1878  0.0959
 9244TIP3    H127696   1.086   4.115   2.843 -0.5433  0.3757 -0.5041
 9244TIP3    H227697   1.045   4.260   2.827 -1.7094  0.1786  0.4729
 9245TIP3   OH227698   7.178   3.839   2.572 -0.2743 -0.2946  0.3987
 9245TIP3    H127699   7.107   3.849   2.635  0.2282 -0.6001  1.0326
 9245TIP3    H227700   7.143   3.780   2.505 -0.1326 -1.7153  1.5045
 9246TIP3   OH227701   0.369   3.436   2.366 -0.2959  0.4577 -0.1265
 9246TIP3    H127702   0.306   3.398   2.304 -0.0301  0.0005 -0.1196
 9246TIP3    H227703   0.354   3.388   2.447  1.5116 -1.1876 -0.6829
 9247TIP3   OH227704   4.377   2.910   2.098 -0.2383 -0.2749  0.6077
 9247TIP3    H127705   4.456   2.864   2.123 -0.1347  0.5442  1.8868
 9247TIP3    H227706   4.356   2.877   2.011  1.4580 -0.5593  0.2840
 9248TIP3   OH227707   0.126   5.216   0.932  0.1032 -0.2330 -0.0540
 9248TIP3    H127708   0.184   5.214   1.008  0.7522  0.3381 -0.5145
 9248TIP3    H227709   0.054   5.273   0.959  0.6963  0.5609 -0.1067
 9249TIP3   OH227710   4.980   0.362   2.467 -1.1291  0.3990  0.0121
 9249TIP3    H127711   4.914   0.307   2.508 -0.2212 -0.2445  0.6701
 9249TIP3    H227712   5.003   0.427   2.533 -1.2337  0.7427 -0.2832
 9250TIP3   OH227713   5.173   2.193   4.292  0.0161  0.1746 -0.1548
 9250TIP3    H127714   5.079   2.186   4.308  0.1142 -2.1135 -0.2138
 9250TIP3    H227715   5.182   2.176   4.198  0.4252  1.4229 -0.3529
 9251TIP3   OH227716   6.732   1.877   0.479 -0.2283  0.3029  0.1438
 9251TIP3    H127717   6.784   1.797   0.476 -0.6163  0.0688 -0.6490
 9251TIP3    H227718   6.796   1.947   0.490  0.3265  0.0667 -1.3193
 9252TIP3   OH227719   7.108   6.020   4.286  0.5400 -0.1650  0.2206
 9252TIP3    H127720   7.083   6.047   4.374  0.2531  0.4118 -0.0300
 9252TIP3    H227721   7.120   6.103   4.238  1.4322 -0.4525 -0.0768
 9253TIP3   OH227722   0.835   5.049   1.776  0.4344  1.0716  0.0858
 9253TIP3    H127723   0.865   5.128   1.821 -0.5526  2.7899 -2.1100
 9253TIP3    H227724   0.821   5.076   1.686 -2.9417 -0.8248 -0.1132
 9254TIP3   OH227725   4.508   5.233   5.150 -0.3637 -0.0844 -0.1744
 9254TIP3    H127726   4.469   5.239   5.062 -0.3145  1.7084 -0.1154
 9254TIP3    H227727   4.496   5.320   5.187  1.0269 -0.3635  1.0141
 9255TIP3   OH227728   5.539   1.920   2.061  0.4800  0.0536 -0.4692
 9255TIP3    H127729   5.537   1.938   2.155  0.9765  0.8643 -0.6029
 9255TIP3    H227730   5.454   1.947   2.028 -0.1777 -1.4295 -0.0601
 9256TIP3   OH227731   2.946   1.562   4.052  0.2331  0.1811 -0.3184
 9256TIP3    H127732   2.927   1.656   4.039  0.4907  0.1939 -0.6114
 9256TIP3    H227733   3.028   1.548   4.005  1.5485  0.3524  1.8074
 9257TIP3   OH227734   2.021   6.103   5.727  0.1049  0.2186  0.3780
 9257TIP3    H127735   1.972   6.172   5.683  1.1803 -0.6723 -2.4934
 9257TIP3    H227736   1.978   6.022   5.699  0.9947 -0.4079  0.7856
 9258TIP3   OH227737   3.637   2.912   5.512  0.0721  0.2495  0.4510
 9258TIP3    H127738   3.684   2.887   5.591 -0.3210  1.3662  1.0646
 9258TIP3    H227739   3.565   2.850   5.505 -0.3938  0.6601  1.4615
 9259TIP3   OH227740   1.336   2.984   0.026  0.7604  0.3199  0.5188
 9259TIP3    H127741   1.311   3.028   0.107 -1.2492 -0.7767  0.5763
 9259TIP3    H227742   1.342   3.053  -0.039  0.0661  0.9538  1.1160
 9260TIP3   OH227743   3.503   3.966   0.787  0.1700  0.6330  0.5552
 9260TIP3    H127744   3.409   3.980   0.796 -0.2198  0.0770 -1.9272
 9260TIP3    H227745   3.514   3.871   0.793  0.1071  0.3923 -1.9824
 9261TIP3   OH227746   3.130   6.705   1.650  0.5740  0.1124  0.4408
 9261TIP3    H127747   3.184   6.783   1.659  1.0625  0.1834 -2.2366
 9261TIP3    H227748   3.177   6.637   1.698  0.4662  1.2770  2.2636
 9262TIP3   OH227749   2.418   3.477   1.044 -0.1492  0.4886  0.1161
 9262TIP3    H127750   2.505   3.482   1.083  0.5355 -0.6536 -1.1876
 9262TIP3    H227751   2.395   3.568   1.023  1.2332  0.6993 -0.5777
 9263TIP3   OH227752   4.250   5.586   2.239 -0.3948 -0.0898  0.6222
 9263TIP3    H127753   4.211   5.673   2.230 -1.6727 -0.7724 -1.0652
 9263TIP3    H227754   4.311   5.579   2.165 -0.1697 -0.5656  0.8476
 9264TIP3   OH227755   5.084   0.876   3.624 -0.7308 -0.3453 -0.0551
 9264TIP3    H127756   5.031   0.929   3.683 -0.3612  1.0383 -0.9233
 9264TIP3    H227757   5.101   0.933   3.549  1.5696 -0.9190 -0.0241
 9265TIP3   OH227758   2.143   6.231   3.143 -0.6010  0.0926 -0.1937
 9265TIP3    H127759   2.168   6.271   3.227  1.3056  1.1594 -1.2142
 9265TIP3    H227760   2.213   6.255   3.083 -3.2939  1.9254 -2.8854
 9266TIP3   OH227761   3.618   3.160   2.626  0.4413 -0.2922  0.4440
 9266TIP3    H127762   3.540   3.106   2.617  0.3140 -0.0620  0.1498
 9266TIP3    H227763   3.610   3.225   2.556  0.6206  0.0726  0.7611
 9267TIP3   OH227764   4.556   5.776   3.171 -0.0924  0.1361 -0.2160
 9267TIP3    H127765   4.507   5.798   3.092 -0.3039 -0.6617 -0.3154
 9267TIP3    H227766   4.630   5.723   3.140 -0.3379 -0.4253  0.1340
 9268TIP3   OH227767   0.185   3.008   0.392 -0.2449 -0.2365  0.0295
 9268TIP3    H127768   0.176   2.917   0.364  1.1951 -0.7920  1.2603
 9268TIP3    H227769   0.271   3.013   0.434 -1.5610  0.8862  2.9091
 9269TIP3   OH227770   1.190   6.188   1.678  0.7173 -0.1605  1.1180
 9269TIP3    H127771   1.238   6.127   1.733  1.4429  0.4641  1.2043
 9269TIP3    H227772   1.151   6.250   1.740 -1.2260 -1.3234  1.1403
 9270TIP3   OH227773   5.052   5.656   4.087 -0.1186 -0.5367  0.1921
 9270TIP3    H127774   5.002   5.736   4.098 -1.3862 -1.0560 -1.3545
 9270TIP3    H227775   4.987   5.586   4.089  0.9877 -1.5861  1.8012
 9271TIP3   OH227776   0.162   3.685   0.072 -0.3429  0.4814  0.4844
 9271TIP3    H127777   0.070   3.662   0.082 -0.1246 -0.6025  0.1901
 9271TIP3    H227778   0.192   3.701   0.162 -0.0769 -2.3381  0.9872
 9272TIP3   OH227779   2.547   0.114   5.473  0.1549 -0.1778  0.0340
 9272TIP3    H127780   2.549   0.117   5.377  1.7730 -1.3270 -0.0003
 9272TIP3    H227781   2.583   0.028   5.495 -0.6954 -0.1468  1.6767
 9273TIP3   OH227782   4.240   0.832   2.447  0.5644 -0.6266  0.3566
 9273TIP3    H127783   4.177   0.782   2.396 -0.2062 -0.0505  0.7200
 9273TIP3    H227784   4.318   0.836   2.391 -0.0395 -0.5486 -0.5092
 9274TIP3   OH227785   0.554   1.569   2.275  0.6115  0.3314 -0.1566
 9274TIP3    H127786   0.567   1.508   2.347  0.0669  1.0265  0.5433
 9274TIP3    H227787   0.489   1.527   2.219 -0.4080  0.6276  0.7672
 9275TIP3   OH227788   6.743   0.187   2.518  0.0584  0.3652 -0.7828
 9275TIP3    H127789   6.698   0.105   2.497 -0.6490  0.5996 -0.2191
 9275TIP3    H227790   6.703   0.216   2.600  0.7375  0.9583 -0.6522
 9276TIP3   OH227791   2.962   0.243   0.419  0.3730 -0.4355  0.2515
 9276TIP3    H127792   2.895   0.199   0.368  0.9676 -0.4113 -0.5635
 9276TIP3    H227793   2.977   0.326   0.373  0.0555  0.1267  1.1429
 9277TIP3   OH227794   5.749   6.340   3.186 -0.3402 -0.5124  0.1459
 9277TIP3    H127795   5.827   6.299   3.148 -0.3978 -0.0936 -0.4208
 9277TIP3    H227796   5.693   6.266   3.210 -0.1959 -0.7880 -0.3510
 9278TIP3   OH227797   1.174   1.622   0.274  0.0295 -0.4803 -0.2439
 9278TIP3    H127798   1.204   1.710   0.300  0.9032 -0.2948 -1.7319
 9278TIP3    H227799   1.103   1.638   0.213  0.3091 -0.7899 -0.6581
 9279TIP3   OH227800   5.070   6.024   3.898 -0.2766 -0.2662  0.1664
 9279TIP3    H127801   5.120   6.101   3.869 -0.7227 -0.1658 -0.3659
 9279TIP3    H227802   5.116   5.950   3.859 -0.0238 -0.2481  0.4258
 9280TIP3   OH227803   4.569   1.379   0.993  0.0981  0.2303 -0.0259
 9280TIP3    H127804   4.495   1.318   0.990 -0.4884  0.9432 -0.4116
 9280TIP3    H227805   4.635   1.339   0.936 -1.4462  1.4030 -2.8565
 9281TIP3   OH227806   0.752   5.709   2.084 -0.6782 -0.2336 -0.2588
 9281TIP3    H127807   0.730   5.766   2.010 -0.1420  1.8894  1.1246
 9281TIP3    H227808   0.816   5.648   2.049 -0.2396  0.8871 -1.4918
 9282TIP3   OH227809   2.806   3.287   2.884 -0.5727  0.5818 -0.4687
 9282TIP3    H127810   2.714   3.312   2.874 -0.9043 -0.2322  0.4157
 9282TIP3    H227811   2.834   3.264   2.795 -0.6727  2.5766 -1.0752
 9283TIP3   OH227812   0.916   4.223   1.839  0.1689 -0.1915 -0.1082
 9283TIP3    H127813   0.859   4.153   1.871 -0.9639  1.3687  1.4956
 9283TIP3    H227814   0.858   4.280   1.789  0.9181  0.0192 -0.7615
 9284TIP3   OH227815   6.661   4.243   0.919  0.0990  0.2491  0.1026
 9284TIP3    H127816   6.681   4.193   0.999  0.0304 -0.0044 -0.0360
 9284TIP3    H227817   6.570   4.221   0.900  0.3369 -0.2827 -0.4652
 9285TIP3   OH227818   4.252   1.348   0.304 -0.5134  0.5791  0.1879
 9285TIP3    H127819   4.180   1.302   0.262 -0.8969 -1.0418  2.4640
 9285TIP3    H227820   4.305   1.381   0.231 -1.3686 -1.6659 -1.5753
 9286TIP3   OH227821   0.330   1.916   1.084 -0.0488 -0.3308  0.3876
 9286TIP3    H127822   0.416   1.877   1.095  0.7639  1.4742  0.8685
 9286TIP3    H227823   0.271   1.856   1.130  1.2700 -0.5238  1.9467
 9287TIP3   OH227824   2.937   0.445   4.678 -0.3069  0.2980  0.1878
 9287TIP3    H127825   3.015   0.405   4.639  0.6201  0.5046  1.7364
 9287TIP3    H227826   2.919   0.391   4.755 -2.3743 -0.3907 -0.7059
 9288TIP3   OH227827   6.003   5.709   4.459  0.1045  0.0678  0.0895
 9288TIP3    H127828   6.025   5.719   4.366  3.3270 -0.1171  0.7276
 9288TIP3    H227829   5.997   5.799   4.492 -0.2384  0.1248 -0.1208
 9289TIP3   OH227830   0.186   1.960   2.806  0.0236 -0.6320  0.7243
 9289TIP3    H127831   0.198   1.888   2.745  0.0322 -0.0752  0.0667
 9289TIP3    H227832   0.245   1.939   2.879  0.8212 -0.7552  0.0618
 9290TIP3   OH227833   6.191   6.289   5.544  0.1872 -0.3982  0.2732
 9290TIP3    H127834   6.099   6.314   5.536  0.2498  0.0193  0.8135
 9290TIP3    H227835   6.193   6.197   5.519 -0.0883  0.0344 -1.4453
 9291TIP3   OH227836   6.636   2.868   3.931  0.1743 -0.1990  0.1812
 9291TIP3    H127837   6.606   2.944   3.881  0.2201 -0.2161  0.1267
 9291TIP3    H227838   6.662   2.804   3.864 -2.0693 -1.1930  0.1588
 9292TIP3   OH227839   3.308   6.218   1.535  0.8367 -0.4410  0.2407
 9292TIP3    H127840   3.370   6.151   1.564  1.6312  0.3216  0.3175
 9292TIP3    H227841   3.330   6.233   1.443  0.6262 -0.3086  0.2106
 9293TIP3   OH227842   3.657   0.850   3.938  0.2774 -0.5150  0.1720
 9293TIP3    H127843   3.662   0.871   3.844  2.2645  0.1236  0.3592
 9293TIP3    H227844   3.565   0.830   3.953 -0.7698  2.4543 -1.2751
 9294TIP3   OH227845   3.338   2.093   4.281  0.3456 -0.5164  0.3978
 9294TIP3    H127846   3.271   2.158   4.300  0.6504 -0.2854  0.6994
 9294TIP3    H227847   3.420   2.141   4.284  0.6175 -0.9993  1.1110
 9295TIP3   OH227848   4.812   5.947   5.320 -0.1289 -0.8496 -0.1369
 9295TIP3    H127849   4.834   6.040   5.330 -0.8948 -0.4709 -1.6779
 9295TIP3    H227850   4.779   5.921   5.406 -1.2929  0.7092 -0.0662
 9296TIP3   OH227851   1.641   3.843   5.635 -0.0397 -0.2611 -0.0774
 9296TIP3    H127852   1.547   3.832   5.648  0.2748 -0.1320  3.3818
 9296TIP3    H227853   1.676   3.754   5.641  0.3179 -0.0234  2.8916
 9297TIP3   OH227854   6.000   3.076   2.054 -0.0332  0.7114 -0.1209
 9297TIP3    H127855   5.942   3.035   1.989 -0.8100 -0.4378  1.2485
 9297TIP3    H227856   5.967   3.166   2.061 -0.7589  0.4813 -0.3999
 9298TIP3   OH227857   4.883   6.026   2.856 -0.1361 -0.1756 -0.0636
 9298TIP3    H127858   4.813   5.995   2.798  1.5308 -3.8752 -0.3332
 9298TIP3    H227859   4.964   6.003   2.810  1.2508 -2.0962  3.0695
 9299TIP3   OH227860   5.097   5.256   4.413 -0.1558 -0.0225  0.3747
 9299TIP3    H127861   5.020   5.231   4.465 -1.2182  0.2271 -1.0157
 9299TIP3    H227862   5.114   5.347   4.437  0.7915 -0.5588  1.9294
 9300TIP3   OH227863   4.208   6.623   4.370  0.1002  0.4172  0.3397
 9300TIP3    H127864   4.268   6.560   4.330  0.4031  1.6837 -1.2881
 9300TIP3    H227865   4.121   6.593   4.344  0.2284  0.5203 -0.2096
 9301TIP3   OH227866   2.241   3.441   0.841 -0.3466 -0.1201  0.1876
 9301TIP3    H127867   2.261   3.358   0.799 -0.1235  0.3664 -0.6778
 9301TIP3    H227868   2.295   3.442   0.920 -0.5635 -0.9117  0.3498
 9302TIP3   OH227869   5.725   1.977   1.440 -0.2907 -0.5438 -0.5898
 9302TIP3    H127870   5.692   1.972   1.350 -1.4283  2.0224 -0.3944
 9302TIP3    H227871   5.675   1.910   1.487 -1.0137 -0.6729 -1.5014
 9303TIP3   OH227872   5.939   0.814   0.987 -0.1418 -0.1459  0.6878
 9303TIP3    H127873   5.942   0.751   0.915 -1.0852 -1.2666  1.5833
 9303TIP3    H227874   5.847   0.840   0.992 -0.2300 -0.6328  1.9296
 9304TIP3   OH227875   1.231   2.008   3.544 -0.2759  0.2817 -0.9395
 9304TIP3    H127876   1.153   1.978   3.497  0.5894 -1.3245 -1.4237
 9304TIP3    H227877   1.216   2.102   3.557 -2.5412 -0.0681 -0.4940
 9305TIP3   OH227878   3.916   4.175   5.851  0.3928  0.1231  0.1044
 9305TIP3    H127879   3.953   4.257   5.884  0.1101  1.4051 -2.5345
 9305TIP3    H227880   3.968   4.154   5.774 -1.5251 -0.4210 -1.1229
 9306TIP3   OH227881   5.385   1.345   0.215 -0.1165 -1.3258  0.3366
 9306TIP3    H127882   5.346   1.414   0.269  2.4515  0.6866 -0.1802
 9306TIP3    H227883   5.395   1.384   0.128  0.1418 -2.8591 -0.3661
 9307TIP3   OH227884   7.075   0.729   0.956  0.3547  0.1483  0.3962
 9307TIP3    H127885   7.023   0.705   0.879  0.7939 -0.8022  0.3867
 9307TIP3    H227886   7.159   0.686   0.943  0.6614  0.5105  1.1021
 9308TIP3   OH227887   6.149   5.229   2.696  0.0741 -0.1069  0.0870
 9308TIP3    H127888   6.062   5.197   2.672  0.5248 -0.9375 -0.4683
 9308TIP3    H227889   6.209   5.159   2.670  1.3497  2.0087 -3.2888
 9309TIP3   OH227890   2.952   4.239   2.085 -0.1945  0.1679  0.2062
 9309TIP3    H127891   2.977   4.196   2.167  0.5413  0.1726 -0.0100
 9309TIP3    H227892   2.865   4.204   2.065  0.0440 -0.5753  0.4691
 9310TIP3   OH227893   6.443   3.846   1.414  0.0351 -0.1233 -0.3362
 9310TIP3    H127894   6.479   3.927   1.379 -1.5750  0.5508 -0.5109
 9310TIP3    H227895   6.505   3.819   1.482  0.9089  0.9129 -0.6984
 9311TIP3   OH227896   3.369   5.846   4.524 -0.2930  0.7850  0.5929
 9311TIP3    H127897   3.459   5.870   4.502  0.4194 -1.4156  0.8729
 9311TIP3    H227898   3.358   5.875   4.615  0.9091 -0.8080  1.2925
 9312TIP3   OH227899   6.210   2.314   0.284  0.0007  0.1663  0.1437
 9312TIP3    H127900   6.262   2.392   0.307 -0.9875  0.6429  0.8650
 9312TIP3    H227901   6.120   2.346   0.283 -0.3050 -0.6931 -0.8720
 9313TIP3   OH227902   0.262   4.334   3.239 -0.0204  0.1715  0.0861
 9313TIP3    H127903   0.327   4.267   3.217 -0.1392 -0.5514  1.7684
 9313TIP3    H227904   0.180   4.302   3.201 -0.0706 -0.6595  0.8659
 9314TIP3   OH227905   3.282   2.805   3.311 -0.2873  0.3567  0.0862
 9314TIP3    H127906   3.256   2.853   3.232 -0.0966  0.3349  0.0072
 9314TIP3    H227907   3.217   2.736   3.319  1.1587 -1.3316 -1.6070
 9315TIP3   OH227908   2.830   4.949   3.784 -0.0230 -0.1847  0.2083
 9315TIP3    H127909   2.818   4.872   3.728 -2.7792 -2.6384  3.7443
 9315TIP3    H227910   2.773   5.015   3.746  0.7273 -0.5531 -1.6690
 9316TIP3   OH227911   3.711   2.937   3.719 -0.1184 -0.5554  0.3404
 9316TIP3    H127912   3.779   3.000   3.743  0.3848 -0.6158 -0.8575
 9316TIP3    H227913   3.670   2.913   3.802  1.5723 -0.8014  1.1336
 9317TIP3   OH227914   5.624   3.188   3.142  0.0342  0.0576 -0.3832
 9317TIP3    H127915   5.606   3.098   3.116  0.6961  0.0381 -0.8118
 9317TIP3    H227916   5.686   3.180   3.214 -1.9047  0.1078  1.3794
 9318TIP3   OH227917   2.963   4.155   0.098  0.2813 -0.0636 -0.4866
 9318TIP3    H127918   3.028   4.116   0.156  0.2006 -0.1224 -0.4347
 9318TIP3    H227919   2.918   4.221   0.151  1.2296  0.9545 -0.9250
 9319TIP3   OH227920   5.696   3.420   4.537  0.5440  0.0099 -0.0764
 9319TIP3    H127921   5.723   3.364   4.609 -0.3132 -0.8127 -0.3608
 9319TIP3    H227922   5.708   3.366   4.459 -1.6594 -0.3711 -0.2359
 9320TIP3   OH227923   6.943   2.782   2.709  0.3804  0.5299  0.1214
 9320TIP3    H127924   6.906   2.745   2.790 -2.7687 -1.9026 -2.1497
 9320TIP3    H227925   6.901   2.867   2.701 -0.7914 -0.0226  0.1589
 9321TIP3   OH227926   0.400   0.860   2.415 -0.0112 -0.2673 -0.0350
 9321TIP3    H127927   0.443   0.814   2.487 -2.8463 -1.8010  0.8509
 9321TIP3    H227928   0.365   0.791   2.359 -2.1967  0.7948 -0.0845
 9322TIP3   OH227929   5.216   3.643   2.773  0.6975 -0.4035 -0.5603
 9322TIP3    H127930   5.196   3.553   2.800  1.2386 -0.4030 -0.1428
 9322TIP3    H227931   5.284   3.634   2.706  1.3730 -0.2782  0.0890
 9323TIP3   OH227932   0.466   6.105   0.664 -0.1145 -0.2166  0.6413
 9323TIP3    H127933   0.475   6.011   0.679 -1.7173 -0.7836 -1.4777
 9323TIP3    H227934   0.409   6.135   0.735 -1.9056 -1.4467 -0.2043
 9324TIP3   OH227935   4.027   5.898   3.785  0.0667 -0.2296  0.0386
 9324TIP3    H127936   4.001   5.824   3.731  2.2012 -0.1778 -1.1673
 9324TIP3    H227937   4.097   5.864   3.840 -0.7789  0.2233  1.4378
 9325TIP3   OH227938   4.851   3.736   4.039 -0.3200 -0.2589  0.4323
 9325TIP3    H127939   4.835   3.774   4.126 -1.3434  1.2657 -0.3919
 9325TIP3    H227940   4.839   3.642   4.052 -0.7997 -0.0248  1.8698
 9326TIP3   OH227941   2.090   6.401   5.291  0.1127 -0.2450 -0.4631
 9326TIP3    H127942   1.996   6.397   5.309 -0.0257  2.4919 -0.2477
 9326TIP3    H227943   2.122   6.476   5.341  1.6053  1.5097 -3.7157
 9327TIP3   OH227944   1.402   3.030   0.968 -0.2788  0.6353  0.3842
 9327TIP3    H127945   1.319   3.078   0.960 -0.8148 -0.3386 -0.0946
 9327TIP3    H227946   1.385   2.964   1.035  0.4242  1.0320  0.9688
 9328TIP3   OH227947   3.066   4.470   3.825 -0.3713  0.2619  0.1693
 9328TIP3    H127948   3.073   4.565   3.817  1.0776  0.0008 -3.0842
 9328TIP3    H227949   3.115   4.449   3.905  0.8142  2.1142 -0.0089
 9329TIP3   OH227950   6.146   0.881   4.470  0.0256 -0.2406 -0.0203
 9329TIP3    H127951   6.157   0.947   4.538 -0.9267 -0.4305  0.3426
 9329TIP3    H227952   6.151   0.930   4.388  2.1144 -0.1446  0.1208
 9330TIP3   OH227953   3.612   1.168   2.103  0.1558 -0.2377  0.0004
 9330TIP3    H127954   3.572   1.100   2.157  1.1009 -2.1048 -1.5446
 9330TIP3    H227955   3.600   1.248   2.154  1.6717 -1.9557  3.4183
 9331TIP3   OH227956   3.132   2.373   0.617  0.2537 -0.4400 -0.4264
 9331TIP3    H127957   3.184   2.432   0.563  0.9888 -0.8742 -0.2116
 9331TIP3    H227958   3.082   2.321   0.554  0.7379 -0.6093 -0.6843
 9332TIP3   OH227959   4.996   4.063   5.161 -0.3243  0.4756  0.1951
 9332TIP3    H127960   5.075   4.113   5.178 -0.2742  0.7732 -0.8626
 9332TIP3    H227961   5.015   3.975   5.194  0.4389  0.5499 -0.0421
 9333TIP3   OH227962   1.051   5.117   2.501 -0.3165 -0.7580  0.8184
 9333TIP3    H127963   1.124   5.175   2.520 -2.3604  1.8808  1.2325
 9333TIP3    H227964   1.038   5.125   2.406 -0.9431 -0.0226  0.9525
 9334TIP3   OH227965   1.521   6.685   0.032  0.4249 -0.1368 -0.1224
 9334TIP3    H127966   1.608   6.727   0.029 -0.5060  1.8604 -0.8985
 9334TIP3    H227967   1.498   6.673  -0.060 -0.0985 -0.7300  0.0842
 9335TIP3   OH227968   2.574   3.674   0.380  0.6504 -0.1113 -0.4323
 9335TIP3    H127969   2.584   3.607   0.448 -2.0537 -0.3948 -0.2079
 9335TIP3    H227970   2.569   3.625   0.298 -0.9106 -0.2024 -0.3090
 9336TIP3   OH227971   2.123   3.953   4.679 -0.1073  0.3007  0.4574
 9336TIP3    H127972   2.055   3.941   4.613  0.2450  0.9839 -0.0471
 9336TIP3    H227973   2.138   3.866   4.715  2.0152 -0.7927 -2.6659
 9337TIP3   OH227974   0.463   1.943   4.690 -0.0696 -0.0775 -0.3620
 9337TIP3    H127975   0.524   2.013   4.712  0.7165 -1.1251  0.9321
 9337TIP3    H227976   0.415   1.975   4.613  0.2173  1.8850  0.2424
 9338TIP3   OH227977   5.144   5.203   3.673 -0.4097 -0.3794 -0.6700
 9338TIP3    H127978   5.206   5.133   3.654 -0.9650 -0.5692 -1.8382
 9338TIP3    H227979   5.179   5.279   3.626 -0.6469 -0.2847 -0.6951
 9339TIP3   OH227980   5.825   6.360   3.914 -0.2526  0.5466  0.0312
 9339TIP3    H127981   5.884   6.325   3.980 -1.7714  0.6359  1.5257
 9339TIP3    H227982   5.873   6.432   3.873  1.5079 -0.8392 -0.4823
 9340TIP3   OH227983   3.128   1.308   4.774 -0.0154  0.2771 -0.0990
 9340TIP3    H127984   3.170   1.389   4.803 -0.1470 -0.3335  1.9809
 9340TIP3    H227985   3.179   1.280   4.698  1.3064  1.2592  0.3893
 9341TIP3   OH227986   3.337   0.022   3.065  0.5021 -0.3543 -0.8444
 9341TIP3    H127987   3.312   0.099   3.014  1.0263  2.1639  2.3713
 9341TIP3    H227988   3.431   0.013   3.051  0.3927 -0.6044 -1.4390
 9342TIP3   OH227989   2.006   4.749   2.871  0.0079 -0.3251  0.1733
 9342TIP3    H127990   1.967   4.813   2.811 -1.8338 -2.3155 -0.9052
 9342TIP3    H227991   1.937   4.733   2.937  0.6502 -0.7847  0.7522
 9343TIP3   OH227992   1.781   1.733   0.530 -0.5353 -0.7313 -0.4246
 9343TIP3    H127993   1.784   1.701   0.620 -3.7590 -0.4283 -0.0845
 9343TIP3    H227994   1.792   1.655   0.477 -0.4821 -1.2138  0.2785
 9344TIP3   OH227995   5.446   3.912   5.881 -0.2108 -0.2815  0.1711
 9344TIP3    H127996   5.390   3.990   5.877 -1.4802 -1.1365  0.5340
 9344TIP3    H227997   5.418   3.859   5.807 -1.3795 -1.6483  1.5146
 9345TIP3   OH227998   1.381   4.808   4.631  0.1060 -0.3003 -0.6289
 9345TIP3    H127999   1.386   4.739   4.565 -0.0324 -0.6949 -0.2323
 9345TIP3    H228000   1.466   4.854   4.625 -0.1096  0.0097 -1.4388
 9346TIP3   OH228001   0.265   4.496   5.515 -0.0177 -0.6242 -0.2050
 9346TIP3    H128002   0.315   4.532   5.442 -0.3627 -0.1660 -0.2197
 9346TIP3    H228003   0.322   4.429   5.553 -0.2741 -1.6911 -1.6060
 9347TIP3   OH228004   5.018   5.527   0.673 -0.6332 -0.0367 -0.6057
 9347TIP3    H128005   5.085   5.459   0.663  0.5214  0.7622  1.1048
 9347TIP3    H228006   5.036   5.589   0.602  0.6373  0.2789 -0.0447
 9348TIP3   OH228007   0.580   2.929   4.777  0.0066  0.5616  0.3661
 9348TIP3    H128008   0.649   2.863   4.779 -0.0760  0.4555 -0.0728
 9348TIP3    H228009   0.615   3.003   4.826 -0.2262 -0.1215  1.6008
 9349TIP3   OH228010   4.352   0.592   4.046 -0.4281  0.7097 -0.6040
 9349TIP3    H128011   4.278   0.532   4.045  1.4002 -1.7697  0.6921
 9349TIP3    H228012   4.353   0.630   4.133 -0.0041  0.4558 -0.4916
 9350TIP3   OH228013   5.805   5.057   2.410 -0.0156  0.2052  0.0325
 9350TIP3    H128014   5.852   5.119   2.354 -1.7760  0.3009 -1.4657
 9350TIP3    H228015   5.850   4.973   2.397 -0.8238  0.0499 -2.2233
 9351TIP3   OH228016   4.388   6.524   2.545 -0.6842 -0.3892  0.5216
 9351TIP3    H128017   4.331   6.514   2.469 -2.4305 -1.2307  1.8798
 9351TIP3    H228018   4.476   6.529   2.508 -1.5777  0.6603 -1.6308
 9352TIP3   OH228019   6.680   6.235   2.404 -0.3822  0.3019 -0.0739
 9352TIP3    H128020   6.655   6.281   2.484  0.2632 -0.5548  0.6396
 9352TIP3    H228021   6.761   6.189   2.427 -0.0608  0.2118 -1.2865
 9353TIP3   OH228022   3.569   4.564   1.656  0.4405 -0.0251  0.1029
 9353TIP3    H128023   3.540   4.474   1.643  0.5061  0.2860 -2.8360
 9353TIP3    H228024   3.501   4.618   1.616  1.7506  1.0745 -0.7103
 9354TIP3   OH228025   5.276   1.016   0.832 -0.0728  0.4708  0.3696
 9354TIP3    H128026   5.192   1.023   0.878 -0.6600 -0.1260 -0.5935
 9354TIP3    H228027   5.322   1.097   0.856 -1.5370  1.5611 -0.3010
 9355TIP3   OH228028   4.338   0.500   5.703  0.4398 -0.0917 -0.0923
 9355TIP3    H128029   4.422   0.455   5.714  0.2234 -0.1430  1.5094
 9355TIP3    H228030   4.356   0.566   5.636  1.4117 -0.9264 -0.6922
 9356TIP3   OH228031   0.578   5.691   4.834 -0.1338  0.3104  0.1209
 9356TIP3    H128032   0.579   5.787   4.838 -1.4604  0.4171 -1.3145
 9356TIP3    H228033   0.524   5.665   4.909 -3.4325  0.9623 -1.8370
 9357TIP3   OH228034   4.530   1.483   1.657 -0.3673  0.8392 -0.0697
 9357TIP3    H128035   4.596   1.550   1.638 -0.0153  0.0802 -1.7234
 9357TIP3    H228036   4.464   1.494   1.589 -0.1967 -0.6022 -0.5110
 9358TIP3   OH228037   3.384   5.377   1.999  0.0092 -0.1000  0.3347
 9358TIP3    H128038   3.371   5.451   2.059 -1.2482  0.3117 -0.4055
 9358TIP3    H228039   3.476   5.354   2.009  0.0679  0.6094  1.6714
 9359TIP3   OH228040   0.560   4.022   0.594  0.1658  0.2053  0.0258
 9359TIP3    H128041   0.552   4.035   0.689 -3.3891  0.4846 -0.1959
 9359TIP3    H228042   0.570   4.110   0.558 -0.7831  0.3154  0.0155
 9360TIP3   OH228043   6.655   4.619   4.417  0.0345 -0.2911 -0.5032
 9360TIP3    H128044   6.595   4.607   4.490 -0.0521 -0.1370 -0.5489
 9360TIP3    H228045   6.647   4.537   4.367 -1.1142  0.2334 -1.2171
 9361TIP3   OH228046   6.488   5.774   2.138 -0.1392 -0.3164 -0.1152
 9361TIP3    H128047   6.399   5.745   2.157 -0.2585  0.6360  0.8695
 9361TIP3    H228048   6.534   5.764   2.222 -0.1027  1.9551  0.1999
 9362TIP3   OH228049   2.658   2.528   1.073  0.5624 -0.4667  0.2015
 9362TIP3    H128050   2.749   2.543   1.045 -0.3697  2.0264 -2.0038
 9362TIP3    H228051   2.638   2.603   1.129 -0.1936 -0.8415  0.4386
 9363TIP3   OH228052   4.746   1.008   5.531  0.1738 -0.6859  0.3404
 9363TIP3    H128053   4.734   0.942   5.463  1.3344 -0.8794  0.3002
 9363TIP3    H228054   4.788   1.081   5.487  1.2290 -0.9368  0.8941
 9364TIP3   OH228055   1.910   4.231   3.575  0.3729 -0.0896 -0.2167
 9364TIP3    H128056   1.987   4.197   3.527 -0.3378 -0.9937 -0.7642
 9364TIP3    H228057   1.892   4.164   3.641  0.2699  0.2973  0.1499
 9365TIP3   OH228058   4.813   2.200   5.015  0.0413 -0.0985 -0.2084
 9365TIP3    H128059   4.736   2.145   5.031  0.2263 -0.3386 -0.1271
 9365TIP3    H228060   4.820   2.206   4.920 -0.3346  0.2914 -0.2153
 9366TIP3   OH228061   2.171   2.966   3.614 -0.1616  0.1587 -0.3997
 9366TIP3    H128062   2.220   3.045   3.636  0.1325  0.4634 -1.9992
 9366TIP3    H228063   2.239   2.901   3.594 -0.4021 -0.4597  0.6946
 9367TIP3   OH228064   0.775   6.410   3.609  0.4145  0.3957  0.2315
 9367TIP3    H128065   0.787   6.468   3.684  0.7457 -0.0641  0.5381
 9367TIP3    H228066   0.820   6.329   3.633 -1.7635 -0.7688  0.6929
 9368TIP3   OH228067   0.610   0.777   2.009  0.0257  0.1063 -0.6649
 9368TIP3    H128068   0.609   0.791   2.103 -0.9872 -1.5690 -0.3838
 9368TIP3    H228069   0.689   0.725   1.993  0.3053  0.5609 -0.7780
 9369TIP3   OH228070   4.859   2.219   0.796  0.8877  0.0794 -0.0019
 9369TIP3    H128071   4.836   2.299   0.748  2.0110  0.4853  0.1183
 9369TIP3    H228072   4.777   2.170   0.801  0.3438  0.8909 -0.7086
 9370TIP3   OH228073   0.960   1.036   1.119  0.0444  0.3088 -0.1655
 9370TIP3    H128074   0.870   1.067   1.108 -0.1763 -0.2013  0.1987
 9370TIP3    H228075   1.014   1.113   1.098 -0.4915  0.8397  0.3729
 9371TIP3   OH228076   2.351   2.782   3.601  0.0729 -0.4283 -0.3257
 9371TIP3    H128077   2.308   2.709   3.645 -0.8431 -0.0837 -0.6437
 9371TIP3    H228078   2.405   2.742   3.533  1.2416 -0.9485  0.8558
 9372TIP3   OH228079   7.157   4.351   1.358  0.4588 -0.2131 -0.0068
 9372TIP3    H128080   7.115   4.267   1.342  1.3727 -0.9562  1.2427
 9372TIP3    H228081   7.092   4.403   1.405  0.9541 -1.4649  2.2017
 9373TIP3   OH228082   4.425   6.325   5.148  0.5009  0.4880 -0.1493
 9373TIP3    H128083   4.465   6.330   5.235  0.8654  0.3613 -0.3055
 9373TIP3    H228084   4.425   6.415   5.116  0.0264  0.5880  0.1319
 9374TIP3   OH228085   3.911   3.827   2.806  0.1418  0.2379  0.2098
 9374TIP3    H128086   3.850   3.804   2.736  0.3436 -0.9523  0.4026
 9374TIP3    H228087   3.996   3.830   2.763 -0.0378  1.9798 -0.0753
 9375TIP3   OH228088   3.969   2.654   5.398 -0.2676 -0.5130 -0.2427
 9375TIP3    H128089   3.997   2.575   5.445 -0.8014 -1.0625 -0.8344
 9375TIP3    H228090   3.957   2.625   5.307 -0.7319  0.1876 -0.4097
 9376TIP3   OH228091   5.830   6.096   0.968 -0.1521 -0.3840  0.1246
 9376TIP3    H128092   5.906   6.038   0.965  0.3064  0.2442 -0.8152
 9376TIP3    H228093   5.850   6.165   0.906 -1.0543  0.3442  0.6174
 9377TIP3   OH228094   6.799   1.375   2.168  0.1180  0.2338  0.0672
 9377TIP3    H128095   6.855   1.328   2.106  0.4119  0.6740 -0.0054
 9377TIP3    H228096   6.727   1.408   2.114 -1.4156 -2.1824  0.5144
 9378TIP3   OH228097   1.843   6.318   3.109 -0.0963 -0.2205 -0.5736
 9378TIP3    H128098   1.812   6.400   3.072  1.6661 -0.2959 -2.3790
 9378TIP3    H228099   1.938   6.327   3.112  0.1044 -2.0118 -0.3830
 9379TIP3   OH228100   5.524   5.784   1.554 -0.4028 -0.2913 -0.4491
 9379TIP3    H128101   5.475   5.814   1.478  0.0186  0.6222 -0.3754
 9379TIP3    H228102   5.509   5.852   1.620  2.0623  0.7419 -0.8714
 9380TIP3   OH228103   5.442   0.518   1.282 -0.5534 -0.0498 -0.2734
 9380TIP3    H128104   5.534   0.492   1.281 -0.4255  0.3129  0.6152
 9380TIP3    H228105   5.394   0.438   1.305 -0.4206 -0.1481 -0.3413
 9381TIP3   OH228106   4.836   1.310   2.049 -0.7084 -0.4115  0.4774
 9381TIP3    H128107   4.842   1.274   2.138 -1.0145 -1.5963  0.0466
 9381TIP3    H228108   4.890   1.388   2.051 -1.2375 -0.0533  1.8796
 9382TIP3   OH228109   2.660   5.944   0.248 -0.0063 -0.2756  0.3040
 9382TIP3    H128110   2.589   5.923   0.309  0.6233 -3.2813  0.1841
 9382TIP3    H228111   2.740   5.923   0.297  0.7021  0.8693 -0.3288
 9383TIP3   OH228112   3.040   5.065   4.198  0.5721 -0.6668 -0.0406
 9383TIP3    H128113   2.950   5.053   4.168  0.3959 -0.9180  0.5927
 9383TIP3    H228114   3.062   5.154   4.170 -0.6291  0.2403  1.6917
 9384TIP3   OH228115   3.703   1.895   5.209 -0.4362 -0.0445  0.0649
 9384TIP3    H128116   3.643   1.969   5.205  0.1539  0.5276  1.2781
 9384TIP3    H228117   3.778   1.922   5.157  0.1077  0.5597  1.1165
 9385TIP3   OH228118   3.860   1.479   2.569  0.1267 -0.2938 -0.1314
 9385TIP3    H128119   3.910   1.401   2.545 -0.5313 -1.3270  1.7230
 9385TIP3    H228120   3.861   1.533   2.489  2.9901 -0.8802 -0.6081
 9386TIP3   OH228121   0.318   6.512   1.948 -0.3306  0.2237  0.0784
 9386TIP3    H128122   0.251   6.572   1.983  0.9987  1.2435  0.9671
 9386TIP3    H228123   0.383   6.506   2.018  2.1124  1.8087 -1.8743
 9387TIP3   OH228124   3.536   2.566   5.242  0.0791  0.1496  0.0775
 9387TIP3    H128125   3.452   2.530   5.215 -0.2645 -0.2064  1.5485
 9387TIP3    H228126   3.596   2.544   5.170 -0.8559 -0.4556 -0.5369
 9388TIP3   OH228127   1.826   3.039   2.586  0.0785 -0.1476 -0.5866
 9388TIP3    H128128   1.814   3.014   2.495  1.6144 -1.6049 -0.4164
 9388TIP3    H228129   1.737   3.051   2.619 -0.5175 -0.2385 -2.0886
 9389TIP3   OH228130   7.173   1.433   2.899  0.3224  0.3356  0.4769
 9389TIP3    H128131   7.202   1.428   2.990 -0.6602 -0.4042  0.7709
 9389TIP3    H228132   7.124   1.515   2.893  0.0056  0.1657  0.7352
 9390TIP3   OH228133   5.837   5.600   0.289 -0.4421  0.6553 -0.4051
 9390TIP3    H128134   5.837   5.636   0.200  0.3582  0.7215 -0.3888
 9390TIP3    H228135   5.765   5.538   0.289 -0.4478  0.6444 -1.1085
 9391TIP3   OH228136   1.181   2.481   4.633 -0.2419 -0.0128  0.0588
 9391TIP3    H128137   1.234   2.440   4.564  0.0465 -2.7842  1.7495
 9391TIP3    H228138   1.093   2.445   4.620  0.0731 -1.5648  1.7388
 9392TIP3   OH228139   2.150   3.930   5.027  0.5293  0.4272  0.1996
 9392TIP3    H128140   2.226   3.987   5.016  0.9040 -0.2581 -0.9390
 9392TIP3    H228141   2.174   3.849   4.982  0.1423 -0.7815  2.0335
 9393TIP3   OH228142   2.428   3.497   4.271  0.4445 -0.4867 -0.3808
 9393TIP3    H128143   2.487   3.424   4.251  0.2038 -0.5007 -1.0557
 9393TIP3    H228144   2.369   3.502   4.196  0.4709  0.4179 -0.3571
 9394TIP3   OH228145   7.010   2.580   0.165 -0.3586 -0.2690 -0.0629
 9394TIP3    H128146   7.043   2.586   0.076 -0.7146  1.1794 -0.1228
 9394TIP3    H228147   7.075   2.627   0.218  0.0426 -1.4325  0.5163
 9395TIP3   OH228148   5.688   4.899   1.305 -0.8518  0.2179  0.7651
 9395TIP3    H128149   5.660   4.861   1.222  0.0190 -2.0215  1.4342
 9395TIP3    H228150   5.688   4.826   1.366  1.8214  1.0856  1.9405
 9396TIP3   OH228151   6.633   2.714   3.652 -0.4630 -0.5467 -0.4698
 9396TIP3    H128152   6.721   2.713   3.614 -0.5939 -1.5100 -0.7753
 9396TIP3    H228153   6.580   2.763   3.590 -0.0090  0.6406  0.0540
 9397TIP3   OH228154   6.512   1.576   1.343 -0.4198 -0.4640  0.2588
 9397TIP3    H128155   6.461   1.527   1.408 -2.6516 -0.8924 -1.6744
 9397TIP3    H228156   6.490   1.668   1.360  0.0712 -0.4608  0.9242
 9398TIP3   OH228157   6.440   5.692   2.571  0.2464  0.3761  0.7940
 9398TIP3    H128158   6.495   5.632   2.521  0.3300  1.7539 -0.8432
 9398TIP3    H228159   6.494   5.770   2.583 -0.7138  1.0745  0.7081
 9399TIP3   OH228160   6.789   0.292   4.064 -0.1111 -0.1112 -0.3512
 9399TIP3    H128161   6.782   0.215   4.121  0.7468  0.6511  0.8214
 9399TIP3    H228162   6.804   0.365   4.124 -0.2898  0.8903 -1.4905
 9400TIP3   OH228163   2.460   0.893   5.267 -0.1093 -0.0710 -0.0735
 9400TIP3    H128164   2.459   0.967   5.328  0.1608 -1.8709  2.2709
 9400TIP3    H228165   2.408   0.825   5.310 -2.1095 -0.6433 -3.0578
 9401TIP3   OH228166   4.030   3.294   4.794  0.2566 -0.1669  0.5269
 9401TIP3    H128167   4.045   3.373   4.846  0.0612  0.1309  0.1360
 9401TIP3    H228168   4.037   3.222   4.857 -0.0239  0.1914  0.9723
 9402TIP3   OH228169   5.394   3.643   0.883 -0.1911  0.4029  0.1810
 9402TIP3    H128170   5.436   3.558   0.873 -1.3941 -0.1149 -0.7380
 9402TIP3    H228171   5.462   3.706   0.862  0.0701 -0.4176 -1.6215
 9403TIP3   OH228172   5.227   4.406   5.605 -0.1368 -0.8812 -0.4807
 9403TIP3    H128173   5.262   4.485   5.648 -0.0649 -1.6345  0.9089
 9403TIP3    H228174   5.164   4.371   5.668  0.1787 -2.1848 -0.8667
 9404TIP3   OH228175   0.143   1.076   3.388 -0.0710  0.2956 -0.9822
 9404TIP3    H128176   0.222   1.047   3.433 -1.4485 -1.4870  0.4493
 9404TIP3    H228177   0.170   1.087   3.297  2.0175  0.6515 -0.3763
 9405TIP3   OH228178   0.929   2.956   4.421 -0.1024  0.2646  0.3611
 9405TIP3    H128179   1.020   2.931   4.433 -0.2310 -0.6856 -0.5250
 9405TIP3    H228180   0.880   2.891   4.471 -0.3570 -0.1426 -0.4057
 9406TIP3   OH228181   1.852   3.214   1.273  0.0976  0.2939 -0.2456
 9406TIP3    H128182   1.789   3.149   1.241  0.9542  1.1227 -4.1709
 9406TIP3    H228183   1.937   3.168   1.271  0.2902  0.6399 -0.0562
 9407TIP3   OH228184   0.664   4.718   5.210  0.0052 -0.6831  0.0817
 9407TIP3    H128185   0.661   4.628   5.241  1.3235 -0.3156  1.3609
 9407TIP3    H228186   0.746   4.723   5.160 -0.0067 -0.1703  0.1099
 9408TIP3   OH228187   6.209   3.198   0.229  0.0184 -0.2282 -0.3292
 9408TIP3    H128188   6.170   3.256   0.165  0.6009  0.4882 -0.0471
 9408TIP3    H228189   6.197   3.242   0.313 -1.4595 -1.5290  0.2008
 9409TIP3   OH228190   1.469   0.777   5.731 -0.0832  0.2309 -0.1745
 9409TIP3    H128191   1.521   0.737   5.801 -1.1732  1.7810  1.6098
 9409TIP3    H228192   1.437   0.859   5.769 -3.4693 -0.4433 -1.2850
 9410TIP3   OH228193   2.113   3.838   0.633  0.2850 -0.3760  0.3049
 9410TIP3    H128194   2.091   3.783   0.558 -0.6192  2.0601 -1.3317
 9410TIP3    H228195   2.095   3.783   0.709 -2.4906 -1.6971 -1.1652
 9411TIP3   OH228196   4.018   6.031   4.515  0.0038  0.9110 -0.8876
 9411TIP3    H128197   3.968   6.107   4.543 -2.0379 -1.0653  1.3179
 9411TIP3    H228198   4.103   6.041   4.558 -0.9927  0.9530  1.1657
 9412TIP3   OH228199   3.560   0.695   2.319  0.5822  0.2661  0.2473
 9412TIP3    H128200   3.553   0.670   2.227 -1.0676  0.6808  0.2272
 9412TIP3    H228201   3.619   0.771   2.318  0.0152  0.7144 -0.5618
 9413TIP3   OH228202   6.844   4.543   3.660  0.1289  0.3376  0.2542
 9413TIP3    H128203   6.891   4.489   3.723  1.4878 -0.5011 -1.3994
 9413TIP3    H228204   6.889   4.529   3.577  0.0501  3.4182 -0.4474
 9414TIP3   OH228205   5.762   4.010   2.267 -0.3163 -0.5794 -0.0406
 9414TIP3    H128206   5.755   4.095   2.224  1.3110  0.6072  1.8464
 9414TIP3    H228207   5.715   4.021   2.350 -0.8190 -1.8116 -0.1410
 9415TIP3   OH228208   0.228   4.414   4.827  0.0098  0.6806 -0.1349
 9415TIP3    H128209   0.228   4.494   4.879  0.3300  0.0730  0.8321
 9415TIP3    H228210   0.178   4.352   4.880  1.1885 -0.2487 -0.0673
 9416TIP3   OH228211   6.971   0.616   2.689 -0.2654  0.6176 -0.0183
 9416TIP3    H128212   6.888   0.650   2.723  0.0101 -0.5613  1.9624
 9416TIP3    H228213   7.031   0.690   2.698 -0.3312  0.5070  1.6498
 9417TIP3   OH228214   1.764   2.985   3.102  0.0164 -0.3781  0.0622
 9417TIP3    H128215   1.681   3.004   3.145 -0.3629 -2.2544  0.2320
 9417TIP3    H228216   1.769   3.048   3.030 -1.0609  0.4152  0.6544
 9418TIP3   OH228217   4.689   2.937   2.416 -0.3279 -0.0729  0.2119
 9418TIP3    H128218   4.769   2.942   2.468 -0.6776 -0.8240  0.8424
 9418TIP3    H228219   4.718   2.902   2.331  0.0916  0.1761  0.2516
 9419TIP3   OH228220   1.937   5.454   1.575 -0.0804  0.0953 -0.5087
 9419TIP3    H128221   1.879   5.426   1.646 -0.1309  0.3735 -0.4389
 9419TIP3    H228222   1.878   5.484   1.506 -0.1455 -2.6958 -1.7820
 9420TIP3   OH228223   2.139   4.723   1.489 -0.0262 -0.5852 -0.0037
 9420TIP3    H128224   2.055   4.682   1.469 -0.0064  0.0876 -1.5582
 9420TIP3    H228225   2.183   4.732   1.405  1.7847 -1.2611  0.8279
 9421TIP3   OH228226   4.931   3.274   4.111  0.1874 -0.4597 -0.1111
 9421TIP3    H128227   4.965   3.243   4.027 -0.2277  1.0351 -0.8619
 9421TIP3    H228228   4.952   3.368   4.112 -0.1178 -0.3897  1.3008
 9422TIP3   OH228229   1.970   6.407   1.052  0.2192  0.3880 -0.1223
 9422TIP3    H128230   1.905   6.475   1.063  1.2393  1.2831  0.5217
 9422TIP3    H228231   1.985   6.403   0.957 -0.9128  0.0182 -0.2926
 9423TIP3   OH228232   0.818   3.459   2.172  0.8439 -0.1043  0.2168
 9423TIP3    H128233   0.735   3.421   2.201  0.5676  0.4566  0.1620
 9423TIP3    H228234   0.802   3.553   2.166  1.8957  0.2021  1.6005
 9424TIP3   OH228235   2.839   3.363   5.833  0.0527  0.0267 -0.3344
 9424TIP3    H128236   2.872   3.452   5.819  0.5382  0.2665  1.8744
 9424TIP3    H228237   2.746   3.368   5.812  0.0951  1.0358 -0.3339
 9425TIP3   OH228238   2.411   5.502   4.899  0.2075  0.6704  0.2880
 9425TIP3    H128239   2.500   5.533   4.881  1.1683 -1.9113  0.2050
 9425TIP3    H228240   2.355   5.559   4.848  1.7793  2.4726  0.4628
 9426TIP3   OH228241   3.230   5.931   4.292 -0.2634  0.3958 -0.1488
 9426TIP3    H128242   3.279   5.882   4.358 -1.7679 -0.6429  0.2568
 9426TIP3    H228243   3.188   5.863   4.239  0.9190  1.1949 -2.2404
 9427TIP3   OH228244   5.181   3.797   1.259  0.4712  0.2321 -0.7716
 9427TIP3    H128245   5.220   3.857   1.196 -0.1032 -0.0721 -1.4464
 9427TIP3    H228246   5.228   3.714   1.246  1.7452  0.6978  0.6531
 9428TIP3   OH228247   1.216   3.754   2.967 -0.0902  0.4585 -0.1055
 9428TIP3    H128248   1.245   3.837   3.005 -0.7488  0.2714  0.8651
 9428TIP3    H228249   1.167   3.711   3.038 -0.1007 -0.5798 -0.7135
 9429TIP3   OH228250   2.833   0.798   5.616 -0.2818 -0.1044 -0.0658
 9429TIP3    H128251   2.898   0.859   5.581 -0.6779  0.1575 -0.3455
 9429TIP3    H228252   2.883   0.718   5.634  0.3775  0.5383  0.9887
 9430TIP3   OH228253   7.114   0.077   4.555  0.3587  0.0931 -0.6685
 9430TIP3    H128254   7.024   0.108   4.542  0.9804  1.9815 -0.7145
 9430TIP3    H228255   7.127   0.013   4.485 -1.7017 -2.0521  0.7813
 9431TIP3   OH228256   4.157   3.892   2.318 -0.3244  0.1664 -0.0431
 9431TIP3    H128257   4.116   3.979   2.313 -1.7846 -0.4717  0.1883
 9431TIP3    H228258   4.101   3.837   2.263  1.2566 -0.4152 -1.1621
 9432TIP3   OH228259   5.906   3.449   1.643  0.2703 -0.5582  0.2689
 9432TIP3    H128260   5.857   3.488   1.715  0.7113  1.3486 -0.4171
 9432TIP3    H228261   5.991   3.493   1.644 -0.1158  0.3980 -2.1012
 9433TIP3   OH228262   2.989   3.086   5.648 -0.0348 -0.4490 -0.2993
 9433TIP3    H128263   2.930   3.013   5.630  0.2168 -0.5099 -0.9235
 9433TIP3    H228264   2.995   3.090   5.744  0.8783 -2.0267 -0.2504
 9434TIP3   OH228265   3.202   2.391   5.435  0.3182  0.3709 -0.3645
 9434TIP3    H128266   3.237   2.311   5.474 -1.3332 -0.0679  0.3254
 9434TIP3    H228267   3.188   2.450   5.510 -3.2260 -0.6020 -0.0587
 9435TIP3   OH228268   1.550   4.562   1.273  0.0933 -0.0834 -0.3025
 9435TIP3    H128269   1.587   4.650   1.268  2.3181 -0.8717  1.0117
 9435TIP3    H228270   1.481   4.568   1.339 -0.2568  0.8150 -0.7404
 9436TIP3   OH228271   6.580   5.087   0.782 -0.5094  0.1077 -0.0950
 9436TIP3    H128272   6.512   5.148   0.809 -0.4863 -1.0284  2.8811
 9436TIP3    H228273   6.533   5.007   0.758 -0.4171 -1.5603  4.3235
 9437TIP3   OH228274   5.003   3.684   3.740  0.0614  0.1105 -0.6404
 9437TIP3    H128275   5.053   3.747   3.792 -1.0182  0.3384  0.1627
 9437TIP3    H228276   5.025   3.705   3.650  0.1211  1.3153 -0.3649
 9438TIP3   OH228277   1.611   5.894   2.264 -0.0138  0.6024 -0.3608
 9438TIP3    H128278   1.533   5.919   2.314 -0.5070 -0.4537 -0.5663
 9438TIP3    H228279   1.587   5.910   2.172  0.0200  0.3117 -0.4215
 9439TIP3   OH228280   0.632   0.714   5.478  0.1242  0.5319  0.3352
 9439TIP3    H128281   0.606   0.748   5.393 -1.9960  0.0417  0.7398
 9439TIP3    H228282   0.686   0.637   5.457 -1.7885 -0.6349 -0.6375
 9440TIP3   OH228283   1.682   0.729   0.361 -0.2672  0.0998  0.0677
 9440TIP3    H128284   1.591   0.756   0.347 -0.4403 -0.7983 -0.6817
 9440TIP3    H228285   1.691   0.649   0.309  0.8469 -0.0341  0.4410
 9441TIP3   OH228286   4.247   0.797   1.376  0.7279 -0.3799 -0.1193
 9441TIP3    H128287   4.310   0.764   1.439  0.9382 -0.1202 -0.1922
 9441TIP3    H228288   4.299   0.849   1.314  0.1199  2.2303  1.4091
 9442TIP3   OH228289   1.728   4.632   4.871 -0.1764 -0.0725 -0.2972
 9442TIP3    H128290   1.714   4.568   4.940 -0.6240 -0.3869 -0.6715
 9442TIP3    H228291   1.820   4.620   4.845  0.3557  0.8562  1.0293
 9443TIP3   OH228292   2.680   0.226   1.451  0.0593  0.6819 -0.3843
 9443TIP3    H128293   2.745   0.156   1.448 -0.1106  0.4153  1.3373
 9443TIP3    H228294   2.645   0.223   1.540 -0.7154  2.2734 -0.5997
 9444TIP3   OH228295   5.729   2.364   3.102 -0.0625  0.2618 -0.6481
 9444TIP3    H128296   5.784   2.436   3.072  0.7585  0.3537  0.9697
 9444TIP3    H228297   5.700   2.321   3.022  0.4283  1.6431 -1.6094
 9445TIP3   OH228298   5.831   1.298   3.123 -0.4869  0.4156  0.0188
 9445TIP3    H128299   5.832   1.212   3.080 -0.8904 -0.0800  0.9842
 9445TIP3    H228300   5.869   1.357   3.058 -0.7760 -0.3783 -0.8973
 9446TIP3   OH228301   2.966   6.707   0.318  0.1116 -0.1352 -0.0184
 9446TIP3    H128302   2.965   6.775   0.251 -0.7493 -0.2658 -0.1488
 9446TIP3    H228303   3.038   6.649   0.292  0.3901  0.3321 -0.3008
 9447TIP3   OH228304   3.592   1.384   1.106  0.0732  0.6113  0.0991
 9447TIP3    H128305   3.557   1.296   1.116 -0.4883  1.0078  1.9927
 9447TIP3    H228306   3.628   1.386   1.017  0.2020 -1.5443  0.0590
 9448TIP3   OH228307   0.039   5.384   1.668  0.0448 -0.2777 -0.5252
 9448TIP3    H128308  -0.031   5.447   1.686  0.3334 -0.1772  0.2998
 9448TIP3    H228309   0.093   5.385   1.747  1.5912  0.4223 -1.5221
 9449TIP3   OH228310   4.520   0.568   5.366  0.3231  0.2542 -0.6451
 9449TIP3    H128311   4.448   0.619   5.404  0.4280  0.2315 -0.4147
 9449TIP3    H228312   4.490   0.546   5.278 -0.9503 -1.7758  0.2300
 9450TIP3   OH228313   1.312   0.563   3.797  0.3700 -0.0466  0.4373
 9450TIP3    H128314   1.279   0.534   3.883  0.9352  0.9138  0.9883
 9450TIP3    H228315   1.302   0.658   3.798 -0.9162 -0.1218 -1.1249
 9451TIP3   OH228316   1.781   3.416   4.297 -0.3297 -0.6028  0.0505
 9451TIP3    H128317   1.812   3.370   4.375  0.3990 -0.0823  0.0804
 9451TIP3    H228318   1.817   3.505   4.306 -0.4523 -0.4658 -0.7482
 9452TIP3   OH228319   2.709   3.949   2.770  0.1207 -0.2923 -1.0027
 9452TIP3    H128320   2.626   3.907   2.750  0.4152 -2.4782  1.8209
 9452TIP3    H228321   2.760   3.883   2.816  3.0663  1.3009 -1.7108
 9453TIP3   OH228322   1.471   1.645   1.773 -0.3561 -0.0127  0.2050
 9453TIP3    H128323   1.533   1.670   1.704 -0.1417 -0.7049  0.1435
 9453TIP3    H228324   1.424   1.726   1.792 -0.5599  0.1539 -0.9018
 9454TIP3   OH228325   6.101   4.088   3.083  0.2876 -0.2045 -0.4239
 9454TIP3    H128326   6.185   4.043   3.089  0.5739  0.1153 -1.6570
 9454TIP3    H228327   6.121   4.178   3.110  0.3133 -0.1773 -0.5297
 9455TIP3   OH228328   7.115   3.489   3.018  0.1065 -0.3041  0.1445
 9455TIP3    H128329   7.112   3.583   3.036 -0.8578 -0.1426 -0.7742
 9455TIP3    H228330   7.042   3.453   3.068 -0.2166 -0.3916 -0.3796
 9456TIP3   OH228331   6.778   6.274   1.672  0.0790  0.2841 -0.3515
 9456TIP3    H128332   6.769   6.329   1.594  1.1766  0.0544 -0.6565
 9456TIP3    H228333   6.690   6.271   1.710 -0.1742  1.5443 -0.8019
 9457TIP3   OH228334   6.317   3.324   4.666 -0.5878  0.4747  0.3752
 9457TIP3    H128335   6.391   3.334   4.606  0.3270 -1.4597  1.0766
 9457TIP3    H228336   6.297   3.413   4.694  0.8866  1.1410 -0.5338
 9458TIP3   OH228337   3.734   1.134   2.420 -0.3208  0.3598 -0.0623
 9458TIP3    H128338   3.808   1.079   2.393  0.5268  0.6960  1.4327
 9458TIP3    H228339   3.674   1.073   2.463 -0.4833  0.2352 -0.4624
 9459TIP3   OH228340   3.835   5.364   5.322  0.0374  0.1997  0.2349
 9459TIP3    H128341   3.838   5.285   5.376 -1.0723  0.5756  0.8871
 9459TIP3    H228342   3.779   5.340   5.248  0.3904  0.1179 -0.0048
 9460TIP3   OH228343   2.621   6.344   5.517  0.3545 -0.0910 -0.0478
 9460TIP3    H128344   2.528   6.333   5.539 -0.0202 -1.3931 -2.0005
 9460TIP3    H228345   2.623   6.422   5.461  0.1507 -0.8985 -1.2343
 9461TIP3   OH228346   6.478   0.342   5.717  0.3456  0.2528  0.3777
 9461TIP3    H128347   6.473   0.419   5.774  0.3738  0.8043 -0.3528
 9461TIP3    H228348   6.532   0.371   5.643  1.2879 -0.8055  0.6215
 9462TIP3   OH228349   5.169   6.234   3.753 -0.2888  0.1520  0.2486
 9462TIP3    H128350   5.122   6.171   3.698  0.4596  0.8859 -1.3278
 9462TIP3    H228351   5.154   6.318   3.710  1.0858  0.6178  0.6318
 9463TIP3   OH228352   5.089   2.867   2.335 -0.2417  0.1017  0.2629
 9463TIP3    H128353   5.012   2.886   2.281 -0.0795  3.9853  1.1200
 9463TIP3    H228354   5.162   2.901   2.284  0.2805  0.9194  1.5145
 9464TIP3   OH228355   7.193   5.933   1.117 -0.2799  0.2369  0.1181
 9464TIP3    H128356   7.152   5.975   1.042  1.3606  0.6412 -0.5960
 9464TIP3    H228357   7.120   5.903   1.171 -1.5111 -1.0498 -2.1441
 9465TIP3   OH228358   5.523   1.558   2.504  0.9048 -0.3436 -0.1242
 9465TIP3    H128359   5.442   1.529   2.462 -0.4107  2.3324  0.3729
 9465TIP3    H228360   5.495   1.625   2.567  3.4004 -0.1684  0.9281
 9466TIP3   OH228361   1.327   1.657   4.267 -0.4145  0.3298  0.1362
 9466TIP3    H128362   1.249   1.668   4.212 -1.3544 -2.4913  0.7007
 9466TIP3    H228363   1.305   1.699   4.350 -1.4650 -0.5573  0.3366
 9467TIP3   OH228364   5.923   3.827   4.856  0.4951  0.2545  0.4392
 9467TIP3    H128365   5.866   3.820   4.933 -0.3815  0.3627 -0.1795
 9467TIP3    H228366   5.944   3.920   4.850 -0.3829  0.4357 -0.0932
 9468TIP3   OH228367   3.066   0.999   1.185  0.1791 -0.2850  0.4741
 9468TIP3    H128368   3.137   0.989   1.248 -0.2273  0.0382  0.9954
 9468TIP3    H228369   3.052   0.911   1.150  0.9184 -0.3304  0.2622
 9469TIP3   OH228370   1.649   0.998   0.076  0.2212 -0.4777  0.0944
 9469TIP3    H128371   1.734   0.966   0.047 -0.3713 -2.6293  0.5635
 9469TIP3    H228372   1.668   1.079   0.123  1.9167 -0.5551 -0.4206
 9470TIP3   OH228373   6.789   1.073   1.454 -0.0772 -0.7594 -0.3587
 9470TIP3    H128374   6.812   1.125   1.377 -0.4403 -0.5296 -0.3123
 9470TIP3    H228375   6.758   0.990   1.417 -0.7444 -0.4640 -0.4926
 9471TIP3   OH228376   5.932   4.048   4.678  0.2680  0.3500  0.2448
 9471TIP3    H128377   5.990   4.060   4.602  1.5902  0.4443  1.2336
 9471TIP3    H228378   5.897   4.135   4.695 -2.7733 -0.1930 -2.2715
 9472TIP3   OH228379   4.714   1.468   5.728 -0.1636 -0.4017 -0.0224
 9472TIP3    H128380   4.703   1.413   5.805  2.2910 -0.6887  0.1899
 9472TIP3    H228381   4.718   1.407   5.654  2.5013 -0.6191  0.2073
 9473TIP3   OH228382   3.815   2.012   2.157  0.5275 -0.0060 -0.0273
 9473TIP3    H128383   3.880   1.963   2.208  0.4147  1.4608  1.6053
 9473TIP3    H228384   3.867   2.067   2.098  0.7468  0.2048  0.3589
 9474TIP3   OH228385   2.370   5.953   4.917 -0.6796  0.8400 -0.0219
 9474TIP3    H128386   2.318   6.016   4.868 -0.6716  0.8441 -0.0251
 9474TIP3    H228387   2.318   5.872   4.915 -0.2283  0.5710 -0.8498
 9475TIP3   OH228388   1.199   2.130   1.537 -0.0955 -0.6744 -0.1850
 9475TIP3    H128389   1.292   2.137   1.515 -0.2150 -2.6912 -1.5700
 9475TIP3    H228390   1.156   2.194   1.479  0.4335  0.6274  0.8150
 9476TIP3   OH228391   0.503   2.604   5.858 -0.6970 -0.8939  0.1208
 9476TIP3    H128392   0.434   2.661   5.893 -0.5864 -0.7053  0.0365
 9476TIP3    H228393   0.530   2.647   5.776 -0.1837 -0.7338  0.3681
 9477TIP3   OH228394   0.553   2.985   1.813 -0.3286 -0.4202 -0.5400
 9477TIP3    H128395   0.513   2.945   1.736  0.4970 -2.0699 -0.1641
 9477TIP3    H228396   0.552   2.916   1.880  1.6004 -0.0048 -0.0091
 9478TIP3   OH228397   4.713   5.376   3.892 -0.3482  0.3405 -0.0922
 9478TIP3    H128398   4.627   5.418   3.898  0.0737  1.1952  0.2134
 9478TIP3    H228399   4.697   5.284   3.911 -0.9495  0.7793  1.7006
 9479TIP3   OH228400   2.199   6.504   0.689 -0.1541 -0.3550 -0.7523
 9479TIP3    H128401   2.281   6.553   0.695  0.2496 -1.1524  0.5753
 9479TIP3    H228402   2.147   6.551   0.624  1.1710  0.4280 -1.2701
 9480TIP3   OH228403   2.499   2.616   3.838  0.4961  0.1430 -0.0214
 9480TIP3    H128404   2.442   2.541   3.853 -0.1784  0.5368 -0.5851
 9480TIP3    H228405   2.443   2.693   3.848  0.9812  0.5474 -0.3103
 9481TIP3   OH228406   5.458   1.810   1.451  0.1760  0.6926  0.0631
 9481TIP3    H128407   5.451   1.814   1.547  1.2127  1.7027  0.1157
 9481TIP3    H228408   5.449   1.717   1.431 -2.4499  0.6861  0.9071
 9482TIP3   OH228409   5.315   5.625   5.426 -0.2804 -0.2458 -0.3854
 9482TIP3    H128410   5.328   5.598   5.336 -0.9451  1.2577 -0.9670
 9482TIP3    H228411   5.403   5.642   5.460  0.2019 -3.1404  0.0836
 9483TIP3   OH228412   2.860   6.662   3.424  0.0006 -0.1083  0.2913
 9483TIP3    H128413   2.847   6.595   3.490  2.2384 -0.7342  0.1868
 9483TIP3    H228414   2.869   6.613   3.342  1.7819  0.2475  0.2338
 9484TIP3   OH228415   4.649   3.653   3.561  0.1342 -0.0120  0.1106
 9484TIP3    H128416   4.638   3.572   3.511  0.7391 -0.2682  0.3873
 9484TIP3    H228417   4.608   3.636   3.645 -1.7287  0.7373 -0.5843
 9485TIP3   OH228418   4.361   3.537   5.104 -0.0179  0.0754 -0.0294
 9485TIP3    H128419   4.270   3.506   5.114 -0.0294  0.5503  1.7518
 9485TIP3    H228420   4.353   3.631   5.092  0.2473  0.2444  1.0114
 9486TIP3   OH228421   0.362   4.647   4.247  0.4970  0.0789 -0.2745
 9486TIP3    H128422   0.285   4.597   4.220  1.1719 -0.6032 -1.0023
 9486TIP3    H228423   0.405   4.590   4.311 -0.9511  1.5643  2.2172
 9487TIP3   OH228424   1.054   1.101   3.088  0.0172  0.2644 -0.2401
 9487TIP3    H128425   1.017   1.170   3.033 -0.3726 -0.3310 -0.7370
 9487TIP3    H228426   1.070   1.028   3.028 -0.6661 -0.4956  0.4613
 9488TIP3   OH228427   0.389   2.298   5.056 -0.2236  0.0948  0.0142
 9488TIP3    H128428   0.438   2.343   4.986 -1.3321 -0.4236 -1.1339
 9488TIP3    H228429   0.413   2.206   5.046 -1.0300 -0.0935 -0.2325
 9489TIP3   OH228430   2.514   2.665   1.305 -0.1418 -0.5773  0.1767
 9489TIP3    H128431   2.566   2.699   1.379 -1.5685  0.1214  0.9113
 9489TIP3    H228432   2.455   2.601   1.344  0.4048 -1.6655 -0.7145
 9490TIP3   OH228433   1.717   1.858   3.527 -0.2162 -0.4534 -0.0003
 9490TIP3    H128434   1.636   1.897   3.496 -0.5755  0.0016  1.4304
 9490TIP3    H228435   1.695   1.819   3.611  1.0429 -0.2629  0.4501
 9491TIP3   OH228436   6.026   0.146   3.606 -0.2922  0.4992 -0.4297
 9491TIP3    H128437   5.935   0.132   3.581 -0.4222 -0.0989  0.3509
 9491TIP3    H228438   6.023   0.170   3.699  0.2522  1.7865 -0.7176
 9492TIP3   OH228439   4.626   5.931   4.565 -0.0251  0.0478 -0.0244
 9492TIP3    H128440   4.533   5.935   4.544 -0.3792  0.3296  1.4768
 9492TIP3    H228441   4.668   5.903   4.484 -1.3314  0.6110 -0.9275
 9493TIP3   OH228442   4.642   0.409   3.611  0.1419 -0.3466 -0.6500
 9493TIP3    H128443   4.712   0.344   3.620 -0.9374 -1.4761  0.0216
 9493TIP3    H228444   4.592   0.380   3.535 -0.2324 -0.2056 -0.4628
 9494TIP3   OH228445   6.924   4.341   5.512 -0.4818  0.0337 -0.0631
 9494TIP3    H128446   6.964   4.255   5.524 -1.6049 -0.8974 -2.3175
 9494TIP3    H228447   6.835   4.332   5.548  0.1840  1.1099  2.0272
 9495TIP3   OH228448   4.543   5.648   1.309  0.1285  0.0555  0.0939
 9495TIP3    H128449   4.607   5.591   1.266  1.7517  1.7459  0.1018
 9495TIP3    H228450   4.554   5.631   1.403  1.1178  0.8403  0.1361
 9496TIP3   OH228451   6.898   0.740   2.218  0.2216 -0.4418  0.0409
 9496TIP3    H128452   6.813   0.759   2.179  0.3940  1.0260  0.3286
 9496TIP3    H228453   6.923   0.821   2.262  1.0432 -1.3591  1.3329
 9497TIP3   OH228454   3.931   4.860   0.258  0.1876 -0.4354 -0.5079
 9497TIP3    H128455   3.970   4.946   0.274 -0.3214 -0.4407  0.9079
 9497TIP3    H228456   3.975   4.803   0.321 -1.1296 -0.7051  0.2041
 9498TIP3   OH228457   3.625   2.127   0.366  0.2807  0.4237 -0.4785
 9498TIP3    H128458   3.644   2.213   0.328 -0.3421  0.2652 -1.1960
 9498TIP3    H228459   3.710   2.091   0.389  0.5195  1.4104  0.2425
 9499TIP3   OH228460   4.540   2.019   4.143  0.4345  0.1012  0.5671
 9499TIP3    H128461   4.474   2.048   4.079  0.6033 -1.9875 -0.6528
 9499TIP3    H228462   4.574   2.100   4.181  1.4665  1.6208 -3.1432
 9500TIP3   OH228463   0.179   2.703   4.665 -0.1043  0.6348  0.2268
 9500TIP3    H128464   0.159   2.720   4.573  1.4694  0.6068 -0.1427
 9500TIP3    H228465   0.118   2.758   4.713 -0.6817  0.9552 -0.8333
 9501TIP3   OH228466   1.208   0.205   0.971 -0.5268  0.1606  0.2599
 9501TIP3    H128467   1.174   0.277   1.024 -2.3044 -0.3548 -0.1174
 9501TIP3    H228468   1.223   0.244   0.885  1.1765  0.6974  0.7498
 9502TIP3   OH228469   3.465   5.201   3.239  0.5109  0.4635 -0.1527
 9502TIP3    H128470   3.519   5.213   3.161 -0.4382 -0.1846 -0.9294
 9502TIP3    H228471   3.475   5.108   3.260  1.5774  0.8333  1.1387
 9503TIP3   OH228472   3.712   6.047   1.617  0.5573 -0.0289 -0.4274
 9503TIP3    H128473   3.620   6.035   1.597 -0.4873  1.0431  3.1125
 9503TIP3    H228474   3.742   5.961   1.646 -0.2286  0.2414  1.3127
 9504TIP3   OH228475   4.071   2.828   3.061 -0.7249  0.1170 -0.1612
 9504TIP3    H128476   4.140   2.779   3.106  0.9095  2.4344  0.0817
 9504TIP3    H228477   3.995   2.822   3.118 -0.2087 -1.0610  0.4315
 9505TIP3   OH228478   2.489   6.800   2.307  0.1641  0.3622  1.1355
 9505TIP3    H128479   2.446   6.715   2.319 -0.5215  0.7564  1.5196
 9505TIP3    H228480   2.430   6.863   2.347 -0.1729  1.2348 -0.6397
 9506TIP3   OH228481   4.842   5.727   0.921  0.7338 -0.2455 -0.0802
 9506TIP3    H128482   4.766   5.740   0.978  0.2684 -1.6520 -0.3449
 9506TIP3    H228483   4.859   5.633   0.925  0.5418 -0.4267 -2.4413
 9507TIP3   OH228484   6.529   4.523   1.200  0.8044 -0.3320  0.4210
 9507TIP3    H128485   6.611   4.485   1.170  1.5429  0.6374  1.1692
 9507TIP3    H228486   6.546   4.617   1.206 -0.8430  0.1057 -0.9317
 9508TIP3   OH228487   5.426   6.700   2.033 -0.4619 -0.6478  0.7637
 9508TIP3    H128488   5.421   6.719   2.126 -0.4209  0.7158  0.5221
 9508TIP3    H228489   5.355   6.637   2.017 -0.9041 -0.3783  1.5969
 9509TIP3   OH228490   3.892   6.230   5.682 -0.0702  0.0731  0.1158
 9509TIP3    H128491   3.811   6.180   5.695 -1.2202  1.1965 -2.0053
 9509TIP3    H228492   3.893   6.293   5.754  0.2150 -1.4650  1.5184
 9510TIP3   OH228493   3.967   3.342   1.572  0.1218 -0.6596  0.1502
 9510TIP3    H128494   3.939   3.431   1.550  0.0868 -0.3683  1.3299
 9510TIP3    H228495   4.003   3.308   1.490 -1.1598 -0.0715 -0.6830
 9511TIP3   OH228496   6.690   5.882   3.039  0.5536  0.0062  0.1732
 9511TIP3    H128497   6.629   5.810   3.057 -0.5420  0.8448 -0.0253
 9511TIP3    H228498   6.637   5.946   2.992  1.6107  0.7732 -0.0045
 9512TIP3   OH228499   3.606   4.819   5.648  0.8647  0.4485 -0.1511
 9512TIP3    H128500   3.678   4.759   5.630  0.4280  0.0905 -0.7330
 9512TIP3    H228501   3.564   4.833   5.563  1.7766  2.6832 -0.3099
 9513TIP3   OH228502   4.910   0.674   0.924 -0.1279 -0.1825 -0.6803
 9513TIP3    H128503   4.915   0.579   0.935 -1.1014 -0.1820 -0.1507
 9513TIP3    H228504   4.985   0.695   0.868 -0.6425 -1.4263 -1.9219
 9514TIP3   OH228505   2.790   0.730   1.908  0.1122  0.2007  0.1484
 9514TIP3    H128506   2.853   0.665   1.877  0.5910  1.3111 -1.3164
 9514TIP3    H228507   2.835   0.814   1.898  0.5866  0.7242  4.5209
 9515TIP3   OH228508   5.307   2.780   3.618  0.5833 -0.1093 -0.3911
 9515TIP3    H128509   5.260   2.778   3.702 -0.9901  1.0867 -1.1986
 9515TIP3    H228510   5.263   2.714   3.565  0.4270  0.3785 -0.8645
 9516TIP3   OH228511   1.022   0.853   2.940  0.4492  0.2027 -0.7637
 9516TIP3    H128512   1.014   0.873   2.847  0.7734 -2.9535 -1.5844
 9516TIP3    H228513   1.109   0.815   2.950 -1.0263 -3.4341 -0.1344
 9517TIP3   OH228514   6.240   3.530   4.850 -0.2095 -0.0246 -0.3912
 9517TIP3    H128515   6.207   3.444   4.875 -2.2775  0.6734 -0.5863
 9517TIP3    H228516   6.208   3.589   4.917 -0.8079  0.9405 -1.4850
 9518TIP3   OH228517   2.537   2.268   2.252 -0.2463  0.0558 -0.0040
 9518TIP3    H128518   2.473   2.311   2.309 -2.1235 -2.8266  0.3350
 9518TIP3    H228519   2.503   2.281   2.163 -1.6703 -1.7688  0.1982
 9519TIP3   OH228520   2.401   3.521   2.543  0.0622  0.1370 -0.1776
 9519TIP3    H128521   2.364   3.435   2.524 -1.8388  1.1007 -1.1826
 9519TIP3    H228522   2.491   3.516   2.512  0.0388 -1.5145 -0.0812
 9520TIP3   OH228523   4.875   6.715   3.093 -0.1520  0.1653  0.3424
 9520TIP3    H128524   4.884   6.804   3.127 -1.1429  0.6699 -0.6437
 9520TIP3    H228525   4.955   6.670   3.119 -0.0087  1.1027  1.5700
 9521TIP3   OH228526   1.185   1.324   2.456  0.3649  0.5387  0.0717
 9521TIP3    H128527   1.238   1.310   2.378  0.0997  0.2753 -0.0625
 9521TIP3    H228528   1.176   1.419   2.463  1.6724  0.6457  0.6465
 9522TIP3   OH228529   3.992   1.060   5.672  0.4900 -0.3516 -0.1080
 9522TIP3    H128530   3.982   0.995   5.742  1.2102 -0.6999 -0.3222
 9522TIP3    H228531   4.048   1.127   5.711  1.1495 -0.6992 -0.4504
 9523TIP3   OH228532   2.754   4.778   3.375  0.4322 -0.6371 -0.1541
 9523TIP3    H128533   2.835   4.800   3.420  0.0860  0.0654  0.1336
 9523TIP3    H228534   2.748   4.682   3.381  0.9700 -0.6420  0.2814
 9524TIP3   OH228535   1.536   0.532   1.249 -0.2546 -0.1713 -0.1601
 9524TIP3    H128536   1.557   0.439   1.248 -1.5946 -0.5156  0.7906
 9524TIP3    H228537   1.616   0.574   1.280  0.6542 -0.8899 -1.4408
 9525TIP3   OH228538   0.682   2.915   1.495  0.4928 -0.5274  0.2817
 9525TIP3    H128539   0.761   2.878   1.534 -0.4860 -1.8328  1.0841
 9525TIP3    H228540   0.610   2.866   1.534 -0.7851  1.1335  0.1396
 9526TIP3   OH228541   6.774   3.228   4.334  0.2759 -0.1312 -0.1954
 9526TIP3    H128542   6.868   3.216   4.346  0.1239 -0.4688  0.7907
 9526TIP3    H228543   6.746   3.147   4.291  0.1626 -0.8825  1.2186
 9527TIP3   OH228544   0.709   6.598   2.683 -0.3803  0.6227  0.3360
 9527TIP3    H128545   0.712   6.608   2.778  0.2708  0.0733  0.3838
 9527TIP3    H228546   0.685   6.506   2.669  0.6379  0.3969 -0.0089
 9528TIP3   OH228547   2.299   5.497   5.404 -0.2711  0.3978 -0.1037
 9528TIP3    H128548   2.295   5.563   5.472  0.4434  0.7410 -0.3849
 9528TIP3    H228549   2.323   5.416   5.449 -1.0825  0.3310  0.2295
 9529TIP3   OH228550   2.979   4.216   3.163 -0.4078 -0.3695  0.5123
 9529TIP3    H128551   2.885   4.198   3.167 -0.8619  1.6382  0.0308
 9529TIP3    H228552   3.012   4.195   3.250 -1.1381 -1.8663  0.4449
 9530TIP3   OH228553   5.682   5.118   4.069 -0.6335 -0.6974  0.5815
 9530TIP3    H128554   5.704   5.029   4.040 -1.0103 -0.3925 -0.7303
 9530TIP3    H228555   5.741   5.174   4.019 -1.9929 -0.0820 -0.4165
 9531TIP3   OH228556   6.150   3.243   4.886  0.2440 -0.1537 -0.5229
 9531TIP3    H128557   6.129   3.209   4.799  1.3901 -1.3669 -0.3656
 9531TIP3    H228558   6.232   3.199   4.909  0.2123  0.5188  0.9667
 9532TIP3   OH228559   5.413   3.513   4.577  0.1346  0.0120 -0.0611
 9532TIP3    H128560   5.434   3.599   4.539 -1.0806  0.4364  0.1884
 9532TIP3    H228561   5.495   3.485   4.619  0.6844  0.8225 -0.5588
 9533TIP3   OH228562   6.232   5.244   4.145  0.4593 -0.3719  0.3920
 9533TIP3    H128563   6.257   5.217   4.234 -1.3805  0.3644  1.1883
 9533TIP3    H228564   6.201   5.333   4.155 -0.4246 -0.5194 -0.8764
 9534TIP3   OH228565   6.300   2.719   3.576  0.2031 -0.0112 -0.2635
 9534TIP3    H128566   6.256   2.643   3.539 -0.5272  0.6555 -0.7940
 9534TIP3    H228567   6.359   2.748   3.507  0.8753 -0.3970  0.1348
 9535TIP3   OH228568   3.756   3.286   4.717 -0.7115 -0.1822  0.0885
 9535TIP3    H128569   3.845   3.279   4.752 -0.9078  0.9585  0.8696
 9535TIP3    H228570   3.768   3.304   4.624 -0.1411 -0.9520  0.0071
 9536TIP3   OH228571   0.253   3.371   0.667  0.1858  0.4147 -0.0045
 9536TIP3    H128572   0.244   3.278   0.643  1.1071  0.8154 -2.1060
 9536TIP3    H228573   0.199   3.418   0.604  0.1957  1.3699  0.6718
 9537TIP3   OH228574   0.712   6.337   2.654  0.1251 -0.6244  0.2331
 9537TIP3    H128575   0.802   6.304   2.645  0.6256  0.7486 -0.1354
 9537TIP3    H228576   0.661   6.261   2.683  1.3759 -1.4670  0.3158
 9538TIP3   OH228577   4.029   5.626   3.095 -0.1709 -0.2888  0.5927
 9538TIP3    H128578   3.973   5.579   3.034  0.7708 -0.4404 -0.1710
 9538TIP3    H228579   4.016   5.582   3.179 -1.9824  0.3457  0.6805
 9539TIP3   OH228580   0.143   5.755   0.766 -0.0568 -0.2289  0.2542
 9539TIP3    H128581   0.048   5.741   0.762  0.0021 -1.1670  1.4289
 9539TIP3    H228582   0.177   5.673   0.802  1.1086  0.4305  0.6854
 9540TIP3   OH228583   2.948   4.241   4.041  0.4979  0.3735  0.4001
 9540TIP3    H128584   3.035   4.212   4.013  0.3997 -0.4247  0.8834
 9540TIP3    H228585   2.897   4.160   4.047  0.0583  0.7048  1.2674
 9541TIP3   OH228586   0.152   0.187   0.639 -0.0619 -0.3255  0.0699
 9541TIP3    H128587   0.177   0.207   0.548 -0.8185 -1.1727 -0.3428
 9541TIP3    H228588   0.056   0.185   0.637 -0.1276  0.9865  1.1945
 9542TIP3   OH228589   7.165   3.721   0.453 -0.4767  0.3749  0.0596
 9542TIP3    H128590   7.162   3.790   0.386  1.5527  0.1782 -0.3095
 9542TIP3    H228591   7.246   3.673   0.433 -0.6179 -0.6282  1.7633
 9543TIP3   OH228592   6.222   2.382   4.410  0.0310 -0.3280 -0.1282
 9543TIP3    H128593   6.169   2.318   4.457  1.4528 -0.5945  1.1683
 9543TIP3    H228594   6.273   2.426   4.478 -0.1167  1.4571 -1.1047
 9544TIP3   OH228595   6.966   5.800   2.004  0.0257  0.0113 -0.3233
 9544TIP3    H128596   6.961   5.730   2.069 -0.7987 -0.7062 -1.1238
 9544TIP3    H228597   6.908   5.771   1.933  0.2641  1.1520 -1.0138
 9545TIP3   OH228598   2.921   2.058   3.683  0.1933  0.0566 -0.2403
 9545TIP3    H128599   2.946   2.098   3.600 -0.0216  1.5468  0.3699
 9545TIP3    H228600   2.972   2.105   3.749 -0.4626 -0.3233  0.5631
 9546TIP3   OH228601   1.461   1.766   3.977  0.1946 -0.0466 -0.0824
 9546TIP3    H128602   1.542   1.732   4.015  1.1135 -0.0020 -1.9363
 9546TIP3    H228603   1.428   1.695   3.923 -0.1410  0.4923 -0.5994
 9547TIP3   OH228604   3.837   3.092   5.479 -0.0200 -1.2786 -0.9982
 9547TIP3    H128605   3.758   3.040   5.466  0.6164 -2.7130  0.5190
 9547TIP3    H228606   3.906   3.027   5.495  1.0819 -0.0063 -0.4281
 9548TIP3   OH228607   6.711   3.233   2.630 -0.7485  0.3776  0.3878
 9548TIP3    H128608   6.643   3.221   2.697 -1.0830  1.2074  0.2079
 9548TIP3    H228609   6.775   3.292   2.670  0.2038 -0.8826  0.7821
 9549TIP3   OH228610   3.190   1.932   1.474  0.2492  0.4331 -0.5038
 9549TIP3    H128611   3.161   1.917   1.384  1.0440 -0.0320 -0.6957
 9549TIP3    H228612   3.262   1.870   1.486  0.2379  0.5836  0.4124
 9550TIP3   OH228613   4.182   1.449   0.678  0.0647  0.4493  0.0615
 9550TIP3    H128614   4.090   1.474   0.672 -0.0815  0.0067  0.3784
 9550TIP3    H228615   4.180   1.363   0.720  0.6706  0.8248  0.8809
 9551TIP3   OH228616   3.815   5.314   1.469 -0.2328 -0.5030  0.0392
 9551TIP3    H128617   3.749   5.331   1.401 -0.3112  1.7231  0.5806
 9551TIP3    H228618   3.896   5.350   1.432  0.3341 -1.7176  0.0583
 9552TIP3   OH228619   4.676   6.193   0.715  0.0545  0.5457  0.2857
 9552TIP3    H128620   4.762   6.210   0.675  0.0567 -0.5976 -0.2181
 9552TIP3    H228621   4.695   6.145   0.795 -0.1634 -1.0974 -0.6053
 9553TIP3   OH228622   5.073   4.811   5.519 -0.1029 -0.2215  0.5074
 9553TIP3    H128623   5.004   4.751   5.491  1.4527 -2.4983  1.2399
 9553TIP3    H228624   5.058   4.891   5.469 -4.1851  0.0314  1.7998
 9554TIP3   OH228625   3.662   6.619   1.932  0.2796  0.1942 -0.1148
 9554TIP3    H128626   3.748   6.582   1.952 -0.0305  0.0222  0.9694
 9554TIP3    H228627   3.609   6.599   2.009 -0.5562  0.8382 -0.5094
 9555TIP3   OH228628   5.120   5.590   2.656  0.7366 -0.0760 -0.1878
 9555TIP3    H128629   5.072   5.585   2.574 -0.8090  2.7563  0.4256
 9555TIP3    H228630   5.143   5.683   2.665 -1.4094  0.3009  3.7254
 9556TIP3   OH228631   5.158   2.436   2.811 -0.1777  0.8802  0.0630
 9556TIP3    H128632   5.120   2.415   2.725 -2.0279  1.3187  0.7333
 9556TIP3    H228633   5.089   2.414   2.874  0.7035  1.6879  1.3537
 9557TIP3   OH228634   0.165   3.470   5.509 -0.0527  0.0759 -0.1463
 9557TIP3    H128635   0.177   3.539   5.445  0.2325  0.5592  0.4209
 9557TIP3    H228636   0.148   3.516   5.591 -0.0265 -0.5290  0.2024
 9558TIP3   OH228637   3.167   0.290   4.613 -0.0514 -0.1057  0.0866
 9558TIP3    H128638   3.176   0.295   4.518  1.7860 -0.2328  0.2228
 9558TIP3    H228639   3.242   0.239   4.642 -0.5909 -0.0898  1.6165
 9559TIP3   OH228640   6.336   4.752   5.515  0.4495  0.3528  0.2006
 9559TIP3    H128641   6.421   4.727   5.478  0.5680  1.6107 -0.4651
 9559TIP3    H228642   6.357   4.819   5.580  0.0413 -0.1539  0.8705
 9560TIP3   OH228643   0.782   6.610   1.444 -0.2482  0.2202  0.5544
 9560TIP3    H128644   0.833   6.530   1.428  1.6913  1.5074 -0.0474
 9560TIP3    H228645   0.762   6.642   1.356 -1.3148  0.2233  0.7945
 9561TIP3   OH228646   5.725   2.889   2.186  0.0614  0.3832  0.0436
 9561TIP3    H128647   5.743   2.971   2.232  2.0184 -0.2972  0.5917
 9561TIP3    H228648   5.726   2.913   2.093 -0.8463  1.2176  0.2331
 9562TIP3   OH228649   7.013   2.907   4.134  0.4355  0.8117 -0.0002
 9562TIP3    H128650   7.076   2.935   4.201  0.2243 -0.2855  0.6891
 9562TIP3    H228651   6.933   2.954   4.155  0.7384  1.4630 -0.2804
 9563TIP3   OH228652   2.775   1.897   4.690 -0.4247  0.6489  0.1436
 9563TIP3    H128653   2.827   1.839   4.745  0.4983 -0.8758 -2.2062
 9563TIP3    H228654   2.837   1.930   4.625 -1.3327  2.8923  0.3287
 9564TIP3   OH228655   0.287   0.801   5.222  0.1439  0.2918  0.1009
 9564TIP3    H128656   0.323   0.836   5.304  2.3271  1.5495 -1.2938
 9564TIP3    H228657   0.279   0.707   5.237  1.5071  0.3551  1.4013
 9565TIP3   OH228658   0.167   3.402   1.738  0.5097  0.4364  0.4599
 9565TIP3    H128659   0.239   3.459   1.713  0.5466  0.1088 -0.2161
 9565TIP3    H228660   0.091   3.461   1.746  0.5216  0.5760 -0.3387
 9566TIP3   OH228661   2.892   5.872   0.401  0.0850 -0.1845 -0.2082
 9566TIP3    H128662   2.864   5.787   0.366  1.6975 -0.0714 -1.9572
 9566TIP3    H228663   2.957   5.850   0.467 -0.9589 -0.3249  0.8082
 9567TIP3   OH228664   6.600   2.208   1.791  0.7340 -0.2450 -0.0838
 9567TIP3    H128665   6.636   2.230   1.705  2.3110  0.5397  0.7342
 9567TIP3    H228666   6.633   2.120   1.809 -0.2459 -0.7338 -0.5897
 9568TIP3   OH228667   0.905   1.240   3.595 -0.1351  0.0347  0.3113
 9568TIP3    H128668   0.970   1.297   3.554 -0.4624  0.3337  0.2045
 9568TIP3    H228669   0.948   1.208   3.674  0.4237 -0.3735 -0.1476
 9569TIP3   OH228670   5.022   2.036   5.237 -0.0311  0.4213  0.2671
 9569TIP3    H128671   4.958   1.970   5.261 -1.8405  1.8744 -0.2889
 9569TIP3    H228672   4.982   2.119   5.264  1.8842  1.3583  0.3978
 9570TIP3   OH228673   0.828   4.050   4.099 -0.0217 -0.4617 -0.6891
 9570TIP3    H128674   0.852   3.968   4.141 -1.9430 -0.1223  1.3095
 9570TIP3    H228675   0.910   4.099   4.092  0.8207 -1.7336 -0.0341
 9571TIP3   OH228676   6.326   0.782   3.711  0.3633  0.1845 -0.4151
 9571TIP3    H128677   6.408   0.744   3.680  0.3877 -0.0216 -0.1043
 9571TIP3    H228678   6.331   0.874   3.686  0.5454  0.1013 -0.6855
 9572TIP3   OH228679   6.195   1.676   2.402 -0.3406  0.8383 -0.5692
 9572TIP3    H128680   6.242   1.759   2.395 -0.3127  0.9569  0.7729
 9572TIP3    H228681   6.149   1.667   2.318 -2.1020  3.2699  0.0255
 9573TIP3   OH228682   6.616   1.159   2.070  0.6168  0.7447 -0.9109
 9573TIP3    H128683   6.667   1.093   2.117 -0.5413  0.8636  0.5950
 9573TIP3    H228684   6.678   1.231   2.056  0.8727  0.9680  1.0480
 9574TIP3   OH228685   0.658   3.078   2.350  0.0688 -0.3417  0.3135
 9574TIP3    H128686   0.738   3.113   2.388  0.7863 -1.1649 -0.4008
 9574TIP3    H228687   0.635   3.140   2.281  0.5932 -0.5656 -0.0677
 9575TIP3   OH228688   5.364   3.074   0.263  0.1319 -0.1223  0.1280
 9575TIP3    H128689   5.359   2.981   0.240  2.7308 -0.7212  1.6404
 9575TIP3    H228690   5.363   3.119   0.178 -2.1222 -1.3747 -0.6121
 9576TIP3   OH228691   1.745   3.569   1.054 -0.4353 -0.7672 -0.1679
 9576TIP3    H128692   1.783   3.494   1.009  0.3975  0.2692 -1.2289
 9576TIP3    H228693   1.820   3.618   1.088 -0.9959 -0.8579  1.3053
 9577TIP3   OH228694   1.304   5.137   4.951  0.1531 -0.8591 -0.4677
 9577TIP3    H128695   1.330   5.207   4.891  0.5533  1.0198  1.7244
 9577TIP3    H228696   1.370   5.069   4.939  0.8486 -0.0515 -1.3515
 9578TIP3   OH228697   4.054   6.799   0.375 -0.2714 -0.5517  0.3358
 9578TIP3    H128698   4.103   6.731   0.421 -0.3181 -1.3690 -0.7681
 9578TIP3    H228699   4.001   6.841   0.443  2.3639  0.8071  1.6884
 9579TIP3   OH228700   5.072   3.571   0.600 -0.1675  0.5037  0.2699
 9579TIP3    H128701   5.098   3.641   0.540 -0.1828  0.1942 -0.1036
 9579TIP3    H228702   5.106   3.491   0.559  0.0029  0.3110  0.7809
 9580TIP3   OH228703   6.490   1.803   4.116  0.3579 -0.7598  0.2595
 9580TIP3    H128704   6.446   1.759   4.189 -0.4284 -1.3270 -0.5301
 9580TIP3    H228705   6.564   1.747   4.095 -0.5946 -1.7033 -0.6901
 9581TIP3   OH228706   0.956   5.644   2.881 -0.2933  0.2376 -0.4125
 9581TIP3    H128707   0.938   5.576   2.816 -2.4474  0.0644  0.2960
 9581TIP3    H228708   1.039   5.682   2.853 -0.5515 -0.6466 -2.5717
 9582TIP3   OH228709   0.545   0.603   2.512 -0.3482 -0.2754  1.3950
 9582TIP3    H128710   0.513   0.664   2.579  1.0947  1.2383  0.7776
 9582TIP3    H228711   0.538   0.517   2.553 -1.2336  0.4146  2.7874
 9583TIP3   OH228712   3.049   3.737   4.951 -0.2760  0.3790  0.1051
 9583TIP3    H128713   3.124   3.691   4.990  1.8750  1.5605 -2.3059
 9583TIP3    H228714   3.003   3.670   4.901  1.4606  0.2794 -1.4676
 9584TIP3   OH228715   6.029   5.103   4.453  0.2370  0.4723  0.0822
 9584TIP3    H128716   6.113   5.149   4.447  0.0121  0.8387 -0.3087
 9584TIP3    H228717   6.015   5.066   4.366  1.7292 -2.7289  1.0786
 9585TIP3   OH228718   4.051   0.697   2.819  0.6952  0.1600 -0.1401
 9585TIP3    H128719   4.120   0.635   2.839  0.3894 -0.0258  0.3574
 9585TIP3    H228720   3.970   0.648   2.833  0.4542  0.6384  0.1567
 9586TIP3   OH228721   6.607   2.680   4.401  0.5242 -0.4033 -0.0155
 9586TIP3    H128722   6.686   2.649   4.445  0.6903 -0.6784 -0.5034
 9586TIP3    H228723   6.622   2.661   4.309  0.1700  0.1520 -0.1911
 9587TIP3   OH228724   6.957   6.695   3.724  0.1699 -0.4020 -0.0369
 9587TIP3    H128725   7.017   6.769   3.713 -0.7562  0.3378 -0.2715
 9587TIP3    H228726   6.940   6.691   3.818 -0.7853  0.5112 -0.1642
 9588TIP3   OH228727   0.930   2.988   2.586  0.3132  0.2298 -0.0171
 9588TIP3    H128728   0.932   2.896   2.557  0.0801  0.2378 -0.0597
 9588TIP3    H228729   1.000   2.994   2.651 -0.7473 -0.3807  1.2073
 9589TIP3   OH228730   3.244   5.456   5.095  0.4589  0.0729  0.0114
 9589TIP3    H128731   3.307   5.468   5.165  0.2976  1.2533 -0.0253
 9589TIP3    H228732   3.163   5.431   5.139  0.5954 -0.0995  0.1650
 9590TIP3   OH228733   6.990   0.150   2.770  0.4910  0.0031  0.1641
 9590TIP3    H128734   7.056   0.202   2.724  0.1650  0.3898  0.1193
 9590TIP3    H228735   6.922   0.135   2.704  0.9066 -1.0922 -0.0240
 9591TIP3   OH228736   5.077   3.598   2.299  0.1598  0.2552 -0.2163
 9591TIP3    H128737   5.030   3.641   2.228 -0.6916  0.3550  0.3942
 9591TIP3    H228738   5.057   3.650   2.376  0.4928 -0.2653  0.2273
 9592TIP3   OH228739   4.411   0.154   4.534 -0.3916  0.2020  0.4546
 9592TIP3    H128740   4.439   0.226   4.477 -2.8136 -0.1235 -1.3353
 9592TIP3    H228741   4.439   0.180   4.621  0.9652  2.1217 -0.4721
 9593TIP3   OH228742   5.047   5.659   2.399 -0.0240 -0.2244  0.1145
 9593TIP3    H128743   5.006   5.743   2.381 -0.0594 -0.2884 -0.1064
 9593TIP3    H228744   5.127   5.659   2.346 -0.9372 -1.0779 -1.3490
 9594TIP3   OH228745   2.968   1.422   4.983  0.3367 -0.4338  0.3330
 9594TIP3    H128746   3.036   1.387   4.925 -0.3947  0.7297 -1.2746
 9594TIP3    H228747   2.934   1.498   4.937 -1.4728 -0.4818  1.5155
 9595TIP3   OH228748   1.706   3.681   3.411 -0.4801  0.3437 -0.0404
 9595TIP3    H128749   1.641   3.619   3.377 -0.5230  0.5203 -0.2878
 9595TIP3    H228750   1.656   3.742   3.465 -0.1030 -1.2911  2.3013
 9596TIP3   OH228751   3.024   4.384   5.802  0.2095  0.1241 -0.6376
 9596TIP3    H128752   2.995   4.475   5.805  0.9751  0.3576  0.1596
 9596TIP3    H228753   3.067   4.370   5.886  0.6126 -0.8026 -0.9868
 9597TIP3   OH228754   4.297   2.519   4.605  0.1959 -0.4655  0.1783
 9597TIP3    H128755   4.297   2.464   4.526  1.1604  1.0412 -0.9166
 9597TIP3    H228756   4.237   2.590   4.585  1.4933  0.6719  0.2294
 9598TIP3   OH228757   3.460   0.141   1.389 -0.1585  0.2415  0.0417
 9598TIP3    H128758   3.416   0.109   1.468  0.8717 -3.2451 -0.6180
 9598TIP3    H228759   3.396   0.128   1.319 -0.6909  2.3405  0.0794
 9599TIP3   OH228760   6.024   2.656   4.282  0.1328  0.1695  0.2576
 9599TIP3    H128761   6.097   2.718   4.275  0.2531  0.1980  1.4846
 9599TIP3    H228762   5.989   2.671   4.370 -0.9117 -0.3347 -0.0583
 9600TIP3   OH228763   7.133   1.577   3.452  0.2370 -0.0625  0.6068
 9600TIP3    H128764   7.124   1.652   3.510 -0.6513 -0.6375  1.2331
 9600TIP3    H228765   7.212   1.532   3.483 -0.3769 -0.5128  1.5586
 9601TIP3   OH228766   5.570   3.191   5.003 -0.3082 -0.0728  0.2743
 9601TIP3    H128767   5.586   3.138   4.925  0.0379 -0.3176  0.5091
 9601TIP3    H228768   5.561   3.280   4.970  2.0643  0.1812  0.1625
 9602TIP3   OH228769   1.120   3.698   5.312 -0.4065  0.2009 -0.0061
 9602TIP3    H128770   1.199   3.645   5.304  0.6755  1.1978  2.9098
 9602TIP3    H228771   1.151   3.785   5.337 -2.3344  1.2602 -1.0457
 9603TIP3   OH228772   2.482   6.228   0.439 -0.0206  0.3478  0.1421
 9603TIP3    H128773   2.532   6.297   0.394 -0.9953  1.2063  0.3432
 9603TIP3    H228774   2.392   6.260   0.439 -0.2483 -0.2406  1.5807
 9604TIP3   OH228775   0.520   3.026   3.875  0.5747  0.1173  0.1932
 9604TIP3    H128776   0.499   2.942   3.915  0.8497 -0.3895 -0.6923
 9604TIP3    H228777   0.539   3.084   3.949  2.2107 -1.0908  0.7769
 9605TIP3   OH228778   6.992   0.170   0.006 -0.3009 -0.4767  0.6186
 9605TIP3    H128779   6.954   0.209   0.085  0.5471  0.3438  0.6422
 9605TIP3    H228780   6.938   0.093  -0.012 -3.2610  1.7035 -0.5285
 9606TIP3   OH228781   5.471   2.646   0.032  0.2845  0.1721 -0.4837
 9606TIP3    H128782   5.551   2.610  -0.006  0.0518 -1.8405  0.7708
 9606TIP3    H228783   5.448   2.719  -0.026  1.5624 -0.8586 -2.4337
 9607TIP3   OH228784   7.217   2.650   1.460  0.1542 -0.0585  0.3386
 9607TIP3    H128785   7.136   2.666   1.413  1.8472 -0.9041 -3.2055
 9607TIP3    H228786   7.247   2.737   1.488 -0.4151  0.6390 -1.1449
 9608TIP3   OH228787   1.102   1.894   5.559  0.3353 -0.0272 -0.3791
 9608TIP3    H128788   1.140   1.979   5.539  0.7008 -0.3730 -1.1885
 9608TIP3    H228789   1.057   1.907   5.643 -0.0652  1.0983 -0.7525
 9609TIP3   OH228790   0.465   0.439   2.765 -0.3365 -0.1686  0.3467
 9609TIP3    H128791   0.518   0.501   2.816  0.9146 -1.5491  0.7813
 9609TIP3    H228792   0.390   0.420   2.822  0.0292 -0.1698  0.8364
 9610TIP3   OH228793   2.390   4.076   0.902  0.0585  0.1482  0.7003
 9610TIP3    H128794   2.485   4.085   0.899  0.3778 -1.2753  3.5980
 9610TIP3    H228795   2.361   4.100   0.813  3.2339 -0.9402 -0.7765
 9611TIP3   OH228796   2.300   0.719   4.103  0.1655  0.1435 -0.7307
 9611TIP3    H128797   2.227   0.662   4.080  0.3954  0.4770 -2.3831
 9611TIP3    H228798   2.274   0.806   4.074 -0.1282  0.9343  1.6550
 9612TIP3   OH228799   1.639   4.884   4.747  0.0884  0.1761  0.1694
 9612TIP3    H128800   1.668   4.793   4.752 -0.6506 -0.0847 -0.1956
 9612TIP3    H228801   1.715   4.932   4.713  0.4384 -0.3181  0.2446
 9613TIP3   OH228802   3.076   0.783   4.189  0.0148 -0.2696 -0.3918
 9613TIP3    H128803   2.989   0.783   4.229 -0.5889  0.1096 -1.6361
 9613TIP3    H228804   3.067   0.723   4.114  0.4191  0.8205 -1.3397
 9614TIP3   OH228805   6.563   4.722   3.793 -0.2988 -0.2387  0.3235
 9614TIP3    H128806   6.654   4.703   3.812  0.6205 -0.1989 -3.2876
 9614TIP3    H228807   6.562   4.814   3.767 -1.1764 -0.4815 -0.5748
 9615TIP3   OH228808   5.136   2.461   2.264 -0.0839  0.3842 -0.1253
 9615TIP3    H128809   5.214   2.473   2.210 -0.8753 -0.9394 -1.6619
 9615TIP3    H228810   5.063   2.466   2.202 -0.9478 -2.8358  0.4543
 9616TIP3   OH228811   6.380   3.735   3.219  0.0343 -0.2419 -0.1863
 9616TIP3    H128812   6.423   3.772   3.296  0.3364 -1.5116  0.2719
 9616TIP3    H228813   6.415   3.647   3.212 -0.7250 -0.4784 -1.2170
 9617TIP3   OH228814   6.771   6.603   0.802  0.1539 -0.1478  0.3303
 9617TIP3    H128815   6.811   6.690   0.797 -0.2372  0.0378  0.4014
 9617TIP3    H228816   6.680   6.616   0.773 -0.3918 -0.2199  1.9475
 9618TIP3   OH228817   3.705   2.563   5.460 -0.6983  0.0910  0.3057
 9618TIP3    H128818   3.771   2.628   5.434 -0.8079  0.2836  0.4996
 9618TIP3    H228819   3.646   2.557   5.385  0.7765 -1.7372 -0.7743
 9619TIP3   OH228820   4.186   2.059   5.419  0.2290 -0.2232  0.2701
 9619TIP3    H128821   4.123   1.989   5.437  0.0205  0.2541  1.4283
 9619TIP3    H228822   4.234   2.071   5.501  0.8696  0.3917 -0.1772
 9620TIP3   OH228823   1.394   4.108   4.694  0.4260 -0.0104 -0.9518
 9620TIP3    H128824   1.428   4.119   4.783 -0.2358 -1.4562 -0.4800
 9620TIP3    H228825   1.431   4.181   4.645  0.1257  1.3179  0.6950
 9621TIP3   OH228826   2.248   1.258   5.472  0.4351 -0.2224  0.6203
 9621TIP3    H128827   2.316   1.190   5.478  0.6920  0.0671  1.0986
 9621TIP3    H228828   2.210   1.246   5.385  2.0201  0.4639 -0.2278
 9622TIP3   OH228829   2.064   2.478   3.436  0.1174 -0.2081  0.3413
 9622TIP3    H128830   2.087   2.390   3.404  1.0261 -0.3419  1.2989
 9622TIP3    H228831   1.990   2.504   3.382  1.9069 -0.1866 -2.2803
 9623TIP3   OH228832   2.929   6.072   2.105 -0.7485 -0.3235 -0.1874
 9623TIP3    H128833   2.995   6.051   2.172  2.0458 -0.3672 -2.7452
 9623TIP3    H228834   2.880   6.145   2.143  0.7731 -0.2713  1.8747
 9624TIP3   OH228835   6.661   3.997   5.133  0.6341  0.1787 -0.2093
 9624TIP3    H128836   6.696   4.043   5.209  1.0445 -0.5370  0.0343
 9624TIP3    H228837   6.644   3.908   5.164 -0.7833  0.3224 -0.4965
 9625TIP3   OH228838   6.056   0.731   3.120 -0.4474  0.2976  0.1790
 9625TIP3    H128839   6.117   0.658   3.130  0.1195  0.3821 -2.0048
 9625TIP3    H228840   5.976   0.690   3.085 -0.7964  0.5049  0.7194
 9626TIP3   OH228841   1.751   1.880   1.394 -0.2342 -0.6536  0.2025
 9626TIP3    H128842   1.695   1.957   1.396 -0.8115 -1.0705  0.5102
 9626TIP3    H228843   1.766   1.863   1.301 -1.5180 -1.1644  0.0634
 9627TIP3   OH228844   4.608   2.902   1.611 -0.7081 -0.1559  0.3453
 9627TIP3    H128845   4.644   2.924   1.697 -1.5411  0.7134  0.4811
 9627TIP3    H228846   4.533   2.960   1.600  0.1535  0.6845 -1.5423
 9628TIP3   OH228847   2.058   3.305   0.454  0.4269 -0.2771  0.1843
 9628TIP3    H128848   2.038   3.257   0.374 -0.1330  0.3980 -0.0970
 9628TIP3    H228849   1.978   3.299   0.506  0.9424 -1.0925  0.8926
 9629TIP3   OH228850   5.982   0.447   4.563 -0.0264 -0.9164 -0.1940
 9629TIP3    H128851   5.929   0.502   4.506  0.5677 -0.0881  0.0308
 9629TIP3    H228852   5.954   0.357   4.544 -3.2737 -0.4555  1.6369
 9630TIP3   OH228853   2.606   5.280   5.064 -0.1346 -0.1201 -0.2298
 9630TIP3    H128854   2.693   5.298   5.028  0.3897  1.0094  1.4700
 9630TIP3    H228855   2.562   5.365   5.064 -0.4783 -0.2828  0.7900
 9631TIP3   OH228856   1.002   0.882   1.428  0.0116 -0.2319 -0.2176
 9631TIP3    H128857   1.088   0.848   1.403 -0.5393 -1.6237 -0.3172
 9631TIP3    H228858   1.021   0.960   1.480  1.3251 -0.4080 -0.4017
 9632TIP3   OH228859   0.726   6.051   1.079  0.0383  0.2061  0.3185
 9632TIP3    H128860   0.757   6.120   1.020 -3.2009  0.9553 -0.7247
 9632TIP3    H228861   0.654   6.092   1.128 -2.3764 -2.4680 -0.7223
 9633TIP3   OH228862   2.565   4.006   5.407  0.3626 -0.2465 -0.2250
 9633TIP3    H128863   2.583   3.934   5.467 -0.0208 -0.8544 -0.8277
 9633TIP3    H228864   2.560   3.965   5.321 -0.1330  0.4600 -0.5426
 9634TIP3   OH228865   0.654   4.881   0.644 -0.0057 -0.2207 -0.5953
 9634TIP3    H128866   0.670   4.830   0.723  0.7269 -0.7071 -1.0434
 9634TIP3    H228867   0.600   4.954   0.673  0.1797 -0.4404  0.3345
 9635TIP3   OH228868   5.301   1.419   0.747 -0.0443 -0.5936  0.2824
 9635TIP3    H128869   5.264   1.462   0.824  0.4156 -0.4505  0.4280
 9635TIP3    H228870   5.376   1.474   0.723 -0.3504 -0.4767 -0.4391
 9636TIP3   OH228871   4.680   6.193   2.673  0.1161  0.3394 -0.3308
 9636TIP3    H128872   4.758   6.186   2.617  0.6811  1.5505  0.2710
 9636TIP3    H228873   4.687   6.279   2.714 -0.9918  0.0316  0.5666
 9637TIP3   OH228874   5.311   1.293   4.946 -0.5612  0.0111  0.0074
 9637TIP3    H128875   5.390   1.331   4.907  0.3107  1.4574  2.8391
 9637TIP3    H228876   5.341   1.208   4.980  0.3155  1.1648  2.3579
 9638TIP3   OH228877   3.349   4.848   1.765  0.2703 -0.2366  0.4750
 9638TIP3    H128878   3.426   4.831   1.819  0.9541 -1.7232 -0.8613
 9638TIP3    H228879   3.280   4.793   1.802  0.2161  0.1086  0.8921
 9639TIP3   OH228880   2.239   5.348   3.744 -0.1030 -0.3925  0.0781
 9639TIP3    H128881   2.252   5.337   3.650  2.3352 -0.7247  0.3837
 9639TIP3    H228882   2.324   5.379   3.776 -0.4913 -1.4752  2.3380
 9640TIP3   OH228883   5.380   0.294   5.261 -0.4345 -0.5933  0.0016
 9640TIP3    H128884   5.301   0.307   5.209 -0.9936 -0.1751  0.9257
 9640TIP3    H228885   5.404   0.202   5.246 -0.6785 -0.5197 -0.8500
 9641TIP3   OH228886   2.413   1.688   1.046 -0.3566 -0.3403 -0.1189
 9641TIP3    H128887   2.492   1.634   1.037 -0.3948 -0.4994  0.4638
 9641TIP3    H228888   2.404   1.730   0.961 -0.6232 -1.6526 -0.7764
 9642TIP3   OH228889   0.842   0.203   0.826 -0.2410 -0.3778 -0.2126
 9642TIP3    H128890   0.875   0.293   0.826 -0.3625 -0.3331 -0.3262
 9642TIP3    H228891   0.894   0.159   0.893  0.2988 -0.3928 -0.6262
 9643TIP3   OH228892   5.832   6.035   1.741 -0.0820  0.4827  0.6088
 9643TIP3    H128893   5.813   5.943   1.761  0.5608  0.6972  2.3654
 9643TIP3    H228894   5.854   6.074   1.825  1.2970  1.8641 -0.3274
 9644TIP3   OH228895   5.773   4.323   3.949 -0.5340  0.2074 -0.0784
 9644TIP3    H128896   5.719   4.249   3.922 -0.5658  0.1715  0.0783
 9644TIP3    H228897   5.849   4.283   3.992 -0.8810  0.2716  0.6208
 9645TIP3   OH228898   3.281   5.554   2.178  0.1721 -0.2371  0.4066
 9645TIP3    H128899   3.313   5.633   2.221  0.2253 -0.8338  1.4852
 9645TIP3    H228900   3.194   5.578   2.146  0.1482  0.2274  0.8107
 9646TIP3   OH228901   4.507   3.938   5.490  0.0434  0.0193 -0.9702
 9646TIP3    H128902   4.560   3.903   5.562 -1.9097  0.1302  0.5893
 9646TIP3    H228903   4.568   3.943   5.416  2.3096  0.5268  0.8210
 9647TIP3   OH228904   3.824   5.422   1.130  0.0574  0.2215 -0.2918
 9647TIP3    H128905   3.890   5.435   1.198 -0.2072  0.8939 -0.1626
 9647TIP3    H228906   3.871   5.434   1.048  0.4839 -1.0412 -0.2634
 9648TIP3   OH228907   6.982   1.336   5.502 -0.9425  0.0202  0.2338
 9648TIP3    H128908   6.991   1.255   5.453 -0.0564 -0.7872  1.6852
 9648TIP3    H228909   6.917   1.316   5.569 -0.8912  0.5914  0.4580
 9649TIP3   OH228910   0.481   3.125   5.800  0.4498  0.8518 -0.0783
 9649TIP3    H128911   0.536   3.066   5.851  1.6829  2.1851  0.2050
 9649TIP3    H228912   0.536   3.150   5.726 -0.2953  1.1248 -0.5416
 9650TIP3   OH228913   4.672   1.970   3.492 -0.2235 -0.5020 -0.3386
 9650TIP3    H128914   4.717   1.890   3.520 -0.1051 -0.6194 -0.8583
 9650TIP3    H228915   4.606   1.940   3.429  1.3504  0.0121 -2.3305
 9651TIP3   OH228916   5.052   5.006   2.574 -0.0223  0.2652 -0.2316
 9651TIP3    H128917   5.024   5.041   2.490 -0.2718 -0.9486 -0.6832
 9651TIP3    H228918   5.091   4.921   2.553 -4.0426 -2.2262  1.1646
 9652TIP3   OH228919   7.167   6.590   0.207 -0.3366 -0.1181  0.4300
 9652TIP3    H128920   7.173   6.509   0.258  0.9447 -0.3195 -0.0011
 9652TIP3    H228921   7.202   6.658   0.265 -2.8402  0.4554  1.3758
 9653TIP3   OH228922   0.746   0.826   1.506 -0.0740 -0.0950  0.2538
 9653TIP3    H128923   0.693   0.869   1.438  0.4815  1.3693  0.7066
 9653TIP3    H228924   0.836   0.839   1.477  0.0985 -1.4244  0.1610
 9654TIP3   OH228925   3.990   3.076   4.968 -0.1644 -0.2865 -0.1401
 9654TIP3    H128926   4.048   3.064   4.893  0.9352  0.5199  0.5383
 9654TIP3    H228927   4.027   3.020   5.036  0.4837  1.0157  0.6250
 9655TIP3   OH228928   7.048   0.416   1.415 -0.1016  0.3068 -0.1375
 9655TIP3    H128929   7.078   0.496   1.458  1.4876 -0.4445  0.2459
 9655TIP3    H228930   7.003   0.445   1.337 -0.8033  1.6202  0.7238
 9656TIP3   OH228931   0.531   1.774   0.387 -0.4202  0.5865 -0.3696
 9656TIP3    H128932   0.443   1.763   0.351 -0.0869  0.5662 -1.2047
 9656TIP3    H228933   0.523   1.848   0.448 -0.9447  0.8057 -0.6945
 9657TIP3   OH228934   6.551   4.335   2.634 -0.0135 -0.0170 -0.1043
 9657TIP3    H128935   6.603   4.399   2.682 -0.6253  0.4512 -0.0465
 9657TIP3    H228936   6.502   4.387   2.570 -0.6161 -0.4035  0.0284
 9658TIP3   OH228937   0.702   6.512   5.615 -0.1842  0.6329  0.5111
 9658TIP3    H128938   0.646   6.587   5.635 -0.6941  0.0478  1.3470
 9658TIP3    H228939   0.791   6.547   5.617 -0.4239  1.2382  0.7930
 9659TIP3   OH228940   3.123   0.304   2.035 -0.0809 -0.0390 -0.1018
 9659TIP3    H128941   3.089   0.320   1.946 -0.8938  0.2729  0.2528
 9659TIP3    H228942   3.141   0.392   2.070 -0.6292 -0.1095  0.3660
 9660TIP3   OH228943   5.985   6.233   3.102 -0.0268 -0.2407  0.1416
 9660TIP3    H128944   6.045   6.292   3.147 -2.1564  1.6729  0.7132
 9660TIP3    H228945   5.984   6.154   3.156  1.5173 -0.0987  0.4120
 9661TIP3   OH228946   0.187   5.984   1.327  0.6970 -0.4809  0.2323
 9661TIP3    H128947   0.098   5.974   1.293  0.1641  1.2614  0.9861
 9661TIP3    H228948   0.240   5.923   1.275 -0.8544 -1.2314 -0.5259
 9662TIP3   OH228949   5.834   6.624   3.822  0.0912  0.1020  0.2874
 9662TIP3    H128950   5.757   6.669   3.788  0.3499 -0.3752 -0.9580
 9662TIP3    H228951   5.906   6.655   3.767  0.2800 -1.7770 -0.5800
 9663TIP3   OH228952   2.792   0.719   1.351 -0.1013 -0.1186 -0.0825
 9663TIP3    H128953   2.794   0.750   1.442 -0.6969  1.8159 -0.6780
 9663TIP3    H228954   2.870   0.664   1.344  0.4583  0.4082  1.3703
 9664TIP3   OH228955   5.948   6.121   0.263  0.2010 -0.0438 -0.0947
 9664TIP3    H128956   5.961   6.154   0.174 -1.8507 -0.2196 -0.5162
 9664TIP3    H228957   6.001   6.041   0.267 -1.0674 -1.0549 -1.8394
 9665TIP3   OH228958   5.522   0.178   3.976  0.8459  0.0997  0.1337
 9665TIP3    H128959   5.485   0.214   3.895  1.2447  2.7228  1.0299
 9665TIP3    H228960   5.577   0.106   3.947 -1.1937 -0.8654 -1.6505
 9666TIP3   OH228961   4.454   5.508   2.503  0.0591  0.0490  0.7133
 9666TIP3    H128962   4.534   5.503   2.555  0.4738  1.4271  0.2544
 9666TIP3    H228963   4.407   5.427   2.523  1.9001 -1.1418  0.4371
 9667TIP3   OH228964   6.406   2.695   2.538 -0.5341 -0.2174 -0.0848
 9667TIP3    H128965   6.348   2.654   2.474 -0.0840  0.8676 -1.2348
 9667TIP3    H228966   6.355   2.697   2.619 -1.0279 -1.8483 -0.3150
 9668TIP3   OH228967   5.465   2.703   2.269 -0.0600 -0.0358 -0.4536
 9668TIP3    H128968   5.390   2.682   2.324  0.6744  1.7501  1.3857
 9668TIP3    H228969   5.449   2.793   2.241  2.4121  1.3523  2.0520
 9669TIP3   OH228970   4.614   1.289   4.961  0.5392  0.4345  0.2303
 9669TIP3    H128971   4.666   1.241   5.025 -2.0993 -1.7986  0.9379
 9669TIP3    H228972   4.552   1.340   5.013  0.3649  1.0542 -0.5554
 9670TIP3   OH228973   1.609   1.707   3.728 -0.0477  0.0601  0.1821
 9670TIP3    H128974   1.589   1.614   3.717 -0.7927  0.4152 -2.0000
 9670TIP3    H228975   1.525   1.751   3.713  0.1763  1.0886  1.7242
 9671TIP3   OH228976   6.276   4.599   5.215 -0.4089 -0.2834 -0.2389
 9671TIP3    H128977   6.313   4.521   5.254 -1.4923 -1.1538 -0.8934
 9671TIP3    H228978   6.209   4.628   5.277  0.2349  0.3595  0.1774
 9672TIP3   OH228979   6.161   6.257   5.183 -0.0146  0.3233 -0.4509
 9672TIP3    H128980   6.130   6.290   5.268 -0.0837  1.0389 -0.7482
 9672TIP3    H228981   6.106   6.180   5.166 -0.8976  0.9431 -0.4556
 9673TIP3   OH228982   5.675   4.016   0.200  0.2776 -0.2017  0.0053
 9673TIP3    H128983   5.592   4.060   0.182 -0.5002 -1.5242  0.2114
 9673TIP3    H228984   5.682   4.017   0.296  1.8681  2.2716 -0.0460
 9674TIP3   OH228985   1.898   0.216   4.293  0.0520  0.0733 -0.6373
 9674TIP3    H128986   1.922   0.309   4.288 -1.8789  0.6395 -0.4084
 9674TIP3    H228987   1.900   0.187   4.202  0.7800  0.2943 -0.7004
 9675TIP3   OH228988   5.476   6.442   0.755  0.0234  0.1823  0.2392
 9675TIP3    H128989   5.444   6.354   0.776 -1.7333  0.3562 -1.4368
 9675TIP3    H228990   5.402   6.499   0.776  0.8529  1.1750  0.5246
 9676TIP3   OH228991   0.361   2.482   5.651 -0.7121  0.1244  0.0028
 9676TIP3    H128992   0.393   2.564   5.688  0.1351 -0.4143  0.4893
 9676TIP3    H228993   0.291   2.454   5.711 -2.0077  1.1893 -0.9427
 9677TIP3   OH228994   5.727   5.553   5.623 -0.6991  0.0186  0.0802
 9677TIP3    H128995   5.801   5.583   5.674 -0.5111  0.2845 -0.3405
 9677TIP3    H228996   5.674   5.501   5.684 -0.1400 -0.2183  0.3642
 9678TIP3   OH228997   5.542   1.888   5.153 -0.7120  0.0305  0.1814
 9678TIP3    H128998   5.564   1.897   5.245 -0.9000 -1.9937  0.4508
 9678TIP3    H228999   5.446   1.887   5.150 -0.7086  0.1478 -0.0443
 9679TIP3   OH229000   1.244   4.266   3.706 -0.5250 -0.0562 -0.1675
 9679TIP3    H129001   1.202   4.228   3.629  1.7073 -1.4487 -0.7937
 9679TIP3    H229002   1.200   4.226   3.781 -0.4369 -1.3789 -0.7938
 9680TIP3   OH229003   7.092   2.724   5.414  0.3107 -0.0911  1.0478
 9680TIP3    H129004   7.042   2.754   5.490  0.4471 -0.7152  1.3858
 9680TIP3    H229005   7.106   2.804   5.362 -0.3937  0.2132  1.3165
 9681TIP3   OH229006   2.353   2.034   1.460 -0.2916  0.1254  0.2117
 9681TIP3    H129007   2.423   2.018   1.397 -1.6753 -1.2720 -1.0824
 9681TIP3    H229008   2.298   2.100   1.418 -1.6097 -1.3291 -0.4521
 9682TIP3   OH229009   4.178   1.174   1.113 -0.1096  0.4841 -0.3075
 9682TIP3    H129010   4.125   1.218   1.180 -2.0021 -0.5628 -1.0461
 9682TIP3    H229011   4.138   1.088   1.104  3.0334 -1.2130  0.5624
 9683TIP3   OH229012   6.882   3.820   0.971 -0.5649 -0.3936  0.3081
 9683TIP3    H129013   6.849   3.798   0.884 -0.4032 -1.2040  0.4416
 9683TIP3    H229014   6.941   3.895   0.956 -1.9288  0.6629 -0.0175
 9684TIP3   OH229015   3.581   3.113   5.888 -0.0501 -0.5479  0.4204
 9684TIP3    H129016   3.563   3.132   5.796 -1.2454  1.2587  0.9972
 9684TIP3    H229017   3.589   3.017   5.891  1.2791 -0.5776 -1.7485
 9685TIP3   OH229018   2.675   3.531   4.792 -0.1291  0.1121 -0.2008
 9685TIP3    H129019   2.624   3.457   4.760 -0.9940 -0.1322  1.6051
 9685TIP3    H229020   2.765   3.497   4.800 -0.0503 -0.0335 -1.5494
 9686TIP3   OH229021   3.255   5.429   1.261 -0.4276 -0.1342 -0.7209
 9686TIP3    H129022   3.162   5.420   1.281 -0.5059 -1.6158 -1.5937
 9686TIP3    H229023   3.296   5.452   1.345 -1.6913  1.7645 -0.5567
 9687TIP3   OH229024   3.496   4.571   3.141 -0.6090 -0.2198 -0.1191
 9687TIP3    H129025   3.423   4.586   3.202 -0.0533  3.0003 -0.0384
 9687TIP3    H229026   3.495   4.648   3.085  2.1785 -0.5182 -0.7103
 9688TIP3   OH229027   1.971   3.263   3.734 -0.2309 -0.5886 -0.0364
 9688TIP3    H129028   1.908   3.193   3.720  0.1711 -0.8098 -0.8408
 9688TIP3    H229029   1.919   3.340   3.756 -0.6193 -1.3879  2.0061
 9689TIP3   OH229030   6.533   6.227   4.748  0.7116  0.3806  0.1983
 9689TIP3    H129031   6.503   6.296   4.807 -0.0939 -1.0434  1.5323
 9689TIP3    H229032   6.452   6.185   4.718  1.2089 -0.4356 -0.0301
 9690TIP3   OH229033   7.064   0.951   0.385 -0.1374  1.2127  0.4920
 9690TIP3    H129034   6.993   0.887   0.376  1.0092 -0.0978  0.3337
 9690TIP3    H229035   7.041   1.021   0.324 -1.6280  1.1500  0.9508
 9691TIP3   OH229036   3.663   0.684   5.511  0.2900 -0.1182  0.7264
 9691TIP3    H129037   3.713   0.609   5.478 -2.1117 -1.0381 -1.0470
 9691TIP3    H229038   3.702   0.760   5.468 -0.5571 -0.9430 -1.6047
 9692TIP3   OH229039   7.157   0.511   3.372 -0.4238 -0.3026 -0.1696
 9692TIP3    H129040   7.172   0.603   3.353  2.7346 -0.5970  0.3650
 9692TIP3    H229041   7.198   0.464   3.299 -1.3306 -1.3110 -0.0595
 9693TIP3   OH229042   4.657   6.461   4.307  0.3892 -0.3173 -0.1768
 9693TIP3    H129043   4.723   6.412   4.259  1.6789  1.3152 -0.1560
 9693TIP3    H229044   4.660   6.425   4.396  1.8418  0.2821  0.0289
 9694TIP3   OH229045   1.233   0.813   4.371  0.0266  0.3987  0.1500
 9694TIP3    H129046   1.246   0.907   4.387  0.4582  0.5761 -1.0991
 9694TIP3    H229047   1.171   0.810   4.299  1.0940 -0.2319 -0.7591
 9695TIP3   OH229048   3.920   3.793   4.208  0.3511 -0.0474 -0.0745
 9695TIP3    H129049   3.907   3.769   4.300  1.0998 -3.3564 -0.7156
 9695TIP3    H229050   3.995   3.852   4.209  0.8321 -0.6445  1.3767
 9696TIP3   OH229051   0.413   6.024   1.697  0.3049  0.4739 -0.7819
 9696TIP3    H129052   0.362   6.104   1.695 -0.9802 -0.3113 -0.5251
 9696TIP3    H229053   0.367   5.967   1.759  1.8784 -0.0198 -0.0216
 9697TIP3   OH229054   5.537   1.063   2.017 -0.3910  0.6913 -0.1008
 9697TIP3    H129055   5.445   1.066   2.043 -0.4717  1.3677 -0.4239
 9697TIP3    H229056   5.536   1.087   1.924  0.2726  2.6628  0.3485
 9698TIP3   OH229057   0.799   5.451   3.618 -0.3847 -0.7820  0.0920
 9698TIP3    H129058   0.854   5.373   3.612 -0.2625 -0.7980  1.2856
 9698TIP3    H229059   0.792   5.468   3.712 -1.8952 -0.4123 -0.0705
 9699TIP3   OH229060   2.023   4.566   1.137 -0.1948  0.0571  0.3742
 9699TIP3    H129061   1.992   4.622   1.209 -2.6184  0.7717 -1.1072
 9699TIP3    H229062   1.943   4.527   1.101  1.0224 -0.8519 -1.4904
 9700TIP3   OH229063   4.120   6.177   5.413  0.2659  0.4449 -0.2150
 9700TIP3    H129064   4.053   6.244   5.428  1.1891  1.4457 -0.4238
 9700TIP3    H229065   4.086   6.099   5.458 -1.8676  0.3688 -1.8183
 9701TIP3   OH229066   5.577   5.967   3.430  0.0579 -0.1163 -0.0691
 9701TIP3    H129067   5.574   5.907   3.504  1.2723  0.6226  0.6143
 9701TIP3    H229068   5.639   6.035   3.457 -0.5590  0.9314 -1.1967
 9702TIP3   OH229069   2.949   5.315   4.117 -0.2551 -0.8372 -0.5015
 9702TIP3    H129070   2.887   5.384   4.094  1.3159  0.5742 -0.6730
 9702TIP3    H229071   2.958   5.321   4.212  1.1417  0.3739 -0.6752
 9703TIP3   OH229072   2.900   2.517   2.015 -0.1654 -0.1367 -0.3715
 9703TIP3    H129073   2.909   2.425   2.042  0.0542 -0.2380 -0.7822
 9703TIP3    H229074   2.986   2.540   1.981 -0.0534  0.4037  0.2594
 9704TIP3   OH229075   1.134   0.358   2.681  0.5011  0.2605 -0.2245
 9704TIP3    H129076   1.082   0.284   2.711  0.6649 -0.6948 -2.1404
 9704TIP3    H229077   1.115   0.364   2.587  1.8298  1.5441 -0.4457
 9705TIP3   OH229078   3.968   0.919   4.117 -0.8639 -0.3295  0.0806
 9705TIP3    H129079   3.964   1.014   4.120 -1.6360 -0.3839  1.0458
 9705TIP3    H229080   4.036   0.896   4.180 -2.3553 -0.5084  1.6797
 9706TIP3   OH229081   1.715   4.896   0.506 -0.4576 -0.0845 -0.1548
 9706TIP3    H129082   1.694   4.825   0.566 -0.0770  0.7326  0.9849
 9706TIP3    H229083   1.654   4.966   0.530 -1.5426 -0.3361 -1.9536
 9707TIP3   OH229084   5.804   4.512   4.545  0.3183 -0.3725 -0.2300
 9707TIP3    H129085   5.728   4.563   4.572  0.5752 -0.5088  0.8297
 9707TIP3    H229086   5.879   4.569   4.565  0.5296 -0.5136 -0.6069
 9708TIP3   OH229087   4.358   0.532   2.297 -0.2584 -0.4984  0.1011
 9708TIP3    H129088   4.300   0.594   2.342  0.9866  0.7631  0.0450
 9708TIP3    H229089   4.385   0.578   2.218  1.0875 -0.9091  0.2972
 9709TIP3   OH229090   2.079   4.585   1.793 -0.3531 -0.4040  0.0773
 9709TIP3    H129091   2.174   4.581   1.779 -0.3679  0.5357 -0.3352
 9709TIP3    H229092   2.042   4.569   1.706 -0.5418  0.6845 -0.0445
 9710TIP3   OH229093   6.927   5.791   4.728  0.3659 -0.4732  0.1198
 9710TIP3    H129094   6.970   5.796   4.813  0.0216 -0.2674  0.2816
 9710TIP3    H229095   6.997   5.765   4.667  0.9387  0.8143  0.2046
 9711TIP3   OH229096   3.467   5.978   5.860  0.7158  0.0681 -0.0608
 9711TIP3    H129097   3.497   5.901   5.909 -1.1656  0.2045  1.4021
 9711TIP3    H229098   3.379   5.955   5.830  0.7820  1.0384 -1.0642
 9712TIP3   OH229099   1.423   0.242   5.162  0.8644 -0.0890  0.0579
 9712TIP3    H129100   1.458   0.319   5.117  1.6232 -0.9011 -0.7873
 9712TIP3    H229101   1.454   0.251   5.252  0.5983  0.7936  0.0684
 9713TIP3   OH229102   4.527   6.658   5.719 -0.2084  0.0457  0.0783
 9713TIP3    H129103   4.598   6.600   5.693  0.0573  0.3475  0.1205
 9713TIP3    H229104   4.569   6.723   5.775 -0.7191 -0.4295  1.0404
 9714TIP3   OH229105   6.533   5.875   3.711 -0.3534 -0.2605  0.4337
 9714TIP3    H129106   6.477   5.945   3.677  1.0821  0.9673  0.4793
 9714TIP3    H229107   6.500   5.795   3.669 -1.9118  0.4545  0.2281
 9715TIP3   OH229108   6.673   2.924   0.189  0.1992 -0.2910 -0.2319
 9715TIP3    H129109   6.754   2.955   0.228 -0.3800  2.0423 -0.7433
 9715TIP3    H229110   6.606   2.987   0.217 -1.4087 -1.9590 -0.0827
 9716TIP3   OH229111   0.476   2.340   0.268 -0.3502 -0.0592 -0.3706
 9716TIP3    H129112   0.411   2.279   0.301 -0.1583  0.6492  1.4772
 9716TIP3    H229113   0.533   2.357   0.343 -0.4787  2.4679 -0.7325
 9717TIP3   OH229114   4.816   5.288   2.543  0.3209  0.1825  0.3189
 9717TIP3    H129115   4.815   5.288   2.639  1.3461 -0.7979  0.3478
 9717TIP3    H229116   4.801   5.380   2.519  0.5778  0.5302  1.4246
 9718TIP3   OH229117   2.143   2.696   1.310 -0.4875  0.3983  0.1076
 9718TIP3    H129118   2.066   2.740   1.347 -0.0191  1.2998  0.0315
 9718TIP3    H229119   2.218   2.740   1.351 -0.0073 -0.4347  0.1392
 9719TIP3   OH229120   6.673   6.389   3.436 -0.2601 -0.3683  0.3661
 9719TIP3    H129121   6.668   6.442   3.515 -0.3919  1.6171 -0.8913
 9719TIP3    H229122   6.605   6.424   3.379 -1.1291 -2.6865 -0.1413
 9720TIP3   OH229123   3.551   3.040   2.243  0.4124 -0.0235 -0.0562
 9720TIP3    H129124   3.625   2.982   2.259 -1.3012 -2.4551 -0.4204
 9720TIP3    H229125   3.561   3.069   2.153  0.1462 -1.6259 -0.6349
 9721TIP3   OH229126   3.116   2.852   5.554 -0.4086  0.1812 -0.1432
 9721TIP3    H129127   3.021   2.858   5.551 -0.5154 -1.4056 -0.8626
 9721TIP3    H229128   3.141   2.905   5.630 -2.1089 -1.6416  1.8172
 9722TIP3   OH229129   0.435   5.077   5.656  0.2488  0.2349  0.5267
 9722TIP3    H129130   0.466   5.006   5.712 -0.2022  0.0822  0.5804
 9722TIP3    H229131   0.435   5.155   5.712  0.9434  0.3259  0.4117
 9723TIP3   OH229132   6.968   2.781   0.425 -0.2093  0.0831  0.3021
 9723TIP3    H129133   6.907   2.713   0.395 -1.0386 -0.1616  2.3861
 9723TIP3    H229134   7.054   2.747   0.403 -0.6783 -1.0435  0.1292
 9724TIP3   OH229135   0.429   0.511   3.327  0.2246 -0.0269  0.0498
 9724TIP3    H129136   0.513   0.543   3.294 -0.2451  0.3250 -0.8250
 9724TIP3    H229137   0.377   0.589   3.343  0.2267 -0.2171  1.0968
 9725TIP3   OH229138   0.364   5.054   4.389  0.4971  0.1312  0.0865
 9725TIP3    H129139   0.304   5.006   4.331 -0.7874 -0.4343  1.7821
 9725TIP3    H229140   0.390   4.990   4.455  3.0703  0.3599 -0.5987
 9726TIP3   OH229141   3.679   5.158   2.404  0.1002  0.0779  0.4271
 9726TIP3    H129142   3.676   5.240   2.354  1.4396 -0.0410  0.1110
 9726TIP3    H229143   3.625   5.175   2.481 -1.2306  0.5955 -0.5693
 9727TIP3   OH229144   1.088   4.475   1.577 -0.0743  0.1125  0.2736
 9727TIP3    H129145   1.004   4.490   1.534 -0.6097 -0.2539  1.1477
 9727TIP3    H229146   1.104   4.381   1.565  0.4705  0.2753 -0.3279
 9728TIP3   OH229147   3.609   5.130   5.459 -0.0578 -0.3089 -0.0427
 9728TIP3    H129148   3.593   5.214   5.501 -1.8357 -0.6010 -0.0208
 9728TIP3    H229149   3.521   5.100   5.432  0.5745 -1.9548 -0.4111
 9729TIP3   OH229150   7.056   5.236   0.111 -0.4414  0.6665  0.1872
 9729TIP3    H129151   7.142   5.204   0.085 -1.0024 -2.1157  1.3848
 9729TIP3    H229152   7.024   5.286   0.035  0.2119 -2.3893 -2.2888
 9730TIP3   OH229153   2.391   6.787   0.958 -0.0387 -0.8174  0.1242
 9730TIP3    H129154   2.453   6.726   0.918 -0.3470 -1.9020  1.2711
 9730TIP3    H229155   2.343   6.735   1.022 -0.7604  0.4815  0.6744
 9731TIP3   OH229156   1.133   1.286   5.462  0.6072 -0.0422 -0.0822
 9731TIP3    H129157   1.130   1.192   5.477 -0.0008 -0.1464 -0.8046
 9731TIP3    H229158   1.223   1.304   5.435  1.2057 -0.1406  1.7031
 9732TIP3   OH229159   6.054   5.705   1.450 -0.3413  0.6198  0.0965
 9732TIP3    H129160   6.049   5.638   1.518  1.2422  0.7451  0.3899
 9732TIP3    H229161   6.134   5.684   1.402 -1.2525  0.7330 -1.5413
 9733TIP3   OH229162   1.483   1.974   1.907 -0.5263 -0.7682  0.2915
 9733TIP3    H129163   1.451   1.988   1.996  0.0020 -1.6933  0.6387
 9733TIP3    H229164   1.405   1.972   1.853 -0.7681  4.0859  0.0125
 9734TIP3   OH229165   1.346   3.229   4.911 -0.2798  0.3449 -0.1345
 9734TIP3    H129166   1.417   3.185   4.958 -0.3342  0.6127  0.1999
 9734TIP3    H229167   1.328   3.172   4.837  0.4453  0.3930 -0.3543
 9735TIP3   OH229168   4.450   5.680   5.715 -0.0025 -0.4302 -0.7968
 9735TIP3    H129169   4.443   5.764   5.670 -0.1892 -0.7371 -1.3655
 9735TIP3    H229170   4.509   5.695   5.788  0.1184  0.1430 -1.0135
 9736TIP3   OH229171   0.334   4.641   1.985 -0.0074 -0.7142  0.7901
 9736TIP3    H129172   0.253   4.688   2.005  0.8866  1.0079  0.5145
 9736TIP3    H229173   0.403   4.704   2.003  1.2251 -1.7421 -0.1954
 9737TIP3   OH229174   1.069   0.367   1.443  0.5457  0.3134 -0.2565
 9737TIP3    H129175   1.056   0.377   1.537  0.8632  1.0298 -0.2834
 9737TIP3    H229176   1.145   0.422   1.423 -1.4574  2.8557 -1.4663
 9738TIP3   OH229177   1.506   2.011   5.640 -0.2230 -0.1542  0.3738
 9738TIP3    H129178   1.519   2.089   5.694  0.9920 -1.1495  1.6056
 9738TIP3    H229179   1.464   1.948   5.698 -2.6251  0.0207 -1.0490
 9739TIP3   OH229180   3.810   1.718   2.037  0.0836 -0.6520 -0.2527
 9739TIP3    H129181   3.840   1.807   2.021 -0.7075 -0.1761  0.7257
 9739TIP3    H229182   3.859   1.664   1.976 -1.2145  0.7322 -2.6921
 9740TIP3   OH229183   5.522   4.369   4.585  0.1312 -0.3517 -0.3191
 9740TIP3    H129184   5.463   4.358   4.510 -1.7257 -1.7654  1.2276
 9740TIP3    H229185   5.530   4.463   4.595 -2.9967 -0.0153  0.1275
 9741TIP3   OH229186   1.434   2.193   3.412 -0.3386 -0.2670  0.0753
 9741TIP3    H129187   1.474   2.279   3.402 -0.4836 -0.1281  0.6767
 9741TIP3    H229188   1.358   2.194   3.353 -2.3129  1.2274  2.4871
 9742TIP3   OH229189   0.275   3.282   3.942 -0.1564 -0.1758  0.3690
 9742TIP3    H129190   0.317   3.203   3.975  0.5972  0.6067  1.3086
 9742TIP3    H229191   0.216   3.310   4.012  1.3126  1.3869  1.0602
 9743TIP3   OH229192   0.080   5.131   2.485  0.7960  0.3887  0.2385
 9743TIP3    H129193   0.173   5.107   2.496  0.7511  0.5717  1.0555
 9743TIP3    H229194   0.037   5.048   2.466  1.0498  0.2174  0.3984
 9744TIP3   OH229195   0.721   3.184   1.905  0.3846 -0.6424  0.3929
 9744TIP3    H129196   0.640   3.232   1.889 -0.4270 -1.6847  1.2527
 9744TIP3    H229197   0.715   3.107   1.848  1.1407 -0.3440 -0.1116
 9745TIP3   OH229198   5.662   6.160   3.820  0.0591 -0.2988  0.0214
 9745TIP3    H129199   5.593   6.152   3.886  0.9285  0.9656  1.1355
 9745TIP3    H229200   5.724   6.223   3.857  1.0477 -0.2436 -1.6164
 9746TIP3   OH229201   5.702   3.150   2.316  0.0506  0.1074 -0.3393
 9746TIP3    H129202   5.677   3.114   2.401  2.0641  1.9735  1.1455
 9746TIP3    H229203   5.628   3.206   2.290  0.0818  0.8091  1.0122
 9747TIP3   OH229204   6.395   1.546   4.276  0.2944 -0.4356 -0.7950
 9747TIP3    H129205   6.386   1.460   4.235 -1.0739 -1.4703  1.5120
 9747TIP3    H229206   6.392   1.529   4.370  0.1611  2.1238 -0.2545
 9748TIP3   OH229207   5.207   4.278   1.904 -0.5255  0.1715  0.2895
 9748TIP3    H129208   5.290   4.317   1.876 -0.7084 -0.3174 -0.9771
 9748TIP3    H229209   5.164   4.348   1.954  0.5903  0.4589  0.8890
 9749TIP3   OH229210   6.973   0.003   0.349 -0.1853 -0.0404 -0.2723
 9749TIP3    H129211   7.045   0.056   0.384 -0.6194 -0.1974  0.9372
 9749TIP3    H229212   6.896   0.037   0.394 -0.9165  0.3089 -1.7566
   7.21012   6.79778   5.88704   0.00000   0.00000  -2.40338   0.00000  -2.40338  -3.39888
