Title t=  49.00000 step= 24500
46055
    1GLY      N    1   3.183   2.515   1.071
    1GLY    HT1    2   3.287   2.517   1.077
    1GLY    HT2    3   3.152   2.468   0.983
    1GLY    HT3    4   3.140   2.469   1.153
    1GLY     CA    5   3.138   2.660   1.079
    1GLY    HA1    6   3.032   2.667   1.058
    1GLY    HA2    7   3.185   2.713   0.998
    1GLY      C    8   3.172   2.711   1.221
    1GLY      O    9   3.225   2.632   1.296
    2PRO      N   10   3.152   2.841   1.256
    2PRO     CD   11   3.143   2.953   1.170
    2PRO    HD1   12   3.045   2.960   1.118
    2PRO    HD2   13   3.234   2.947   1.106
    2PRO     CA   14   3.186   2.889   1.391
    2PRO     HA   15   3.293   2.875   1.400
    2PRO     CB   16   3.142   3.037   1.395
    2PRO    HB1   17   3.195   3.091   1.477
    2PRO    HB2   18   3.033   3.033   1.418
    2PRO     CG   19   3.168   3.083   1.257
    2PRO    HG1   20   3.113   3.169   1.213
    2PRO    HG2   21   3.275   3.113   1.255
    2PRO      C   22   3.135   2.806   1.509
    2PRO      O   23   3.017   2.766   1.510
    3GLY      N   24   3.220   2.785   1.612
    3GLY     HN   25   3.313   2.812   1.589
    3GLY     CA   26   3.193   2.723   1.740
    3GLY    HA1   27   3.288   2.726   1.793
    3GLY    HA2   28   3.156   2.625   1.715
    3GLY      C   29   3.091   2.795   1.822
    3GLY      O   30   3.079   2.917   1.815
    4ALA      N   31   3.018   2.723   1.915
    4ALA     HN   32   3.011   2.623   1.917
    4ALA     CA   33   2.938   2.784   2.016
    4ALA     HA   34   2.845   2.803   1.965
    4ALA     CB   35   2.915   2.689   2.133
    4ALA    HB1   36   2.993   2.708   2.210
    4ALA    HB2   37   2.918   2.583   2.100
    4ALA    HB3   38   2.817   2.703   2.184
    4ALA      C   39   2.980   2.921   2.076
    4ALA      O   40   3.100   2.943   2.093
    5PRO      N   41   2.883   3.008   2.113
    5PRO     CD   42   2.736   3.000   2.091
    5PRO    HD1   43   2.697   2.951   2.182
    5PRO    HD2   44   2.695   2.963   1.994
    5PRO     CA   45   2.917   3.140   2.165
    5PRO     HA   46   2.975   3.186   2.085
    5PRO     CB   47   2.786   3.201   2.195
    5PRO    HB1   48   2.784   3.312   2.199
    5PRO    HB2   49   2.749   3.171   2.295
    5PRO     CG   50   2.699   3.148   2.088
    5PRO    HG1   51   2.590   3.163   2.100
    5PRO    HG2   52   2.736   3.194   1.994
    5PRO      C   53   3.016   3.149   2.280
    5PRO      O   54   3.023   3.057   2.362
    6GLY      N   55   3.074   3.265   2.297
    6GLY     HN   56   3.054   3.342   2.236
    6GLY     CA   57   3.131   3.298   2.425
    6GLY    HA1   58   3.184   3.392   2.419
    6GLY    HA2   59   3.184   3.213   2.466
    6GLY      C   60   3.027   3.334   2.526
    6GLY      O   61   2.911   3.330   2.499
    7PRO      N   62   3.066   3.383   2.642
    7PRO     CD   63   3.203   3.360   2.696
    7PRO    HD1   64   3.280   3.404   2.630
    7PRO    HD2   65   3.207   3.250   2.702
    7PRO     CA   66   2.976   3.415   2.749
    7PRO     HA   67   2.886   3.355   2.742
    7PRO     CB   68   3.048   3.400   2.887
    7PRO    HB1   69   3.041   3.300   2.935
    7PRO    HB2   70   3.014   3.475   2.962
    7PRO     CG   71   3.194   3.423   2.840
    7PRO    HG1   72   3.206   3.534   2.840
    7PRO    HG2   73   3.263   3.376   2.912
    7PRO      C   74   2.926   3.558   2.731
    7PRO      O   75   2.977   3.644   2.656
    8GLY      N   76   2.824   3.590   2.819
    8GLY     HN   77   2.802   3.516   2.882
    8GLY     CA   78   2.759   3.722   2.821
    8GLY    HA1   79   2.680   3.716   2.895
    8GLY    HA2   80   2.736   3.745   2.718
    8GLY      C   81   2.850   3.827   2.880
    8GLY      O   82   2.967   3.811   2.911
    9ALA      N   83   2.793   3.942   2.912
    9ALA     HN   84   2.702   3.965   2.880
    9ALA     CA   85   2.858   4.043   2.986
    9ALA     HA   86   2.951   4.055   2.932
    9ALA     CB   87   2.765   4.165   2.985
    9ALA    HB1   88   2.739   4.215   2.889
    9ALA    HB2   89   2.813   4.249   3.040
    9ALA    HB3   90   2.664   4.147   3.028
    9ALA      C   91   2.903   4.010   3.134
    9ALA      O   92   2.824   3.958   3.213
   10PRO      N   93   3.018   4.047   3.181
   10PRO     CD   94   3.128   4.072   3.092
   10PRO    HD1   95   3.124   4.161   3.026
   10PRO    HD2   96   3.158   3.981   3.036
   10PRO     CA   97   3.052   4.076   3.320
   10PRO     HA   98   3.066   3.979   3.363
   10PRO     CB   99   3.179   4.160   3.302
   10PRO    HB1  100   3.239   4.151   3.395
   10PRO    HB2  101   3.150   4.267   3.293
   10PRO     CG  102   3.251   4.103   3.181
   10PRO    HG1  103   3.321   4.176   3.135
   10PRO    HG2  104   3.313   4.013   3.198
   10PRO      C  105   2.941   4.152   3.396
   10PRO      O  106   2.869   4.228   3.336
   11GLY      N  107   2.916   4.125   3.525
   11GLY     HN  108   2.989   4.071   3.567
   11GLY     CA  109   2.791   4.165   3.599
   11GLY    HA1  110   2.774   4.081   3.665
   11GLY    HA2  111   2.709   4.171   3.528
   11GLY      C  112   2.789   4.298   3.667
   11GLY      O  113   2.871   4.380   3.627
   12PRO      N  114   2.698   4.327   3.756
   12PRO     CD  115   2.591   4.237   3.785
   12PRO    HD1  116   2.644   4.166   3.851
   12PRO    HD2  117   2.548   4.183   3.698
   12PRO     CA  118   2.688   4.454   3.831
   12PRO     HA  119   2.696   4.542   3.769
   12PRO     CB  120   2.554   4.446   3.903
   12PRO    HB1  121   2.496   4.541   3.896
   12PRO    HB2  122   2.573   4.429   4.011
   12PRO     CG  123   2.481   4.325   3.848
   12PRO    HG1  124   2.428   4.263   3.923
   12PRO    HG2  125   2.404   4.359   3.775
   12PRO      C  126   2.809   4.462   3.922
   12PRO      O  127   2.845   4.362   3.983
   13GLY      N  128   2.877   4.579   3.935
   13GLY     HN  129   2.839   4.654   3.881
   13GLY     CA  130   2.974   4.609   4.038
   13GLY    HA1  131   3.019   4.700   4.002
   13GLY    HA2  132   3.029   4.517   4.052
   13GLY      C  133   2.901   4.641   4.170
   13GLY      O  134   2.780   4.614   4.176
   14ALA      N  135   2.972   4.686   4.275
   14ALA     HN  136   3.071   4.692   4.270
   14ALA     CA  137   2.903   4.724   4.393
   14ALA     HA  138   2.856   4.636   4.433
   14ALA     CB  139   3.007   4.779   4.491
   14ALA    HB1  140   3.081   4.697   4.504
   14ALA    HB2  141   2.959   4.782   4.591
   14ALA    HB3  142   3.059   4.868   4.452
   14ALA      C  143   2.806   4.843   4.376
   14ALA      O  144   2.844   4.940   4.306
   15PRO      N  145   2.694   4.839   4.435
   15PRO     CD  146   2.625   4.717   4.471
   15PRO    HD1  147   2.648   4.688   4.576
   15PRO    HD2  148   2.647   4.636   4.399
   15PRO     CA  149   2.618   4.956   4.465
   15PRO     HA  150   2.617   5.022   4.379
   15PRO     CB  151   2.478   4.895   4.497
   15PRO    HB1  152   2.401   4.961   4.451
   15PRO    HB2  153   2.454   4.907   4.605
   15PRO     CG  154   2.483   4.755   4.442
   15PRO    HG1  155   2.418   4.689   4.504
   15PRO    HG2  156   2.458   4.757   4.333
   15PRO      C  157   2.688   5.023   4.582
   15PRO    OT1  158   2.685   4.969   4.696
   15PRO    OT2  159   2.748   5.133   4.574
   16LIT    LIT  160   5.204   5.166   2.661
   17LIT    LIT  161   3.035   6.083   4.897
   18LIT    LIT  162   6.165   5.416   6.643
   19LIT    LIT  163   5.547   5.729   1.404
   20LIT    LIT  164   3.694   6.582   2.520
   21LIT    LIT  165   0.135   4.648   2.909
   22LIT    LIT  166   0.484   7.832   3.744
   23LIT    LIT  167   7.079   4.185   4.002
   24LIT    LIT  168   5.682   5.906   3.101
   25LIT    LIT  169   4.668   0.272   6.381
   26LIT    LIT  170   6.886   2.175   3.572
   27LIT    LIT  171   7.471   3.981   1.856
   28LIT    LIT  172   1.052   5.748   4.913
   29LIT    LIT  173   4.373   1.150   2.473
   30LIT    LIT  174   4.292   4.098   2.446
   31LIT    LIT  175   6.983   2.830   4.771
   32LIT    LIT  176   1.236   3.880   4.599
   33LIT    LIT  177   5.116   7.061   2.828
   34LIT    LIT  178   0.598   4.750   1.281
   35LIT    LIT  179   8.078   0.431   4.161
   36LIT    LIT  180   7.781   6.611   5.781
   37LIT    LIT  181   1.537   5.636   2.810
   38LIT    LIT  182   0.912   6.104   2.182
   39LIT    LIT  183   3.850   1.244   5.591
   40LIT    LIT  184   0.213   5.731   5.608
   41LIT    LIT  185   1.845   2.196   5.153
   42LIT    LIT  186   6.822   4.998   1.453
   43LIT    LIT  187   0.153   6.677   1.029
   44LIT    LIT  188   4.636   7.683   1.085
   45LIT    LIT  189   8.385   6.155   2.812
   46LIT    LIT  190   0.853   4.384   3.375
   47LIT    LIT  191   1.534   1.132   1.079
   48LIT    LIT  192   1.205   6.749   2.261
   49LIT    LIT  193   5.558   7.860   6.652
   50LIT    LIT  194   4.047   4.679   1.902
   51LIT    LIT  195   3.998   7.550   0.138
   52LIT    LIT  196   7.537   1.241   5.273
   53LIT    LIT  197   4.909   6.001   5.070
   54LIT    LIT  198   5.001   2.513   5.400
   55LIT    LIT  199   3.386   0.791   3.094
   56LIT    LIT  200   7.290   6.126   2.191
   57LIT    LIT  201   0.512   0.273   6.417
   58LIT    LIT  202   2.831   5.093   4.747
   59CLA    CLA  203   3.306   5.508   1.996
   60CLA    CLA  204   3.450   6.417   4.293
   61CLA    CLA  205   5.212   6.434   0.810
   62CLA    CLA  206   2.893   7.430   4.569
   63CLA    CLA  207   2.160   6.954   2.921
   64CLA    CLA  208   3.178   6.579   5.238
   65CLA    CLA  209   0.825   2.507   6.739
   66CLA    CLA  210   1.753   6.093   0.251
   67CLA    CLA  211   6.475   5.172   4.010
   68CLA    CLA  212   6.957   4.403   2.640
   69CLA    CLA  213   5.129   7.849   4.630
   70CLA    CLA  214   5.688   0.413   0.160
   71CLA    CLA  215   0.361   3.156   2.150
   72CLA    CLA  216   7.496   5.324   6.358
   73CLA    CLA  217   0.949   5.863   5.082
   74CLA    CLA  218   4.491   7.657   1.549
   75CLA    CLA  219   5.883   5.544   5.555
   76CLA    CLA  220   0.422   2.851   1.004
   77CLA    CLA  221   4.624   3.052   4.975
   78CLA    CLA  222   7.727   0.826   5.426
   79CLA    CLA  223   6.794   4.995   2.144
   80CLA    CLA  224   7.717   5.798   1.069
   81CLA    CLA  225   2.213   1.930   1.772
   82CLA    CLA  226   4.615   4.314   2.576
   83CLA    CLA  227   8.063   6.351   3.623
   84CLA    CLA  228   0.664   6.774   3.048
   85CLA    CLA  229   0.362   6.563   2.707
   86CLA    CLA  230   7.142   3.638   6.797
   87CLA    CLA  231   1.797   1.203   5.492
   88CLA    CLA  232   5.760   5.244   2.545
   89CLA    CLA  233   7.303   7.121   6.775
   90CLA    CLA  234   3.720   6.264   1.091
   91CLA    CLA  235   8.026   0.282   0.087
   92CLA    CLA  236   5.484   4.788   1.358
   93CLA    CLA  237   3.275   1.347   5.382
   94CLA    CLA  238   6.188   7.047   5.118
   95CLA    CLA  239   2.731   0.497   1.421
   96CLA    CLA  240   5.889   1.408   3.911
   97CLA    CLA  241   1.902   2.277   4.480
   98CLA    CLA  242   6.628   4.205   6.084
   99CLA    CLA  243   0.715   4.520   2.612
  100CLA    CLA  244   0.079   4.020   0.257
  101CLA    CLA  245   1.527   0.969   0.923
  102TIP3   OH2  246   4.008   4.200   4.369
  102TIP3    H1  247   4.051   4.115   4.382
  102TIP3    H2  248   4.077   4.264   4.384
  103TIP3   OH2  249   7.473   4.846   5.641
  103TIP3    H1  250   7.412   4.906   5.598
  103TIP3    H2  251   7.453   4.761   5.603
  104TIP3   OH2  252   3.556   3.556   5.227
  104TIP3    H1  253   3.534   3.647   5.247
  104TIP3    H2  254   3.634   3.562   5.171
  105TIP3   OH2  255   6.225   2.888   0.121
  105TIP3    H1  256   6.314   2.857   0.102
  105TIP3    H2  257   6.236   2.981   0.141
  106TIP3   OH2  258   1.810   6.748   1.735
  106TIP3    H1  259   1.754   6.688   1.784
  106TIP3    H2  260   1.853   6.801   1.801
  107TIP3   OH2  261   5.685   6.057   6.878
  107TIP3    H1  262   5.773   6.092   6.867
  107TIP3    H2  263   5.679   5.988   6.812
  108TIP3   OH2  264   3.651   6.007   0.904
  108TIP3    H1  265   3.679   6.089   0.944
  108TIP3    H2  266   3.733   5.960   0.886
  109TIP3   OH2  267   5.024   6.954   3.998
  109TIP3    H1  268   4.986   6.883   3.947
  109TIP3    H2  269   4.951   7.015   4.012
  110TIP3   OH2  270   4.633   3.332   1.691
  110TIP3    H1  271   4.570   3.276   1.737
  110TIP3    H2  272   4.709   3.275   1.676
  111TIP3   OH2  273   4.404   2.099   5.672
  111TIP3    H1  274   4.357   2.109   5.589
  111TIP3    H2  275   4.455   2.019   5.660
  112TIP3   OH2  276   3.189   5.158   3.192
  112TIP3    H1  277   3.147   5.241   3.212
  112TIP3    H2  278   3.282   5.180   3.181
  113TIP3   OH2  279   4.033   6.648   0.793
  113TIP3    H1  280   4.115   6.641   0.840
  113TIP3    H2  281   3.970   6.599   0.847
  114TIP3   OH2  282   3.744   3.260   3.261
  114TIP3    H1  283   3.772   3.206   3.187
  114TIP3    H2  284   3.775   3.348   3.238
  115TIP3   OH2  285   7.337   1.288   6.706
  115TIP3    H1  286   7.359   1.196   6.722
  115TIP3    H2  287   7.283   1.286   6.627
  116TIP3   OH2  288   2.441   1.002   4.897
  116TIP3    H1  289   2.354   0.962   4.904
  116TIP3    H2  290   2.483   0.982   4.981
  117TIP3   OH2  291   6.123   7.593   0.029
  117TIP3    H1  292   6.088   7.510   0.060
  117TIP3    H2  293   6.216   7.590   0.049
  118TIP3   OH2  294   0.295   2.366   5.861
  118TIP3    H1  295   0.294   2.279   5.823
  118TIP3    H2  296   0.218   2.369   5.917
  119TIP3   OH2  297   6.130   5.722   6.150
  119TIP3    H1  298   6.149   5.726   6.057
  119TIP3    H2  299   6.194   5.781   6.191
  120TIP3   OH2  300   5.652   1.069   2.503
  120TIP3    H1  301   5.612   1.122   2.571
  120TIP3    H2  302   5.727   1.120   2.474
  121TIP3   OH2  303   0.469   5.611   6.294
  121TIP3    H1  304   0.439   5.686   6.345
  121TIP3    H2  305   0.413   5.539   6.321
  122TIP3   OH2  306   0.307   2.035   1.955
  122TIP3    H1  307   0.366   1.962   1.940
  122TIP3    H2  308   0.293   2.074   1.869
  123TIP3   OH2  309   6.162   7.028   2.770
  123TIP3    H1  310   6.223   6.995   2.703
  123TIP3    H2  311   6.076   7.016   2.732
  124TIP3   OH2  312   6.090   3.976   3.710
  124TIP3    H1  313   6.134   4.008   3.788
  124TIP3    H2  314   5.999   4.004   3.720
  125TIP3   OH2  315   3.722   5.850   6.568
  125TIP3    H1  316   3.651   5.889   6.619
  125TIP3    H2  317   3.690   5.852   6.478
  126TIP3   OH2  318   0.668   2.878   0.817
  126TIP3    H1  319   0.626   2.849   0.737
  126TIP3    H2  320   0.596   2.892   0.879
  127TIP3   OH2  321   2.521   0.446   3.992
  127TIP3    H1  322   2.498   0.539   3.988
  127TIP3    H2  323   2.611   0.442   3.960
  128TIP3   OH2  324   7.483   2.999   3.606
  128TIP3    H1  325   7.416   3.003   3.538
  128TIP3    H2  326   7.539   3.074   3.590
  129TIP3   OH2  327   6.679   6.908   2.829
  129TIP3    H1  328   6.590   6.932   2.801
  129TIP3    H2  329   6.673   6.814   2.848
  130TIP3   OH2  330   0.425   7.852   6.415
  130TIP3    H1  331   0.477   7.837   6.494
  130TIP3    H2  332   0.458   7.786   6.353
  131TIP3   OH2  333   5.507   1.294   6.363
  131TIP3    H1  334   5.445   1.342   6.307
  131TIP3    H2  335   5.495   1.332   6.450
  132TIP3   OH2  336   7.015   1.671   5.597
  132TIP3    H1  337   7.080   1.602   5.607
  132TIP3    H2  338   7.028   1.703   5.508
  133TIP3   OH2  339   6.256   0.355   1.477
  133TIP3    H1  340   6.252   0.420   1.548
  133TIP3    H2  341   6.165   0.342   1.451
  134TIP3   OH2  342   7.215   2.201   6.449
  134TIP3    H1  343   7.209   2.226   6.541
  134TIP3    H2  344   7.125   2.210   6.416
  135TIP3   OH2  345   1.261   7.340   5.450
  135TIP3    H1  346   1.222   7.297   5.526
  135TIP3    H2  347   1.186   7.376   5.403
  136TIP3   OH2  348   0.495   1.978   0.513
  136TIP3    H1  349   0.504   2.064   0.555
  136TIP3    H2  350   0.577   1.965   0.466
  137TIP3   OH2  351   6.806   5.588   3.075
  137TIP3    H1  352   6.876   5.528   3.048
  137TIP3    H2  353   6.843   5.675   3.062
  138TIP3   OH2  354   5.454   2.325   6.727
  138TIP3    H1  355   5.493   2.288   6.648
  138TIP3    H2  356   5.487   2.415   6.730
  139TIP3   OH2  357   2.942   5.423   0.026
  139TIP3    H1  358   3.023   5.402  -0.019
  139TIP3    H2  359   2.957   5.510   0.064
  140TIP3   OH2  360   4.615   7.340   1.798
  140TIP3    H1  361   4.614   7.407   1.866
  140TIP3    H2  362   4.707   7.317   1.788
  141TIP3   OH2  363   3.834   2.244   6.197
  141TIP3    H1  364   3.799   2.323   6.156
  141TIP3    H2  365   3.773   2.225   6.268
  142TIP3   OH2  366   1.201   6.494   5.203
  142TIP3    H1  367   1.139   6.425   5.227
  142TIP3    H2  368   1.198   6.555   5.276
  143TIP3   OH2  369   3.751   7.875   6.033
  143TIP3    H1  370   3.768   7.821   6.110
  143TIP3    H2  371   3.762   7.965   6.064
  144TIP3   OH2  372   1.103   0.762   5.762
  144TIP3    H1  373   1.078   0.835   5.819
  144TIP3    H2  374   1.059   0.686   5.799
  145TIP3   OH2  375   2.640   5.955   4.165
  145TIP3    H1  376   2.544   5.950   4.163
  145TIP3    H2  377   2.669   5.887   4.105
  146TIP3   OH2  378   1.483   4.482   5.208
  146TIP3    H1  379   1.524   4.501   5.124
  146TIP3    H2  380   1.389   4.488   5.191
  147TIP3   OH2  381   0.090   6.156   5.080
  147TIP3    H1  382   0.031   6.139   5.153
  147TIP3    H2  383   0.067   6.244   5.051
  148TIP3   OH2  384   5.591   5.503   2.632
  148TIP3    H1  385   5.523   5.442   2.661
  148TIP3    H2  386   5.671   5.450   2.628
  149TIP3   OH2  387   4.871   4.129   1.205
  149TIP3    H1  388   4.803   4.088   1.151
  149TIP3    H2  389   4.840   4.119   1.295
  150TIP3   OH2  390   5.626   3.731   4.819
  150TIP3    H1  391   5.699   3.772   4.772
  150TIP3    H2  392   5.572   3.691   4.751
  151TIP3   OH2  393   3.648   5.392   2.511
  151TIP3    H1  394   3.723   5.350   2.553
  151TIP3    H2  395   3.673   5.485   2.507
  152TIP3   OH2  396   7.752   2.659   4.720
  152TIP3    H1  397   7.820   2.598   4.747
  152TIP3    H2  398   7.780   2.743   4.757
  153TIP3   OH2  399   7.970   1.933   1.019
  153TIP3    H1  400   7.895   1.903   1.071
  153TIP3    H2  401   7.979   1.867   0.950
  154TIP3   OH2  402   4.767   4.223   5.030
  154TIP3    H1  403   4.760   4.163   5.104
  154TIP3    H2  404   4.847   4.272   5.047
  155TIP3   OH2  405   2.380   2.126   4.754
  155TIP3    H1  406   2.429   2.127   4.672
  155TIP3    H2  407   2.393   2.038   4.790
  156TIP3   OH2  408   6.783   7.152   4.632
  156TIP3    H1  409   6.774   7.119   4.542
  156TIP3    H2  410   6.772   7.074   4.687
  157TIP3   OH2  411   1.080   0.078   1.654
  157TIP3    H1  412   1.013   0.134   1.692
  157TIP3    H2  413   1.047  -0.011   1.666
  158TIP3   OH2  414   2.084   2.345   1.108
  158TIP3    H1  415   2.009   2.292   1.081
  158TIP3    H2  416   2.056   2.386   1.190
  159TIP3   OH2  417   6.260   6.431   4.241
  159TIP3    H1  418   6.184   6.429   4.300
  159TIP3    H2  419   6.222   6.449   4.155
  160TIP3   OH2  420   0.093   3.933   5.751
  160TIP3    H1  421   0.087   3.838   5.763
  160TIP3    H2  422   0.155   3.962   5.818
  161TIP3   OH2  423   1.866   7.486   3.760
  161TIP3    H1  424   1.791   7.539   3.788
  161TIP3    H2  425   1.930   7.550   3.729
  162TIP3   OH2  426   5.198   3.380   3.070
  162TIP3    H1  427   5.287   3.345   3.070
  162TIP3    H2  428   5.162   3.354   2.985
  163TIP3   OH2  429   7.594   1.438   6.222
  163TIP3    H1  430   7.638   1.482   6.149
  163TIP3    H2  431   7.622   1.487   6.299
  164TIP3   OH2  432   1.011   0.379   0.397
  164TIP3    H1  433   1.048   0.408   0.480
  164TIP3    H2  434   0.917   0.371   0.414
  165TIP3   OH2  435   0.826   2.632   2.502
  165TIP3    H1  436   0.818   2.581   2.421
  165TIP3    H2  437   0.737   2.662   2.520
  166TIP3   OH2  438   3.665   3.436   5.693
  166TIP3    H1  439   3.698   3.424   5.781
  166TIP3    H2  440   3.683   3.528   5.672
  167TIP3   OH2  441   6.364   4.691   3.368
  167TIP3    H1  442   6.280   4.711   3.328
  167TIP3    H2  443   6.368   4.595   3.368
  168TIP3   OH2  444   3.694   2.892   2.753
  168TIP3    H1  445   3.691   2.979   2.793
  168TIP3    H2  446   3.646   2.836   2.814
  169TIP3   OH2  447   0.993   6.253   2.712
  169TIP3    H1  448   0.909   6.231   2.673
  169TIP3    H2  449   0.982   6.233   2.805
  170TIP3   OH2  450   5.985   0.931   5.798
  170TIP3    H1  451   5.995   1.005   5.737
  170TIP3    H2  452   5.928   0.964   5.867
  171TIP3   OH2  453   7.004   7.134   1.335
  171TIP3    H1  454   6.937   7.157   1.270
  171TIP3    H2  455   6.979   7.047   1.365
  172TIP3   OH2  456   7.281   2.854   2.278
  172TIP3    H1  457   7.236   2.769   2.271
  172TIP3    H2  458   7.374   2.832   2.271
  173TIP3   OH2  459   6.139   1.589   3.867
  173TIP3    H1  460   6.188   1.592   3.950
  173TIP3    H2  461   6.077   1.516   3.879
  174TIP3   OH2  462   1.928   0.841   6.193
  174TIP3    H1  463   1.970   0.758   6.218
  174TIP3    H2  464   1.872   0.817   6.118
  175TIP3   OH2  465   0.639   3.063   0.382
  175TIP3    H1  466   0.630   2.968   0.393
  175TIP3    H2  467   0.565   3.087   0.326
  176TIP3   OH2  468   1.797   2.555   1.862
  176TIP3    H1  469   1.813   2.645   1.891
  176TIP3    H2  470   1.834   2.550   1.774
  177TIP3   OH2  471   1.080   6.650   5.407
  177TIP3    H1  472   0.987   6.632   5.395
  177TIP3    H2  473   1.110   6.580   5.465
  178TIP3   OH2  474   4.608   3.225   6.639
  178TIP3    H1  475   4.611   3.274   6.721
  178TIP3    H2  476   4.515   3.222   6.616
  179TIP3   OH2  477   5.869   0.162   0.524
  179TIP3    H1  478   5.871   0.258   0.518
  179TIP3    H2  479   5.779   0.139   0.501
  180TIP3   OH2  480   2.703   5.944   1.729
  180TIP3    H1  481   2.675   5.919   1.817
  180TIP3    H2  482   2.788   5.903   1.718
  181TIP3   OH2  483   7.350   2.739   4.426
  181TIP3    H1  484   7.436   2.746   4.468
  181TIP3    H2  485   7.370   2.724   4.333
  182TIP3   OH2  486   5.487   6.599   5.304
  182TIP3    H1  487   5.530   6.530   5.255
  182TIP3    H2  488   5.553   6.631   5.365
  183TIP3   OH2  489   3.125   6.406   1.467
  183TIP3    H1  490   3.191   6.360   1.415
  183TIP3    H2  491   3.058   6.340   1.485
  184TIP3   OH2  492   3.537   5.472   5.390
  184TIP3    H1  493   3.592   5.550   5.400
  184TIP3    H2  494   3.600   5.401   5.376
  185TIP3   OH2  495   4.185   5.372   0.873
  185TIP3    H1  496   4.277   5.394   0.864
  185TIP3    H2  497   4.183   5.276   0.873
  186TIP3   OH2  498   1.632   2.172   3.252
  186TIP3    H1  499   1.708   2.142   3.302
  186TIP3    H2  500   1.557   2.134   3.298
  187TIP3   OH2  501   5.592   3.085   0.221
  187TIP3    H1  502   5.630   3.010   0.267
  187TIP3    H2  503   5.566   3.145   0.291
  188TIP3   OH2  504   1.198   6.680   2.444
  188TIP3    H1  505   1.252   6.716   2.515
  188TIP3    H2  506   1.113   6.663   2.484
  189TIP3   OH2  507   3.815   5.443   4.113
  189TIP3    H1  508   3.815   5.538   4.127
  189TIP3    H2  509   3.722   5.419   4.110
  190TIP3   OH2  510   0.019   7.734   3.841
  190TIP3    H1  511   0.039   7.644   3.814
  190TIP3    H2  512  -0.016   7.775   3.762
  191TIP3   OH2  513   2.500   3.080   4.620
  191TIP3    H1  514   2.497   3.027   4.699
  191TIP3    H2  515   2.530   3.166   4.649
  192TIP3   OH2  516   2.223   3.659   2.371
  192TIP3    H1  517   2.138   3.621   2.349
  192TIP3    H2  518   2.286   3.590   2.348
  193TIP3   OH2  519   3.857   7.390   2.861
  193TIP3    H1  520   3.849   7.404   2.955
  193TIP3    H2  521   3.772   7.354   2.835
  194TIP3   OH2  522   7.024   4.884   0.586
  194TIP3    H1  523   7.070   4.921   0.662
  194TIP3    H2  524   6.979   4.958   0.546
  195TIP3   OH2  525   1.057   2.861   3.599
  195TIP3    H1  526   0.973   2.819   3.618
  195TIP3    H2  527   1.122   2.791   3.610
  196TIP3   OH2  528   5.188   5.042   1.783
  196TIP3    H1  529   5.110   5.084   1.820
  196TIP3    H2  530   5.247   5.032   1.858
  197TIP3   OH2  531   3.508   1.574   2.495
  197TIP3    H1  532   3.556   1.499   2.532
  197TIP3    H2  533   3.419   1.541   2.483
  198TIP3   OH2  534   2.457   2.910   0.427
  198TIP3    H1  535   2.429   2.961   0.350
  198TIP3    H2  536   2.381   2.856   0.448
  199TIP3   OH2  537   0.523   3.982   0.880
  199TIP3    H1  538   0.432   4.012   0.872
  199TIP3    H2  539   0.571   4.058   0.911
  200TIP3   OH2  540   3.999   1.445   4.483
  200TIP3    H1  541   3.958   1.476   4.403
  200TIP3    H2  542   4.013   1.352   4.469
  201TIP3   OH2  543   2.270   2.555   6.688
  201TIP3    H1  544   2.225   2.603   6.757
  201TIP3    H2  545   2.206   2.545   6.618
  202TIP3   OH2  546   5.943   6.021   6.009
  202TIP3    H1  547   6.026   6.047   6.049
  202TIP3    H2  548   5.961   6.021   5.915
  203TIP3   OH2  549   8.202   0.090   4.667
  203TIP3    H1  550   8.223   0.089   4.573
  203TIP3    H2  551   8.116   0.047   4.672
  204TIP3   OH2  552   2.570   1.626   3.121
  204TIP3    H1  553   2.606   1.619   3.032
  204TIP3    H2  554   2.598   1.546   3.164
  205TIP3   OH2  555   0.696   4.552   6.384
  205TIP3    H1  556   0.695   4.623   6.449
  205TIP3    H2  557   0.605   4.525   6.377
  206TIP3   OH2  558   6.621   0.149   3.188
  206TIP3    H1  559   6.581   0.063   3.177
  206TIP3    H2  560   6.625   0.161   3.283
  207TIP3   OH2  561   6.220   1.515   5.017
  207TIP3    H1  562   6.141   1.472   5.050
  207TIP3    H2  563   6.290   1.485   5.074
  208TIP3   OH2  564   2.294   5.751   6.804
  208TIP3    H1  565   2.304   5.658   6.828
  208TIP3    H2  566   2.200   5.767   6.808
  209TIP3   OH2  567   1.807   2.565   0.203
  209TIP3    H1  568   1.768   2.477   0.205
  209TIP3    H2  569   1.886   2.556   0.150
  210TIP3   OH2  570   5.898   0.544   1.661
  210TIP3    H1  571   5.989   0.532   1.687
  210TIP3    H2  572   5.902   0.588   1.576
  211TIP3   OH2  573   6.645   5.800   4.214
  211TIP3    H1  574   6.566   5.846   4.242
  211TIP3    H2  575   6.665   5.741   4.286
  212TIP3   OH2  576   0.128   4.503   5.608
  212TIP3    H1  577   0.192   4.432   5.614
  212TIP3    H2  578   0.103   4.521   5.699
  213TIP3   OH2  579   8.299   5.324   6.739
  213TIP3    H1  580   8.209   5.300   6.761
  213TIP3    H2  581   8.295   5.353   6.649
  214TIP3   OH2  582   3.048   5.151   2.246
  214TIP3    H1  583   3.038   5.079   2.308
  214TIP3    H2  584   3.075   5.226   2.299
  215TIP3   OH2  585   8.241   3.795   3.782
  215TIP3    H1  586   8.314   3.850   3.810
  215TIP3    H2  587   8.282   3.713   3.754
  216TIP3   OH2  588   6.470   1.957   5.061
  216TIP3    H1  589   6.489   2.050   5.072
  216TIP3    H2  590   6.552   1.912   5.080
  217TIP3   OH2  591   5.008   4.365   1.857
  217TIP3    H1  592   5.071   4.435   1.878
  217TIP3    H2  593   5.004   4.365   1.761
  218TIP3   OH2  594   7.340   4.559   6.715
  218TIP3    H1  595   7.312   4.649   6.697
  218TIP3    H2  596   7.388   4.532   6.636
  219TIP3   OH2  597   6.388   4.297   5.305
  219TIP3    H1  598   6.453   4.244   5.259
  219TIP3    H2  599   6.313   4.300   5.245
  220TIP3   OH2  600   2.263   0.729   3.168
  220TIP3    H1  601   2.175   0.691   3.177
  220TIP3    H2  602   2.263   0.802   3.230
  221TIP3   OH2  603   4.900   6.413   5.224
  221TIP3    H1  604   4.829   6.453   5.275
  221TIP3    H2  605   4.918   6.476   5.154
  222TIP3   OH2  606   8.045   6.695   2.078
  222TIP3    H1  607   7.966   6.673   2.028
  222TIP3    H2  608   8.018   6.693   2.169
  223TIP3   OH2  609   6.241   6.452   1.141
  223TIP3    H1  610   6.275   6.540   1.156
  223TIP3    H2  611   6.149   6.466   1.117
  224TIP3   OH2  612   4.301   1.725   5.428
  224TIP3    H1  613   4.332   1.674   5.502
  224TIP3    H2  614   4.369   1.790   5.412
  225TIP3   OH2  615   4.033   1.109   4.861
  225TIP3    H1  616   4.010   1.199   4.883
  225TIP3    H2  617   4.085   1.116   4.781
  226TIP3   OH2  618   3.189   7.506   3.528
  226TIP3    H1  619   3.203   7.469   3.615
  226TIP3    H2  620   3.170   7.598   3.543
  227TIP3   OH2  621   5.341   6.620   1.445
  227TIP3    H1  622   5.357   6.715   1.447
  227TIP3    H2  623   5.251   6.611   1.416
  228TIP3   OH2  624   4.222   0.790   2.219
  228TIP3    H1  625   4.280   0.714   2.224
  228TIP3    H2  626   4.207   0.803   2.125
  229TIP3   OH2  627   3.615   2.763   0.222
  229TIP3    H1  628   3.574   2.713   0.152
  229TIP3    H2  629   3.575   2.850   0.217
  230TIP3   OH2  630   2.508   4.712   0.337
  230TIP3    H1  631   2.562   4.639   0.369
  230TIP3    H2  632   2.538   4.787   0.388
  231TIP3   OH2  633   0.519   1.166   4.899
  231TIP3    H1  634   0.577   1.206   4.964
  231TIP3    H2  635   0.545   1.206   4.816
  232TIP3   OH2  636   8.125   7.084   5.728
  232TIP3    H1  637   8.209   7.055   5.764
  232TIP3    H2  638   8.126   7.179   5.737
  233TIP3   OH2  639   3.385   0.836   6.645
  233TIP3    H1  640   3.292   0.839   6.667
  233TIP3    H2  641   3.407   0.925   6.618
  234TIP3   OH2  642   1.894   0.527   6.238
  234TIP3    H1  643   1.873   0.569   6.155
  234TIP3    H2  644   1.814   0.482   6.264
  235TIP3   OH2  645   6.212   1.641   4.235
  235TIP3    H1  646   6.220   1.736   4.223
  235TIP3    H2  647   6.228   1.605   4.148
  236TIP3   OH2  648   5.411   3.103   2.482
  236TIP3    H1  649   5.489   3.050   2.469
  236TIP3    H2  650   5.370   3.068   2.561
  237TIP3   OH2  651   2.518   2.371   4.216
  237TIP3    H1  652   2.460   2.425   4.163
  237TIP3    H2  653   2.595   2.425   4.231
  238TIP3   OH2  654   2.903   7.445   1.859
  238TIP3    H1  655   2.937   7.411   1.777
  238TIP3    H2  656   2.973   7.430   1.923
  239TIP3   OH2  657   4.075   6.247   6.011
  239TIP3    H1  658   4.057   6.187   5.938
  239TIP3    H2  659   4.009   6.316   6.001
  240TIP3   OH2  660   4.250   2.385   5.354
  240TIP3    H1  661   4.197   2.326   5.301
  240TIP3    H2  662   4.336   2.343   5.359
  241TIP3   OH2  663   4.146   6.064   1.879
  241TIP3    H1  664   4.075   6.021   1.832
  241TIP3    H2  665   4.175   6.134   1.819
  242TIP3   OH2  666   5.334   4.786   2.419
  242TIP3    H1  667   5.368   4.783   2.330
  242TIP3    H2  668   5.409   4.813   2.473
  243TIP3   OH2  669   8.128   3.432   5.095
  243TIP3    H1  670   8.106   3.514   5.051
  243TIP3    H2  671   8.162   3.459   5.180
  244TIP3   OH2  672   5.327   2.308   3.870
  244TIP3    H1  673   5.400   2.313   3.809
  244TIP3    H2  674   5.250   2.328   3.817
  245TIP3   OH2  675   0.658   6.460   0.054
  245TIP3    H1  676   0.668   6.496   0.142
  245TIP3    H2  677   0.586   6.397   0.062
  246TIP3   OH2  678   2.939   0.561   4.663
  246TIP3    H1  679   2.929   0.644   4.710
  246TIP3    H2  680   2.949   0.587   4.571
  247TIP3   OH2  681   6.238   4.216   2.028
  247TIP3    H1  682   6.310   4.231   2.090
  247TIP3    H2  683   6.165   4.265   2.065
  248TIP3   OH2  684   2.209   4.824   2.318
  248TIP3    H1  685   2.128   4.862   2.286
  248TIP3    H2  686   2.182   4.769   2.392
  249TIP3   OH2  687   4.033   7.177   4.423
  249TIP3    H1  688   3.967   7.230   4.379
  249TIP3    H2  689   4.103   7.238   4.443
  250TIP3   OH2  690   0.211   6.910   6.161
  250TIP3    H1  691   0.160   6.834   6.131
  250TIP3    H2  692   0.302   6.880   6.156
  251TIP3   OH2  693   3.026   2.458   5.075
  251TIP3    H1  694   3.060   2.401   5.144
  251TIP3    H2  695   2.965   2.403   5.026
  252TIP3   OH2  696   4.735   4.565   4.135
  252TIP3    H1  697   4.784   4.607   4.206
  252TIP3    H2  698   4.745   4.471   4.152
  253TIP3   OH2  699   4.886   1.000   0.643
  253TIP3    H1  700   4.973   1.038   0.649
  253TIP3    H2  701   4.884   0.958   0.557
  254TIP3   OH2  702   4.798   2.049   0.534
  254TIP3    H1  703   4.841   1.964   0.543
  254TIP3    H2  704   4.733   2.051   0.604
  255TIP3   OH2  705   4.176   2.255   4.692
  255TIP3    H1  706   4.100   2.198   4.683
  255TIP3    H2  707   4.201   2.248   4.784
  256TIP3   OH2  708   4.460   7.404   4.792
  256TIP3    H1  709   4.380   7.424   4.743
  256TIP3    H2  710   4.497   7.327   4.747
  257TIP3   OH2  711   7.801   2.144   2.091
  257TIP3    H1  712   7.866   2.146   2.162
  257TIP3    H2  713   7.810   2.229   2.049
  258TIP3   OH2  714   8.059   3.076   4.307
  258TIP3    H1  715   8.039   3.016   4.379
  258TIP3    H2  716   8.108   3.024   4.244
  259TIP3   OH2  717   4.393   5.368   4.856
  259TIP3    H1  718   4.460   5.424   4.817
  259TIP3    H2  719   4.361   5.417   4.931
  260TIP3   OH2  720   3.816   7.653   2.720
  260TIP3    H1  721   3.756   7.727   2.716
  260TIP3    H2  722   3.788   7.602   2.796
  261TIP3   OH2  723   2.809   0.822   4.944
  261TIP3    H1  724   2.836   0.749   5.000
  261TIP3    H2  725   2.869   0.819   4.870
  262TIP3   OH2  726   6.588   0.172   6.456
  262TIP3    H1  727   6.503   0.129   6.452
  262TIP3    H2  728   6.646   0.106   6.494
  263TIP3   OH2  729   6.225   5.171   2.605
  263TIP3    H1  730   6.201   5.115   2.678
  263TIP3    H2  731   6.151   5.232   2.597
  264TIP3   OH2  732   5.858   7.148   5.159
  264TIP3    H1  733   5.935   7.153   5.217
  264TIP3    H2  734   5.895   7.145   5.071
  265TIP3   OH2  735   0.178   2.601   2.641
  265TIP3    H1  736   0.221   2.657   2.705
  265TIP3    H2  737   0.100   2.649   2.615
  266TIP3   OH2  738   4.667   5.392   6.431
  266TIP3    H1  739   4.748   5.354   6.396
  266TIP3    H2  740   4.664   5.363   6.522
  267TIP3   OH2  741   1.177   1.185   4.010
  267TIP3    H1  742   1.217   1.110   4.055
  267TIP3    H2  743   1.175   1.253   4.077
  268TIP3   OH2  744   2.144   6.901   5.043
  268TIP3    H1  745   2.108   6.931   5.127
  268TIP3    H2  746   2.131   6.975   4.984
  269TIP3   OH2  747   3.295   3.745   5.896
  269TIP3    H1  748   3.374   3.712   5.939
  269TIP3    H2  749   3.243   3.666   5.878
  270TIP3   OH2  750   4.828   0.649   5.907
  270TIP3    H1  751   4.895   0.581   5.894
  270TIP3    H2  752   4.867   0.728   5.869
  271TIP3   OH2  753   4.188   2.448   3.786
  271TIP3    H1  754   4.096   2.422   3.784
  271TIP3    H2  755   4.221   2.413   3.869
  272TIP3   OH2  756   3.327   2.264   1.166
  272TIP3    H1  757   3.373   2.222   1.093
  272TIP3    H2  758   3.395   2.285   1.229
  273TIP3   OH2  759   4.593   7.568   0.914
  273TIP3    H1  760   4.559   7.624   0.845
  273TIP3    H2  761   4.533   7.493   0.916
  274TIP3   OH2  762   7.174   5.984   2.146
  274TIP3    H1  763   7.078   5.982   2.148
  274TIP3    H2  764   7.199   5.893   2.133
  275TIP3   OH2  765   3.085   0.905   1.687
  275TIP3    H1  766   3.066   0.878   1.776
  275TIP3    H2  767   3.031   0.848   1.632
  276TIP3   OH2  768   1.733   7.789   1.210
  276TIP3    H1  769   1.668   7.847   1.251
  276TIP3    H2  770   1.806   7.788   1.273
  277TIP3   OH2  771   7.423   4.724   3.779
  277TIP3    H1  772   7.395   4.689   3.864
  277TIP3    H2  773   7.353   4.785   3.754
  278TIP3   OH2  774   5.764   5.580   3.708
  278TIP3    H1  775   5.788   5.491   3.735
  278TIP3    H2  776   5.712   5.567   3.629
  279TIP3   OH2  777   7.255   3.206   0.496
  279TIP3    H1  778   7.304   3.260   0.434
  279TIP3    H2  779   7.178   3.259   0.518
  280TIP3   OH2  780   6.033   4.231   4.566
  280TIP3    H1  781   6.081   4.234   4.648
  280TIP3    H2  782   5.991   4.145   4.565
  281TIP3   OH2  783   1.764   2.600   3.761
  281TIP3    H1  784   1.738   2.645   3.841
  281TIP3    H2  785   1.808   2.667   3.709
  282TIP3   OH2  786   5.933   2.143   4.555
  282TIP3    H1  787   6.024   2.151   4.584
  282TIP3    H2  788   5.907   2.054   4.579
  283TIP3   OH2  789   3.605   3.622   0.381
  283TIP3    H1  790   3.608   3.715   0.358
  283TIP3    H2  791   3.684   3.585   0.342
  284TIP3   OH2  792   0.307   0.290   3.970
  284TIP3    H1  793   0.220   0.298   3.932
  284TIP3    H2  794   0.359   0.358   3.927
  285TIP3   OH2  795   7.757   3.421   6.470
  285TIP3    H1  796   7.732   3.486   6.536
  285TIP3    H2  797   7.833   3.376   6.509
  286TIP3   OH2  798   7.821   0.035   0.073
  286TIP3    H1  799   7.863  -0.035   0.123
  286TIP3    H2  800   7.885   0.107   0.073
  287TIP3   OH2  801   4.030   0.719   5.015
  287TIP3    H1  802   3.937   0.731   5.035
  287TIP3    H2  803   4.051   0.632   5.052
  288TIP3   OH2  804   7.838   4.553   5.321
  288TIP3    H1  805   7.926   4.525   5.295
  288TIP3    H2  806   7.794   4.471   5.346
  289TIP3   OH2  807   3.004   1.421   2.023
  289TIP3    H1  808   2.992   1.448   1.932
  289TIP3    H2  809   3.045   1.335   2.017
  290TIP3   OH2  810   3.868   2.418   3.023
  290TIP3    H1  811   3.850   2.471   2.946
  290TIP3    H2  812   3.787   2.421   3.074
  291TIP3   OH2  813   7.247   2.263   0.787
  291TIP3    H1  814   7.234   2.236   0.696
  291TIP3    H2  815   7.273   2.355   0.782
  292TIP3   OH2  816   4.946   5.928   0.751
  292TIP3    H1  817   4.956   5.999   0.814
  292TIP3    H2  818   4.942   5.972   0.666
  293TIP3   OH2  819   7.778   6.761   6.196
  293TIP3    H1  820   7.715   6.828   6.223
  293TIP3    H2  821   7.853   6.774   6.254
  294TIP3   OH2  822   1.349   2.108   0.260
  294TIP3    H1  823   1.304   2.193   0.258
  294TIP3    H2  824   1.364   2.088   0.168
  295TIP3   OH2  825   2.875   3.567   2.349
  295TIP3    H1  826   2.859   3.521   2.432
  295TIP3    H2  827   2.970   3.558   2.336
  296TIP3   OH2  828   7.878   1.148   4.462
  296TIP3    H1  829   7.926   1.129   4.543
  296TIP3    H2  830   7.791   1.114   4.478
  297TIP3   OH2  831   0.381   4.665   3.757
  297TIP3    H1  832   0.371   4.586   3.809
  297TIP3    H2  833   0.350   4.735   3.814
  298TIP3   OH2  834   6.036   3.219   6.484
  298TIP3    H1  835   6.031   3.315   6.483
  298TIP3    H2  836   5.983   3.193   6.559
  299TIP3   OH2  837   0.194   7.914   1.947
  299TIP3    H1  838   0.177   7.937   2.038
  299TIP3    H2  839   0.109   7.886   1.913
  300TIP3   OH2  840   0.482   3.171   6.238
  300TIP3    H1  841   0.554   3.121   6.199
  300TIP3    H2  842   0.526   3.239   6.290
  301TIP3   OH2  843   5.684   3.501   4.426
  301TIP3    H1  844   5.613   3.489   4.489
  301TIP3    H2  845   5.763   3.502   4.479
  302TIP3   OH2  846   2.504   4.323   6.552
  302TIP3    H1  847   2.429   4.365   6.594
  302TIP3    H2  848   2.580   4.360   6.597
  303TIP3   OH2  849   3.529   7.169   6.031
  303TIP3    H1  850   3.561   7.085   5.998
  303TIP3    H2  851   3.558   7.233   5.966
  304TIP3   OH2  852   2.488   6.015   2.487
  304TIP3    H1  853   2.571   5.981   2.518
  304TIP3    H2  854   2.496   6.110   2.493
  305TIP3   OH2  855   5.366   6.791   6.734
  305TIP3    H1  856   5.312   6.809   6.657
  305TIP3    H2  857   5.395   6.877   6.764
  306TIP3   OH2  858   3.896   2.968   5.391
  306TIP3    H1  859   3.917   2.923   5.473
  306TIP3    H2  860   3.850   2.903   5.338
  307TIP3   OH2  861   1.890   5.230   1.388
  307TIP3    H1  862   1.811   5.179   1.374
  307TIP3    H2  863   1.960   5.165   1.394
  308TIP3   OH2  864   2.179   2.111   2.168
  308TIP3    H1  865   2.159   2.122   2.075
  308TIP3    H2  866   2.123   2.174   2.213
  309TIP3   OH2  867   4.383   2.986   1.561
  309TIP3    H1  868   4.305   3.036   1.541
  309TIP3    H2  869   4.352   2.912   1.613
  310TIP3   OH2  870   7.172   1.350   2.783
  310TIP3    H1  871   7.232   1.423   2.775
  310TIP3    H2  872   7.200   1.304   2.862
  311TIP3   OH2  873   1.019   5.083   6.707
  311TIP3    H1  874   0.930   5.090   6.671
  311TIP3    H2  875   1.007   5.090   6.801
  312TIP3   OH2  876   6.182   1.220   3.066
  312TIP3    H1  877   6.117   1.229   2.997
  312TIP3    H2  878   6.134   1.238   3.147
  313TIP3   OH2  879   7.132   3.895   1.128
  313TIP3    H1  880   7.095   3.812   1.155
  313TIP3    H2  881   7.118   3.953   1.203
  314TIP3   OH2  882   4.710   1.814   6.073
  314TIP3    H1  883   4.687   1.898   6.114
  314TIP3    H2  884   4.692   1.749   6.140
  315TIP3   OH2  885   3.399   5.403   5.652
  315TIP3    H1  886   3.460   5.429   5.583
  315TIP3    H2  887   3.339   5.342   5.609
  316TIP3   OH2  888   4.899   5.364   4.660
  316TIP3    H1  889   4.837   5.409   4.603
  316TIP3    H2  890   4.971   5.339   4.602
  317TIP3   OH2  891   3.144   1.988   1.546
  317TIP3    H1  892   3.114   1.918   1.603
  317TIP3    H2  893   3.216   1.949   1.496
  318TIP3   OH2  894   0.372   3.334   5.841
  318TIP3    H1  895   0.329   3.414   5.871
  318TIP3    H2  896   0.456   3.334   5.888
  319TIP3   OH2  897   2.550   6.054   1.029
  319TIP3    H1  898   2.520   6.125   1.086
  319TIP3    H2  899   2.600   5.997   1.087
  320TIP3   OH2  900   2.768   5.485   1.804
  320TIP3    H1  901   2.767   5.503   1.898
  320TIP3    H2  902   2.851   5.439   1.789
  321TIP3   OH2  903   6.986   5.502   6.759
  321TIP3    H1  904   7.076   5.467   6.764
  321TIP3    H2  905   6.931   5.425   6.770
  322TIP3   OH2  906   6.281   4.005   1.881
  322TIP3    H1  907   6.265   4.090   1.922
  322TIP3    H2  908   6.218   4.002   1.809
  323TIP3   OH2  909   4.965   3.703   5.661
  323TIP3    H1  910   4.927   3.669   5.741
  323TIP3    H2  911   4.890   3.717   5.603
  324TIP3   OH2  912   2.615   2.433   2.002
  324TIP3    H1  913   2.698   2.391   1.979
  324TIP3    H2  914   2.600   2.408   2.093
  325TIP3   OH2  915   1.588   3.354   2.159
  325TIP3    H1  916   1.534   3.347   2.081
  325TIP3    H2  917   1.624   3.443   2.155
  326TIP3   OH2  918   1.904   0.342   5.860
  326TIP3    H1  919   1.847   0.326   5.785
  326TIP3    H2  920   1.973   0.401   5.827
  327TIP3   OH2  921   3.525   7.335   1.895
  327TIP3    H1  922   3.450   7.372   1.848
  327TIP3    H2  923   3.495   7.326   1.985
  328TIP3   OH2  924   3.910   4.693   6.800
  328TIP3    H1  925   3.880   4.767   6.747
  328TIP3    H2  926   3.842   4.627   6.790
  329TIP3   OH2  927   7.393   0.196   4.239
  329TIP3    H1  928   7.325   0.142   4.279
  329TIP3    H2  929   7.387   0.280   4.285
  330TIP3   OH2  930   8.198   6.392   5.414
  330TIP3    H1  931   8.141   6.427   5.346
  330TIP3    H2  932   8.183   6.298   5.412
  331TIP3   OH2  933   3.364   1.048   3.663
  331TIP3    H1  934   3.459   1.046   3.650
  331TIP3    H2  935   3.346   1.132   3.705
  332TIP3   OH2  936   2.394   7.607   6.471
  332TIP3    H1  937   2.364   7.673   6.534
  332TIP3    H2  938   2.381   7.524   6.516
  333TIP3   OH2  939   5.198   7.257   2.223
  333TIP3    H1  940   5.235   7.338   2.187
  333TIP3    H2  941   5.179   7.278   2.314
  334TIP3   OH2  942   0.147   6.379   1.801
  334TIP3    H1  943   0.123   6.312   1.865
  334TIP3    H2  944   0.201   6.333   1.737
  335TIP3   OH2  945   5.772   0.904   5.467
  335TIP3    H1  946   5.723   0.947   5.537
  335TIP3    H2  947   5.864   0.915   5.492
  336TIP3   OH2  948   5.453   2.112   3.337
  336TIP3    H1  949   5.495   2.192   3.306
  336TIP3    H2  950   5.508   2.083   3.411
  337TIP3   OH2  951   7.015   0.349   3.184
  337TIP3    H1  952   6.945   0.343   3.119
  337TIP3    H2  953   6.981   0.411   3.249
  338TIP3   OH2  954   4.510   2.409   2.165
  338TIP3    H1  955   4.585   2.460   2.134
  338TIP3    H2  956   4.436   2.468   2.157
  339TIP3   OH2  957   4.151   5.561   4.632
  339TIP3    H1  958   4.241   5.588   4.611
  339TIP3    H2  959   4.115   5.635   4.681
  340TIP3   OH2  960   5.911   6.448   5.603
  340TIP3    H1  961   5.965   6.464   5.681
  340TIP3    H2  962   5.836   6.506   5.614
  341TIP3   OH2  963   6.107   7.219   2.272
  341TIP3    H1  964   6.038   7.179   2.325
  341TIP3    H2  965   6.061   7.263   2.200
  342TIP3   OH2  966   4.484   6.166   1.944
  342TIP3    H1  967   4.390   6.170   1.962
  342TIP3    H2  968   4.503   6.072   1.939
  343TIP3   OH2  969   4.951   1.281   6.808
  343TIP3    H1  970   4.986   1.216   6.747
  343TIP3    H2  971   5.006   1.358   6.796
  344TIP3   OH2  972   1.736   3.537   2.434
  344TIP3    H1  973   1.789   3.472   2.480
  344TIP3    H2  974   1.647   3.526   2.470
  345TIP3   OH2  975   7.344   7.697   5.383
  345TIP3    H1  976   7.326   7.651   5.301
  345TIP3    H2  977   7.288   7.774   5.381
  346TIP3   OH2  978   5.841   6.486   6.249
  346TIP3    H1  979   5.759   6.533   6.263
  346TIP3    H2  980   5.825   6.431   6.173
  347TIP3   OH2  981   3.884   0.733   5.622
  347TIP3    H1  982   3.938   0.739   5.543
  347TIP3    H2  983   3.833   0.814   5.622
  348TIP3   OH2  984   0.606   6.184   5.844
  348TIP3    H1  985   0.546   6.216   5.777
  348TIP3    H2  986   0.574   6.096   5.864
  349TIP3   OH2  987   7.209   1.851   4.184
  349TIP3    H1  988   7.277   1.787   4.166
  349TIP3    H2  989   7.131   1.817   4.140
  350TIP3   OH2  990   1.225   3.889   5.189
  350TIP3    H1  991   1.216   3.830   5.115
  350TIP3    H2  992   1.176   3.847   5.260
  351TIP3   OH2  993   7.977   7.915   3.194
  351TIP3    H1  994   7.952   8.005   3.176
  351TIP3    H2  995   7.895   7.872   3.218
  352TIP3   OH2  996   4.513   6.355   3.797
  352TIP3    H1  997   4.513   6.450   3.787
  352TIP3    H2  998   4.509   6.341   3.892
  353TIP3   OH2  999   6.629   6.180   1.956
  353TIP3    H1 1000   6.616   6.095   1.998
  353TIP3    H2 1001   6.712   6.171   1.909
  354TIP3   OH2 1002   7.843   0.369   4.690
  354TIP3    H1 1003   7.855   0.451   4.738
  354TIP3    H2 1004   7.805   0.309   4.754
  355TIP3   OH2 1005   3.070   0.251   5.170
  355TIP3    H1 1006   2.975   0.260   5.163
  355TIP3    H2 1007   3.092   0.183   5.106
  356TIP3   OH2 1008   3.668   1.639   0.069
  356TIP3    H1 1009   3.720   1.695   0.012
  356TIP3    H2 1010   3.718   1.636   0.151
  357TIP3   OH2 1011   0.856   0.579   6.170
  357TIP3    H1 1012   0.879   0.667   6.200
  357TIP3    H2 1013   0.932   0.526   6.195
  358TIP3   OH2 1014   7.455   6.079   1.133
  358TIP3    H1 1015   7.544   6.110   1.116
  358TIP3    H2 1016   7.464   5.985   1.146
  359TIP3   OH2 1017   3.446   1.877   1.772
  359TIP3    H1 1018   3.485   1.813   1.713
  359TIP3    H2 1019   3.513   1.894   1.838
  360TIP3   OH2 1020   3.392   2.418   5.462
  360TIP3    H1 1021   3.337   2.358   5.411
  360TIP3    H2 1022   3.339   2.497   5.472
  361TIP3   OH2 1023   2.099   6.369   5.923
  361TIP3    H1 1024   2.119   6.423   5.846
  361TIP3    H2 1025   2.185   6.349   5.960
  362TIP3   OH2 1026   4.780   5.918   2.281
  362TIP3    H1 1027   4.857   5.966   2.310
  362TIP3    H2 1028   4.779   5.839   2.335
  363TIP3   OH2 1029   0.171   2.067   4.401
  363TIP3    H1 1030   0.224   2.140   4.368
  363TIP3    H2 1031   0.111   2.047   4.329
  364TIP3   OH2 1032   7.356   0.154   0.951
  364TIP3    H1 1033   7.260   0.156   0.950
  364TIP3    H2 1034   7.381   0.242   0.980
  365TIP3   OH2 1035   2.990   1.836   3.289
  365TIP3    H1 1036   2.898   1.842   3.313
  365TIP3    H2 1037   3.034   1.898   3.347
  366TIP3   OH2 1038   6.152   0.815   2.974
  366TIP3    H1 1039   6.190   0.741   2.928
  366TIP3    H2 1040   6.098   0.859   2.908
  367TIP3   OH2 1041   3.094   7.231   2.807
  367TIP3    H1 1042   3.098   7.247   2.713
  367TIP3    H2 1043   3.058   7.143   2.815
  368TIP3   OH2 1044   1.862   5.771   1.311
  368TIP3    H1 1045   1.815   5.784   1.394
  368TIP3    H2 1046   1.924   5.844   1.308
  369TIP3   OH2 1047   6.897   6.928   2.984
  369TIP3    H1 1048   6.820   6.942   2.930
  369TIP3    H2 1049   6.971   6.951   2.928
  370TIP3   OH2 1050   5.635   5.285   0.940
  370TIP3    H1 1051   5.659   5.246   1.024
  370TIP3    H2 1052   5.602   5.212   0.887
  371TIP3   OH2 1053   0.876   6.511   3.699
  371TIP3    H1 1054   0.938   6.482   3.632
  371TIP3    H2 1055   0.898   6.603   3.714
  372TIP3   OH2 1056   3.489   2.347   6.088
  372TIP3    H1 1057   3.562   2.338   6.149
  372TIP3    H2 1058   3.501   2.433   6.048
  373TIP3   OH2 1059   2.295   0.263   0.305
  373TIP3    H1 1060   2.265   0.344   0.263
  373TIP3    H2 1061   2.225   0.200   0.287
  374TIP3   OH2 1062   5.019   6.291   1.236
  374TIP3    H1 1063   4.947   6.228   1.239
  374TIP3    H2 1064   5.094   6.243   1.272
  375TIP3   OH2 1065   3.459   5.698   3.487
  375TIP3    H1 1066   3.480   5.722   3.578
  375TIP3    H2 1067   3.479   5.776   3.436
  376TIP3   OH2 1068   2.964   6.031   0.870
  376TIP3    H1 1069   3.009   6.114   0.853
  376TIP3    H2 1070   3.029   5.964   0.848
  377TIP3   OH2 1071   7.583   5.713   0.824
  377TIP3    H1 1072   7.663   5.701   0.774
  377TIP3    H2 1073   7.613   5.748   0.908
  378TIP3   OH2 1074   1.562   2.704   1.462
  378TIP3    H1 1075   1.526   2.756   1.391
  378TIP3    H2 1076   1.656   2.702   1.445
  379TIP3   OH2 1077   3.272   6.081   1.826
  379TIP3    H1 1078   3.259   6.141   1.900
  379TIP3    H2 1079   3.283   5.995   1.867
  380TIP3   OH2 1080   4.395   5.837   0.669
  380TIP3    H1 1081   4.455   5.852   0.742
  380TIP3    H2 1082   4.376   5.744   0.672
  381TIP3   OH2 1083   6.764   3.904   2.500
  381TIP3    H1 1084   6.841   3.959   2.509
  381TIP3    H2 1085   6.798   3.814   2.500
  382TIP3   OH2 1086   6.096   1.203   4.563
  382TIP3    H1 1087   6.191   1.196   4.571
  382TIP3    H2 1088   6.077   1.294   4.586
  383TIP3   OH2 1089   0.107   3.935   4.960
  383TIP3    H1 1090   0.043   3.912   5.027
  383TIP3    H2 1091   0.191   3.935   5.006
  384TIP3   OH2 1092   4.090   1.575   6.675
  384TIP3    H1 1093   4.170   1.537   6.637
  384TIP3    H2 1094   4.036   1.597   6.600
  385TIP3   OH2 1095   5.409   2.536   3.519
  385TIP3    H1 1096   5.402   2.557   3.612
  385TIP3    H2 1097   5.320   2.509   3.494
  386TIP3   OH2 1098   2.022   3.652   3.332
  386TIP3    H1 1099   1.967   3.729   3.347
  386TIP3    H2 1100   2.004   3.627   3.241
  387TIP3   OH2 1101   3.125   4.801   2.705
  387TIP3    H1 1102   3.045   4.853   2.706
  387TIP3    H2 1103   3.112   4.739   2.633
  388TIP3   OH2 1104   6.316   6.707   0.599
  388TIP3    H1 1105   6.351   6.658   0.525
  388TIP3    H2 1106   6.222   6.692   0.596
  389TIP3   OH2 1107   2.663   6.190   3.537
  389TIP3    H1 1108   2.724   6.147   3.597
  389TIP3    H2 1109   2.688   6.282   3.538
  390TIP3   OH2 1110   7.198   5.387   3.469
  390TIP3    H1 1111   7.248   5.400   3.388
  390TIP3    H2 1112   7.153   5.470   3.483
  391TIP3   OH2 1113   8.179   4.322   0.436
  391TIP3    H1 1114   8.107   4.347   0.378
  391TIP3    H2 1115   8.182   4.393   0.501
  392TIP3   OH2 1116   3.178   4.415   5.643
  392TIP3    H1 1117   3.178   4.503   5.607
  392TIP3    H2 1118   3.173   4.427   5.738
  393TIP3   OH2 1119   4.162   6.792   5.402
  393TIP3    H1 1120   4.215   6.859   5.357
  393TIP3    H2 1121   4.135   6.833   5.484
  394TIP3   OH2 1122   3.656   6.790   5.241
  394TIP3    H1 1123   3.654   6.880   5.274
  394TIP3    H2 1124   3.742   6.757   5.266
  395TIP3   OH2 1125   5.376   2.432   2.856
  395TIP3    H1 1126   5.298   2.457   2.807
  395TIP3    H2 1127   5.449   2.456   2.800
  396TIP3   OH2 1128   0.750   6.781   2.751
  396TIP3    H1 1129   0.739   6.760   2.844
  396TIP3    H2 1130   0.677   6.841   2.732
  397TIP3   OH2 1131   0.893   4.258   2.262
  397TIP3    H1 1132   0.852   4.236   2.346
  397TIP3    H2 1133   0.845   4.334   2.230
  398TIP3   OH2 1134   4.344   2.950   6.412
  398TIP3    H1 1135   4.390   2.904   6.341
  398TIP3    H2 1136   4.348   2.889   6.486
  399TIP3   OH2 1137   2.727   0.511   1.963
  399TIP3    H1 1138   2.754   0.489   1.874
  399TIP3    H2 1139   2.768   0.596   1.981
  400TIP3   OH2 1140   0.540   4.567   1.209
  400TIP3    H1 1141   0.466   4.610   1.167
  400TIP3    H2 1142   0.505   4.483   1.238
  401TIP3   OH2 1143   7.876   4.164   6.531
  401TIP3    H1 1144   7.882   4.092   6.594
  401TIP3    H2 1145   7.800   4.142   6.476
  402TIP3   OH2 1146   3.713   3.573   0.936
  402TIP3    H1 1147   3.745   3.624   0.861
  402TIP3    H2 1148   3.694   3.638   1.003
  403TIP3   OH2 1149   2.820   5.278   4.827
  403TIP3    H1 1150   2.748   5.327   4.866
  403TIP3    H2 1151   2.896   5.337   4.835
  404TIP3   OH2 1152   0.135   1.206   0.292
  404TIP3    H1 1153   0.196   1.280   0.296
  404TIP3    H2 1154   0.049   1.244   0.310
  405TIP3   OH2 1155   1.801   1.210   4.043
  405TIP3    H1 1156   1.793   1.115   4.054
  405TIP3    H2 1157   1.751   1.229   3.964
  406TIP3   OH2 1158   4.145   2.724   1.497
  406TIP3    H1 1159   4.183   2.723   1.586
  406TIP3    H2 1160   4.086   2.800   1.498
  407TIP3   OH2 1161   3.142   2.612   2.405
  407TIP3    H1 1162   3.060   2.643   2.443
  407TIP3    H2 1163   3.188   2.691   2.378
  408TIP3   OH2 1164   5.100   2.874   4.648
  408TIP3    H1 1165   5.188   2.877   4.611
  408TIP3    H2 1166   5.093   2.954   4.700
  409TIP3   OH2 1167   6.130   1.120   0.871
  409TIP3    H1 1168   6.067   1.182   0.908
  409TIP3    H2 1169   6.109   1.117   0.777
  410TIP3   OH2 1170   2.283   6.677   4.718
  410TIP3    H1 1171   2.228   6.752   4.696
  410TIP3    H2 1172   2.228   6.600   4.698
  411TIP3   OH2 1173   0.819   0.898   0.415
  411TIP3    H1 1174   0.844   0.853   0.334
  411TIP3    H2 1175   0.884   0.968   0.425
  412TIP3   OH2 1176   0.532   0.807   2.019
  412TIP3    H1 1177   0.442   0.780   2.000
  412TIP3    H2 1178   0.573   0.730   2.059
  413TIP3   OH2 1179   7.336   7.055   1.939
  413TIP3    H1 1180   7.330   6.979   1.997
  413TIP3    H2 1181   7.429   7.080   1.941
  414TIP3   OH2 1182   2.984   4.274   0.103
  414TIP3    H1 1183   3.073   4.243   0.089
  414TIP3    H2 1184   2.930   4.195   0.105
  415TIP3   OH2 1185   8.032   5.878   3.293
  415TIP3    H1 1186   8.090   5.824   3.347
  415TIP3    H2 1187   7.991   5.938   3.354
  416TIP3   OH2 1188   8.381   2.049   4.763
  416TIP3    H1 1189   8.408   2.093   4.844
  416TIP3    H2 1190   8.343   1.967   4.792
  417TIP3   OH2 1191   6.969   5.696   0.770
  417TIP3    H1 1192   6.985   5.634   0.841
  417TIP3    H2 1193   7.038   5.761   0.779
  418TIP3   OH2 1194   6.490   4.423   4.542
  418TIP3    H1 1195   6.407   4.380   4.523
  418TIP3    H2 1196   6.481   4.510   4.504
  419TIP3   OH2 1197   3.096   3.433   2.069
  419TIP3    H1 1198   3.032   3.488   2.025
  419TIP3    H2 1199   3.117   3.481   2.149
  420TIP3   OH2 1200   0.822   5.673   4.169
  420TIP3    H1 1201   0.821   5.745   4.231
  420TIP3    H2 1202   0.901   5.623   4.191
  421TIP3   OH2 1203   2.316   1.047   0.155
  421TIP3    H1 1204   2.279   1.065   0.241
  421TIP3    H2 1205   2.410   1.061   0.166
  422TIP3   OH2 1206   4.862   2.896   5.479
  422TIP3    H1 1207   4.803   2.924   5.549
  422TIP3    H2 1208   4.807   2.896   5.400
  423TIP3   OH2 1209   1.731   5.841   5.777
  423TIP3    H1 1210   1.745   5.843   5.872
  423TIP3    H2 1211   1.815   5.867   5.739
  424TIP3   OH2 1212   3.268   0.776   1.525
  424TIP3    H1 1213   3.307   0.854   1.485
  424TIP3    H2 1214   3.225   0.809   1.604
  425TIP3   OH2 1215   7.576   0.053   0.394
  425TIP3    H1 1216   7.643   0.109   0.356
  425TIP3    H2 1217   7.578  -0.026   0.341
  426TIP3   OH2 1218   5.983   3.478   0.162
  426TIP3    H1 1219   5.902   3.427   0.154
  426TIP3    H2 1220   5.974   3.524   0.245
  427TIP3   OH2 1221   3.122   5.596   6.774
  427TIP3    H1 1222   3.044   5.574   6.724
  427TIP3    H2 1223   3.110   5.553   6.858
  428TIP3   OH2 1224   6.423   1.006   1.391
  428TIP3    H1 1225   6.425   0.938   1.325
  428TIP3    H2 1226   6.341   1.054   1.375
  429TIP3   OH2 1227   5.055   2.040   1.092
  429TIP3    H1 1228   4.996   2.114   1.078
  429TIP3    H2 1229   5.130   2.059   1.037
  430TIP3   OH2 1230   3.493   6.106   5.218
  430TIP3    H1 1231   3.506   6.062   5.134
  430TIP3    H2 1232   3.454   6.190   5.196
  431TIP3   OH2 1233   7.705   6.393   1.615
  431TIP3    H1 1234   7.739   6.317   1.568
  431TIP3    H2 1235   7.778   6.422   1.669
  432TIP3   OH2 1236   0.986   5.626   2.200
  432TIP3    H1 1237   1.060   5.591   2.151
  432TIP3    H2 1238   1.019   5.636   2.290
  433TIP3   OH2 1239   7.867   7.006   5.672
  433TIP3    H1 1240   7.957   7.039   5.677
  433TIP3    H2 1241   7.812   7.083   5.688
  434TIP3   OH2 1242   0.806   4.522   1.520
  434TIP3    H1 1243   0.780   4.548   1.608
  434TIP3    H2 1244   0.806   4.426   1.523
  435TIP3   OH2 1245   2.069   5.638   1.987
  435TIP3    H1 1246   2.076   5.544   1.971
  435TIP3    H2 1247   2.124   5.654   2.063
  436TIP3   OH2 1248   0.288   0.191   2.963
  436TIP3    H1 1249   0.196   0.171   2.979
  436TIP3    H2 1250   0.336   0.115   2.996
  437TIP3   OH2 1251   4.566   1.946   1.262
  437TIP3    H1 1252   4.660   1.960   1.271
  437TIP3    H2 1253   4.553   1.926   1.169
  438TIP3   OH2 1254   5.084   5.652   1.202
  438TIP3    H1 1255   5.018   5.717   1.177
  438TIP3    H2 1256   5.128   5.630   1.120
  439TIP3   OH2 1257   2.910   7.376   4.205
  439TIP3    H1 1258   2.957   7.423   4.274
  439TIP3    H2 1259   2.977   7.322   4.163
  440TIP3   OH2 1260   2.058   7.603   4.085
  440TIP3    H1 1261   2.126   7.665   4.112
  440TIP3    H2 1262   2.058   7.607   3.989
  441TIP3   OH2 1263   5.078   6.252   0.123
  441TIP3    H1 1264   5.096   6.181   0.061
  441TIP3    H2 1265   4.997   6.291   0.092
  442TIP3   OH2 1266   3.745   3.632   2.371
  442TIP3    H1 1267   3.697   3.658   2.450
  442TIP3    H2 1268   3.708   3.547   2.347
  443TIP3   OH2 1269   2.763   6.900   6.387
  443TIP3    H1 1270   2.747   6.968   6.321
  443TIP3    H2 1271   2.779   6.820   6.336
  444TIP3   OH2 1272   4.070   3.300   2.445
  444TIP3    H1 1273   4.100   3.334   2.530
  444TIP3    H2 1274   4.141   3.322   2.384
  445TIP3   OH2 1275   5.272   0.061   5.895
  445TIP3    H1 1276   5.196   0.030   5.846
  445TIP3    H2 1277   5.303   0.136   5.844
  446TIP3   OH2 1278   2.664   0.128   1.089
  446TIP3    H1 1279   2.650   0.036   1.111
  446TIP3    H2 1280   2.617   0.176   1.158
  447TIP3   OH2 1281   5.977   2.633   0.443
  447TIP3    H1 1282   6.063   2.661   0.474
  447TIP3    H2 1283   5.978   2.652   0.349
  448TIP3   OH2 1284   7.859   1.800   2.348
  448TIP3    H1 1285   7.857   1.761   2.435
  448TIP3    H2 1286   7.910   1.740   2.294
  449TIP3   OH2 1287   1.979   6.274   0.385
  449TIP3    H1 1288   2.046   6.227   0.335
  449TIP3    H2 1289   1.896   6.245   0.347
  450TIP3   OH2 1290   4.845   3.114   5.212
  450TIP3    H1 1291   4.779   3.059   5.171
  450TIP3    H2 1292   4.877   3.170   5.141
  451TIP3   OH2 1293   2.524   2.924   1.785
  451TIP3    H1 1294   2.458   2.892   1.847
  451TIP3    H2 1295   2.572   2.846   1.758
  452TIP3   OH2 1296   8.098   5.188   3.295
  452TIP3    H1 1297   8.144   5.104   3.307
  452TIP3    H2 1298   8.162   5.244   3.253
  453TIP3   OH2 1299   0.418   5.941   6.798
  453TIP3    H1 1300   0.354   6.012   6.808
  453TIP3    H2 1301   0.384   5.889   6.725
  454TIP3   OH2 1302   0.050   0.534   4.738
  454TIP3    H1 1303   0.095   0.520   4.821
  454TIP3    H2 1304  -0.041   0.549   4.762
  455TIP3   OH2 1305   6.907   1.197   5.606
  455TIP3    H1 1306   6.905   1.104   5.631
  455TIP3    H2 1307   7.000   1.218   5.599
  456TIP3   OH2 1308   4.535   1.350   3.610
  456TIP3    H1 1309   4.546   1.281   3.675
  456TIP3    H2 1310   4.440   1.360   3.602
  457TIP3   OH2 1311   8.376   2.082   1.310
  457TIP3    H1 1312   8.406   2.095   1.220
  457TIP3    H2 1313   8.286   2.049   1.301
  458TIP3   OH2 1314   7.767   1.119   4.004
  458TIP3    H1 1315   7.686   1.099   4.052
  458TIP3    H2 1316   7.820   1.041   4.013
  459TIP3   OH2 1317   5.123   5.169   3.637
  459TIP3    H1 1318   5.031   5.193   3.626
  459TIP3    H2 1319   5.162   5.244   3.681
  460TIP3   OH2 1320   7.514   2.327   4.090
  460TIP3    H1 1321   7.559   2.381   4.026
  460TIP3    H2 1322   7.541   2.237   4.068
  461TIP3   OH2 1323   5.034   0.704   0.855
  461TIP3    H1 1324   5.050   0.611   0.836
  461TIP3    H2 1325   4.948   0.722   0.818
  462TIP3   OH2 1326   6.484   2.551   1.305
  462TIP3    H1 1327   6.497   2.482   1.241
  462TIP3    H2 1328   6.518   2.515   1.387
  463TIP3   OH2 1329   3.443   0.961   3.398
  463TIP3    H1 1330   3.469   1.053   3.400
  463TIP3    H2 1331   3.375   0.954   3.465
  464TIP3   OH2 1332   1.550   2.117   6.440
  464TIP3    H1 1333   1.489   2.105   6.367
  464TIP3    H2 1334   1.494   2.141   6.514
  465TIP3   OH2 1335   6.592   0.846   3.184
  465TIP3    H1 1336   6.576   0.819   3.094
  465TIP3    H2 1337   6.673   0.802   3.209
  466TIP3   OH2 1338   3.941   1.157   2.801
  466TIP3    H1 1339   3.858   1.189   2.836
  466TIP3    H2 1340   3.995   1.141   2.879
  467TIP3   OH2 1341   6.037   6.175   0.845
  467TIP3    H1 1342   6.105   6.112   0.820
  467TIP3    H2 1343   5.981   6.182   0.768
  468TIP3   OH2 1344   5.716   2.931   2.028
  468TIP3    H1 1345   5.726   2.996   2.097
  468TIP3    H2 1346   5.630   2.892   2.044
  469TIP3   OH2 1347   3.888   4.918   4.483
  469TIP3    H1 1348   3.892   5.005   4.523
  469TIP3    H2 1349   3.941   4.862   4.540
  470TIP3   OH2 1350   0.150   3.342   0.881
  470TIP3    H1 1351   0.089   3.309   0.947
  470TIP3    H2 1352   0.180   3.264   0.835
  471TIP3   OH2 1353   7.715   6.146   1.488
  471TIP3    H1 1354   7.727   6.122   1.396
  471TIP3    H2 1355   7.626   6.117   1.509
  472TIP3   OH2 1356   1.337   0.980   2.393
  472TIP3    H1 1357   1.335   1.075   2.399
  472TIP3    H2 1358   1.245   0.954   2.393
  473TIP3   OH2 1359   6.165   5.602   3.820
  473TIP3    H1 1360   6.252   5.577   3.851
  473TIP3    H2 1361   6.181   5.680   3.767
  474TIP3   OH2 1362   4.442   2.548   1.242
  474TIP3    H1 1363   4.379   2.484   1.275
  474TIP3    H2 1364   4.433   2.624   1.300
  475TIP3   OH2 1365   5.591   1.080   5.336
  475TIP3    H1 1366   5.572   1.119   5.421
  475TIP3    H2 1367   5.649   1.007   5.355
  476TIP3   OH2 1368   2.404   6.753   6.703
  476TIP3    H1 1369   2.403   6.742   6.798
  476TIP3    H2 1370   2.487   6.797   6.684
  477TIP3   OH2 1371   5.762   5.660   4.122
  477TIP3    H1 1372   5.762   5.596   4.052
  477TIP3    H2 1373   5.675   5.700   4.117
  478TIP3   OH2 1374   7.294   1.042   5.795
  478TIP3    H1 1375   7.275   0.948   5.798
  478TIP3    H2 1376   7.381   1.051   5.836
  479TIP3   OH2 1377   1.410   0.122   1.364
  479TIP3    H1 1378   1.329   0.071   1.371
  479TIP3    H2 1379   1.450   0.115   1.451
  480TIP3   OH2 1380   1.568   3.613   4.751
  480TIP3    H1 1381   1.478   3.637   4.772
  480TIP3    H2 1382   1.620   3.647   4.824
  481TIP3   OH2 1383   7.622   4.509   5.656
  481TIP3    H1 1384   7.551   4.553   5.610
  481TIP3    H2 1385   7.699   4.565   5.641
  482TIP3   OH2 1386   2.985   4.577   6.297
  482TIP3    H1 1387   3.074   4.562   6.327
  482TIP3    H2 1388   2.977   4.520   6.220
  483TIP3   OH2 1389   5.437   1.339   3.785
  483TIP3    H1 1390   5.504   1.406   3.789
  483TIP3    H2 1391   5.392   1.344   3.870
  484TIP3   OH2 1392   4.076   4.960   5.403
  484TIP3    H1 1393   4.084   4.973   5.498
  484TIP3    H2 1394   4.016   5.029   5.375
  485TIP3   OH2 1395   7.511   6.892   1.672
  485TIP3    H1 1396   7.531   6.829   1.602
  485TIP3    H2 1397   7.584   6.953   1.671
  486TIP3   OH2 1398   5.886   1.272   0.881
  486TIP3    H1 1399   5.934   1.335   0.934
  486TIP3    H2 1400   5.845   1.324   0.812
  487TIP3   OH2 1401   0.793   0.320   2.743
  487TIP3    H1 1402   0.841   0.274   2.674
  487TIP3    H2 1403   0.704   0.284   2.739
  488TIP3   OH2 1404   0.024   4.715   3.353
  488TIP3    H1 1405  -0.002   4.732   3.443
  488TIP3    H2 1406   0.103   4.661   3.361
  489TIP3   OH2 1407   6.236   2.084   0.068
  489TIP3    H1 1408   6.284   2.062  -0.012
  489TIP3    H2 1409   6.145   2.061   0.049
  490TIP3   OH2 1410   1.591   4.348   6.750
  490TIP3    H1 1411   1.591   4.415   6.818
  490TIP3    H2 1412   1.672   4.362   6.701
  491TIP3   OH2 1413   1.144   7.221   6.610
  491TIP3    H1 1414   1.219   7.178   6.650
  491TIP3    H2 1415   1.122   7.166   6.535
  492TIP3   OH2 1416   5.383   3.496   3.837
  492TIP3    H1 1417   5.377   3.521   3.930
  492TIP3    H2 1418   5.449   3.554   3.800
  493TIP3   OH2 1419   0.784   6.632   1.433
  493TIP3    H1 1420   0.852   6.674   1.380
  493TIP3    H2 1421   0.758   6.699   1.496
  494TIP3   OH2 1422   1.419   1.865   4.109
  494TIP3    H1 1423   1.502   1.870   4.061
  494TIP3    H2 1424   1.386   1.955   4.109
  495TIP3   OH2 1425   6.348   0.363   6.072
  495TIP3    H1 1426   6.433   0.320   6.063
  495TIP3    H2 1427   6.358   0.446   6.027
  496TIP3   OH2 1428   5.433   0.799   4.196
  496TIP3    H1 1429   5.471   0.779   4.111
  496TIP3    H2 1430   5.457   0.724   4.251
  497TIP3   OH2 1431   7.853   5.177   0.505
  497TIP3    H1 1432   7.767   5.166   0.545
  497TIP3    H2 1433   7.838   5.167   0.411
  498TIP3   OH2 1434   1.970   1.845   2.859
  498TIP3    H1 1435   1.910   1.781   2.897
  498TIP3    H2 1436   2.002   1.804   2.779
  499TIP3   OH2 1437   1.209   4.055   6.089
  499TIP3    H1 1438   1.214   4.063   6.184
  499TIP3    H2 1439   1.252   4.134   6.056
  500TIP3   OH2 1440   8.096   3.150   5.047
  500TIP3    H1 1441   8.107   3.245   5.043
  500TIP3    H2 1442   8.025   3.131   4.986
  501TIP3   OH2 1443   2.027   5.630   4.810
  501TIP3    H1 1444   2.106   5.664   4.850
  501TIP3    H2 1445   1.967   5.705   4.807
  502TIP3   OH2 1446   0.490   1.125   5.190
  502TIP3    H1 1447   0.399   1.142   5.167
  502TIP3    H2 1448   0.501   1.164   5.277
  503TIP3   OH2 1449   3.852   4.297   5.045
  503TIP3    H1 1450   3.820   4.344   4.969
  503TIP3    H2 1451   3.947   4.311   5.044
  504TIP3   OH2 1452   3.075   0.946   3.375
  504TIP3    H1 1453   3.123   1.010   3.322
  504TIP3    H2 1454   3.120   0.863   3.358
  505TIP3   OH2 1455   2.986   3.503   5.643
  505TIP3    H1 1456   2.944   3.462   5.719
  505TIP3    H2 1457   2.958   3.449   5.568
  506TIP3   OH2 1458   4.611   0.044   4.043
  506TIP3    H1 1459   4.600  -0.049   4.058
  506TIP3    H2 1460   4.684   0.070   4.099
  507TIP3   OH2 1461   6.847   2.265   0.362
  507TIP3    H1 1462   6.784   2.265   0.290
  507TIP3    H2 1463   6.846   2.175   0.394
  508TIP3   OH2 1464   2.348   5.819   5.991
  508TIP3    H1 1465   2.398   5.851   5.916
  508TIP3    H2 1466   2.415   5.799   6.057
  509TIP3   OH2 1467   2.036   4.641   3.016
  509TIP3    H1 1468   2.074   4.554   3.008
  509TIP3    H2 1469   2.006   4.647   3.107
  510TIP3   OH2 1470   0.943   3.304   6.396
  510TIP3    H1 1471   0.915   3.355   6.472
  510TIP3    H2 1472   0.975   3.369   6.334
  511TIP3   OH2 1473   4.876   7.183   1.830
  511TIP3    H1 1474   4.888   7.191   1.736
  511TIP3    H2 1475   4.846   7.092   1.843
  512TIP3   OH2 1476   1.673   1.382   2.569
  512TIP3    H1 1477   1.695   1.450   2.633
  512TIP3    H2 1478   1.609   1.423   2.511
  513TIP3   OH2 1479   0.844   3.274   5.976
  513TIP3    H1 1480   0.887   3.230   5.903
  513TIP3    H2 1481   0.836   3.365   5.949
  514TIP3   OH2 1482   5.036   0.602   2.628
  514TIP3    H1 1483   5.102   0.660   2.666
  514TIP3    H2 1484   4.970   0.593   2.697
  515TIP3   OH2 1485   1.177   5.725   0.497
  515TIP3    H1 1486   1.168   5.815   0.466
  515TIP3    H2 1487   1.183   5.673   0.417
  516TIP3   OH2 1488   0.276   1.443   4.511
  516TIP3    H1 1489   0.224   1.449   4.591
  516TIP3    H2 1490   0.346   1.382   4.533
  517TIP3   OH2 1491   0.702   6.663   5.900
  517TIP3    H1 1492   0.748   6.614   5.832
  517TIP3    H2 1493   0.686   6.600   5.970
  518TIP3   OH2 1494   3.848   6.904   2.286
  518TIP3    H1 1495   3.840   6.849   2.208
  518TIP3    H2 1496   3.941   6.899   2.309
  519TIP3   OH2 1497   1.554   7.097   0.635
  519TIP3    H1 1498   1.524   7.013   0.601
  519TIP3    H2 1499   1.481   7.157   0.620
  520TIP3   OH2 1500   4.811   6.471   2.000
  520TIP3    H1 1501   4.804   6.377   2.018
  520TIP3    H2 1502   4.826   6.475   1.905
  521TIP3   OH2 1503   5.470   4.796   6.457
  521TIP3    H1 1504   5.513   4.716   6.487
  521TIP3    H2 1505   5.436   4.774   6.370
  522TIP3   OH2 1506   2.690   6.974   2.433
  522TIP3    H1 1507   2.766   6.917   2.418
  522TIP3    H2 1508   2.707   7.051   2.379
  523TIP3   OH2 1509   3.006   4.200   6.453
  523TIP3    H1 1510   3.068   4.239   6.391
  523TIP3    H2 1511   2.995   4.266   6.521
  524TIP3   OH2 1512   3.253   4.217   0.228
  524TIP3    H1 1513   3.296   4.155   0.288
  524TIP3    H2 1514   3.325   4.268   0.191
  525TIP3   OH2 1515   0.406   2.258   5.480
  525TIP3    H1 1516   0.359   2.231   5.401
  525TIP3    H2 1517   0.366   2.341   5.506
  526TIP3   OH2 1518   7.363   6.668   2.638
  526TIP3    H1 1519   7.309   6.594   2.611
  526TIP3    H2 1520   7.453   6.639   2.622
  527TIP3   OH2 1521   6.695   7.830   3.453
  527TIP3    H1 1522   6.683   7.753   3.398
  527TIP3    H2 1523   6.789   7.848   3.449
  528TIP3   OH2 1524   4.406   1.431   5.949
  528TIP3    H1 1525   4.326   1.470   5.915
  528TIP3    H2 1526   4.443   1.383   5.875
  529TIP3   OH2 1527   7.250   1.019   4.015
  529TIP3    H1 1528   7.181   1.085   4.010
  529TIP3    H2 1529   7.203   0.937   4.027
  530TIP3   OH2 1530   8.185   3.707   0.540
  530TIP3    H1 1531   8.156   3.734   0.453
  530TIP3    H2 1532   8.135   3.627   0.558
  531TIP3   OH2 1533   4.144   1.834   0.878
  531TIP3    H1 1534   4.161   1.802   0.967
  531TIP3    H2 1535   4.222   1.884   0.856
  532TIP3   OH2 1536   6.518   4.921   4.383
  532TIP3    H1 1537   6.439   4.930   4.331
  532TIP3    H2 1538   6.586   4.967   4.333
  533TIP3   OH2 1539   5.397   5.892   6.453
  533TIP3    H1 1540   5.462   5.899   6.383
  533TIP3    H2 1541   5.426   5.954   6.519
  534TIP3   OH2 1542   6.954   4.000   1.866
  534TIP3    H1 1543   6.940   3.992   1.960
  534TIP3    H2 1544   6.931   4.091   1.847
  535TIP3   OH2 1545   8.206   6.573   0.823
  535TIP3    H1 1546   8.171   6.495   0.781
  535TIP3    H2 1547   8.170   6.646   0.772
  536TIP3   OH2 1548   5.110   1.046   3.337
  536TIP3    H1 1549   5.191   1.017   3.296
  536TIP3    H2 1550   5.128   1.040   3.431
  537TIP3   OH2 1551   7.840   2.204   6.126
  537TIP3    H1 1552   7.755   2.165   6.105
  537TIP3    H2 1553   7.825   2.298   6.122
  538TIP3   OH2 1554   5.887   7.729   0.986
  538TIP3    H1 1555   5.906   7.636   0.996
  538TIP3    H2 1556   5.875   7.762   1.075
  539TIP3   OH2 1557   4.278   1.972   2.714
  539TIP3    H1 1558   4.235   2.015   2.787
  539TIP3    H2 1559   4.236   1.886   2.708
  540TIP3   OH2 1560   8.119   0.353   6.215
  540TIP3    H1 1561   8.181   0.405   6.164
  540TIP3    H2 1562   8.069   0.304   6.150
  541TIP3   OH2 1563   4.198   7.482   5.665
  541TIP3    H1 1564   4.264   7.472   5.596
  541TIP3    H2 1565   4.168   7.573   5.657
  542TIP3   OH2 1566   6.368   2.115   5.428
  542TIP3    H1 1567   6.424   2.085   5.499
  542TIP3    H2 1568   6.334   2.035   5.388
  543TIP3   OH2 1569   6.176   5.643   2.247
  543TIP3    H1 1570   6.262   5.612   2.274
  543TIP3    H2 1571   6.187   5.666   2.154
  544TIP3   OH2 1572   0.343   3.111   5.465
  544TIP3    H1 1573   0.340   3.206   5.477
  544TIP3    H2 1574   0.366   3.077   5.552
  545TIP3   OH2 1575   6.601   6.625   4.580
  545TIP3    H1 1576   6.692   6.626   4.551
  545TIP3    H2 1577   6.556   6.574   4.512
  546TIP3   OH2 1578   0.920   5.415   4.690
  546TIP3    H1 1579   0.845   5.449   4.641
  546TIP3    H2 1580   0.976   5.375   4.624
  547TIP3   OH2 1581   3.401   1.903   5.472
  547TIP3    H1 1582   3.352   1.846   5.412
  547TIP3    H2 1583   3.493   1.878   5.459
  548TIP3   OH2 1584   6.665   1.345   5.517
  548TIP3    H1 1585   6.732   1.298   5.566
  548TIP3    H2 1586   6.621   1.278   5.465
  549TIP3   OH2 1587   1.928   5.800   6.492
  549TIP3    H1 1588   1.968   5.878   6.530
  549TIP3    H2 1589   1.993   5.767   6.430
  550TIP3   OH2 1590   2.663   5.836   2.806
  550TIP3    H1 1591   2.616   5.911   2.770
  550TIP3    H2 1592   2.594   5.771   2.823
  551TIP3   OH2 1593   7.862   5.313   4.840
  551TIP3    H1 1594   7.831   5.276   4.757
  551TIP3    H2 1595   7.914   5.389   4.814
  552TIP3   OH2 1596   6.751   1.762   3.288
  552TIP3    H1 1597   6.791   1.680   3.317
  552TIP3    H2 1598   6.825   1.823   3.280
  553TIP3   OH2 1599   2.247   7.010   1.511
  553TIP3    H1 1600   2.196   6.983   1.435
  553TIP3    H2 1601   2.237   7.105   1.515
  554TIP3   OH2 1602   0.642   4.935   3.868
  554TIP3    H1 1603   0.699   4.869   3.908
  554TIP3    H2 1604   0.554   4.906   3.890
  555TIP3   OH2 1605   0.664   1.585   5.898
  555TIP3    H1 1606   0.604   1.659   5.901
  555TIP3    H2 1607   0.750   1.624   5.882
  556TIP3   OH2 1608   5.805   0.730   3.365
  556TIP3    H1 1609   5.875   0.695   3.310
  556TIP3    H2 1610   5.828   0.822   3.380
  557TIP3   OH2 1611   2.750   1.921   3.386
  557TIP3    H1 1612   2.677   1.865   3.361
  557TIP3    H2 1613   2.714   2.010   3.384
  558TIP3   OH2 1614   6.985   5.462   0.430
  558TIP3    H1 1615   7.053   5.400   0.456
  558TIP3    H2 1616   7.034   5.538   0.398
  559TIP3   OH2 1617   2.497   0.578   5.438
  559TIP3    H1 1618   2.531   0.652   5.489
  559TIP3    H2 1619   2.455   0.522   5.502
  560TIP3   OH2 1620   5.650   7.334   1.325
  560TIP3    H1 1621   5.572   7.316   1.377
  560TIP3    H2 1622   5.634   7.419   1.285
  561TIP3   OH2 1623   2.064   1.270   4.138
  561TIP3    H1 1624   1.985   1.281   4.085
  561TIP3    H2 1625   2.070   1.351   4.188
  562TIP3   OH2 1626   4.616   2.762   3.955
  562TIP3    H1 1627   4.592   2.676   3.990
  562TIP3    H2 1628   4.547   2.820   3.986
  563TIP3   OH2 1629   2.633   6.719   5.880
  563TIP3    H1 1630   2.566   6.787   5.874
  563TIP3    H2 1631   2.664   6.708   5.790
  564TIP3   OH2 1632   0.362   6.823   3.064
  564TIP3    H1 1633   0.454   6.803   3.047
  564TIP3    H2 1634   0.313   6.769   3.002
  565TIP3   OH2 1635   1.760   4.608   5.528
  565TIP3    H1 1636   1.823   4.536   5.532
  565TIP3    H2 1637   1.773   4.646   5.441
  566TIP3   OH2 1638   5.149   1.279   3.688
  566TIP3    H1 1639   5.193   1.199   3.660
  566TIP3    H2 1640   5.213   1.322   3.745
  567TIP3   OH2 1641   5.783   2.722   2.373
  567TIP3    H1 1642   5.855   2.770   2.415
  567TIP3    H2 1643   5.825   2.647   2.332
  568TIP3   OH2 1644   5.946   6.962   2.635
  568TIP3    H1 1645   5.878   7.028   2.618
  568TIP3    H2 1646   5.932   6.895   2.568
  569TIP3   OH2 1647   1.572   4.860   6.678
  569TIP3    H1 1648   1.553   4.948   6.644
  569TIP3    H2 1649   1.493   4.834   6.723
  570TIP3   OH2 1650   2.826   2.372   5.911
  570TIP3    H1 1651   2.737   2.356   5.943
  570TIP3    H2 1652   2.822   2.460   5.874
  571TIP3   OH2 1653   1.403   3.373   6.626
  571TIP3    H1 1654   1.413   3.300   6.564
  571TIP3    H2 1655   1.353   3.438   6.577
  572TIP3   OH2 1656   2.305   7.762   6.724
  572TIP3    H1 1657   2.336   7.840   6.678
  572TIP3    H2 1658   2.336   7.774   6.814
  573TIP3   OH2 1659   8.217   5.867   0.253
  573TIP3    H1 1660   8.204   5.881   0.159
  573TIP3    H2 1661   8.191   5.949   0.293
  574TIP3   OH2 1662   6.215   7.601   0.317
  574TIP3    H1 1663   6.276   7.529   0.299
  574TIP3    H2 1664   6.271   7.680   0.315
  575TIP3   OH2 1665   6.497   0.786   3.445
  575TIP3    H1 1666   6.465   0.696   3.432
  575TIP3    H2 1667   6.504   0.822   3.356
  576TIP3   OH2 1668   6.889   7.098   6.136
  576TIP3    H1 1669   6.916   7.164   6.072
  576TIP3    H2 1670   6.934   7.123   6.216
  577TIP3   OH2 1671   1.805   1.702   6.296
  577TIP3    H1 1672   1.741   1.655   6.242
  577TIP3    H2 1673   1.753   1.757   6.353
  578TIP3   OH2 1674   1.009   2.176   3.590
  578TIP3    H1 1675   1.091   2.226   3.598
  578TIP3    H2 1676   0.941   2.243   3.587
  579TIP3   OH2 1677   6.182   1.634   6.384
  579TIP3    H1 1678   6.192   1.725   6.410
  579TIP3    H2 1679   6.206   1.584   6.462
  580TIP3   OH2 1680   6.777   1.944   2.077
  580TIP3    H1 1681   6.829   1.931   1.998
  580TIP3    H2 1682   6.809   2.027   2.113
  581TIP3   OH2 1683   6.614   4.601   2.655
  581TIP3    H1 1684   6.591   4.694   2.659
  581TIP3    H2 1685   6.669   4.588   2.733
  582TIP3   OH2 1686   2.590   3.367   2.785
  582TIP3    H1 1687   2.598   3.462   2.774
  582TIP3    H2 1688   2.576   3.355   2.879
  583TIP3   OH2 1689   8.321   4.631   1.295
  583TIP3    H1 1690   8.297   4.541   1.270
  583TIP3    H2 1691   8.326   4.629   1.390
  584TIP3   OH2 1692   6.777   0.892   0.273
  584TIP3    H1 1693   6.827   0.854   0.345
  584TIP3    H2 1694   6.725   0.961   0.314
  585TIP3   OH2 1695   6.541   7.285   3.491
  585TIP3    H1 1696   6.542   7.203   3.442
  585TIP3    H2 1697   6.572   7.262   3.578
  586TIP3   OH2 1698   2.608   4.194   0.596
  586TIP3    H1 1699   2.702   4.199   0.610
  586TIP3    H2 1700   2.577   4.283   0.610
  587TIP3   OH2 1701   3.303   1.683   0.772
  587TIP3    H1 1702   3.260   1.613   0.722
  587TIP3    H2 1703   3.385   1.699   0.725
  588TIP3   OH2 1704   1.424   2.844   1.267
  588TIP3    H1 1705   1.393   2.932   1.289
  588TIP3    H2 1706   1.361   2.813   1.201
  589TIP3   OH2 1707   1.754   6.721   5.796
  589TIP3    H1 1708   1.771   6.809   5.829
  589TIP3    H2 1709   1.820   6.666   5.838
  590TIP3   OH2 1710   7.855   2.774   1.212
  590TIP3    H1 1711   7.761   2.760   1.222
  590TIP3    H2 1712   7.862   2.846   1.150
  591TIP3   OH2 1713   6.807   2.779   4.420
  591TIP3    H1 1714   6.882   2.815   4.373
  591TIP3    H2 1715   6.831   2.785   4.512
  592TIP3   OH2 1716   0.990   3.900   1.057
  592TIP3    H1 1717   0.947   3.943   0.983
  592TIP3    H2 1718   0.962   3.808   1.051
  593TIP3   OH2 1719   2.198   4.974   0.471
  593TIP3    H1 1720   2.222   5.047   0.528
  593TIP3    H2 1721   2.281   4.936   0.444
  594TIP3   OH2 1722   5.924   2.773   3.958
  594TIP3    H1 1723   5.950   2.729   4.040
  594TIP3    H2 1724   5.977   2.731   3.891
  595TIP3   OH2 1725   3.443   3.722   2.339
  595TIP3    H1 1726   3.474   3.806   2.305
  595TIP3    H2 1727   3.397   3.744   2.420
  596TIP3   OH2 1728   2.418   5.378   2.181
  596TIP3    H1 1729   2.351   5.333   2.129
  596TIP3    H2 1730   2.490   5.315   2.187
  597TIP3   OH2 1731   7.482   6.333   6.696
  597TIP3    H1 1732   7.484   6.428   6.689
  597TIP3    H2 1733   7.490   6.315   6.789
  598TIP3   OH2 1734   1.523   0.492   4.616
  598TIP3    H1 1735   1.467   0.494   4.538
  598TIP3    H2 1736   1.526   0.583   4.646
  599TIP3   OH2 1737   7.747   5.837   5.623
  599TIP3    H1 1738   7.668   5.798   5.586
  599TIP3    H2 1739   7.717   5.892   5.695
  600TIP3   OH2 1740   7.793   4.183   0.519
  600TIP3    H1 1741   7.698   4.190   0.530
  600TIP3    H2 1742   7.826   4.269   0.545
  601TIP3   OH2 1743   1.847   7.742   4.739
  601TIP3    H1 1744   1.841   7.656   4.779
  601TIP3    H2 1745   1.915   7.787   4.790
  602TIP3   OH2 1746   7.646   3.652   6.575
  602TIP3    H1 1747   7.553   3.629   6.572
  602TIP3    H2 1748   7.650   3.729   6.632
  603TIP3   OH2 1749   1.961   2.860   5.269
  603TIP3    H1 1750   2.017   2.913   5.213
  603TIP3    H2 1751   2.018   2.793   5.306
  604TIP3   OH2 1752   4.337   5.545   3.403
  604TIP3    H1 1753   4.299   5.534   3.316
  604TIP3    H2 1754   4.399   5.617   3.393
  605TIP3   OH2 1755   0.903   3.791   4.040
  605TIP3    H1 1756   0.919   3.878   4.003
  605TIP3    H2 1757   0.852   3.808   4.119
  606TIP3   OH2 1758   0.007   6.771   4.249
  606TIP3    H1 1759  -0.075   6.741   4.288
  606TIP3    H2 1760   0.075   6.732   4.303
  607TIP3   OH2 1761   6.577   4.801   4.090
  607TIP3    H1 1762   6.505   4.858   4.117
  607TIP3    H2 1763   6.606   4.759   4.170
  608TIP3   OH2 1764   0.302   2.409   3.806
  608TIP3    H1 1765   0.280   2.351   3.879
  608TIP3    H2 1766   0.218   2.426   3.763
  609TIP3   OH2 1767   3.699   6.718   2.667
  609TIP3    H1 1768   3.738   6.803   2.645
  609TIP3    H2 1769   3.695   6.717   2.763
  610TIP3   OH2 1770   6.376   3.402   6.096
  610TIP3    H1 1771   6.284   3.377   6.084
  610TIP3    H2 1772   6.373   3.495   6.119
  611TIP3   OH2 1773   5.197   7.501   6.863
  611TIP3    H1 1774   5.167   7.545   6.783
  611TIP3    H2 1775   5.117   7.467   6.903
  612TIP3   OH2 1776   4.773   0.541   2.159
  612TIP3    H1 1777   4.859   0.575   2.182
  612TIP3    H2 1778   4.752   0.583   2.075
  613TIP3   OH2 1779   3.605   1.775   0.756
  613TIP3    H1 1780   3.629   1.696   0.708
  613TIP3    H2 1781   3.676   1.837   0.738
  614TIP3   OH2 1782   4.460   0.605   3.375
  614TIP3    H1 1783   4.493   0.535   3.318
  614TIP3    H2 1784   4.489   0.685   3.332
  615TIP3   OH2 1785   6.943   5.622   2.363
  615TIP3    H1 1786   6.904   5.537   2.384
  615TIP3    H2 1787   7.028   5.621   2.406
  616TIP3   OH2 1788   6.295   2.812   0.996
  616TIP3    H1 1789   6.272   2.889   1.049
  616TIP3    H2 1790   6.377   2.780   1.034
  617TIP3   OH2 1791   8.170   5.061   0.864
  617TIP3    H1 1792   8.095   5.061   0.804
  617TIP3    H2 1793   8.131   5.063   0.951
  618TIP3   OH2 1794   1.420   7.896   3.695
  618TIP3    H1 1795   1.468   7.886   3.777
  618TIP3    H2 1796   1.476   7.952   3.641
  619TIP3   OH2 1797   2.927   6.258   5.985
  619TIP3    H1 1798   2.919   6.311   5.905
  619TIP3    H2 1799   3.021   6.245   5.996
  620TIP3   OH2 1800   3.443   6.197   4.528
  620TIP3    H1 1801   3.402   6.111   4.518
  620TIP3    H2 1802   3.435   6.238   4.442
  621TIP3   OH2 1803   4.576   5.224   0.326
  621TIP3    H1 1804   4.668   5.205   0.313
  621TIP3    H2 1805   4.560   5.304   0.275
  622TIP3   OH2 1806   4.260   6.122   5.368
  622TIP3    H1 1807   4.175   6.082   5.383
  622TIP3    H2 1808   4.255   6.158   5.279
  623TIP3   OH2 1809   5.881   1.160   5.264
  623TIP3    H1 1810   5.859   1.068   5.254
  623TIP3    H2 1811   5.797   1.205   5.272
  624TIP3   OH2 1812   4.078   2.900   3.010
  624TIP3    H1 1813   4.171   2.922   3.002
  624TIP3    H2 1814   4.071   2.856   3.095
  625TIP3   OH2 1815   7.685   5.900   6.498
  625TIP3    H1 1816   7.717   5.974   6.446
  625TIP3    H2 1817   7.639   5.844   6.435
  626TIP3   OH2 1818   2.421   1.599   5.315
  626TIP3    H1 1819   2.365   1.548   5.374
  626TIP3    H2 1820   2.435   1.542   5.239
  627TIP3   OH2 1821   7.319   3.230   5.440
  627TIP3    H1 1822   7.389   3.165   5.428
  627TIP3    H2 1823   7.276   3.204   5.521
  628TIP3   OH2 1824   3.941   0.256   0.223
  628TIP3    H1 1825   4.031   0.268   0.252
  628TIP3    H2 1826   3.920   0.166   0.247
  629TIP3   OH2 1827   2.458   4.204   5.353
  629TIP3    H1 1828   2.485   4.172   5.438
  629TIP3    H2 1829   2.414   4.288   5.371
  630TIP3   OH2 1830   6.763   7.726   6.656
  630TIP3    H1 1831   6.809   7.809   6.650
  630TIP3    H2 1832   6.769   7.702   6.748
  631TIP3   OH2 1833   2.722   5.185   5.679
  631TIP3    H1 1834   2.798   5.210   5.628
  631TIP3    H2 1835   2.748   5.199   5.770
  632TIP3   OH2 1836   2.976   2.060   4.410
  632TIP3    H1 1837   2.978   2.147   4.370
  632TIP3    H2 1838   2.993   2.000   4.338
  633TIP3   OH2 1839   5.069   5.378   1.288
  633TIP3    H1 1840   5.091   5.470   1.272
  633TIP3    H2 1841   4.984   5.366   1.247
  634TIP3   OH2 1842   7.024   1.445   1.728
  634TIP3    H1 1843   7.048   1.531   1.693
  634TIP3    H2 1844   7.059   1.445   1.817
  635TIP3   OH2 1845   5.332   7.808   1.395
  635TIP3    H1 1846   5.316   7.803   1.489
  635TIP3    H2 1847   5.356   7.900   1.380
  636TIP3   OH2 1848   6.589   4.515   6.038
  636TIP3    H1 1849   6.675   4.532   5.999
  636TIP3    H2 1850   6.589   4.421   6.055
  637TIP3   OH2 1851   2.140   6.847   5.740
  637TIP3    H1 1852   2.050   6.877   5.727
  637TIP3    H2 1853   2.183   6.920   5.784
  638TIP3   OH2 1854   6.029   0.197   1.172
  638TIP3    H1 1855   6.015   0.266   1.107
  638TIP3    H2 1856   6.016   0.241   1.256
  639TIP3   OH2 1857   7.765   3.731   2.992
  639TIP3    H1 1858   7.681   3.716   2.949
  639TIP3    H2 1859   7.754   3.814   3.039
  640TIP3   OH2 1860   3.116   1.443   5.147
  640TIP3    H1 1861   3.188   1.436   5.211
  640TIP3    H2 1862   3.109   1.355   5.110
  641TIP3   OH2 1863   6.583   4.240   5.527
  641TIP3    H1 1864   6.636   4.311   5.491
  641TIP3    H2 1865   6.494   4.276   5.532
  642TIP3   OH2 1866   0.600   0.801   2.450
  642TIP3    H1 1867   0.633   0.726   2.401
  642TIP3    H2 1868   0.589   0.870   2.384
  643TIP3   OH2 1869   5.742   7.356   5.718
  643TIP3    H1 1870   5.835   7.374   5.730
  643TIP3    H2 1871   5.699   7.414   5.781
  644TIP3   OH2 1872   2.347   0.084   4.528
  644TIP3    H1 1873   2.379   0.168   4.559
  644TIP3    H2 1874   2.255   0.100   4.505
  645TIP3   OH2 1875   0.020   2.319   2.578
  645TIP3    H1 1876  -0.022   2.353   2.658
  645TIP3    H2 1877  -0.023   2.366   2.507
  646TIP3   OH2 1878   8.075   1.007   0.990
  646TIP3    H1 1879   8.054   0.972   0.904
  646TIP3    H2 1880   8.143   1.072   0.975
  647TIP3   OH2 1881   7.668   7.560   4.039
  647TIP3    H1 1882   7.758   7.591   4.034
  647TIP3    H2 1883   7.636   7.589   4.124
  648TIP3   OH2 1884   7.952   5.630   0.897
  648TIP3    H1 1885   7.972   5.692   0.966
  648TIP3    H2 1886   8.032   5.576   0.889
  649TIP3   OH2 1887   4.466   7.102   5.894
  649TIP3    H1 1888   4.537   7.040   5.876
  649TIP3    H2 1889   4.422   7.113   5.811
  650TIP3   OH2 1890   0.621   2.004   5.865
  650TIP3    H1 1891   0.690   1.976   5.804
  650TIP3    H2 1892   0.574   1.924   5.887
  651TIP3   OH2 1893   5.347   0.386   4.579
  651TIP3    H1 1894   5.386   0.424   4.657
  651TIP3    H2 1895   5.418   0.339   4.536
  652TIP3   OH2 1896   3.427   2.267   3.931
  652TIP3    H1 1897   3.358   2.202   3.943
  652TIP3    H2 1898   3.408   2.334   3.996
  653TIP3   OH2 1899   0.446   2.549   4.021
  653TIP3    H1 1900   0.388   2.502   3.961
  653TIP3    H2 1901   0.456   2.490   4.096
  654TIP3   OH2 1902   1.922   6.355   0.903
  654TIP3    H1 1903   2.006   6.350   0.949
  654TIP3    H2 1904   1.912   6.269   0.862
  655TIP3   OH2 1905   6.024   3.847   2.917
  655TIP3    H1 1906   6.112   3.882   2.901
  655TIP3    H2 1907   6.037   3.753   2.930
  656TIP3   OH2 1908   8.230   6.765   3.890
  656TIP3    H1 1909   8.264   6.721   3.812
  656TIP3    H2 1910   8.279   6.725   3.962
  657TIP3   OH2 1911   3.086   2.425   1.929
  657TIP3    H1 1912   3.128   2.396   1.848
  657TIP3    H2 1913   3.023   2.356   1.950
  658TIP3   OH2 1914   5.455   1.895   3.791
  658TIP3    H1 1915   5.484   1.805   3.804
  658TIP3    H2 1916   5.411   1.918   3.873
  659TIP3   OH2 1917   7.546   1.066   4.184
  659TIP3    H1 1918   7.516   1.087   4.273
  659TIP3    H2 1919   7.522   0.974   4.172
  660TIP3   OH2 1920   1.191   2.351   5.059
  660TIP3    H1 1921   1.282   2.322   5.056
  660TIP3    H2 1922   1.187   2.409   5.135
  661TIP3   OH2 1923   0.148   1.074   0.743
  661TIP3    H1 1924   0.149   1.048   0.650
  661TIP3    H2 1925   0.163   0.992   0.790
  662TIP3   OH2 1926   2.762   6.856   2.815
  662TIP3    H1 1927   2.782   6.781   2.760
  662TIP3    H2 1928   2.707   6.820   2.885
  663TIP3   OH2 1929   1.535   6.020   5.996
  663TIP3    H1 1930   1.466   5.957   5.975
  663TIP3    H2 1931   1.612   5.966   6.016
  664TIP3   OH2 1932   3.570   4.694   2.314
  664TIP3    H1 1933   3.656   4.732   2.332
  664TIP3    H2 1934   3.512   4.770   2.306
  665TIP3   OH2 1935   6.491   1.446   2.585
  665TIP3    H1 1936   6.418   1.507   2.597
  665TIP3    H2 1937   6.518   1.423   2.674
  666TIP3   OH2 1938   7.050   0.818   4.746
  666TIP3    H1 1939   6.986   0.797   4.814
  666TIP3    H2 1940   7.081   0.905   4.769
  667TIP3   OH2 1941   6.208   6.103   5.213
  667TIP3    H1 1942   6.290   6.087   5.166
  667TIP3    H2 1943   6.144   6.049   5.168
  668TIP3   OH2 1944   6.825   3.935   3.568
  668TIP3    H1 1945   6.828   3.960   3.660
  668TIP3    H2 1946   6.912   3.953   3.535
  669TIP3   OH2 1947   1.538   5.114   0.198
  669TIP3    H1 1948   1.544   5.055   0.123
  669TIP3    H2 1949   1.614   5.092   0.253
  670TIP3   OH2 1950   3.738   5.129   2.087
  670TIP3    H1 1951   3.702   5.180   2.159
  670TIP3    H2 1952   3.686   5.154   2.011
  671TIP3   OH2 1953   5.623   4.180   6.684
  671TIP3    H1 1954   5.677   4.250   6.721
  671TIP3    H2 1955   5.683   4.129   6.629
  672TIP3   OH2 1956   0.777   4.867   4.665
  672TIP3    H1 1957   0.791   4.908   4.750
  672TIP3    H2 1958   0.819   4.927   4.603
  673TIP3   OH2 1959   6.310   3.104   0.742
  673TIP3    H1 1960   6.327   3.198   0.739
  673TIP3    H2 1961   6.390   3.067   0.779
  674TIP3   OH2 1962   3.312   7.829   2.209
  674TIP3    H1 1963   3.391   7.879   2.226
  674TIP3    H2 1964   3.298   7.837   2.114
  675TIP3   OH2 1965   2.865   0.915   0.967
  675TIP3    H1 1966   2.858   0.927   0.872
  675TIP3    H2 1967   2.821   0.992   1.003
  676TIP3   OH2 1968   0.331   6.609   3.580
  676TIP3    H1 1969   0.336   6.642   3.670
  676TIP3    H2 1970   0.239   6.583   3.569
  677TIP3   OH2 1971   0.375   7.446   6.583
  677TIP3    H1 1972   0.462   7.468   6.548
  677TIP3    H2 1973   0.367   7.351   6.568
  678TIP3   OH2 1974   5.919   1.180   2.058
  678TIP3    H1 1975   5.852   1.113   2.066
  678TIP3    H2 1976   5.884   1.241   1.992
  679TIP3   OH2 1977   1.354   6.925   5.003
  679TIP3    H1 1978   1.277   6.895   4.955
  679TIP3    H2 1979   1.427   6.878   4.963
  680TIP3   OH2 1980   3.338   6.086   6.311
  680TIP3    H1 1981   3.364   6.172   6.278
  680TIP3    H2 1982   3.284   6.105   6.388
  681TIP3   OH2 1983   5.276   0.848   5.050
  681TIP3    H1 1984   5.362   0.811   5.069
  681TIP3    H2 1985   5.250   0.807   4.968
  682TIP3   OH2 1986   6.372   4.490   2.531
  682TIP3    H1 1987   6.389   4.522   2.443
  682TIP3    H2 1988   6.441   4.529   2.585
  683TIP3   OH2 1989   0.190   6.822   4.457
  683TIP3    H1 1990   0.250   6.896   4.464
  683TIP3    H2 1991   0.244   6.750   4.423
  684TIP3   OH2 1992   0.657   1.360   1.099
  684TIP3    H1 1993   0.623   1.412   1.027
  684TIP3    H2 1994   0.703   1.423   1.154
  685TIP3   OH2 1995   6.159   2.788   4.339
  685TIP3    H1 1996   6.252   2.813   4.338
  685TIP3    H2 1997   6.113   2.868   4.365
  686TIP3   OH2 1998   7.280   1.594   2.830
  686TIP3    H1 1999   7.259   1.548   2.911
  686TIP3    H2 2000   7.366   1.633   2.846
  687TIP3   OH2 2001   0.152   3.358   5.479
  687TIP3    H1 2002   0.108   3.322   5.402
  687TIP3    H2 2003   0.136   3.295   5.548
  688TIP3   OH2 2004   2.782   1.590   0.192
  688TIP3    H1 2005   2.795   1.634   0.107
  688TIP3    H2 2006   2.858   1.533   0.201
  689TIP3   OH2 2007   0.054   4.087   5.236
  689TIP3    H1 2008  -0.027   4.095   5.185
  689TIP3    H2 2009   0.024   4.068   5.325
  690TIP3   OH2 2010   2.081   0.139   4.346
  690TIP3    H1 2011   1.998   0.097   4.369
  690TIP3    H2 2012   2.104   0.189   4.424
  691TIP3   OH2 2013   6.169   3.492   2.721
  691TIP3    H1 2014   6.172   3.570   2.667
  691TIP3    H2 2015   6.255   3.487   2.762
  692TIP3   OH2 2016   1.261   0.995   5.157
  692TIP3    H1 2017   1.253   1.035   5.243
  692TIP3    H2 2018   1.353   1.005   5.134
  693TIP3   OH2 2019   0.246   2.103   1.175
  693TIP3    H1 2020   0.326   2.119   1.125
  693TIP3    H2 2021   0.238   2.180   1.232
  694TIP3   OH2 2022   4.971   4.718   5.024
  694TIP3    H1 2023   4.904   4.719   4.956
  694TIP3    H2 2024   4.942   4.785   5.087
  695TIP3   OH2 2025   5.226   0.022   2.448
  695TIP3    H1 2026   5.265  -0.064   2.467
  695TIP3    H2 2027   5.168   0.006   2.373
  696TIP3   OH2 2028   3.556   3.955   3.306
  696TIP3    H1 2029   3.608   3.988   3.232
  696TIP3    H2 2030   3.540   4.032   3.360
  697TIP3   OH2 2031   0.489   5.776   2.533
  697TIP3    H1 2032   0.527   5.839   2.595
  697TIP3    H2 2033   0.485   5.694   2.582
  698TIP3   OH2 2034   7.717   7.557   1.032
  698TIP3    H1 2035   7.725   7.604   0.949
  698TIP3    H2 2036   7.731   7.624   1.099
  699TIP3   OH2 2037   4.860   6.665   2.431
  699TIP3    H1 2038   4.766   6.671   2.413
  699TIP3    H2 2039   4.882   6.574   2.412
  700TIP3   OH2 2040   7.684   3.234   2.563
  700TIP3    H1 2041   7.588   3.230   2.568
  700TIP3    H2 2042   7.702   3.315   2.516
  701TIP3   OH2 2043   4.155   4.167   3.516
  701TIP3    H1 2044   4.090   4.207   3.574
  701TIP3    H2 2045   4.209   4.113   3.574
  702TIP3   OH2 2046   6.025   5.108   1.492
  702TIP3    H1 2047   5.932   5.119   1.472
  702TIP3    H2 2048   6.032   5.123   1.586
  703TIP3   OH2 2049   8.222   7.131   3.219
  703TIP3    H1 2050   8.217   7.159   3.310
  703TIP3    H2 2051   8.131   7.110   3.195
  704TIP3   OH2 2052   7.906   4.836   5.965
  704TIP3    H1 2053   7.960   4.757   5.962
  704TIP3    H2 2054   7.844   4.820   6.037
  705TIP3   OH2 2055   0.079   4.402   3.634
  705TIP3    H1 2056   0.005   4.410   3.694
  705TIP3    H2 2057   0.044   4.360   3.557
  706TIP3   OH2 2058   4.071   4.980   0.134
  706TIP3    H1 2059   4.163   4.992   0.109
  706TIP3    H2 2060   4.058   4.885   0.130
  707TIP3   OH2 2061   8.054   1.521   2.915
  707TIP3    H1 2062   8.100   1.447   2.877
  707TIP3    H2 2063   8.106   1.545   2.992
  708TIP3   OH2 2064   5.448   4.482   0.786
  708TIP3    H1 2065   5.461   4.425   0.710
  708TIP3    H2 2066   5.453   4.422   0.861
  709TIP3   OH2 2067   2.742   3.381   5.945
  709TIP3    H1 2068   2.702   3.411   6.026
  709TIP3    H2 2069   2.710   3.442   5.878
  710TIP3   OH2 2070   1.565   7.522   0.991
  710TIP3    H1 2071   1.474   7.494   0.983
  710TIP3    H2 2072   1.603   7.506   0.904
  711TIP3   OH2 2073   8.350   1.923   0.834
  711TIP3    H1 2074   8.338   1.973   0.754
  711TIP3    H2 2075   8.439   1.889   0.828
  712TIP3   OH2 2076   4.194   5.951   6.078
  712TIP3    H1 2077   4.257   5.881   6.091
  712TIP3    H2 2078   4.212   6.012   6.150
  713TIP3   OH2 2079   8.065   7.873   4.298
  713TIP3    H1 2080   8.026   7.873   4.386
  713TIP3    H2 2081   7.990   7.868   4.239
  714TIP3   OH2 2082   0.470   0.950   3.558
  714TIP3    H1 2083   0.507   0.962   3.470
  714TIP3    H2 2084   0.394   1.008   3.560
  715TIP3   OH2 2085   2.446   5.374   4.351
  715TIP3    H1 2086   2.507   5.332   4.412
  715TIP3    H2 2087   2.389   5.303   4.322
  716TIP3   OH2 2088   1.492   3.300   3.651
  716TIP3    H1 2089   1.410   3.284   3.699
  716TIP3    H2 2090   1.547   3.348   3.713
  717TIP3   OH2 2091   7.871   6.652   5.431
  717TIP3    H1 2092   7.823   6.664   5.349
  717TIP3    H2 2093   7.919   6.734   5.442
  718TIP3   OH2 2094   0.517   2.807   0.585
  718TIP3    H1 2095   0.456   2.749   0.631
  718TIP3    H2 2096   0.467   2.888   0.573
  719TIP3   OH2 2097   7.959   6.502   4.924
  719TIP3    H1 2098   8.035   6.445   4.918
  719TIP3    H2 2099   7.895   6.462   4.865
  720TIP3   OH2 2100   2.831   7.704   4.375
  720TIP3    H1 2101   2.835   7.782   4.430
  720TIP3    H2 2102   2.851   7.632   4.435
  721TIP3   OH2 2103   3.902   1.418   6.370
  721TIP3    H1 2104   3.877   1.467   6.292
  721TIP3    H2 2105   3.981   1.370   6.343
  722TIP3   OH2 2106   5.940   2.937   2.513
  722TIP3    H1 2107   6.023   2.939   2.466
  722TIP3    H2 2108   5.930   3.026   2.548
  723TIP3   OH2 2109   4.283   3.972   0.973
  723TIP3    H1 2110   4.340   3.978   0.896
  723TIP3    H2 2111   4.217   4.040   0.959
  724TIP3   OH2 2112   0.304   0.059   0.516
  724TIP3    H1 2113   0.347   0.132   0.558
  724TIP3    H2 2114   0.259   0.013   0.587
  725TIP3   OH2 2115   6.911   1.967   4.334
  725TIP3    H1 2116   6.928   1.984   4.241
  725TIP3    H2 2117   6.821   1.996   4.347
  726TIP3   OH2 2118   5.436   5.970   0.242
  726TIP3    H1 2119   5.489   6.012   0.175
  726TIP3    H2 2120   5.411   6.040   0.302
  727TIP3   OH2 2121   4.872   1.465   4.549
  727TIP3    H1 2122   4.935   1.515   4.602
  727TIP3    H2 2123   4.818   1.420   4.614
  728TIP3   OH2 2124   8.056   7.284   1.556
  728TIP3    H1 2125   8.149   7.306   1.547
  728TIP3    H2 2126   8.028   7.331   1.634
  729TIP3   OH2 2127   0.642   1.159   1.293
  729TIP3    H1 2128   0.620   1.222   1.224
  729TIP3    H2 2129   0.642   1.074   1.248
  730TIP3   OH2 2130   2.036   6.312   3.716
  730TIP3    H1 2131   2.114   6.338   3.765
  730TIP3    H2 2132   1.977   6.387   3.724
  731TIP3   OH2 2133   1.956   6.148   4.555
  731TIP3    H1 2134   1.974   6.096   4.633
  731TIP3    H2 2135   1.862   6.137   4.540
  732TIP3   OH2 2136   1.967   3.098   0.118
  732TIP3    H1 2137   1.949   3.029   0.054
  732TIP3    H2 2138   1.967   3.052   0.202
  733TIP3   OH2 2139   7.037   0.407   3.840
  733TIP3    H1 2140   7.050   0.497   3.872
  733TIP3    H2 2141   7.012   0.418   3.748
  734TIP3   OH2 2142   5.294   0.705   2.372
  734TIP3    H1 2143   5.320   0.715   2.280
  734TIP3    H2 2144   5.250   0.787   2.394
  735TIP3   OH2 2145   1.445   4.869   0.866
  735TIP3    H1 2146   1.451   4.817   0.786
  735TIP3    H2 2147   1.426   4.806   0.935
  736TIP3   OH2 2148   6.147   5.719   5.610
  736TIP3    H1 2149   6.058   5.697   5.583
  736TIP3    H2 2150   6.160   5.808   5.577
  737TIP3   OH2 2151   4.805   4.415   3.695
  737TIP3    H1 2152   4.731   4.362   3.722
  737TIP3    H2 2153   4.849   4.362   3.628
  738TIP3   OH2 2154   0.015   2.062   5.887
  738TIP3    H1 2155   0.080   2.000   5.853
  738TIP3    H2 2156  -0.031   2.014   5.956
  739TIP3   OH2 2157   6.061   0.974   3.805
  739TIP3    H1 2158   5.966   0.979   3.802
  739TIP3    H2 2159   6.089   0.999   3.717
  740TIP3   OH2 2160   0.323   1.651   6.353
  740TIP3    H1 2161   0.271   1.572   6.336
  740TIP3    H2 2162   0.261   1.712   6.394
  741TIP3   OH2 2163   6.328   2.205   4.540
  741TIP3    H1 2164   6.383   2.164   4.473
  741TIP3    H2 2165   6.324   2.297   4.514
  742TIP3   OH2 2166   0.664   5.730   6.145
  742TIP3    H1 2167   0.602   5.665   6.178
  742TIP3    H2 2168   0.615   5.812   6.145
  743TIP3   OH2 2169   0.398   4.334   1.289
  743TIP3    H1 2170   0.404   4.258   1.346
  743TIP3    H2 2171   0.309   4.368   1.304
  744TIP3   OH2 2172   7.032   3.002   3.392
  744TIP3    H1 2173   6.972   3.045   3.453
  744TIP3    H2 2174   6.975   2.950   3.335
  745TIP3   OH2 2175   4.021   0.991   1.686
  745TIP3    H1 2176   4.093   1.027   1.738
  745TIP3    H2 2177   3.980   1.068   1.646
  746TIP3   OH2 2178   8.266   4.461   3.786
  746TIP3    H1 2179   8.284   4.552   3.809
  746TIP3    H2 2180   8.177   4.446   3.818
  747TIP3   OH2 2181   3.248   4.669   3.423
  747TIP3    H1 2182   3.183   4.726   3.382
  747TIP3    H2 2183   3.201   4.589   3.443
  748TIP3   OH2 2184   4.397   7.611   2.159
  748TIP3    H1 2185   4.314   7.624   2.206
  748TIP3    H2 2186   4.460   7.664   2.207
  749TIP3   OH2 2187   1.928   2.376   2.348
  749TIP3    H1 2188   1.907   2.464   2.378
  749TIP3    H2 2189   1.882   2.367   2.265
  750TIP3   OH2 2190   2.714   7.137   5.354
  750TIP3    H1 2191   2.629   7.180   5.354
  750TIP3    H2 2192   2.752   7.158   5.268
  751TIP3   OH2 2193   3.084   7.127   4.031
  751TIP3    H1 2194   3.018   7.154   3.967
  751TIP3    H2 2195   3.147   7.077   3.979
  752TIP3   OH2 2196   5.379   1.243   2.048
  752TIP3    H1 2197   5.394   1.228   1.954
  752TIP3    H2 2198   5.289   1.275   2.053
  753TIP3   OH2 2199   6.506   1.850   2.487
  753TIP3    H1 2200   6.559   1.831   2.564
  753TIP3    H2 2201   6.447   1.920   2.515
  754TIP3   OH2 2202   4.572   0.716   6.678
  754TIP3    H1 2203   4.584   0.641   6.737
  754TIP3    H2 2204   4.490   0.756   6.707
  755TIP3   OH2 2205   1.014   4.184   3.709
  755TIP3    H1 2206   1.058   4.262   3.744
  755TIP3    H2 2207   1.077   4.146   3.648
  756TIP3   OH2 2208   0.562   0.147   2.716
  756TIP3    H1 2209   0.557   0.070   2.774
  756TIP3    H2 2210   0.616   0.118   2.643
  757TIP3   OH2 2211   4.080   6.196   4.383
  757TIP3    H1 2212   4.010   6.249   4.421
  757TIP3    H2 2213   4.071   6.110   4.423
  758TIP3   OH2 2214   0.931   1.760   2.558
  758TIP3    H1 2215   0.940   1.809   2.476
  758TIP3    H2 2216   0.839   1.736   2.562
  759TIP3   OH2 2217   2.798   1.636   1.883
  759TIP3    H1 2218   2.876   1.679   1.918
  759TIP3    H2 2219   2.783   1.677   1.798
  760TIP3   OH2 2220   6.904   6.763   3.488
  760TIP3    H1 2221   6.920   6.852   3.521
  760TIP3    H2 2222   6.856   6.720   3.559
  761TIP3   OH2 2223   3.142   2.969   0.044
  761TIP3    H1 2224   3.063   2.978  -0.010
  761TIP3    H2 2225   3.162   3.058   0.072
  762TIP3   OH2 2226   3.946   2.184   6.561
  762TIP3    H1 2227   3.861   2.189   6.605
  762TIP3    H2 2228   3.944   2.099   6.516
  763TIP3   OH2 2229   4.849   7.421   6.506
  763TIP3    H1 2230   4.884   7.459   6.586
  763TIP3    H2 2231   4.817   7.496   6.456
  764TIP3   OH2 2232   1.351   2.479   5.770
  764TIP3    H1 2233   1.291   2.406   5.752
  764TIP3    H2 2234   1.302   2.556   5.743
  765TIP3   OH2 2235   2.535   5.669   5.799
  765TIP3    H1 2236   2.593   5.721   5.744
  765TIP3    H2 2237   2.529   5.585   5.754
  766TIP3   OH2 2238   3.816   5.551   1.670
  766TIP3    H1 2239   3.721   5.543   1.670
  766TIP3    H2 2240   3.847   5.468   1.707
  767TIP3   OH2 2241   7.967   2.585   2.104
  767TIP3    H1 2242   7.956   2.621   2.017
  767TIP3    H2 2243   8.043   2.631   2.140
  768TIP3   OH2 2244   2.279   7.835   4.031
  768TIP3    H1 2245   2.229   7.846   4.112
  768TIP3    H2 2246   2.368   7.862   4.054
  769TIP3   OH2 2247   6.247   5.662   0.542
  769TIP3    H1 2248   6.199   5.733   0.500
  769TIP3    H2 2249   6.333   5.700   0.560
  770TIP3   OH2 2250   4.364   3.300   4.026
  770TIP3    H1 2251   4.337   3.359   3.956
  770TIP3    H2 2252   4.439   3.252   3.989
  771TIP3   OH2 2253   0.154   1.078   6.623
  771TIP3    H1 2254   0.099   1.154   6.605
  771TIP3    H2 2255   0.109   1.031   6.692
  772TIP3   OH2 2256   0.308   0.668   1.222
  772TIP3    H1 2257   0.302   0.747   1.169
  772TIP3    H2 2258   0.238   0.612   1.189
  773TIP3   OH2 2259   8.123   7.020   1.273
  773TIP3    H1 2260   8.063   6.947   1.259
  773TIP3    H2 2261   8.168   7.030   1.189
  774TIP3   OH2 2262   6.006   5.984   5.748
  774TIP3    H1 2263   5.957   6.065   5.733
  774TIP3    H2 2264   5.973   5.923   5.682
  775TIP3   OH2 2265   1.608   6.819   2.729
  775TIP3    H1 2266   1.648   6.884   2.671
  775TIP3    H2 2267   1.655   6.829   2.812
  776TIP3   OH2 2268   4.279   3.563   6.414
  776TIP3    H1 2269   4.213   3.613   6.364
  776TIP3    H2 2270   4.307   3.494   6.354
  777TIP3   OH2 2271   7.016   5.665   0.076
  777TIP3    H1 2272   6.977   5.591   0.028
  777TIP3    H2 2273   6.948   5.731   0.076
  778TIP3   OH2 2274   2.482   4.965   1.447
  778TIP3    H1 2275   2.540   4.993   1.376
  778TIP3    H2 2276   2.456   5.046   1.490
  779TIP3   OH2 2277   6.315   7.841   3.893
  779TIP3    H1 2278   6.329   7.935   3.894
  779TIP3    H2 2279   6.325   7.815   3.802
  780TIP3   OH2 2280   2.087   2.090   6.185
  780TIP3    H1 2281   2.149   2.025   6.216
  780TIP3    H2 2282   2.009   2.077   6.240
  781TIP3   OH2 2283   0.040   1.075   4.963
  781TIP3    H1 2284   0.060   1.065   4.870
  781TIP3    H2 2285   0.119   1.043   5.007
  782TIP3   OH2 2286   7.691   2.766   3.644
  782TIP3    H1 2287   7.721   2.702   3.709
  782TIP3    H2 2288   7.761   2.767   3.579
  783TIP3   OH2 2289   7.356   3.518   6.591
  783TIP3    H1 2290   7.293   3.561   6.649
  783TIP3    H2 2291   7.310   3.514   6.506
  784TIP3   OH2 2292   7.415   7.173   3.573
  784TIP3    H1 2293   7.478   7.115   3.530
  784TIP3    H2 2294   7.345   7.186   3.509
  785TIP3   OH2 2295   2.514   5.855   6.420
  785TIP3    H1 2296   2.561   5.938   6.431
  785TIP3    H2 2297   2.564   5.792   6.473
  786TIP3   OH2 2298   4.497   6.531   3.235
  786TIP3    H1 2299   4.541   6.615   3.222
  786TIP3    H2 2300   4.552   6.469   3.187
  787TIP3   OH2 2301   1.759   2.030   2.383
  787TIP3    H1 2302   1.765   1.988   2.469
  787TIP3    H2 2303   1.716   1.965   2.328
  788TIP3   OH2 2304   7.178   6.094   6.147
  788TIP3    H1 2305   7.149   6.184   6.162
  788TIP3    H2 2306   7.222   6.096   6.062
  789TIP3   OH2 2307   2.566   1.530   5.817
  789TIP3    H1 2308   2.609   1.490   5.742
  789TIP3    H2 2309   2.507   1.462   5.850
  790TIP3   OH2 2310   2.649   4.109   5.901
  790TIP3    H1 2311   2.697   4.066   5.972
  790TIP3    H2 2312   2.714   4.122   5.833
  791TIP3   OH2 2313   6.102   5.774   1.963
  791TIP3    H1 2314   6.064   5.777   1.875
  791TIP3    H2 2315   6.192   5.803   1.952
  792TIP3   OH2 2316   6.029   5.442   2.105
  792TIP3    H1 2317   5.957   5.438   2.168
  792TIP3    H2 2318   6.100   5.484   2.154
  793TIP3   OH2 2319   2.269   3.119   3.300
  793TIP3    H1 2320   2.239   3.029   3.290
  793TIP3    H2 2321   2.317   3.119   3.383
  794TIP3   OH2 2322   2.114   3.138   4.121
  794TIP3    H1 2323   2.095   3.079   4.049
  794TIP3    H2 2324   2.177   3.201   4.086
  795TIP3   OH2 2325   6.460   2.583   0.940
  795TIP3    H1 2326   6.437   2.525   1.011
  795TIP3    H2 2327   6.378   2.597   0.892
  796TIP3   OH2 2328   0.874   2.273   4.660
  796TIP3    H1 2329   0.904   2.217   4.588
  796TIP3    H2 2330   0.954   2.292   4.709
  797TIP3   OH2 2331   4.556   0.291   1.881
  797TIP3    H1 2332   4.644   0.313   1.911
  797TIP3    H2 2333   4.506   0.275   1.962
  798TIP3   OH2 2334   0.059   5.768   4.686
  798TIP3    H1 2335   0.148   5.786   4.656
  798TIP3    H2 2336   0.032   5.691   4.636
  799TIP3   OH2 2337   4.296   6.140   6.852
  799TIP3    H1 2338   4.217   6.109   6.807
  799TIP3    H2 2339   4.299   6.234   6.833
  800TIP3   OH2 2340   4.697   1.435   6.621
  800TIP3    H1 2341   4.773   1.467   6.574
  800TIP3    H2 2342   4.627   1.433   6.555
  801TIP3   OH2 2343   1.380   0.375   1.077
  801TIP3    H1 2344   1.355   0.453   1.127
  801TIP3    H2 2345   1.446   0.332   1.131
  802TIP3   OH2 2346   4.916   6.530   5.665
  802TIP3    H1 2347   4.866   6.599   5.709
  802TIP3    H2 2348   4.853   6.487   5.607
  803TIP3   OH2 2349   3.232   7.092   1.498
  803TIP3    H1 2350   3.217   7.018   1.440
  803TIP3    H2 2351   3.252   7.165   1.440
  804TIP3   OH2 2352   1.036   7.489   6.134
  804TIP3    H1 2353   0.949   7.482   6.174
  804TIP3    H2 2354   1.063   7.398   6.121
  805TIP3   OH2 2355   3.934   5.993   1.714
  805TIP3    H1 2356   3.898   5.957   1.632
  805TIP3    H2 2357   3.896   6.081   1.719
  806TIP3   OH2 2358   4.697   3.762   6.565
  806TIP3    H1 2359   4.644   3.799   6.494
  806TIP3    H2 2360   4.675   3.669   6.565
  807TIP3   OH2 2361   1.939   0.542   0.669
  807TIP3    H1 2362   1.887   0.465   0.691
  807TIP3    H2 2363   1.875   0.606   0.636
  808TIP3   OH2 2364   4.287   0.140   0.193
  808TIP3    H1 2365   4.254   0.053   0.171
  808TIP3    H2 2366   4.273   0.192   0.114
  809TIP3   OH2 2367   6.040   6.219   3.060
  809TIP3    H1 2368   6.019   6.234   2.967
  809TIP3    H2 2369   6.111   6.154   3.058
  810TIP3   OH2 2370   7.130   4.544   6.381
  810TIP3    H1 2371   7.124   4.551   6.476
  810TIP3    H2 2372   7.039   4.536   6.351
  811TIP3   OH2 2373   6.496   2.065   3.588
  811TIP3    H1 2374   6.440   1.987   3.576
  811TIP3    H2 2375   6.459   2.130   3.529
  812TIP3   OH2 2376   6.094   4.571   0.033
  812TIP3    H1 2377   6.001   4.556   0.050
  812TIP3    H2 2378   6.137   4.491   0.063
  813TIP3   OH2 2379   2.305   2.624   2.936
  813TIP3    H1 2380   2.304   2.718   2.953
  813TIP3    H2 2381   2.395   2.605   2.913
  814TIP3   OH2 2382   6.852   6.709   5.274
  814TIP3    H1 2383   6.827   6.650   5.203
  814TIP3    H2 2384   6.940   6.681   5.298
  815TIP3   OH2 2385   3.230   7.404   5.200
  815TIP3    H1 2386   3.179   7.409   5.281
  815TIP3    H2 2387   3.194   7.474   5.145
  816TIP3   OH2 2388   7.260   5.512   3.984
  816TIP3    H1 2389   7.233   5.458   3.910
  816TIP3    H2 2390   7.178   5.534   4.029
  817TIP3   OH2 2391   4.779   2.045   0.227
  817TIP3    H1 2392   4.836   1.971   0.206
  817TIP3    H2 2393   4.761   2.036   0.320
  818TIP3   OH2 2394   6.872   4.850   4.150
  818TIP3    H1 2395   6.824   4.768   4.163
  818TIP3    H2 2396   6.916   4.865   4.233
  819TIP3   OH2 2397   5.386   1.744   5.234
  819TIP3    H1 2398   5.301   1.717   5.199
  819TIP3    H2 2399   5.365   1.809   5.301
  820TIP3   OH2 2400   5.000   3.679   2.571
  820TIP3    H1 2401   4.971   3.738   2.640
  820TIP3    H2 2402   4.955   3.709   2.492
  821TIP3   OH2 2403   5.716   0.103   0.099
  821TIP3    H1 2404   5.728   0.198   0.103
  821TIP3    H2 2405   5.701   0.085   0.006
  822TIP3   OH2 2406   4.583   6.700   0.056
  822TIP3    H1 2407   4.652   6.761   0.030
  822TIP3    H2 2408   4.605   6.618   0.012
  823TIP3   OH2 2409   0.093   3.609   6.772
  823TIP3    H1 2410   0.149   3.643   6.702
  823TIP3    H2 2411   0.137   3.636   6.853
  824TIP3   OH2 2412   5.494   6.355   4.906
  824TIP3    H1 2413   5.550   6.370   4.982
  824TIP3    H2 2414   5.465   6.442   4.879
  825TIP3   OH2 2415   0.668   7.234   2.666
  825TIP3    H1 2416   0.703   7.207   2.751
  825TIP3    H2 2417   0.693   7.326   2.657
  826TIP3   OH2 2418   7.563   0.359   3.253
  826TIP3    H1 2419   7.545   0.414   3.329
  826TIP3    H2 2420   7.478   0.350   3.209
  827TIP3   OH2 2421   8.366   2.268   5.292
  827TIP3    H1 2422   8.341   2.181   5.324
  827TIP3    H2 2423   8.292   2.324   5.316
  828TIP3   OH2 2424   8.164   7.178   4.737
  828TIP3    H1 2425   8.258   7.181   4.757
  828TIP3    H2 2426   8.160   7.160   4.643
  829TIP3   OH2 2427   5.777   3.817   2.690
  829TIP3    H1 2428   5.807   3.742   2.742
  829TIP3    H2 2429   5.684   3.801   2.677
  830TIP3   OH2 2430   2.351   1.237   3.606
  830TIP3    H1 2431   2.288   1.165   3.617
  830TIP3    H2 2432   2.392   1.246   3.692
  831TIP3   OH2 2433   4.798   6.784   0.392
  831TIP3    H1 2434   4.763   6.816   0.475
  831TIP3    H2 2435   4.887   6.819   0.389
  832TIP3   OH2 2436   6.132   4.042   4.231
  832TIP3    H1 2437   6.063   3.977   4.220
  832TIP3    H2 2438   6.175   4.018   4.313
  833TIP3   OH2 2439   3.239   4.145   6.838
  833TIP3    H1 2440   3.309   4.202   6.871
  833TIP3    H2 2441   3.286   4.071   6.800
  834TIP3   OH2 2442   2.152   0.413   2.244
  834TIP3    H1 2443   2.171   0.320   2.260
  834TIP3    H2 2444   2.185   0.429   2.156
  835TIP3   OH2 2445   3.327   4.358   4.115
  835TIP3    H1 2446   3.328   4.452   4.093
  835TIP3    H2 2447   3.406   4.346   4.168
  836TIP3   OH2 2448   8.178   6.082   2.201
  836TIP3    H1 2449   8.137   6.004   2.238
  836TIP3    H2 2450   8.267   6.082   2.237
  837TIP3   OH2 2451   4.117   0.567   0.702
  837TIP3    H1 2452   4.132   0.657   0.672
  837TIP3    H2 2453   4.174   0.556   0.777
  838TIP3   OH2 2454   6.958   4.789   6.802
  838TIP3    H1 2455   7.001   4.705   6.815
  838TIP3    H2 2456   6.996   4.824   6.721
  839TIP3   OH2 2457   6.561   2.174   0.557
  839TIP3    H1 2458   6.549   2.186   0.463
  839TIP3    H2 2459   6.558   2.262   0.593
  840TIP3   OH2 2460   8.202   5.898   6.170
  840TIP3    H1 2461   8.234   5.956   6.101
  840TIP3    H2 2462   8.157   5.828   6.123
  841TIP3   OH2 2463   7.854   2.928   4.403
  841TIP3    H1 2464   7.775   2.952   4.450
  841TIP3    H2 2465   7.837   2.952   4.312
  842TIP3   OH2 2466   4.063   3.380   5.456
  842TIP3    H1 2467   4.014   3.312   5.501
  842TIP3    H2 2468   4.126   3.333   5.401
  843TIP3   OH2 2469   1.627   4.048   1.030
  843TIP3    H1 2470   1.666   4.119   0.978
  843TIP3    H2 2471   1.547   4.025   0.983
  844TIP3   OH2 2472   3.301   1.190   6.226
  844TIP3    H1 2473   3.380   1.187   6.279
  844TIP3    H2 2474   3.267   1.279   6.238
  845TIP3   OH2 2475   4.736   4.467   1.187
  845TIP3    H1 2476   4.760   4.463   1.279
  845TIP3    H2 2477   4.795   4.532   1.149
  846TIP3   OH2 2478   7.089   3.633   0.439
  846TIP3    H1 2479   7.156   3.591   0.384
  846TIP3    H2 2480   7.006   3.598   0.407
  847TIP3   OH2 2481   0.753   4.229   3.721
  847TIP3    H1 2482   0.696   4.176   3.666
  847TIP3    H2 2483   0.839   4.186   3.715
  848TIP3   OH2 2484   3.514   1.943   4.597
  848TIP3    H1 2485   3.429   1.903   4.614
  848TIP3    H2 2486   3.549   1.963   4.684
  849TIP3   OH2 2487   5.892   1.984   4.898
  849TIP3    H1 2488   5.867   1.962   4.808
  849TIP3    H2 2489   5.987   1.995   4.895
  850TIP3   OH2 2490   8.181   6.782   3.213
  850TIP3    H1 2491   8.274   6.798   3.196
  850TIP3    H2 2492   8.179   6.699   3.260
  851TIP3   OH2 2493   1.640   6.441   4.658
  851TIP3    H1 2494   1.634   6.445   4.753
  851TIP3    H2 2495   1.703   6.510   4.635
  852TIP3   OH2 2496   5.492   6.324   5.190
  852TIP3    H1 2497   5.450   6.245   5.223
  852TIP3    H2 2498   5.423   6.372   5.145
  853TIP3   OH2 2499   3.535   6.199   1.683
  853TIP3    H1 2500   3.470   6.137   1.649
  853TIP3    H2 2501   3.542   6.266   1.615
  854TIP3   OH2 2502   2.443   7.322   3.257
  854TIP3    H1 2503   2.447   7.387   3.187
  854TIP3    H2 2504   2.425   7.239   3.212
  855TIP3   OH2 2505   6.439   0.085   4.089
  855TIP3    H1 2506   6.509   0.149   4.100
  855TIP3    H2 2507   6.431   0.043   4.175
  856TIP3   OH2 2508   6.653   6.360   5.593
  856TIP3    H1 2509   6.588   6.423   5.560
  856TIP3    H2 2510   6.629   6.347   5.685
  857TIP3   OH2 2511   2.509   4.821   0.789
  857TIP3    H1 2512   2.599   4.812   0.758
  857TIP3    H2 2513   2.506   4.907   0.831
  858TIP3   OH2 2514   0.511   1.540   2.709
  858TIP3    H1 2515   0.578   1.594   2.667
  858TIP3    H2 2516   0.433   1.596   2.711
  859TIP3   OH2 2517   7.707   7.381   1.937
  859TIP3    H1 2518   7.689   7.289   1.918
  859TIP3    H2 2519   7.760   7.410   1.863
  860TIP3   OH2 2520   6.427   4.562   2.255
  860TIP3    H1 2521   6.466   4.650   2.258
  860TIP3    H2 2522   6.385   4.557   2.169
  861TIP3   OH2 2523   0.677   3.637   2.894
  861TIP3    H1 2524   0.762   3.593   2.886
  861TIP3    H2 2525   0.670   3.658   2.987
  862TIP3   OH2 2526   3.298   5.906   5.971
  862TIP3    H1 2527   3.305   5.906   5.875
  862TIP3    H2 2528   3.271   5.995   5.992
  863TIP3   OH2 2529   6.694   6.175   5.996
  863TIP3    H1 2530   6.758   6.242   6.019
  863TIP3    H2 2531   6.739   6.118   5.935
  864TIP3   OH2 2532   0.288   1.477   3.351
  864TIP3    H1 2533   0.268   1.571   3.359
  864TIP3    H2 2534   0.383   1.474   3.342
  865TIP3   OH2 2535   7.342   5.765   6.805
  865TIP3    H1 2536   7.383   5.718   6.733
  865TIP3    H2 2537   7.253   5.729   6.810
  866TIP3   OH2 2538   0.334   0.341   5.609
  866TIP3    H1 2539   0.337   0.273   5.542
  866TIP3    H2 2540   0.248   0.382   5.598
  867TIP3   OH2 2541   4.577   0.104   3.206
  867TIP3    H1 2542   4.644   0.092   3.273
  867TIP3    H2 2543   4.625   0.131   3.128
  868TIP3   OH2 2544   1.757   2.461   4.842
  868TIP3    H1 2545   1.831   2.428   4.893
  868TIP3    H2 2546   1.695   2.388   4.840
  869TIP3   OH2 2547   0.028   5.056   0.757
  869TIP3    H1 2548  -0.064   5.071   0.780
  869TIP3    H2 2549   0.074   5.133   0.791
  870TIP3   OH2 2550   0.108   6.934   6.755
  870TIP3    H1 2551   0.175   6.927   6.686
  870TIP3    H2 2552   0.157   6.921   6.836
  871TIP3   OH2 2553   5.890   6.704   3.112
  871TIP3    H1 2554   5.921   6.777   3.166
  871TIP3    H2 2555   5.918   6.725   3.024
  872TIP3   OH2 2556   6.224   5.800   3.636
  872TIP3    H1 2557   6.246   5.872   3.577
  872TIP3    H2 2558   6.293   5.801   3.702
  873TIP3   OH2 2559   5.687   5.983   0.966
  873TIP3    H1 2560   5.752   6.022   1.024
  873TIP3    H2 2561   5.696   5.889   0.980
  874TIP3   OH2 2562   2.754   6.095   2.176
  874TIP3    H1 2563   2.739   6.141   2.258
  874TIP3    H2 2564   2.721   6.006   2.191
  875TIP3   OH2 2565   2.974   0.164   2.723
  875TIP3    H1 2566   3.003   0.198   2.807
  875TIP3    H2 2567   2.990   0.236   2.661
  876TIP3   OH2 2568   3.649   7.732   4.444
  876TIP3    H1 2569   3.577   7.670   4.434
  876TIP3    H2 2570   3.717   7.682   4.489
  877TIP3   OH2 2571   3.533   5.780   4.250
  877TIP3    H1 2572   3.628   5.771   4.240
  877TIP3    H2 2573   3.498   5.754   4.165
  878TIP3   OH2 2574   4.149   1.072   0.454
  878TIP3    H1 2575   4.231   1.042   0.415
  878TIP3    H2 2576   4.176   1.126   0.528
  879TIP3   OH2 2577   2.185   0.875   1.220
  879TIP3    H1 2578   2.117   0.838   1.164
  879TIP3    H2 2579   2.267   0.857   1.172
  880TIP3   OH2 2580   8.201   1.275   0.628
  880TIP3    H1 2581   8.111   1.261   0.656
  880TIP3    H2 2582   8.241   1.325   0.699
  881TIP3   OH2 2583   1.896   6.546   5.979
  881TIP3    H1 2584   1.973   6.490   5.985
  881TIP3    H2 2585   1.924   6.630   6.018
  882TIP3   OH2 2586   1.318   7.614   0.472
  882TIP3    H1 2587   1.373   7.556   0.418
  882TIP3    H2 2588   1.346   7.702   0.448
  883TIP3   OH2 2589   4.734   0.386   2.493
  883TIP3    H1 2590   4.794   0.319   2.526
  883TIP3    H2 2591   4.667   0.393   2.562
  884TIP3   OH2 2592   0.470   1.511   1.504
  884TIP3    H1 2593   0.494   1.518   1.596
  884TIP3    H2 2594   0.512   1.586   1.462
  885TIP3   OH2 2595   7.419   5.131   2.933
  885TIP3    H1 2596   7.380   5.061   2.985
  885TIP3    H2 2597   7.512   5.130   2.957
  886TIP3   OH2 2598   4.071   2.843   0.458
  886TIP3    H1 2599   4.068   2.808   0.547
  886TIP3    H2 2600   4.164   2.848   0.438
  887TIP3   OH2 2601   3.509   0.292   4.253
  887TIP3    H1 2602   3.550   0.337   4.179
  887TIP3    H2 2603   3.485   0.206   4.219
  888TIP3   OH2 2604   2.167   3.845   5.378
  888TIP3    H1 2605   2.144   3.878   5.291
  888TIP3    H2 2606   2.263   3.843   5.378
  889TIP3   OH2 2607   1.869   3.864   6.479
  889TIP3    H1 2608   1.885   3.779   6.522
  889TIP3    H2 2609   1.779   3.885   6.501
  890TIP3   OH2 2610   1.928   5.284   5.095
  890TIP3    H1 2611   1.905   5.361   5.043
  890TIP3    H2 2612   1.969   5.224   5.033
  891TIP3   OH2 2613   0.834   0.232   1.309
  891TIP3    H1 2614   0.901   0.283   1.265
  891TIP3    H2 2615   0.850   0.142   1.281
  892TIP3   OH2 2616   2.507   5.438   3.870
  892TIP3    H1 2617   2.438   5.403   3.926
  892TIP3    H2 2618   2.587   5.432   3.924
  893TIP3   OH2 2619   8.177   7.750   3.096
  893TIP3    H1 2620   8.114   7.806   3.142
  893TIP3    H2 2621   8.242   7.728   3.163
  894TIP3   OH2 2622   8.084   2.042   1.290
  894TIP3    H1 2623   8.076   1.957   1.333
  894TIP3    H2 2624   8.059   2.024   1.199
  895TIP3   OH2 2625   5.084   5.182   5.585
  895TIP3    H1 2626   4.996   5.145   5.579
  895TIP3    H2 2627   5.073   5.275   5.565
  896TIP3   OH2 2628   0.656   4.950   1.351
  896TIP3    H1 2629   0.681   5.010   1.281
  896TIP3    H2 2630   0.688   4.992   1.431
  897TIP3   OH2 2631   6.681   5.683   2.203
  897TIP3    H1 2632   6.770   5.694   2.236
  897TIP3    H2 2633   6.627   5.674   2.281
  898TIP3   OH2 2634   7.642   1.211   4.726
  898TIP3    H1 2635   7.695   1.271   4.673
  898TIP3    H2 2636   7.604   1.150   4.663
  899TIP3   OH2 2637   0.516   2.887   2.062
  899TIP3    H1 2638   0.472   2.964   2.097
  899TIP3    H2 2639   0.479   2.876   1.974
  900TIP3   OH2 2640   6.356   1.678   2.880
  900TIP3    H1 2641   6.444   1.702   2.908
  900TIP3    H2 2642   6.325   1.617   2.947
  901TIP3   OH2 2643   2.217   7.876   1.705
  901TIP3    H1 2644   2.201   7.970   1.701
  901TIP3    H2 2645   2.291   7.862   1.646
  902TIP3   OH2 2646   4.846   3.632   5.899
  902TIP3    H1 2647   4.898   3.655   5.975
  902TIP3    H2 2648   4.809   3.546   5.920
  903TIP3   OH2 2649   7.468   7.662   2.442
  903TIP3    H1 2650   7.434   7.701   2.362
  903TIP3    H2 2651   7.392   7.621   2.483
  904TIP3   OH2 2652   6.940   2.834   5.400
  904TIP3    H1 2653   6.936   2.887   5.480
  904TIP3    H2 2654   6.849   2.822   5.374
  905TIP3   OH2 2655   5.625   6.759   3.732
  905TIP3    H1 2656   5.583   6.761   3.646
  905TIP3    H2 2657   5.706   6.808   3.721
  906TIP3   OH2 2658   1.423   3.967   0.863
  906TIP3    H1 2659   1.349   3.954   0.803
  906TIP3    H2 2660   1.492   3.909   0.829
  907TIP3   OH2 2661   2.052   6.428   1.785
  907TIP3    H1 2662   2.015   6.408   1.871
  907TIP3    H2 2663   2.141   6.393   1.788
  908TIP3   OH2 2664   5.617   7.043   0.465
  908TIP3    H1 2665   5.593   6.950   0.466
  908TIP3    H2 2666   5.581   7.077   0.383
  909TIP3   OH2 2667   3.101   5.284   1.986
  909TIP3    H1 2668   3.177   5.343   1.994
  909TIP3    H2 2669   3.110   5.224   2.060
  910TIP3   OH2 2670   3.952   3.957   4.092
  910TIP3    H1 2671   4.022   3.916   4.143
  910TIP3    H2 2672   3.890   3.990   4.157
  911TIP3   OH2 2673   2.397   3.844   4.658
  911TIP3    H1 2674   2.471   3.805   4.704
  911TIP3    H2 2675   2.436   3.909   4.600
  912TIP3   OH2 2676   1.785   1.539   0.993
  912TIP3    H1 2677   1.841   1.586   0.931
  912TIP3    H2 2678   1.798   1.583   1.077
  913TIP3   OH2 2679   0.591   2.754   1.363
  913TIP3    H1 2680   0.618   2.784   1.276
  913TIP3    H2 2681   0.640   2.810   1.424
  914TIP3   OH2 2682   6.387   7.277   4.969
  914TIP3    H1 2683   6.382   7.195   5.017
  914TIP3    H2 2684   6.297   7.292   4.938
  915TIP3   OH2 2685   3.408   2.229   0.271
  915TIP3    H1 2686   3.392   2.190   0.185
  915TIP3    H2 2687   3.481   2.178   0.307
  916TIP3   OH2 2688   5.486   5.357   3.990
  916TIP3    H1 2689   5.428   5.405   3.931
  916TIP3    H2 2690   5.546   5.310   3.932
  917TIP3   OH2 2691   7.813   2.489   6.056
  917TIP3    H1 2692   7.806   2.456   5.967
  917TIP3    H2 2693   7.768   2.573   6.054
  918TIP3   OH2 2694   7.271   0.019   3.315
  918TIP3    H1 2695   7.362  -0.011   3.324
  918TIP3    H2 2696   7.271   0.106   3.354
  919TIP3   OH2 2697   8.011   0.523   5.885
  919TIP3    H1 2698   7.946   0.577   5.840
  919TIP3    H2 2699   8.095   0.555   5.853
  920TIP3   OH2 2700   7.398   1.501   4.415
  920TIP3    H1 2701   7.352   1.423   4.444
  920TIP3    H2 2702   7.338   1.573   4.434
  921TIP3   OH2 2703   6.033   0.014   2.761
  921TIP3    H1 2704   5.952   0.063   2.771
  921TIP3    H2 2705   6.011  -0.075   2.788
  922TIP3   OH2 2706   0.782   1.982   4.341
  922TIP3    H1 2707   0.708   2.014   4.393
  922TIP3    H2 2708   0.859   2.004   4.393
  923TIP3   OH2 2709   3.089   1.253   0.696
  923TIP3    H1 2710   3.110   1.163   0.719
  923TIP3    H2 2711   3.033   1.284   0.767
  924TIP3   OH2 2712   3.155   3.610   2.335
  924TIP3    H1 2713   3.244   3.635   2.312
  924TIP3    H2 2714   3.138   3.656   2.418
  925TIP3   OH2 2715   3.589   6.821   4.194
  925TIP3    H1 2716   3.500   6.821   4.230
  925TIP3    H2 2717   3.641   6.772   4.258
  926TIP3   OH2 2718   3.836   0.474   2.241
  926TIP3    H1 2719   3.879   0.475   2.156
  926TIP3    H2 2720   3.897   0.521   2.299
  927TIP3   OH2 2721   6.306   0.307   4.420
  927TIP3    H1 2722   6.319   0.391   4.377
  927TIP3    H2 2723   6.220   0.314   4.462
  928TIP3   OH2 2724   4.853   2.664   4.130
  928TIP3    H1 2725   4.892   2.635   4.212
  928TIP3    H2 2726   4.889   2.752   4.116
  929TIP3   OH2 2727   1.100   4.516   5.400
  929TIP3    H1 2728   1.060   4.490   5.483
  929TIP3    H2 2729   1.183   4.468   5.398
  930TIP3   OH2 2730   5.329   4.716   3.780
  930TIP3    H1 2731   5.290   4.631   3.800
  930TIP3    H2 2732   5.287   4.776   3.842
  931TIP3   OH2 2733   0.546   5.407   1.492
  931TIP3    H1 2734   0.594   5.439   1.416
  931TIP3    H2 2735   0.455   5.433   1.476
  932TIP3   OH2 2736   7.312   2.755   0.194
  932TIP3    H1 2737   7.314   2.766   0.289
  932TIP3    H2 2738   7.355   2.834   0.160
  933TIP3   OH2 2739   3.777   4.999   3.740
  933TIP3    H1 2740   3.796   5.093   3.737
  933TIP3    H2 2741   3.825   4.967   3.816
  934TIP3   OH2 2742   2.803   5.105   3.135
  934TIP3    H1 2743   2.731   5.146   3.183
  934TIP3    H2 2744   2.782   5.012   3.134
  935TIP3   OH2 2745   0.342   3.738   4.824
  935TIP3    H1 2746   0.275   3.686   4.780
  935TIP3    H2 2747   0.400   3.767   4.753
  936TIP3   OH2 2748   3.660   2.643   3.338
  936TIP3    H1 2749   3.703   2.648   3.253
  936TIP3    H2 2750   3.689   2.721   3.385
  937TIP3   OH2 2751   7.947   1.249   0.734
  937TIP3    H1 2752   7.888   1.174   0.744
  937TIP3    H2 2753   7.889   1.323   0.720
  938TIP3   OH2 2754   8.220   0.790   2.505
  938TIP3    H1 2755   8.254   0.871   2.467
  938TIP3    H2 2756   8.208   0.810   2.598
  939TIP3   OH2 2757   2.302   5.729   4.421
  939TIP3    H1 2758   2.207   5.732   4.413
  939TIP3    H2 2759   2.320   5.649   4.471
  940TIP3   OH2 2760   4.788   3.494   6.287
  940TIP3    H1 2761   4.802   3.589   6.297
  940TIP3    H2 2762   4.817   3.475   6.197
  941TIP3   OH2 2763   2.374   7.283   1.664
  941TIP3    H1 2764   2.287   7.287   1.624
  941TIP3    H2 2765   2.435   7.290   1.590
  942TIP3   OH2 2766   1.360   7.087   3.842
  942TIP3    H1 2767   1.354   7.121   3.753
  942TIP3    H2 2768   1.443   7.119   3.876
  943TIP3   OH2 2769   1.338   7.244   3.640
  943TIP3    H1 2770   1.401   7.302   3.682
  943TIP3    H2 2771   1.371   7.233   3.550
  944TIP3   OH2 2772   6.185   5.379   3.562
  944TIP3    H1 2773   6.168   5.462   3.606
  944TIP3    H2 2774   6.238   5.402   3.485
  945TIP3   OH2 2775   5.276   5.365   6.766
  945TIP3    H1 2776   5.357   5.416   6.778
  945TIP3    H2 2777   5.287   5.323   6.681
  946TIP3   OH2 2778   2.870   0.774   5.595
  946TIP3    H1 2779   2.818   0.705   5.555
  946TIP3    H2 2780   2.946   0.730   5.631
  947TIP3   OH2 2781   7.341   7.060   2.256
  947TIP3    H1 2782   7.296   6.980   2.227
  947TIP3    H2 2783   7.384   7.034   2.338
  948TIP3   OH2 2784   7.427   6.952   0.454
  948TIP3    H1 2785   7.390   7.012   0.389
  948TIP3    H2 2786   7.482   7.007   0.510
  949TIP3   OH2 2787   7.915   0.292   6.031
  949TIP3    H1 2788   7.954   0.349   5.965
  949TIP3    H2 2789   7.832   0.335   6.054
  950TIP3   OH2 2790   3.167   7.779   2.417
  950TIP3    H1 2791   3.203   7.804   2.332
  950TIP3    H2 2792   3.138   7.861   2.456
  951TIP3   OH2 2793   2.143   4.933   6.265
  951TIP3    H1 2794   2.188   4.848   6.269
  951TIP3    H2 2795   2.064   4.921   6.317
  952TIP3   OH2 2796   7.335   5.658   2.352
  952TIP3    H1 2797   7.350   5.570   2.317
  952TIP3    H2 2798   7.399   5.667   2.422
  953TIP3   OH2 2799   7.787   2.563   0.495
  953TIP3    H1 2800   7.818   2.565   0.585
  953TIP3    H2 2801   7.821   2.480   0.461
  954TIP3   OH2 2802   4.935   3.635   4.166
  954TIP3    H1 2803   5.018   3.588   4.168
  954TIP3    H2 2804   4.956   3.723   4.198
  955TIP3   OH2 2805   7.177   5.940   1.269
  955TIP3    H1 2806   7.192   6.033   1.254
  955TIP3    H2 2807   7.248   5.914   1.328
  956TIP3   OH2 2808   5.397   4.987   3.960
  956TIP3    H1 2809   5.351   5.057   4.006
  956TIP3    H2 2810   5.421   5.025   3.876
  957TIP3   OH2 2811   7.951   0.192   6.458
  957TIP3    H1 2812   8.025   0.217   6.403
  957TIP3    H2 2813   7.874   0.220   6.408
  958TIP3   OH2 2814   7.546   5.583   5.909
  958TIP3    H1 2815   7.577   5.529   5.982
  958TIP3    H2 2816   7.582   5.670   5.927
  959TIP3   OH2 2817   5.536   3.985   1.816
  959TIP3    H1 2818   5.607   4.035   1.775
  959TIP3    H2 2819   5.531   3.905   1.764
  960TIP3   OH2 2820   2.844   7.025   5.603
  960TIP3    H1 2821   2.782   7.057   5.537
  960TIP3    H2 2822   2.907   7.096   5.614
  961TIP3   OH2 2823   8.074   6.019   4.583
  961TIP3    H1 2824   8.076   5.943   4.525
  961TIP3    H2 2825   8.004   6.001   4.645
  962TIP3   OH2 2826   4.945   2.344   5.489
  962TIP3    H1 2827   4.896   2.353   5.570
  962TIP3    H2 2828   4.913   2.263   5.450
  963TIP3   OH2 2829   1.282   3.074   5.033
  963TIP3    H1 2830   1.186   3.075   5.030
  963TIP3    H2 2831   1.308   3.147   4.977
  964TIP3   OH2 2832   6.869   2.243   4.684
  964TIP3    H1 2833   6.956   2.234   4.645
  964TIP3    H2 2834   6.809   2.217   4.614
  965TIP3   OH2 2835   3.456   2.605   6.027
  965TIP3    H1 2836   3.481   2.585   5.936
  965TIP3    H2 2837   3.484   2.696   6.039
  966TIP3   OH2 2838   1.841   6.379   1.978
  966TIP3    H1 2839   1.812   6.456   1.929
  966TIP3    H2 2840   1.895   6.414   2.048
  967TIP3   OH2 2841   3.361   0.616   2.996
  967TIP3    H1 2842   3.390   0.544   3.052
  967TIP3    H2 2843   3.273   0.593   2.968
  968TIP3   OH2 2844   6.280   7.842   2.210
  968TIP3    H1 2845   6.255   7.901   2.138
  968TIP3    H2 2846   6.371   7.820   2.192
  969TIP3   OH2 2847   3.287   1.920   4.281
  969TIP3    H1 2848   3.287   2.002   4.330
  969TIP3    H2 2849   3.196   1.909   4.254
  970TIP3   OH2 2850   3.708   7.453   3.776
  970TIP3    H1 2851   3.622   7.472   3.738
  970TIP3    H2 2852   3.718   7.358   3.768
  971TIP3   OH2 2853   4.581   7.076   5.283
  971TIP3    H1 2854   4.587   7.038   5.196
  971TIP3    H2 2855   4.671   7.079   5.315
  972TIP3   OH2 2856   8.132   2.286   5.651
  972TIP3    H1 2857   8.095   2.237   5.725
  972TIP3    H2 2858   8.158   2.370   5.687
  973TIP3   OH2 2859   1.597   7.337   3.839
  973TIP3    H1 2860   1.598   7.433   3.839
  973TIP3    H2 2861   1.640   7.313   3.921
  974TIP3   OH2 2862   0.685   5.870   2.783
  974TIP3    H1 2863   0.776   5.872   2.810
  974TIP3    H2 2864   0.667   5.778   2.764
  975TIP3   OH2 2865   3.654   0.565   2.942
  975TIP3    H1 2866   3.560   0.575   2.929
  975TIP3    H2 2867   3.689   0.654   2.932
  976TIP3   OH2 2868   3.590   1.385   4.417
  976TIP3    H1 2869   3.582   1.310   4.477
  976TIP3    H2 2870   3.518   1.443   4.442
  977TIP3   OH2 2871   1.369   4.453   4.452
  977TIP3    H1 2872   1.326   4.385   4.505
  977TIP3    H2 2873   1.401   4.407   4.375
  978TIP3   OH2 2874   1.945   2.223   5.497
  978TIP3    H1 2875   1.959   2.159   5.567
  978TIP3    H2 2876   1.900   2.295   5.541
  979TIP3   OH2 2877   4.120   1.594   5.628
  979TIP3    H1 2878   4.042   1.597   5.572
  979TIP3    H2 2879   4.151   1.684   5.631
  980TIP3   OH2 2880   7.439   5.131   2.669
  980TIP3    H1 2881   7.428   5.223   2.644
  980TIP3    H2 2882   7.427   5.130   2.764
  981TIP3   OH2 2883   3.483   3.179   0.693
  981TIP3    H1 2884   3.566   3.140   0.721
  981TIP3    H2 2885   3.507   3.263   0.655
  982TIP3   OH2 2886   1.133   3.706   3.909
  982TIP3    H1 2887   1.052   3.735   3.951
  982TIP3    H2 2888   1.116   3.615   3.884
  983TIP3   OH2 2889   4.609   2.486   5.513
  983TIP3    H1 2890   4.618   2.569   5.560
  983TIP3    H2 2891   4.674   2.429   5.553
  984TIP3   OH2 2892   0.318   6.343   0.775
  984TIP3    H1 2893   0.412   6.326   0.769
  984TIP3    H2 2894   0.284   6.271   0.828
  985TIP3   OH2 2895   0.329   7.305   3.487
  985TIP3    H1 2896   0.234   7.309   3.498
  985TIP3    H2 2897   0.363   7.289   3.576
  986TIP3   OH2 2898   5.980   4.072   2.026
  986TIP3    H1 2899   6.005   4.162   2.006
  986TIP3    H2 2900   5.884   4.075   2.032
  987TIP3   OH2 2901   0.608   4.181   6.533
  987TIP3    H1 2902   0.623   4.180   6.438
  987TIP3    H2 2903   0.515   4.159   6.542
  988TIP3   OH2 2904   3.707   2.758   0.500
  988TIP3    H1 2905   3.635   2.724   0.553
  988TIP3    H2 2906   3.690   2.726   0.412
  989TIP3   OH2 2907   3.865   2.497   2.740
  989TIP3    H1 2908   3.876   2.470   2.649
  989TIP3    H2 2909   3.880   2.592   2.738
  990TIP3   OH2 2910   3.732   1.396   6.098
  990TIP3    H1 2911   3.684   1.367   6.175
  990TIP3    H2 2912   3.696   1.343   6.026
  991TIP3   OH2 2913   7.584   1.908   5.865
  991TIP3    H1 2914   7.545   1.821   5.868
  991TIP3    H2 2915   7.674   1.893   5.837
  992TIP3   OH2 2916   7.174   2.938   1.974
  992TIP3    H1 2917   7.125   2.881   1.915
  992TIP3    H2 2918   7.185   3.019   1.925
  993TIP3   OH2 2919   3.442   3.781   4.529
  993TIP3    H1 2920   3.430   3.689   4.505
  993TIP3    H2 2921   3.429   3.829   4.447
  994TIP3   OH2 2922   5.280   0.054   0.325
  994TIP3    H1 2923   5.236  -0.001   0.260
  994TIP3    H2 2924   5.224   0.131   0.333
  995TIP3   OH2 2925   2.722   7.504   3.444
  995TIP3    H1 2926   2.675   7.421   3.447
  995TIP3    H2 2927   2.811   7.481   3.417
  996TIP3   OH2 2928   5.278   7.510   3.407
  996TIP3    H1 2929   5.240   7.569   3.341
  996TIP3    H2 2930   5.219   7.516   3.482
  997TIP3   OH2 2931   4.585   7.192   5.564
  997TIP3    H1 2932   4.603   7.180   5.471
  997TIP3    H2 2933   4.663   7.159   5.608
  998TIP3   OH2 2934   5.957   2.242   1.034
  998TIP3    H1 2935   6.026   2.269   0.974
  998TIP3    H2 2936   5.989   2.267   1.121
  999TIP3   OH2 2937   7.232   7.547   3.767
  999TIP3    H1 2938   7.198   7.564   3.855
  999TIP3    H2 2939   7.155   7.523   3.716
 1000TIP3   OH2 2940   8.125   4.984   6.183
 1000TIP3    H1 2941   8.067   5.028   6.121
 1000TIP3    H2 2942   8.211   4.990   6.143
 1001TIP3   OH2 2943   0.779   0.568   1.938
 1001TIP3    H1 2944   0.829   0.613   1.871
 1001TIP3    H2 2945   0.710   0.522   1.890
 1002TIP3   OH2 2946   4.137   3.299   5.081
 1002TIP3    H1 2947   4.090   3.224   5.118
 1002TIP3    H2 2948   4.170   3.268   4.997
 1003TIP3   OH2 2949   0.381   0.111   5.489
 1003TIP3    H1 2950   0.316   0.073   5.430
 1003TIP3    H2 2951   0.462   0.063   5.469
 1004TIP3   OH2 2952   6.330   4.333   3.720
 1004TIP3    H1 2953   6.238   4.346   3.744
 1004TIP3    H2 2954   6.376   4.409   3.757
 1005TIP3   OH2 2955   1.718   6.007   4.353
 1005TIP3    H1 2956   1.717   6.095   4.317
 1005TIP3    H2 2957   1.799   5.969   4.320
 1006TIP3   OH2 2958   2.278   3.600   0.372
 1006TIP3    H1 2959   2.311   3.670   0.428
 1006TIP3    H2 2960   2.193   3.577   0.409
 1007TIP3   OH2 2961   4.279   6.602   1.270
 1007TIP3    H1 2962   4.358   6.557   1.302
 1007TIP3    H2 2963   4.237   6.637   1.349
 1008TIP3   OH2 2964   6.558   3.657   0.379
 1008TIP3    H1 2965   6.562   3.752   0.389
 1008TIP3    H2 2966   6.578   3.622   0.466
 1009TIP3   OH2 2967   3.971   6.486   5.803
 1009TIP3    H1 2968   3.971   6.409   5.748
 1009TIP3    H2 2969   3.881   6.520   5.797
 1010TIP3   OH2 2970   0.973   0.879   5.241
 1010TIP3    H1 2971   0.908   0.950   5.245
 1010TIP3    H2 2972   0.930   0.810   5.192
 1011TIP3   OH2 2973   3.914   5.468   2.587
 1011TIP3    H1 2974   3.853   5.533   2.553
 1011TIP3    H2 2975   3.961   5.514   2.656
 1012TIP3   OH2 2976   1.179   1.391   4.191
 1012TIP3    H1 2977   1.155   1.473   4.148
 1012TIP3    H2 2978   1.275   1.396   4.199
 1013TIP3   OH2 2979   7.946   4.078   3.503
 1013TIP3    H1 2980   7.855   4.074   3.474
 1013TIP3    H2 2981   7.944   4.134   3.581
 1014TIP3   OH2 2982   4.610   0.482   5.857
 1014TIP3    H1 2983   4.689   0.536   5.866
 1014TIP3    H2 2984   4.589   0.486   5.763
 1015TIP3   OH2 2985   5.711   7.787   0.232
 1015TIP3    H1 2986   5.790   7.736   0.216
 1015TIP3    H2 2987   5.723   7.867   0.180
 1016TIP3   OH2 2988   0.211   3.503   0.453
 1016TIP3    H1 2989   0.189   3.549   0.372
 1016TIP3    H2 2990   0.242   3.417   0.425
 1017TIP3   OH2 2991   5.681   2.752   6.051
 1017TIP3    H1 2992   5.605   2.742   6.109
 1017TIP3    H2 2993   5.755   2.725   6.104
 1018TIP3   OH2 2994   3.593   4.097   6.618
 1018TIP3    H1 2995   3.579   4.118   6.711
 1018TIP3    H2 2996   3.688   4.107   6.606
 1019TIP3   OH2 2997   0.252   4.044   2.358
 1019TIP3    H1 2998   0.341   4.019   2.384
 1019TIP3    H2 2999   0.226   4.109   2.422
 1020TIP3   OH2 3000   8.249   6.480   3.353
 1020TIP3    H1 3001   8.215   6.434   3.276
 1020TIP3    H2 3002   8.187   6.460   3.423
 1021TIP3   OH2 3003   3.261   7.353   5.838
 1021TIP3    H1 3004   3.346   7.379   5.803
 1021TIP3    H2 3005   3.279   7.273   5.887
 1022TIP3   OH2 3006   4.931   2.265   0.412
 1022TIP3    H1 3007   5.017   2.234   0.384
 1022TIP3    H2 3008   4.887   2.187   0.445
 1023TIP3   OH2 3009   1.645   5.239   4.633
 1023TIP3    H1 3010   1.724   5.287   4.655
 1023TIP3    H2 3011   1.627   5.186   4.711
 1024TIP3   OH2 3012   6.474   2.900   4.053
 1024TIP3    H1 3013   6.569   2.894   4.059
 1024TIP3    H2 3014   6.457   2.990   4.024
 1025TIP3   OH2 3015   6.884   3.645   2.477
 1025TIP3    H1 3016   6.979   3.634   2.474
 1025TIP3    H2 3017   6.852   3.563   2.516
 1026TIP3   OH2 3018   7.501   1.822   2.206
 1026TIP3    H1 3019   7.559   1.893   2.235
 1026TIP3    H2 3020   7.428   1.867   2.163
 1027TIP3   OH2 3021   0.089   3.835   1.930
 1027TIP3    H1 3022   0.100   3.763   1.868
 1027TIP3    H2 3023   0.178   3.862   1.951
 1028TIP3   OH2 3024   6.482   5.771   0.661
 1028TIP3    H1 3025   6.571   5.744   0.641
 1028TIP3    H2 3026   6.488   5.810   0.748
 1029TIP3   OH2 3027   0.357   0.398   1.249
 1029TIP3    H1 3028   0.442   0.375   1.212
 1029TIP3    H2 3029   0.364   0.491   1.267
 1030TIP3   OH2 3030   7.448   5.202   5.723
 1030TIP3    H1 3031   7.517   5.192   5.657
 1030TIP3    H2 3032   7.371   5.229   5.673
 1031TIP3   OH2 3033   6.744   3.281   2.295
 1031TIP3    H1 3034   6.711   3.218   2.231
 1031TIP3    H2 3035   6.695   3.362   2.276
 1032TIP3   OH2 3036   2.209   2.536   5.604
 1032TIP3    H1 3037   2.263   2.602   5.647
 1032TIP3    H2 3038   2.174   2.482   5.675
 1033TIP3   OH2 3039   4.130   6.585   5.571
 1033TIP3    H1 3040   4.054   6.627   5.610
 1033TIP3    H2 3041   4.182   6.657   5.536
 1034TIP3   OH2 3042   6.892   3.483   2.140
 1034TIP3    H1 3043   6.958   3.527   2.087
 1034TIP3    H2 3044   6.928   3.396   2.155
 1035TIP3   OH2 3045   1.027   0.978   1.331
 1035TIP3    H1 3046   1.070   1.064   1.335
 1035TIP3    H2 3047   0.936   0.995   1.354
 1036TIP3   OH2 3048   6.325   1.058   4.704
 1036TIP3    H1 3049   6.420   1.049   4.698
 1036TIP3    H2 3050   6.311   1.126   4.770
 1037TIP3   OH2 3051   2.913   3.786   4.224
 1037TIP3    H1 3052   2.912   3.825   4.137
 1037TIP3    H2 3053   2.961   3.849   4.278
 1038TIP3   OH2 3054   4.812   0.117   1.083
 1038TIP3    H1 3055   4.796   0.083   0.995
 1038TIP3    H2 3056   4.902   0.150   1.079
 1039TIP3   OH2 3057   2.378   5.335   1.801
 1039TIP3    H1 3058   2.414   5.334   1.712
 1039TIP3    H2 3059   2.442   5.286   1.853
 1040TIP3   OH2 3060   4.342   2.638   2.214
 1040TIP3    H1 3061   4.392   2.698   2.269
 1040TIP3    H2 3062   4.271   2.608   2.270
 1041TIP3   OH2 3063   4.581   7.843   5.497
 1041TIP3    H1 3064   4.499   7.795   5.504
 1041TIP3    H2 3065   4.641   7.784   5.451
 1042TIP3   OH2 3066   5.416   3.443   4.360
 1042TIP3    H1 3067   5.358   3.490   4.420
 1042TIP3    H2 3068   5.422   3.355   4.397
 1043TIP3   OH2 3069   0.602   4.164   6.270
 1043TIP3    H1 3070   0.674   4.115   6.230
 1043TIP3    H2 3071   0.622   4.255   6.251
 1044TIP3   OH2 3072   8.106   2.005   2.870
 1044TIP3    H1 3073   8.169   1.934   2.885
 1044TIP3    H2 3074   8.033   1.962   2.826
 1045TIP3   OH2 3075   3.636   2.180   0.823
 1045TIP3    H1 3076   3.607   2.136   0.743
 1045TIP3    H2 3077   3.595   2.130   0.894
 1046TIP3   OH2 3078   2.543   6.099   2.821
 1046TIP3    H1 3079   2.558   6.186   2.857
 1046TIP3    H2 3080   2.462   6.107   2.770
 1047TIP3   OH2 3081   7.173   0.474   2.930
 1047TIP3    H1 3082   7.079   0.463   2.946
 1047TIP3    H2 3083   7.191   0.565   2.953
 1048TIP3   OH2 3084   2.267   0.712   1.459
 1048TIP3    H1 3085   2.288   0.790   1.408
 1048TIP3    H2 3086   2.207   0.663   1.404
 1049TIP3   OH2 3087   5.551   5.185   1.705
 1049TIP3    H1 3088   5.500   5.142   1.637
 1049TIP3    H2 3089   5.592   5.113   1.754
 1050TIP3   OH2 3090   1.794   0.821   1.373
 1050TIP3    H1 3091   1.860   0.761   1.337
 1050TIP3    H2 3092   1.719   0.766   1.391
 1051TIP3   OH2 3093   2.800   1.887   6.497
 1051TIP3    H1 3094   2.801   1.947   6.571
 1051TIP3    H2 3095   2.804   1.943   6.420
 1052TIP3   OH2 3096   1.108   4.593   3.164
 1052TIP3    H1 3097   1.122   4.643   3.245
 1052TIP3    H2 3098   1.187   4.539   3.155
 1053TIP3   OH2 3099   5.743   4.037   1.441
 1053TIP3    H1 3100   5.790   3.953   1.444
 1053TIP3    H2 3101   5.754   4.067   1.351
 1054TIP3   OH2 3102   0.705   7.202   5.600
 1054TIP3    H1 3103   0.749   7.118   5.614
 1054TIP3    H2 3104   0.731   7.228   5.511
 1055TIP3   OH2 3105   1.166   0.246   2.260
 1055TIP3    H1 3106   1.183   0.319   2.200
 1055TIP3    H2 3107   1.172   0.168   2.205
 1056TIP3   OH2 3108   0.585   3.610   1.567
 1056TIP3    H1 3109   0.623   3.561   1.640
 1056TIP3    H2 3110   0.619   3.699   1.578
 1057TIP3   OH2 3111   7.079   2.236   3.493
 1057TIP3    H1 3112   7.076   2.321   3.450
 1057TIP3    H2 3113   7.152   2.191   3.452
 1058TIP3   OH2 3114   5.004   2.020   1.559
 1058TIP3    H1 3115   5.084   2.034   1.508
 1058TIP3    H2 3116   4.979   2.107   1.589
 1059TIP3   OH2 3117   4.136   3.094   4.515
 1059TIP3    H1 3118   4.111   3.185   4.500
 1059TIP3    H2 3119   4.231   3.092   4.503
 1060TIP3   OH2 3120   0.959   7.215   6.832
 1060TIP3    H1 3121   1.021   7.181   6.769
 1060TIP3    H2 3122   0.990   7.304   6.851
 1061TIP3   OH2 3123   0.978   5.600   3.604
 1061TIP3    H1 3124   0.947   5.515   3.634
 1061TIP3    H2 3125   0.911   5.629   3.541
 1062TIP3   OH2 3126   7.345   4.792   0.734
 1062TIP3    H1 3127   7.394   4.728   0.786
 1062TIP3    H2 3128   7.409   4.825   0.670
 1063TIP3   OH2 3129   4.729   3.985   4.864
 1063TIP3    H1 3130   4.706   4.034   4.785
 1063TIP3    H2 3131   4.772   4.049   4.921
 1064TIP3   OH2 3132   7.459   1.590   4.916
 1064TIP3    H1 3133   7.518   1.641   4.859
 1064TIP3    H2 3134   7.516   1.526   4.958
 1065TIP3   OH2 3135   6.268   4.514   6.007
 1065TIP3    H1 3136   6.248   4.514   6.100
 1065TIP3    H2 3137   6.306   4.601   5.991
 1066TIP3   OH2 3138   3.329   4.741   4.384
 1066TIP3    H1 3139   3.390   4.722   4.314
 1066TIP3    H2 3140   3.369   4.814   4.432
 1067TIP3   OH2 3141   1.180   6.201   6.143
 1067TIP3    H1 3142   1.159   6.245   6.225
 1067TIP3    H2 3143   1.263   6.156   6.160
 1068TIP3   OH2 3144   1.530   4.817   6.302
 1068TIP3    H1 3145   1.621   4.793   6.284
 1068TIP3    H2 3146   1.495   4.744   6.353
 1069TIP3   OH2 3147   6.517   1.205   4.896
 1069TIP3    H1 3148   6.431   1.220   4.933
 1069TIP3    H2 3149   6.520   1.259   4.817
 1070TIP3   OH2 3150   3.251   6.097   1.560
 1070TIP3    H1 3151   3.166   6.141   1.550
 1070TIP3    H2 3152   3.246   6.056   1.647
 1071TIP3   OH2 3153   1.573   5.366   4.067
 1071TIP3    H1 3154   1.667   5.383   4.075
 1071TIP3    H2 3155   1.560   5.344   3.975
 1072TIP3   OH2 3156   3.119   3.714   4.578
 1072TIP3    H1 3157   3.062   3.679   4.510
 1072TIP3    H2 3158   3.183   3.645   4.595
 1073TIP3   OH2 3159   1.645   3.416   3.833
 1073TIP3    H1 3160   1.653   3.493   3.777
 1073TIP3    H2 3161   1.735   3.393   3.855
 1074TIP3   OH2 3162   5.087   5.833   2.772
 1074TIP3    H1 3163   5.045   5.757   2.812
 1074TIP3    H2 3164   5.175   5.803   2.749
 1075TIP3   OH2 3165   1.432   4.693   4.583
 1075TIP3    H1 3166   1.430   4.612   4.532
 1075TIP3    H2 3167   1.393   4.669   4.667
 1076TIP3   OH2 3168   7.009   7.613   2.198
 1076TIP3    H1 3169   6.935   7.629   2.139
 1076TIP3    H2 3170   6.984   7.654   2.280
 1077TIP3   OH2 3171   0.729   6.556   1.144
 1077TIP3    H1 3172   0.765   6.526   1.227
 1077TIP3    H2 3173   0.640   6.521   1.142
 1078TIP3   OH2 3174   2.232   1.144   6.792
 1078TIP3    H1 3175   2.269   1.232   6.783
 1078TIP3    H2 3176   2.306   1.091   6.821
 1079TIP3   OH2 3177   4.975   0.534   6.524
 1079TIP3    H1 3178   5.012   0.500   6.605
 1079TIP3    H2 3179   4.942   0.621   6.547
 1080TIP3   OH2 3180   1.942   6.265   5.557
 1080TIP3    H1 3181   1.869   6.211   5.526
 1080TIP3    H2 3182   1.928   6.350   5.515
 1081TIP3   OH2 3183   7.738   1.355   2.576
 1081TIP3    H1 3184   7.785   1.395   2.503
 1081TIP3    H2 3185   7.649   1.390   2.569
 1082TIP3   OH2 3186   2.756   5.286   5.936
 1082TIP3    H1 3187   2.801   5.370   5.933
 1082TIP3    H2 3188   2.669   5.306   5.970
 1083TIP3   OH2 3189   8.257   3.108   3.101
 1083TIP3    H1 3190   8.245   3.198   3.069
 1083TIP3    H2 3191   8.340   3.080   3.062
 1084TIP3   OH2 3192   4.396   6.867   1.509
 1084TIP3    H1 3193   4.484   6.866   1.473
 1084TIP3    H2 3194   4.396   6.941   1.570
 1085TIP3   OH2 3195   1.755   6.872   6.248
 1085TIP3    H1 3196   1.717   6.797   6.203
 1085TIP3    H2 3197   1.805   6.918   6.181
 1086TIP3   OH2 3198   5.141   3.448   4.202
 1086TIP3    H1 3199   5.068   3.413   4.253
 1086TIP3    H2 3200   5.208   3.380   4.205
 1087TIP3   OH2 3201   8.333   1.707   0.251
 1087TIP3    H1 3202   8.264   1.687   0.187
 1087TIP3    H2 3203   8.356   1.798   0.232
 1088TIP3   OH2 3204   8.203   2.327   1.118
 1088TIP3    H1 3205   8.182   2.241   1.082
 1088TIP3    H2 3206   8.187   2.318   1.212
 1089TIP3   OH2 3207   4.196   5.040   2.821
 1089TIP3    H1 3208   4.131   4.971   2.809
 1089TIP3    H2 3209   4.202   5.052   2.916
 1090TIP3   OH2 3210   3.685   4.836   3.541
 1090TIP3    H1 3211   3.597   4.867   3.521
 1090TIP3    H2 3212   3.718   4.896   3.608
 1091TIP3   OH2 3213   6.885   4.465   6.301
 1091TIP3    H1 3214   6.887   4.396   6.368
 1091TIP3    H2 3215   6.797   4.501   6.306
 1092TIP3   OH2 3216   1.866   3.290   0.688
 1092TIP3    H1 3217   1.938   3.334   0.734
 1092TIP3    H2 3218   1.818   3.245   0.758
 1093TIP3   OH2 3219   2.425   1.725   4.142
 1093TIP3    H1 3220   2.499   1.750   4.087
 1093TIP3    H2 3221   2.452   1.749   4.231
 1094TIP3   OH2 3222   7.937   7.404   5.111
 1094TIP3    H1 3223   7.915   7.493   5.138
 1094TIP3    H2 3224   7.871   7.349   5.155
 1095TIP3   OH2 3225   2.716   0.379   5.098
 1095TIP3    H1 3226   2.698   0.324   5.022
 1095TIP3    H2 3227   2.656   0.347   5.165
 1096TIP3   OH2 3228   1.641   3.199   5.550
 1096TIP3    H1 3229   1.598   3.234   5.628
 1096TIP3    H2 3230   1.730   3.232   5.555
 1097TIP3   OH2 3231   7.222   0.732   4.523
 1097TIP3    H1 3232   7.173   0.651   4.506
 1097TIP3    H2 3233   7.168   0.780   4.586
 1098TIP3   OH2 3234   8.347   6.969   4.504
 1098TIP3    H1 3235   8.303   6.926   4.576
 1098TIP3    H2 3236   8.423   6.914   4.485
 1099TIP3   OH2 3237   0.857   0.902   4.035
 1099TIP3    H1 3238   0.916   0.921   4.108
 1099TIP3    H2 3239   0.823   0.814   4.054
 1100TIP3   OH2 3240   6.405   0.817   1.825
 1100TIP3    H1 3241   6.438   0.889   1.878
 1100TIP3    H2 3242   6.318   0.799   1.860
 1101TIP3   OH2 3243   5.806   5.215   0.089
 1101TIP3    H1 3244   5.829   5.270   0.164
 1101TIP3    H2 3245   5.710   5.218   0.086
 1102TIP3   OH2 3246   1.306   5.317   3.127
 1102TIP3    H1 3247   1.261   5.313   3.042
 1102TIP3    H2 3248   1.243   5.281   3.189
 1103TIP3   OH2 3249   0.806   2.879   6.369
 1103TIP3    H1 3250   0.795   2.929   6.288
 1103TIP3    H2 3251   0.797   2.945   6.438
 1104TIP3   OH2 3252   1.842   3.311   3.040
 1104TIP3    H1 3253   1.809   3.284   2.954
 1104TIP3    H2 3254   1.929   3.272   3.046
 1105TIP3   OH2 3255   3.620   1.658   3.607
 1105TIP3    H1 3256   3.572   1.604   3.669
 1105TIP3    H2 3257   3.689   1.699   3.658
 1106TIP3   OH2 3258   0.530   3.612   1.897
 1106TIP3    H1 3259   0.589   3.548   1.857
 1106TIP3    H2 3260   0.465   3.560   1.943
 1107TIP3   OH2 3261   2.188   6.764   0.945
 1107TIP3    H1 3262   2.159   6.704   1.014
 1107TIP3    H2 3263   2.280   6.740   0.929
 1108TIP3   OH2 3264   3.666   4.409   5.224
 1108TIP3    H1 3265   3.598   4.347   5.250
 1108TIP3    H2 3266   3.704   4.370   5.145
 1109TIP3   OH2 3267   2.368   0.934   0.741
 1109TIP3    H1 3268   2.340   0.995   0.809
 1109TIP3    H2 3269   2.447   0.973   0.705
 1110TIP3   OH2 3270   1.072   0.599   4.511
 1110TIP3    H1 3271   0.978   0.619   4.518
 1110TIP3    H2 3272   1.116   0.682   4.527
 1111TIP3   OH2 3273   3.571   4.000   2.975
 1111TIP3    H1 3274   3.664   3.980   2.979
 1111TIP3    H2 3275   3.565   4.091   3.005
 1112TIP3   OH2 3276   2.027   3.819   0.870
 1112TIP3    H1 3277   1.962   3.846   0.935
 1112TIP3    H2 3278   2.013   3.877   0.796
 1113TIP3   OH2 3279   3.057   3.924   4.729
 1113TIP3    H1 3280   3.086   3.842   4.690
 1113TIP3    H2 3281   3.053   3.985   4.656
 1114TIP3   OH2 3282   3.829   6.172   6.644
 1114TIP3    H1 3283   3.746   6.220   6.634
 1114TIP3    H2 3284   3.870   6.178   6.558
 1115TIP3   OH2 3285   4.994   3.018   2.603
 1115TIP3    H1 3286   5.019   2.927   2.585
 1115TIP3    H2 3287   4.994   3.025   2.699
 1116TIP3   OH2 3288   7.698   7.097   1.086
 1116TIP3    H1 3289   7.632   7.045   1.041
 1116TIP3    H2 3290   7.695   7.182   1.043
 1117TIP3   OH2 3291   3.908   3.140   3.070
 1117TIP3    H1 3292   3.937   3.050   3.054
 1117TIP3    H2 3293   3.984   3.194   3.049
 1118TIP3   OH2 3294   2.406   0.665   5.996
 1118TIP3    H1 3295   2.467   0.591   5.987
 1118TIP3    H2 3296   2.447   0.736   5.946
 1119TIP3   OH2 3297   1.612   1.881   3.888
 1119TIP3    H1 3298   1.645   1.954   3.941
 1119TIP3    H2 3299   1.691   1.835   3.859
 1120TIP3   OH2 3300   3.271   0.692   4.060
 1120TIP3    H1 3301   3.215   0.690   4.137
 1120TIP3    H2 3302   3.359   0.709   4.094
 1121TIP3   OH2 3303   3.641   3.638   6.796
 1121TIP3    H1 3304   3.706   3.570   6.777
 1121TIP3    H2 3305   3.693   3.711   6.832
 1122TIP3   OH2 3306   6.427   0.184   0.565
 1122TIP3    H1 3307   6.335   0.204   0.547
 1122TIP3    H2 3308   6.471   0.194   0.481
 1123TIP3   OH2 3309   2.102   7.404   2.893
 1123TIP3    H1 3310   2.046   7.482   2.883
 1123TIP3    H2 3311   2.151   7.420   2.973
 1124TIP3   OH2 3312   0.206   6.471   5.328
 1124TIP3    H1 3313   0.159   6.554   5.323
 1124TIP3    H2 3314   0.167   6.417   5.258
 1125TIP3   OH2 3315   2.574   2.156   2.305
 1125TIP3    H1 3316   2.494   2.104   2.305
 1125TIP3    H2 3317   2.544   2.247   2.311
 1126TIP3   OH2 3318   2.752   2.710   3.678
 1126TIP3    H1 3319   2.701   2.704   3.758
 1126TIP3    H2 3320   2.810   2.785   3.693
 1127TIP3   OH2 3321   3.799   5.910   5.938
 1127TIP3    H1 3322   3.867   5.845   5.958
 1127TIP3    H2 3323   3.717   5.859   5.938
 1128TIP3   OH2 3324   6.269   3.721   1.464
 1128TIP3    H1 3325   6.293   3.755   1.378
 1128TIP3    H2 3326   6.208   3.787   1.498
 1129TIP3   OH2 3327   3.002   7.258   0.650
 1129TIP3    H1 3328   3.073   7.277   0.589
 1129TIP3    H2 3329   3.042   7.262   0.736
 1130TIP3   OH2 3330   4.115   2.409   6.638
 1130TIP3    H1 3331   4.048   2.469   6.669
 1130TIP3    H2 3332   4.066   2.334   6.604
 1131TIP3   OH2 3333   8.123   4.854   5.139
 1131TIP3    H1 3334   8.212   4.832   5.167
 1131TIP3    H2 3335   8.124   4.842   5.044
 1132TIP3   OH2 3336   2.893   2.030   3.700
 1132TIP3    H1 3337   2.837   1.952   3.703
 1132TIP3    H2 3338   2.904   2.049   3.607
 1133TIP3   OH2 3339   8.268   6.052   0.025
 1133TIP3    H1 3340   8.276   6.082   0.115
 1133TIP3    H2 3341   8.286   6.130  -0.028
 1134TIP3   OH2 3342   5.976   2.730   3.113
 1134TIP3    H1 3343   5.919   2.657   3.136
 1134TIP3    H2 3344   5.916   2.803   3.094
 1135TIP3   OH2 3345   3.191   0.884   5.159
 1135TIP3    H1 3346   3.238   0.804   5.185
 1135TIP3    H2 3347   3.160   0.921   5.242
 1136TIP3   OH2 3348   6.571   6.766   1.476
 1136TIP3    H1 3349   6.482   6.760   1.511
 1136TIP3    H2 3350   6.597   6.857   1.495
 1137TIP3   OH2 3351   5.626   7.729   0.503
 1137TIP3    H1 3352   5.640   7.769   0.416
 1137TIP3    H2 3353   5.698   7.761   0.556
 1138TIP3   OH2 3354   4.801   1.856   5.810
 1138TIP3    H1 3355   4.764   1.829   5.894
 1138TIP3    H2 3356   4.858   1.783   5.784
 1139TIP3   OH2 3357   7.719   4.386   0.226
 1139TIP3    H1 3358   7.666   4.450   0.273
 1139TIP3    H2 3359   7.658   4.314   0.207
 1140TIP3   OH2 3360   6.446   2.481   4.288
 1140TIP3    H1 3361   6.522   2.539   4.283
 1140TIP3    H2 3362   6.398   2.498   4.207
 1141TIP3   OH2 3363   2.121   2.524   6.477
 1141TIP3    H1 3364   2.103   2.529   6.383
 1141TIP3    H2 3365   2.048   2.472   6.512
 1142TIP3   OH2 3366   2.606   6.678   4.013
 1142TIP3    H1 3367   2.687   6.631   4.036
 1142TIP3    H2 3368   2.630   6.770   4.017
 1143TIP3   OH2 3369   4.034   3.939   1.306
 1143TIP3    H1 3370   4.127   3.962   1.303
 1143TIP3    H2 3371   4.030   3.857   1.355
 1144TIP3   OH2 3372   4.198   0.930   5.606
 1144TIP3    H1 3373   4.192   0.835   5.596
 1144TIP3    H2 3374   4.289   0.951   5.585
 1145TIP3   OH2 3375   0.135   5.632   3.267
 1145TIP3    H1 3376   0.161   5.560   3.324
 1145TIP3    H2 3377   0.177   5.709   3.305
 1146TIP3   OH2 3378   4.985   6.724   1.611
 1146TIP3    H1 3379   5.035   6.803   1.591
 1146TIP3    H2 3380   5.019   6.658   1.550
 1147TIP3   OH2 3381   3.465   5.515   1.550
 1147TIP3    H1 3382   3.387   5.479   1.593
 1147TIP3    H2 3383   3.431   5.567   1.478
 1148TIP3   OH2 3384   3.936   3.130   5.191
 1148TIP3    H1 3385   3.928   3.062   5.258
 1148TIP3    H2 3386   3.855   3.181   5.199
 1149TIP3   OH2 3387   7.757   2.019   0.316
 1149TIP3    H1 3388   7.782   2.069   0.394
 1149TIP3    H2 3389   7.664   2.039   0.303
 1150TIP3   OH2 3390   8.082   5.883   5.115
 1150TIP3    H1 3391   7.986   5.892   5.116
 1150TIP3    H2 3392   8.114   5.972   5.133
 1151TIP3   OH2 3393   8.107   7.095   4.468
 1151TIP3    H1 3394   8.183   7.039   4.456
 1151TIP3    H2 3395   8.032   7.038   4.455
 1152TIP3   OH2 3396   1.467   4.301   1.314
 1152TIP3    H1 3397   1.385   4.342   1.342
 1152TIP3    H2 3398   1.522   4.303   1.392
 1153TIP3   OH2 3399   6.791   0.602   5.993
 1153TIP3    H1 3400   6.798   0.598   6.089
 1153TIP3    H2 3401   6.718   0.544   5.972
 1154TIP3   OH2 3402   7.596   5.950   6.760
 1154TIP3    H1 3403   7.626   5.889   6.828
 1154TIP3    H2 3404   7.634   5.916   6.680
 1155TIP3   OH2 3405   5.592   5.837   6.257
 1155TIP3    H1 3406   5.637   5.771   6.204
 1155TIP3    H2 3407   5.662   5.881   6.306
 1156TIP3   OH2 3408   3.397   7.673   6.199
 1156TIP3    H1 3409   3.449   7.622   6.262
 1156TIP3    H2 3410   3.360   7.607   6.140
 1157TIP3   OH2 3411   5.330   5.112   0.247
 1157TIP3    H1 3412   5.294   5.199   0.225
 1157TIP3    H2 3413   5.259   5.070   0.296
 1158TIP3   OH2 3414   7.163   1.754   5.381
 1158TIP3    H1 3415   7.248   1.716   5.404
 1158TIP3    H2 3416   7.145   1.719   5.293
 1159TIP3   OH2 3417   0.049   2.493   3.158
 1159TIP3    H1 3418  -0.006   2.541   3.219
 1159TIP3    H2 3419   0.093   2.561   3.107
 1160TIP3   OH2 3420   7.518   2.040   2.549
 1160TIP3    H1 3421   7.574   2.005   2.480
 1160TIP3    H2 3422   7.566   2.023   2.630
 1161TIP3   OH2 3423   3.471   2.831   1.097
 1161TIP3    H1 3424   3.489   2.901   1.159
 1161TIP3    H2 3425   3.476   2.873   1.011
 1162TIP3   OH2 3426   3.188   0.293   6.001
 1162TIP3    H1 3427   3.234   0.271   6.082
 1162TIP3    H2 3428   3.148   0.211   5.973
 1163TIP3   OH2 3429   4.954   1.510   0.838
 1163TIP3    H1 3430   4.887   1.575   0.820
 1163TIP3    H2 3431   4.945   1.446   0.768
 1164TIP3   OH2 3432   1.173   4.294   4.132
 1164TIP3    H1 3433   1.095   4.351   4.138
 1164TIP3    H2 3434   1.198   4.299   4.039
 1165TIP3   OH2 3435   3.380   5.602   4.414
 1165TIP3    H1 3436   3.318   5.635   4.480
 1165TIP3    H2 3437   3.425   5.681   4.383
 1166TIP3   OH2 3438   2.011   3.035   1.442
 1166TIP3    H1 3439   2.098   2.997   1.457
 1166TIP3    H2 3440   1.953   2.985   1.499
 1167TIP3   OH2 3441   7.155   6.624   6.207
 1167TIP3    H1 3442   7.125   6.713   6.189
 1167TIP3    H2 3443   7.120   6.604   6.294
 1168TIP3   OH2 3444   1.222   3.546   3.017
 1168TIP3    H1 3445   1.310   3.521   3.045
 1168TIP3    H2 3446   1.176   3.463   3.004
 1169TIP3   OH2 3447   3.956   1.879   5.652
 1169TIP3    H1 3448   3.977   1.888   5.745
 1169TIP3    H2 3449   3.884   1.816   5.649
 1170TIP3   OH2 3450   7.077   2.053   2.233
 1170TIP3    H1 3451   7.147   2.014   2.180
 1170TIP3    H2 3452   7.048   1.981   2.289
 1171TIP3   OH2 3453   7.773   4.143   2.186
 1171TIP3    H1 3454   7.699   4.199   2.163
 1171TIP3    H2 3455   7.781   4.082   2.112
 1172TIP3   OH2 3456   0.214   2.516   2.356
 1172TIP3    H1 3457   0.173   2.542   2.439
 1172TIP3    H2 3458   0.308   2.524   2.372
 1173TIP3   OH2 3459   2.978   6.097   4.710
 1173TIP3    H1 3460   2.942   6.034   4.648
 1173TIP3    H2 3461   2.962   6.183   4.670
 1174TIP3   OH2 3462   5.307   4.007   4.216
 1174TIP3    H1 3463   5.341   4.052   4.138
 1174TIP3    H2 3464   5.343   4.056   4.290
 1175TIP3   OH2 3465   2.288   7.298   2.664
 1175TIP3    H1 3466   2.348   7.345   2.722
 1175TIP3    H2 3467   2.201   7.328   2.690
 1176TIP3   OH2 3468   0.281   4.089   1.351
 1176TIP3    H1 3469   0.222   4.094   1.426
 1176TIP3    H2 3470   0.232   4.127   1.279
 1177TIP3   OH2 3471   7.346   3.498   1.110
 1177TIP3    H1 3472   7.325   3.521   1.020
 1177TIP3    H2 3473   7.261   3.496   1.155
 1178TIP3   OH2 3474   0.415   4.470   1.562
 1178TIP3    H1 3475   0.467   4.550   1.574
 1178TIP3    H2 3476   0.459   4.423   1.492
 1179TIP3   OH2 3477   7.705   3.366   5.914
 1179TIP3    H1 3478   7.766   3.329   5.978
 1179TIP3    H2 3479   7.629   3.393   5.966
 1180TIP3   OH2 3480   4.620   2.783   3.316
 1180TIP3    H1 3481   4.701   2.816   3.355
 1180TIP3    H2 3482   4.552   2.840   3.350
 1181TIP3   OH2 3483   3.611   3.554   4.856
 1181TIP3    H1 3484   3.625   3.632   4.802
 1181TIP3    H2 3485   3.678   3.560   4.924
 1182TIP3   OH2 3486   3.533   0.804   1.679
 1182TIP3    H1 3487   3.472   0.868   1.642
 1182TIP3    H2 3488   3.484   0.764   1.751
 1183TIP3   OH2 3489   5.668   7.438   6.590
 1183TIP3    H1 3490   5.667   7.459   6.684
 1183TIP3    H2 3491   5.757   7.459   6.562
 1184TIP3   OH2 3492   2.076   6.995   6.574
 1184TIP3    H1 3493   2.080   6.938   6.651
 1184TIP3    H2 3494   2.157   6.977   6.527
 1185TIP3   OH2 3495   8.001   6.779   2.332
 1185TIP3    H1 3496   8.083   6.759   2.377
 1185TIP3    H2 3497   8.016   6.864   2.290
 1186TIP3   OH2 3498   3.947   0.341   6.491
 1186TIP3    H1 3499   3.998   0.402   6.545
 1186TIP3    H2 3500   3.856   0.367   6.506
 1187TIP3   OH2 3501   5.787   0.851   2.583
 1187TIP3    H1 3502   5.730   0.810   2.647
 1187TIP3    H2 3503   5.750   0.938   2.570
 1188TIP3   OH2 3504   2.434   6.920   3.362
 1188TIP3    H1 3505   2.361   6.869   3.396
 1188TIP3    H2 3506   2.481   6.950   3.440
 1189TIP3   OH2 3507   1.742   1.136   2.697
 1189TIP3    H1 3508   1.710   1.219   2.662
 1189TIP3    H2 3509   1.697   1.069   2.645
 1190TIP3   OH2 3510   0.430   2.860  -0.016
 1190TIP3    H1 3511   0.490   2.935  -0.022
 1190TIP3    H2 3512   0.420   2.845   0.078
 1191TIP3   OH2 3513   0.355   7.643   0.015
 1191TIP3    H1 3514   0.411   7.575  -0.022
 1191TIP3    H2 3515   0.303   7.675  -0.059
 1192TIP3   OH2 3516   2.059   3.219   2.816
 1192TIP3    H1 3517   1.996   3.162   2.861
 1192TIP3    H2 3518   2.122   3.158   2.778
 1193TIP3   OH2 3519   5.372   3.521   5.584
 1193TIP3    H1 3520   5.378   3.574   5.663
 1193TIP3    H2 3521   5.461   3.488   5.570
 1194TIP3   OH2 3522   2.276   5.675   4.941
 1194TIP3    H1 3523   2.236   5.617   5.006
 1194TIP3    H2 3524   2.370   5.672   4.962
 1195TIP3   OH2 3525   1.472   6.116   2.765
 1195TIP3    H1 3526   1.402   6.155   2.713
 1195TIP3    H2 3527   1.462   6.155   2.852
 1196TIP3   OH2 3528   5.479   5.910   2.140
 1196TIP3    H1 3529   5.422   5.866   2.203
 1196TIP3    H2 3530   5.567   5.901   2.177
 1197TIP3   OH2 3531   2.033   4.899   5.553
 1197TIP3    H1 3532   1.973   4.941   5.615
 1197TIP3    H2 3533   2.030   4.806   5.575
 1198TIP3   OH2 3534   2.691   3.188   3.271
 1198TIP3    H1 3535   2.730   3.125   3.332
 1198TIP3    H2 3536   2.696   3.272   3.316
 1199TIP3   OH2 3537   5.365   1.428   6.175
 1199TIP3    H1 3538   5.369   1.462   6.086
 1199TIP3    H2 3539   5.291   1.367   6.174
 1200TIP3   OH2 3540   5.246   3.745   2.458
 1200TIP3    H1 3541   5.270   3.838   2.453
 1200TIP3    H2 3542   5.172   3.743   2.519
 1201TIP3   OH2 3543   6.702   5.710   5.506
 1201TIP3    H1 3544   6.696   5.745   5.595
 1201TIP3    H2 3545   6.614   5.724   5.470
 1202TIP3   OH2 3546   5.783   6.889   0.252
 1202TIP3    H1 3547   5.731   6.895   0.331
 1202TIP3    H2 3548   5.719   6.880   0.181
 1203TIP3   OH2 3549   6.045   4.708   4.649
 1203TIP3    H1 3550   5.966   4.654   4.650
 1203TIP3    H2 3551   6.108   4.660   4.704
 1204TIP3   OH2 3552   6.022   3.517   4.310
 1204TIP3    H1 3553   6.008   3.429   4.345
 1204TIP3    H2 3554   6.003   3.509   4.217
 1205TIP3   OH2 3555   4.130   2.678   5.870
 1205TIP3    H1 3556   4.215   2.657   5.832
 1205TIP3    H2 3557   4.072   2.693   5.795
 1206TIP3   OH2 3558   0.093   6.301   6.591
 1206TIP3    H1 3559   0.067   6.355   6.665
 1206TIP3    H2 3560   0.041   6.221   6.600
 1207TIP3   OH2 3561   2.089   1.687   1.277
 1207TIP3    H1 3562   2.104   1.750   1.347
 1207TIP3    H2 3563   2.161   1.623   1.286
 1208TIP3   OH2 3564   5.263   6.044   1.771
 1208TIP3    H1 3565   5.289   6.134   1.752
 1208TIP3    H2 3566   5.237   6.008   1.686
 1209TIP3   OH2 3567   0.880   1.073   3.545
 1209TIP3    H1 3568   0.918   0.994   3.508
 1209TIP3    H2 3569   0.921   1.081   3.631
 1210TIP3   OH2 3570   6.203   0.123   5.373
 1210TIP3    H1 3571   6.219   0.144   5.465
 1210TIP3    H2 3572   6.277   0.161   5.326
 1211TIP3   OH2 3573   0.902   5.971   4.216
 1211TIP3    H1 3574   0.959   5.957   4.140
 1211TIP3    H2 3575   0.815   5.982   4.178
 1212TIP3   OH2 3576   0.029   7.703   5.916
 1212TIP3    H1 3577  -0.047   7.755   5.941
 1212TIP3    H2 3578   0.039   7.718   5.822
 1213TIP3   OH2 3579   1.706   0.980   5.687
 1213TIP3    H1 3580   1.693   1.044   5.617
 1213TIP3    H2 3581   1.696   0.895   5.643
 1214TIP3   OH2 3582   1.252   7.209   3.176
 1214TIP3    H1 3583   1.251   7.262   3.256
 1214TIP3    H2 3584   1.258   7.118   3.207
 1215TIP3   OH2 3585   1.263   1.065   4.530
 1215TIP3    H1 3586   1.230   1.112   4.453
 1215TIP3    H2 3587   1.358   1.071   4.523
 1216TIP3   OH2 3588   0.617   6.832   2.112
 1216TIP3    H1 3589   0.540   6.880   2.142
 1216TIP3    H2 3590   0.691   6.889   2.133
 1217TIP3   OH2 3591   5.720   1.430   5.752
 1217TIP3    H1 3592   5.762   1.387   5.677
 1217TIP3    H2 3593   5.698   1.517   5.720
 1218TIP3   OH2 3594   3.949   0.674   1.340
 1218TIP3    H1 3595   3.855   0.659   1.330
 1218TIP3    H2 3596   3.969   0.745   1.278
 1219TIP3   OH2 3597   1.303   4.329   6.190
 1219TIP3    H1 3598   1.254   4.368   6.262
 1219TIP3    H2 3599   1.298   4.394   6.120
 1220TIP3   OH2 3600   0.433   5.977   5.970
 1220TIP3    H1 3601   0.343   6.003   5.991
 1220TIP3    H2 3602   0.482   5.991   6.051
 1221TIP3   OH2 3603   0.322  -0.010   2.612
 1221TIP3    H1 3604   0.404  -0.052   2.639
 1221TIP3    H2 3605   0.349   0.069   2.565
 1222TIP3   OH2 3606   2.746   7.258   2.470
 1222TIP3    H1 3607   2.801   7.233   2.396
 1222TIP3    H2 3608   2.761   7.190   2.535
 1223TIP3   OH2 3609   4.119   7.211   6.104
 1223TIP3    H1 3610   4.084   7.284   6.155
 1223TIP3    H2 3611   4.128   7.245   6.015
 1224TIP3   OH2 3612   1.880   2.323   4.146
 1224TIP3    H1 3613   1.809   2.382   4.120
 1224TIP3    H2 3614   1.884   2.331   4.241
 1225TIP3   OH2 3615   7.104   0.511   5.304
 1225TIP3    H1 3616   7.105   0.457   5.224
 1225TIP3    H2 3617   7.193   0.504   5.338
 1226TIP3   OH2 3618   4.127   2.544   1.283
 1226TIP3    H1 3619   4.178   2.470   1.314
 1226TIP3    H2 3620   4.147   2.615   1.344
 1227TIP3   OH2 3621   3.210   0.178   0.151
 1227TIP3    H1 3622   3.136   0.146   0.204
 1227TIP3    H2 3623   3.251   0.099   0.117
 1228TIP3   OH2 3624   2.561   4.101   2.018
 1228TIP3    H1 3625   2.518   4.028   1.973
 1228TIP3    H2 3626   2.591   4.158   1.948
 1229TIP3   OH2 3627   7.539   7.774   0.244
 1229TIP3    H1 3628   7.467   7.788   0.306
 1229TIP3    H2 3629   7.574   7.861   0.228
 1230TIP3   OH2 3630   0.106   2.966   5.409
 1230TIP3    H1 3631   0.187   3.014   5.424
 1230TIP3    H2 3632   0.123   2.879   5.444
 1231TIP3   OH2 3633   5.611   5.053   5.345
 1231TIP3    H1 3634   5.526   5.065   5.301
 1231TIP3    H2 3635   5.588   5.030   5.435
 1232TIP3   OH2 3636   0.401   5.259   6.060
 1232TIP3    H1 3637   0.320   5.289   6.101
 1232TIP3    H2 3638   0.408   5.311   5.980
 1233TIP3   OH2 3639   0.483   0.048   1.039
 1233TIP3    H1 3640   0.418  -0.017   1.011
 1233TIP3    H2 3641   0.445   0.132   1.015
 1234TIP3   OH2 3642   1.093   1.551   2.472
 1234TIP3    H1 3643   1.055   1.636   2.497
 1234TIP3    H2 3644   1.104   1.558   2.377
 1235TIP3   OH2 3645   1.519   6.829   3.620
 1235TIP3    H1 3646   1.582   6.886   3.576
 1235TIP3    H2 3647   1.560   6.808   3.704
 1236TIP3   OH2 3648   7.723   2.228   3.752
 1236TIP3    H1 3649   7.739   2.290   3.680
 1236TIP3    H2 3650   7.801   2.172   3.753
 1237TIP3   OH2 3651   1.905   0.667   1.978
 1237TIP3    H1 3652   1.912   0.632   2.066
 1237TIP3    H2 3653   1.994   0.691   1.954
 1238TIP3   OH2 3654   1.319   1.438   1.266
 1238TIP3    H1 3655   1.393   1.479   1.311
 1238TIP3    H2 3656   1.349   1.424   1.176
 1239TIP3   OH2 3657   2.951   0.220   3.768
 1239TIP3    H1 3658   2.935   0.308   3.733
 1239TIP3    H2 3659   2.884   0.209   3.835
 1240TIP3   OH2 3660   6.986   5.955   5.254
 1240TIP3    H1 3661   6.962   6.034   5.302
 1240TIP3    H2 3662   7.077   5.967   5.230
 1241TIP3   OH2 3663   1.486   0.062   6.259
 1241TIP3    H1 3664   1.522  -0.006   6.201
 1241TIP3    H2 3665   1.524   0.042   6.345
 1242TIP3   OH2 3666   7.875   5.085   1.941
 1242TIP3    H1 3667   7.936   5.158   1.937
 1242TIP3    H2 3668   7.901   5.036   2.019
 1243TIP3   OH2 3669   0.545   0.491   0.647
 1243TIP3    H1 3670   0.509   0.518   0.732
 1243TIP3    H2 3671   0.631   0.532   0.644
 1244TIP3   OH2 3672   7.444   1.100   4.888
 1244TIP3    H1 3673   7.517   1.148   4.847
 1244TIP3    H2 3674   7.386   1.168   4.921
 1245TIP3   OH2 3675   5.730   4.587   2.481
 1245TIP3    H1 3676   5.667   4.517   2.499
 1245TIP3    H2 3677   5.699   4.627   2.400
 1246TIP3   OH2 3678   4.936   6.865   6.498
 1246TIP3    H1 3679   4.899   6.951   6.477
 1246TIP3    H2 3680   4.868   6.803   6.474
 1247TIP3   OH2 3681   5.916   6.581   3.993
 1247TIP3    H1 3682   5.841   6.522   3.994
 1247TIP3    H2 3683   5.982   6.537   4.048
 1248TIP3   OH2 3684   3.782   7.785   6.307
 1248TIP3    H1 3685   3.752   7.706   6.352
 1248TIP3    H2 3686   3.843   7.826   6.368
 1249TIP3   OH2 3687   7.313   5.664   4.782
 1249TIP3    H1 3688   7.291   5.744   4.829
 1249TIP3    H2 3689   7.247   5.601   4.810
 1250TIP3   OH2 3690   1.238   2.477   2.036
 1250TIP3    H1 3691   1.319   2.445   2.076
 1250TIP3    H2 3692   1.238   2.571   2.055
 1251TIP3   OH2 3693   3.296   3.081   4.887
 1251TIP3    H1 3694   3.316   3.028   4.964
 1251TIP3    H2 3695   3.330   3.168   4.909
 1252TIP3   OH2 3696   6.242   6.123   5.864
 1252TIP3    H1 3697   6.244   6.108   5.958
 1252TIP3    H2 3698   6.175   6.063   5.832
 1253TIP3   OH2 3699   5.328   1.188   5.626
 1253TIP3    H1 3700   5.339   1.241   5.547
 1253TIP3    H2 3701   5.402   1.212   5.682
 1254TIP3   OH2 3702   7.477   2.810   1.390
 1254TIP3    H1 3703   7.445   2.881   1.334
 1254TIP3    H2 3704   7.530   2.756   1.332
 1255TIP3   OH2 3705   4.425   6.641   2.146
 1255TIP3    H1 3706   4.331   6.659   2.155
 1255TIP3    H2 3707   4.430   6.577   2.075
 1256TIP3   OH2 3708   3.588   0.379   2.289
 1256TIP3    H1 3709   3.607   0.317   2.360
 1256TIP3    H2 3710   3.671   0.424   2.274
 1257TIP3   OH2 3711   7.092   4.825   6.556
 1257TIP3    H1 3712   7.128   4.843   6.470
 1257TIP3    H2 3713   6.998   4.818   6.543
 1258TIP3   OH2 3714   4.877   7.597   2.337
 1258TIP3    H1 3715   4.817   7.566   2.404
 1258TIP3    H2 3716   4.828   7.588   2.255
 1259TIP3   OH2 3717   7.739   3.184   1.592
 1259TIP3    H1 3718   7.713   3.272   1.617
 1259TIP3    H2 3719   7.699   3.170   1.506
 1260TIP3   OH2 3720   3.617   4.804   1.681
 1260TIP3    H1 3721   3.625   4.897   1.661
 1260TIP3    H2 3722   3.546   4.773   1.625
 1261TIP3   OH2 3723   7.220   5.520   5.090
 1261TIP3    H1 3724   7.179   5.434   5.090
 1261TIP3    H2 3725   7.158   5.576   5.043
 1262TIP3   OH2 3726   3.647   1.282   1.273
 1262TIP3    H1 3727   3.556   1.292   1.246
 1262TIP3    H2 3728   3.662   1.188   1.274
 1263TIP3   OH2 3729   7.151   6.905   4.820
 1263TIP3    H1 3730   7.233   6.861   4.839
 1263TIP3    H2 3731   7.103   6.905   4.903
 1264TIP3   OH2 3732   0.912   4.806   2.345
 1264TIP3    H1 3733   0.952   4.719   2.340
 1264TIP3    H2 3734   0.982   4.866   2.317
 1265TIP3   OH2 3735   5.246   6.069   3.311
 1265TIP3    H1 3736   5.185   6.115   3.253
 1265TIP3    H2 3737   5.323   6.126   3.314
 1266TIP3   OH2 3738   1.327   5.008   4.880
 1266TIP3    H1 3739   1.265   5.079   4.874
 1266TIP3    H2 3740   1.412   5.051   4.891
 1267TIP3   OH2 3741   5.871   2.043   3.006
 1267TIP3    H1 3742   5.779   2.020   3.018
 1267TIP3    H2 3743   5.919   1.968   3.042
 1268TIP3   OH2 3744   3.375   2.936   4.058
 1268TIP3    H1 3745   3.416   3.020   4.037
 1268TIP3    H2 3746   3.369   2.936   4.154
 1269TIP3   OH2 3747   1.585   0.811   6.246
 1269TIP3    H1 3748   1.555   0.847   6.162
 1269TIP3    H2 3749   1.656   0.870   6.273
 1270TIP3   OH2 3750   7.463   1.608   2.391
 1270TIP3    H1 3751   7.537   1.562   2.353
 1270TIP3    H2 3752   7.457   1.689   2.341
 1271TIP3   OH2 3753   1.456   6.213   5.054
 1271TIP3    H1 3754   1.542   6.199   5.015
 1271TIP3    H2 3755   1.469   6.280   5.120
 1272TIP3   OH2 3756   0.786   4.080   5.426
 1272TIP3    H1 3757   0.873   4.119   5.428
 1272TIP3    H2 3758   0.762   4.071   5.518
 1273TIP3   OH2 3759   6.714   0.904   0.826
 1273TIP3    H1 3760   6.640   0.963   0.808
 1273TIP3    H2 3761   6.734   0.865   0.741
 1274TIP3   OH2 3762   2.404   1.447   4.113
 1274TIP3    H1 3763   2.403   1.540   4.137
 1274TIP3    H2 3764   2.358   1.403   4.184
 1275TIP3   OH2 3765   7.175   1.342   6.143
 1275TIP3    H1 3766   7.244   1.287   6.180
 1275TIP3    H2 3767   7.146   1.396   6.217
 1276TIP3   OH2 3768   0.424   2.536   1.017
 1276TIP3    H1 3769   0.352   2.492   0.973
 1276TIP3    H2 3770   0.403   2.630   1.011
 1277TIP3   OH2 3771   5.777   7.655   5.122
 1277TIP3    H1 3772   5.685   7.666   5.148
 1277TIP3    H2 3773   5.807   7.579   5.172
 1278TIP3   OH2 3774   6.221   7.584   1.025
 1278TIP3    H1 3775   6.230   7.655   0.961
 1278TIP3    H2 3776   6.127   7.567   1.029
 1279TIP3   OH2 3777   7.073   7.363   1.040
 1279TIP3    H1 3778   7.017   7.293   1.072
 1279TIP3    H2 3779   7.161   7.336   1.066
 1280TIP3   OH2 3780   0.258   1.256   2.983
 1280TIP3    H1 3781   0.334   1.246   2.926
 1280TIP3    H2 3782   0.209   1.175   2.971
 1281TIP3   OH2 3783   6.094   2.985   0.450
 1281TIP3    H1 3784   6.012   3.015   0.411
 1281TIP3    H2 3785   6.162   3.015   0.390
 1282TIP3   OH2 3786   5.988   4.728   0.696
 1282TIP3    H1 3787   5.932   4.650   0.701
 1282TIP3    H2 3788   5.979   4.769   0.782
 1283TIP3   OH2 3789   7.353   7.559   0.145
 1283TIP3    H1 3790   7.323   7.643   0.110
 1283TIP3    H2 3791   7.444   7.574   0.169
 1284TIP3   OH2 3792   1.667   7.425   4.962
 1284TIP3    H1 3793   1.605   7.495   4.981
 1284TIP3    H2 3794   1.636   7.350   5.013
 1285TIP3   OH2 3795   2.966   1.243   5.352
 1285TIP3    H1 3796   2.985   1.200   5.268
 1285TIP3    H2 3797   3.051   1.271   5.385
 1286TIP3   OH2 3798   7.152   2.677   3.723
 1286TIP3    H1 3799   7.063   2.698   3.751
 1286TIP3    H2 3800   7.189   2.761   3.695
 1287TIP3   OH2 3801   8.291   2.913   2.362
 1287TIP3    H1 3802   8.202   2.945   2.374
 1287TIP3    H2 3803   8.317   2.943   2.275
 1288TIP3   OH2 3804   4.396   3.390   3.644
 1288TIP3    H1 3805   4.475   3.338   3.628
 1288TIP3    H2 3806   4.360   3.407   3.558
 1289TIP3   OH2 3807   7.610   6.992   5.874
 1289TIP3    H1 3808   7.691   7.008   5.922
 1289TIP3    H2 3809   7.633   7.005   5.782
 1290TIP3   OH2 3810   4.128   4.171   1.648
 1290TIP3    H1 3811   4.154   4.083   1.675
 1290TIP3    H2 3812   4.060   4.157   1.582
 1291TIP3   OH2 3813   4.314   2.322   1.306
 1291TIP3    H1 3814   4.319   2.261   1.379
 1291TIP3    H2 3815   4.252   2.282   1.245
 1292TIP3   OH2 3816   0.769   5.035   6.252
 1292TIP3    H1 3817   0.809   5.028   6.339
 1292TIP3    H2 3818   0.721   5.118   6.255
 1293TIP3   OH2 3819   3.555   3.517   3.419
 1293TIP3    H1 3820   3.486   3.581   3.400
 1293TIP3    H2 3821   3.538   3.446   3.357
 1294TIP3   OH2 3822   4.803   6.314   0.539
 1294TIP3    H1 3823   4.870   6.378   0.566
 1294TIP3    H2 3824   4.802   6.249   0.610
 1295TIP3   OH2 3825   5.227   2.095   1.887
 1295TIP3    H1 3826   5.184   2.160   1.944
 1295TIP3    H2 3827   5.164   2.079   1.817
 1296TIP3   OH2 3828   8.218   6.512   4.089
 1296TIP3    H1 3829   8.176   6.539   4.171
 1296TIP3    H2 3830   8.254   6.426   4.108
 1297TIP3   OH2 3831   2.871   0.029   1.299
 1297TIP3    H1 3832   2.885  -0.043   1.362
 1297TIP3    H2 3833   2.829   0.098   1.350
 1298TIP3   OH2 3834   4.110   5.353   5.781
 1298TIP3    H1 3835   4.193   5.394   5.805
 1298TIP3    H2 3836   4.046   5.424   5.786
 1299TIP3   OH2 3837   6.713   7.718   1.124
 1299TIP3    H1 3838   6.642   7.664   1.089
 1299TIP3    H2 3839   6.766   7.657   1.175
 1300TIP3   OH2 3840   0.814   2.956   2.217
 1300TIP3    H1 3841   0.888   2.962   2.277
 1300TIP3    H2 3842   0.770   2.875   2.242
 1301TIP3   OH2 3843   0.310   4.034   5.140
 1301TIP3    H1 3844   0.225   4.053   5.181
 1301TIP3    H2 3845   0.372   4.032   5.213
 1302TIP3   OH2 3846   4.494   4.876   3.460
 1302TIP3    H1 3847   4.558   4.810   3.486
 1302TIP3    H2 3848   4.409   4.835   3.477
 1303TIP3   OH2 3849   8.033   6.227   4.195
 1303TIP3    H1 3850   8.036   6.238   4.100
 1303TIP3    H2 3851   7.988   6.144   4.209
 1304TIP3   OH2 3852   0.475   2.442   3.435
 1304TIP3    H1 3853   0.496   2.534   3.448
 1304TIP3    H2 3854   0.498   2.399   3.517
 1305TIP3   OH2 3855   4.448   4.135   3.062
 1305TIP3    H1 3856   4.520   4.080   3.031
 1305TIP3    H2 3857   4.443   4.117   3.156
 1306TIP3   OH2 3858   8.176   6.971   4.913
 1306TIP3    H1 3859   8.262   6.957   4.950
 1306TIP3    H2 3860   8.183   7.054   4.865
 1307TIP3   OH2 3861   5.813   5.360   3.410
 1307TIP3    H1 3862   5.867   5.437   3.428
 1307TIP3    H2 3863   5.774   5.338   3.494
 1308TIP3   OH2 3864   5.187   2.067   5.213
 1308TIP3    H1 3865   5.223   2.116   5.139
 1308TIP3    H2 3866   5.203   2.123   5.289
 1309TIP3   OH2 3867   4.361   7.529   3.665
 1309TIP3    H1 3868   4.273   7.540   3.628
 1309TIP3    H2 3869   4.407   7.610   3.640
 1310TIP3   OH2 3870   3.608   0.900   4.312
 1310TIP3    H1 3871   3.555   0.948   4.375
 1310TIP3    H2 3872   3.669   0.850   4.366
 1311TIP3   OH2 3873   0.041   1.339   2.198
 1311TIP3    H1 3874  -0.006   1.319   2.279
 1311TIP3    H2 3875   0.053   1.254   2.156
 1312TIP3   OH2 3876   4.960   7.174   2.755
 1312TIP3    H1 3877   4.948   7.233   2.830
 1312TIP3    H2 3878   4.873   7.164   2.717
 1313TIP3   OH2 3879   0.016   1.425   0.798
 1313TIP3    H1 3880   0.054   1.485   0.734
 1313TIP3    H2 3881   0.084   1.359   0.812
 1314TIP3   OH2 3882   1.251   1.094   0.830
 1314TIP3    H1 3883   1.262   1.160   0.761
 1314TIP3    H2 3884   1.339   1.060   0.845
 1315TIP3   OH2 3885   6.672   4.748   2.977
 1315TIP3    H1 3886   6.678   4.661   2.937
 1315TIP3    H2 3887   6.682   4.732   3.071
 1316TIP3   OH2 3888   3.157   6.434   0.568
 1316TIP3    H1 3889   3.206   6.383   0.504
 1316TIP3    H2 3890   3.211   6.512   0.583
 1317TIP3   OH2 3891   2.234   3.413   5.361
 1317TIP3    H1 3892   2.193   3.497   5.381
 1317TIP3    H2 3893   2.187   3.350   5.415
 1318TIP3   OH2 3894   4.562   4.337   0.818
 1318TIP3    H1 3895   4.525   4.400   0.757
 1318TIP3    H2 3896   4.648   4.316   0.782
 1319TIP3   OH2 3897   1.710   2.280   3.628
 1319TIP3    H1 3898   1.653   2.227   3.684
 1319TIP3    H2 3899   1.703   2.368   3.664
 1320TIP3   OH2 3900   7.497   6.636   0.501
 1320TIP3    H1 3901   7.572   6.682   0.466
 1320TIP3    H2 3902   7.519   6.543   0.493
 1321TIP3   OH2 3903   6.555   1.077   3.833
 1321TIP3    H1 3904   6.505   1.154   3.808
 1321TIP3    H2 3905   6.497   1.003   3.813
 1322TIP3   OH2 3906   0.069   1.491   6.410
 1322TIP3    H1 3907   0.059   1.532   6.324
 1322TIP3    H2 3908   0.008   1.540   6.466
 1323TIP3   OH2 3909   3.130   2.326   1.687
 1323TIP3    H1 3910   3.101   2.383   1.616
 1323TIP3    H2 3911   3.184   2.260   1.644
 1324TIP3   OH2 3912   8.238   1.028   0.386
 1324TIP3    H1 3913   8.265   0.991   0.303
 1324TIP3    H2 3914   8.158   0.980   0.409
 1325TIP3   OH2 3915   4.939   3.416   1.906
 1325TIP3    H1 3916   5.018   3.417   1.960
 1325TIP3    H2 3917   4.943   3.333   1.859
 1326TIP3   OH2 3918   5.715   4.117   2.093
 1326TIP3    H1 3919   5.685   4.153   2.176
 1326TIP3    H2 3920   5.660   4.040   2.079
 1327TIP3   OH2 3921   7.357   6.938   4.586
 1327TIP3    H1 3922   7.400   6.955   4.670
 1327TIP3    H2 3923   7.363   6.843   4.574
 1328TIP3   OH2 3924   0.199   2.813   3.798
 1328TIP3    H1 3925   0.239   2.770   3.723
 1328TIP3    H2 3926   0.109   2.779   3.800
 1329TIP3   OH2 3927   6.768   3.977   6.604
 1329TIP3    H1 3928   6.770   4.045   6.670
 1329TIP3    H2 3929   6.741   4.021   6.524
 1330TIP3   OH2 3930   4.359   3.202   4.816
 1330TIP3    H1 3931   4.441   3.195   4.865
 1330TIP3    H2 3932   4.378   3.265   4.746
 1331TIP3   OH2 3933   7.573   0.237   4.509
 1331TIP3    H1 3934   7.542   0.311   4.562
 1331TIP3    H2 3935   7.575   0.271   4.419
 1332TIP3   OH2 3936   3.077   5.694   1.265
 1332TIP3    H1 3937   3.144   5.759   1.245
 1332TIP3    H2 3938   3.067   5.699   1.360
 1333TIP3   OH2 3939   5.028   6.460   4.249
 1333TIP3    H1 3940   5.035   6.370   4.217
 1333TIP3    H2 3941   5.115   6.497   4.234
 1334TIP3   OH2 3942   1.935   2.937   0.340
 1334TIP3    H1 3943   1.895   2.939   0.426
 1334TIP3    H2 3944   2.022   2.898   0.354
 1335TIP3   OH2 3945   6.260   1.590   2.004
 1335TIP3    H1 3946   6.300   1.654   2.064
 1335TIP3    H2 3947   6.195   1.545   2.057
 1336TIP3   OH2 3948   1.221   4.712   1.608
 1336TIP3    H1 3949   1.305   4.757   1.599
 1336TIP3    H2 3950   1.173   4.764   1.673
 1337TIP3   OH2 3951   5.677   6.443   4.679
 1337TIP3    H1 3952   5.592   6.443   4.636
 1337TIP3    H2 3953   5.664   6.388   4.757
 1338TIP3   OH2 3954   1.999   3.697   6.038
 1338TIP3    H1 3955   2.002   3.728   6.129
 1338TIP3    H2 3956   2.008   3.777   5.986
 1339TIP3   OH2 3957   2.662   0.434   4.760
 1339TIP3    H1 3958   2.645   0.426   4.666
 1339TIP3    H2 3959   2.758   0.436   4.766
 1340TIP3   OH2 3960   6.146   2.940   3.469
 1340TIP3    H1 3961   6.079   2.958   3.403
 1340TIP3    H2 3962   6.205   2.877   3.427
 1341TIP3   OH2 3963   6.310   7.331   2.938
 1341TIP3    H1 3964   6.395   7.291   2.920
 1341TIP3    H2 3965   6.267   7.271   2.999
 1342TIP3   OH2 3966   2.076   5.686   6.301
 1342TIP3    H1 3967   2.049   5.619   6.238
 1342TIP3    H2 3968   2.138   5.741   6.253
 1343TIP3   OH2 3969   3.574   5.979   5.457
 1343TIP3    H1 3970   3.514   5.906   5.471
 1343TIP3    H2 3971   3.548   6.016   5.373
 1344TIP3   OH2 3972   0.786   3.101   6.569
 1344TIP3    H1 3973   0.785   3.146   6.654
 1344TIP3    H2 3974   0.844   3.154   6.515
 1345TIP3   OH2 3975   2.075   3.187   1.237
 1345TIP3    H1 3976   2.080   3.142   1.153
 1345TIP3    H2 3977   2.016   3.135   1.290
 1346TIP3   OH2 3978   2.486   1.923   2.887
 1346TIP3    H1 3979   2.549   1.909   2.957
 1346TIP3    H2 3980   2.406   1.880   2.917
 1347TIP3   OH2 3981   4.043   1.900   6.631
 1347TIP3    H1 3982   4.062   1.844   6.707
 1347TIP3    H2 3983   4.128   1.930   6.601
 1348TIP3   OH2 3984   2.105   6.943   1.202
 1348TIP3    H1 3985   2.132   6.854   1.180
 1348TIP3    H2 3986   2.009   6.941   1.198
 1349TIP3   OH2 3987   2.075   3.959   1.947
 1349TIP3    H1 3988   2.133   4.033   1.967
 1349TIP3    H2 3989   1.996   4.000   1.913
 1350TIP3   OH2 3990   5.766   4.998   4.558
 1350TIP3    H1 3991   5.746   5.084   4.597
 1350TIP3    H2 3992   5.859   4.987   4.572
 1351TIP3   OH2 3993   4.067   7.582   6.468
 1351TIP3    H1 3994   4.131   7.652   6.467
 1351TIP3    H2 3995   4.054   7.562   6.561
 1352TIP3   OH2 3996   8.241   2.438   6.390
 1352TIP3    H1 3997   8.204   2.354   6.420
 1352TIP3    H2 3998   8.172   2.476   6.335
 1353TIP3   OH2 3999   8.397   0.463   2.204
 1353TIP3    H1 4000   8.371   0.498   2.290
 1353TIP3    H2 4001   8.397   0.539   2.146
 1354TIP3   OH2 4002   2.352   0.759   4.570
 1354TIP3    H1 4003   2.325   0.774   4.479
 1354TIP3    H2 4004   2.403   0.677   4.566
 1355TIP3   OH2 4005   2.462   5.909   4.551
 1355TIP3    H1 4006   2.432   5.910   4.642
 1355TIP3    H2 4007   2.402   5.848   4.507
 1356TIP3   OH2 4008   2.599   3.875   6.523
 1356TIP3    H1 4009   2.573   3.785   6.504
 1356TIP3    H2 4010   2.575   3.888   6.615
 1357TIP3   OH2 4011   1.730   7.563   6.199
 1357TIP3    H1 4012   1.703   7.585   6.110
 1357TIP3    H2 4013   1.649   7.542   6.245
 1358TIP3   OH2 4014   1.903   4.591   6.820
 1358TIP3    H1 4015   1.924   4.497   6.815
 1358TIP3    H2 4016   1.913   4.612   6.913
 1359TIP3   OH2 4017   5.752   1.958   1.774
 1359TIP3    H1 4018   5.752   1.994   1.863
 1359TIP3    H2 4019   5.776   2.033   1.719
 1360TIP3   OH2 4020   5.893   2.328   5.240
 1360TIP3    H1 4021   5.950   2.293   5.173
 1360TIP3    H2 4022   5.940   2.314   5.322
 1361TIP3   OH2 4023   5.935   6.316   4.716
 1361TIP3    H1 4024   5.857   6.370   4.702
 1361TIP3    H2 4025   5.946   6.269   4.634
 1362TIP3   OH2 4026   7.558   6.968   0.869
 1362TIP3    H1 4027   7.467   6.986   0.890
 1362TIP3    H2 4028   7.567   6.873   0.882
 1363TIP3   OH2 4029   6.893   0.528   0.067
 1363TIP3    H1 4030   6.984   0.532   0.097
 1363TIP3    H2 4031   6.898   0.536  -0.028
 1364TIP3   OH2 4032   8.102   5.467   5.795
 1364TIP3    H1 4033   8.007   5.466   5.804
 1364TIP3    H2 4034   8.118   5.438   5.705
 1365TIP3   OH2 4035   5.176   3.119   4.425
 1365TIP3    H1 4036   5.085   3.106   4.453
 1365TIP3    H2 4037   5.227   3.066   4.485
 1366TIP3   OH2 4038   2.682   4.824   5.050
 1366TIP3    H1 4039   2.606   4.769   5.035
 1366TIP3    H2 4040   2.676   4.849   5.142
 1367TIP3   OH2 4041   1.660   7.759   5.595
 1367TIP3    H1 4042   1.600   7.815   5.643
 1367TIP3    H2 4043   1.653   7.674   5.639
 1368TIP3   OH2 4044   0.910   0.817   3.450
 1368TIP3    H1 4045   0.969   0.757   3.495
 1368TIP3    H2 4046   0.942   0.819   3.360
 1369TIP3   OH2 4047   3.277   4.540   6.190
 1369TIP3    H1 4048   3.277   4.558   6.096
 1369TIP3    H2 4049   3.287   4.626   6.231
 1370TIP3   OH2 4050   3.547   2.967   1.829
 1370TIP3    H1 4051   3.496   2.944   1.906
 1370TIP3    H2 4052   3.531   3.060   1.815
 1371TIP3   OH2 4053   7.469   5.517   4.991
 1371TIP3    H1 4054   7.394   5.512   5.050
 1371TIP3    H2 4055   7.533   5.571   5.038
 1372TIP3   OH2 4056   2.182   0.459   0.590
 1372TIP3    H1 4057   2.174   0.440   0.496
 1372TIP3    H2 4058   2.105   0.513   0.609
 1373TIP3   OH2 4059   0.444   1.373   6.526
 1373TIP3    H1 4060   0.478   1.285   6.545
 1373TIP3    H2 4061   0.382   1.359   6.454
 1374TIP3   OH2 4062   5.810   2.232   5.544
 1374TIP3    H1 4063   5.813   2.295   5.616
 1374TIP3    H2 4064   5.889   2.179   5.557
 1375TIP3   OH2 4065   5.416   2.528   4.148
 1375TIP3    H1 4066   5.406   2.609   4.199
 1375TIP3    H2 4067   5.493   2.542   4.094
 1376TIP3   OH2 4068   1.739   0.451   2.200
 1376TIP3    H1 4069   1.806   0.499   2.249
 1376TIP3    H2 4070   1.660   0.505   2.207
 1377TIP3   OH2 4071   1.023   3.157   3.999
 1377TIP3    H1 4072   0.962   3.085   3.984
 1377TIP3    H2 4073   1.072   3.130   4.077
 1378TIP3   OH2 4074   0.420   6.670   1.186
 1378TIP3    H1 4075   0.380   6.713   1.262
 1378TIP3    H2 4076   0.466   6.740   1.140
 1379TIP3   OH2 4077   6.865   1.788   0.142
 1379TIP3    H1 4078   6.835   1.721   0.082
 1379TIP3    H2 4079   6.948   1.818   0.105
 1380TIP3   OH2 4080   0.947   1.986   2.386
 1380TIP3    H1 4081   0.996   2.017   2.309
 1380TIP3    H2 4082   0.864   1.955   2.350
 1381TIP3   OH2 4083   7.941   7.170   3.369
 1381TIP3    H1 4084   7.856   7.214   3.367
 1381TIP3    H2 4085   7.924   7.088   3.417
 1382TIP3   OH2 4086   1.598   2.221   4.824
 1382TIP3    H1 4087   1.669   2.173   4.782
 1382TIP3    H2 4088   1.521   2.203   4.770
 1383TIP3   OH2 4089   6.502   4.790   1.385
 1383TIP3    H1 4090   6.415   4.827   1.395
 1383TIP3    H2 4091   6.552   4.826   1.458
 1384TIP3   OH2 4092   0.786   4.515   5.454
 1384TIP3    H1 4093   0.842   4.444   5.483
 1384TIP3    H2 4094   0.710   4.511   5.511
 1385TIP3   OH2 4095   2.062   4.751   4.726
 1385TIP3    H1 4096   2.021   4.798   4.652
 1385TIP3    H2 4097   2.155   4.770   4.718
 1386TIP3   OH2 4098   1.963   3.576   0.778
 1386TIP3    H1 4099   1.967   3.533   0.863
 1386TIP3    H2 4100   1.968   3.670   0.797
 1387TIP3   OH2 4101   3.592   7.496   0.773
 1387TIP3    H1 4102   3.670   7.446   0.796
 1387TIP3    H2 4103   3.620   7.553   0.702
 1388TIP3   OH2 4104   2.564   7.407   0.035
 1388TIP3    H1 4105   2.622   7.387  -0.038
 1388TIP3    H2 4106   2.604   7.361   0.110
 1389TIP3   OH2 4107   4.924   7.656   2.848
 1389TIP3    H1 4108   4.834   7.625   2.857
 1389TIP3    H2 4109   4.937   7.667   2.754
 1390TIP3   OH2 4110   0.929   5.044   1.192
 1390TIP3    H1 4111   0.904   5.095   1.115
 1390TIP3    H2 4112   0.857   4.983   1.205
 1391TIP3   OH2 4113   4.020   0.379   0.483
 1391TIP3    H1 4114   3.933   0.377   0.523
 1391TIP3    H2 4115   4.074   0.428   0.545
 1392TIP3   OH2 4116   3.401   7.595   0.520
 1392TIP3    H1 4117   3.352   7.623   0.597
 1392TIP3    H2 4118   3.472   7.659   0.512
 1393TIP3   OH2 4119   7.778   3.831   3.365
 1393TIP3    H1 4120   7.870   3.806   3.353
 1393TIP3    H2 4121   7.769   3.846   3.459
 1394TIP3   OH2 4122   7.950   0.974   1.256
 1394TIP3    H1 4123   7.974   1.035   1.186
 1394TIP3    H2 4124   8.034   0.943   1.291
 1395TIP3   OH2 4125   2.667   0.766   2.883
 1395TIP3    H1 4126   2.596   0.830   2.888
 1395TIP3    H2 4127   2.702   0.762   2.972
 1396TIP3   OH2 4128   7.652   2.006   1.018
 1396TIP3    H1 4129   7.591   1.969   1.082
 1396TIP3    H2 4130   7.712   2.059   1.070
 1397TIP3   OH2 4131   2.409   5.849   0.286
 1397TIP3    H1 4132   2.496   5.840   0.247
 1397TIP3    H2 4133   2.364   5.768   0.263
 1398TIP3   OH2 4134   2.350   7.369   6.588
 1398TIP3    H1 4135   2.357   7.314   6.666
 1398TIP3    H2 4136   2.259   7.359   6.560
 1399TIP3   OH2 4137   6.861   0.899   2.997
 1399TIP3    H1 4138   6.771   0.905   2.963
 1399TIP3    H2 4139   6.910   0.965   2.948
 1400TIP3   OH2 4140   0.441   2.839   6.161
 1400TIP3    H1 4141   0.408   2.916   6.114
 1400TIP3    H2 4142   0.462   2.872   6.249
 1401TIP3   OH2 4143   4.943   5.576   2.499
 1401TIP3    H1 4144   4.859   5.612   2.472
 1401TIP3    H2 4145   4.923   5.523   2.576
 1402TIP3   OH2 4146   0.847   6.626   0.309
 1402TIP3    H1 4147   0.883   6.593   0.392
 1402TIP3    H2 4148   0.755   6.598   0.310
 1403TIP3   OH2 4149   0.011   3.801   0.035
 1403TIP3    H1 4150   0.017   3.860   0.110
 1403TIP3    H2 4151   0.002   3.859  -0.040
 1404TIP3   OH2 4152   3.271   0.585   2.541
 1404TIP3    H1 4153   3.182   0.576   2.576
 1404TIP3    H2 4154   3.272   0.670   2.498
 1405TIP3   OH2 4155   0.658   5.921   1.900
 1405TIP3    H1 4156   0.683   5.850   1.959
 1405TIP3    H2 4157   0.580   5.889   1.854
 1406TIP3   OH2 4158   1.288   6.556   6.578
 1406TIP3    H1 4159   1.287   6.488   6.511
 1406TIP3    H2 4160   1.216   6.533   6.637
 1407TIP3   OH2 4161   0.149   0.813   5.265
 1407TIP3    H1 4162   0.125   0.905   5.253
 1407TIP3    H2 4163   0.240   0.816   5.295
 1408TIP3   OH2 4164   3.805   3.536   3.237
 1408TIP3    H1 4165   3.739   3.523   3.305
 1408TIP3    H2 4166   3.855   3.612   3.267
 1409TIP3   OH2 4167   6.590   5.014   2.962
 1409TIP3    H1 4168   6.621   4.947   2.902
 1409TIP3    H2 4169   6.575   5.091   2.907
 1410TIP3   OH2 4170   5.133   4.479   0.147
 1410TIP3    H1 4171   5.097   4.402   0.192
 1410TIP3    H2 4172   5.213   4.446   0.105
 1411TIP3   OH2 4173   4.888   5.174   1.433
 1411TIP3    H1 4174   4.923   5.114   1.368
 1411TIP3    H2 4175   4.820   5.223   1.387
 1412TIP3   OH2 4176   2.236   2.610   4.375
 1412TIP3    H1 4177   2.314   2.664   4.363
 1412TIP3    H2 4178   2.232   2.593   4.469
 1413TIP3   OH2 4179   7.766   5.146   4.369
 1413TIP3    H1 4180   7.672   5.128   4.380
 1413TIP3    H2 4181   7.769   5.228   4.319
 1414TIP3   OH2 4182   6.712   3.944   3.095
 1414TIP3    H1 4183   6.677   3.964   3.181
 1414TIP3    H2 4184   6.777   4.012   3.078
 1415TIP3   OH2 4185   0.296   1.077   1.340
 1415TIP3    H1 4186   0.298   1.170   1.321
 1415TIP3    H2 4187   0.270   1.072   1.432
 1416TIP3   OH2 4188   1.483   6.457   5.178
 1416TIP3    H1 4189   1.530   6.510   5.243
 1416TIP3    H2 4190   1.392   6.482   5.187
 1417TIP3   OH2 4191   3.101   4.980   0.265
 1417TIP3    H1 4192   3.148   4.897   0.252
 1417TIP3    H2 4193   3.141   5.040   0.202
 1418TIP3   OH2 4194   2.678   6.895   3.207
 1418TIP3    H1 4195   2.721   6.952   3.272
 1418TIP3    H2 4196   2.592   6.875   3.246
 1419TIP3   OH2 4197   7.476   1.387   1.719
 1419TIP3    H1 4198   7.478   1.481   1.739
 1419TIP3    H2 4199   7.567   1.359   1.727
 1420TIP3   OH2 4200   8.123   2.699   0.086
 1420TIP3    H1 4201   8.060   2.732   0.150
 1420TIP3    H2 4202   8.102   2.606   0.079
 1421TIP3   OH2 4203   4.805   0.908   5.448
 1421TIP3    H1 4204   4.819   0.830   5.395
 1421TIP3    H2 4205   4.732   0.885   5.506
 1422TIP3   OH2 4206   2.555   5.476   6.330
 1422TIP3    H1 4207   2.475   5.423   6.334
 1422TIP3    H2 4208   2.532   5.548   6.271
 1423TIP3   OH2 4209   3.497   4.122   4.949
 1423TIP3    H1 4210   3.456   4.057   4.892
 1423TIP3    H2 4211   3.514   4.076   5.031
 1424TIP3   OH2 4212   4.117   1.179   6.443
 1424TIP3    H1 4213   4.188   1.139   6.493
 1424TIP3    H2 4214   4.038   1.134   6.473
 1425TIP3   OH2 4215   2.789   6.448   4.514
 1425TIP3    H1 4216   2.772   6.516   4.579
 1425TIP3    H2 4217   2.719   6.460   4.449
 1426TIP3   OH2 4218   3.468   7.654   3.161
 1426TIP3    H1 4219   3.398   7.590   3.149
 1426TIP3    H2 4220   3.423   7.732   3.195
 1427TIP3   OH2 4221   4.980   2.933   2.141
 1427TIP3    H1 4222   4.973   3.015   2.093
 1427TIP3    H2 4223   4.967   2.865   2.075
 1428TIP3   OH2 4224   5.890   5.058   3.326
 1428TIP3    H1 4225   5.859   5.103   3.404
 1428TIP3    H2 4226   5.970   5.104   3.302
 1429TIP3   OH2 4227   4.398   1.346   0.092
 1429TIP3    H1 4228   4.341   1.279   0.054
 1429TIP3    H2 4229   4.466   1.360   0.026
 1430TIP3   OH2 4230   3.208   7.737   6.787
 1430TIP3    H1 4231   3.173   7.824   6.771
 1430TIP3    H2 4232   3.230   7.703   6.700
 1431TIP3   OH2 4233   1.433   2.640   5.416
 1431TIP3    H1 4234   1.421   2.710   5.480
 1431TIP3    H2 4235   1.491   2.677   5.349
 1432TIP3   OH2 4236   0.053   1.358  -0.005
 1432TIP3    H1 4237   0.069   1.312  -0.088
 1432TIP3    H2 4238  -0.021   1.311   0.034
 1433TIP3   OH2 4239   3.500   6.368   1.497
 1433TIP3    H1 4240   3.541   6.453   1.478
 1433TIP3    H2 4241   3.468   6.337   1.413
 1434TIP3   OH2 4242   3.591   2.958   1.291
 1434TIP3    H1 4243   3.586   2.988   1.382
 1434TIP3    H2 4244   3.649   2.882   1.295
 1435TIP3   OH2 4245   6.865   6.259   4.514
 1435TIP3    H1 4246   6.860   6.354   4.503
 1435TIP3    H2 4247   6.789   6.224   4.467
 1436TIP3   OH2 4248   0.785   3.124   6.198
 1436TIP3    H1 4249   0.865   3.126   6.252
 1436TIP3    H2 4250   0.808   3.174   6.120
 1437TIP3   OH2 4251   1.045   4.179   5.185
 1437TIP3    H1 4252   1.056   4.165   5.279
 1437TIP3    H2 4253   0.980   4.248   5.179
 1438TIP3   OH2 4254   0.790   5.685   2.417
 1438TIP3    H1 4255   0.815   5.766   2.373
 1438TIP3    H2 4256   0.695   5.693   2.430
 1439TIP3   OH2 4257   5.932   4.279   1.444
 1439TIP3    H1 4258   5.854   4.271   1.390
 1439TIP3    H2 4259   5.996   4.321   1.386
 1440TIP3   OH2 4260   6.377   3.156   2.370
 1440TIP3    H1 4261   6.425   3.166   2.287
 1440TIP3    H2 4262   6.439   3.183   2.437
 1441TIP3   OH2 4263   7.170   4.419   3.699
 1441TIP3    H1 4264   7.155   4.407   3.605
 1441TIP3    H2 4265   7.155   4.332   3.736
 1442TIP3   OH2 4266   1.302   3.328   5.901
 1442TIP3    H1 4267   1.248   3.406   5.917
 1442TIP3    H2 4268   1.268   3.293   5.818
 1443TIP3   OH2 4269   5.697   1.815   6.616
 1443TIP3    H1 4270   5.656   1.740   6.573
 1443TIP3    H2 4271   5.720   1.783   6.703
 1444TIP3   OH2 4272   8.339   6.109   2.630
 1444TIP3    H1 4273   8.382   6.055   2.563
 1444TIP3    H2 4274   8.284   6.170   2.581
 1445TIP3   OH2 4275   5.885   0.020   6.209
 1445TIP3    H1 4276   5.956  -0.021   6.258
 1445TIP3    H2 4277   5.923   0.039   6.123
 1446TIP3   OH2 4278   1.790   6.034   2.838
 1446TIP3    H1 4279   1.708   6.072   2.807
 1446TIP3    H2 4280   1.792   6.053   2.931
 1447TIP3   OH2 4281   6.916   4.439   1.535
 1447TIP3    H1 4282   6.822   4.443   1.521
 1447TIP3    H2 4283   6.933   4.348   1.560
 1448TIP3   OH2 4284   4.327   1.318   2.954
 1448TIP3    H1 4285   4.337   1.408   2.922
 1448TIP3    H2 4286   4.234   1.312   2.978
 1449TIP3   OH2 4287   6.013   7.639   4.343
 1449TIP3    H1 4288   6.077   7.672   4.280
 1449TIP3    H2 4289   6.013   7.544   4.328
 1450TIP3   OH2 4290   2.074   3.094   5.858
 1450TIP3    H1 4291   2.046   3.006   5.831
 1450TIP3    H2 4292   2.157   3.107   5.814
 1451TIP3   OH2 4293   6.876   5.560   2.648
 1451TIP3    H1 4294   6.918   5.474   2.655
 1451TIP3    H2 4295   6.948   5.623   2.651
 1452TIP3   OH2 4296   4.764   4.508   0.268
 1452TIP3    H1 4297   4.788   4.572   0.202
 1452TIP3    H2 4298   4.679   4.537   0.301
 1453TIP3   OH2 4299   7.120   0.348   0.318
 1453TIP3    H1 4300   7.140   0.263   0.280
 1453TIP3    H2 4301   7.032   0.368   0.289
 1454TIP3   OH2 4302   3.377   3.427   1.212
 1454TIP3    H1 4303   3.441   3.358   1.195
 1454TIP3    H2 4304   3.320   3.426   1.135
 1455TIP3   OH2 4305   4.211   6.638   4.590
 1455TIP3    H1 4306   4.201   6.703   4.520
 1455TIP3    H2 4307   4.253   6.563   4.548
 1456TIP3   OH2 4308   4.901   5.278   5.848
 1456TIP3    H1 4309   4.876   5.294   5.939
 1456TIP3    H2 4310   4.994   5.256   5.853
 1457TIP3   OH2 4311   8.028   6.844   6.358
 1457TIP3    H1 4312   8.100   6.781   6.357
 1457TIP3    H2 4313   8.031   6.883   6.445
 1458TIP3   OH2 4314   7.956   2.304   0.989
 1458TIP3    H1 4315   8.036   2.321   1.039
 1458TIP3    H2 4316   7.891   2.281   1.055
 1459TIP3   OH2 4317   0.479   0.960   3.862
 1459TIP3    H1 4318   0.446   0.942   3.774
 1459TIP3    H2 4319   0.546   1.027   3.850
 1460TIP3   OH2 4320   0.033   7.603   1.968
 1460TIP3    H1 4321   0.029   7.569   2.057
 1460TIP3    H2 4322   0.121   7.580   1.938
 1461TIP3   OH2 4323   5.804   4.185   4.815
 1461TIP3    H1 4324   5.842   4.248   4.877
 1461TIP3    H2 4325   5.782   4.237   4.738
 1462TIP3   OH2 4326   4.821   3.651   4.421
 1462TIP3    H1 4327   4.736   3.696   4.422
 1462TIP3    H2 4328   4.846   3.649   4.329
 1463TIP3   OH2 4329   2.589   2.737   6.581
 1463TIP3    H1 4330   2.507   2.725   6.533
 1463TIP3    H2 4331   2.655   2.748   6.513
 1464TIP3   OH2 4332   3.300   7.573   2.630
 1464TIP3    H1 4333   3.382   7.554   2.584
 1464TIP3    H2 4334   3.258   7.641   2.578
 1465TIP3   OH2 4335   8.261   1.777   2.759
 1465TIP3    H1 4336   8.347   1.738   2.773
 1465TIP3    H2 4337   8.200   1.704   2.766
 1466TIP3   OH2 4338   6.631   3.682   5.600
 1466TIP3    H1 4339   6.581   3.733   5.535
 1466TIP3    H2 4340   6.693   3.631   5.548
 1467TIP3   OH2 4341   1.746   3.562   0.340
 1467TIP3    H1 4342   1.767   3.471   0.361
 1467TIP3    H2 4343   1.726   3.603   0.424
 1468TIP3   OH2 4344   7.632   2.914   0.082
 1468TIP3    H1 4345   7.548   2.958   0.068
 1468TIP3    H2 4346   7.640   2.855   0.007
 1469TIP3   OH2 4347   0.403   5.698   1.866
 1469TIP3    H1 4348   0.355   5.616   1.880
 1469TIP3    H2 4349   0.467   5.677   1.798
 1470TIP3   OH2 4350   6.797   3.150   1.027
 1470TIP3    H1 4351   6.874   3.136   0.971
 1470TIP3    H2 4352   6.826   3.211   1.094
 1471TIP3   OH2 4353   7.705   5.489   6.519
 1471TIP3    H1 4354   7.658   5.430   6.461
 1471TIP3    H2 4355   7.769   5.533   6.462
 1472TIP3   OH2 4356   5.946   5.729   0.367
 1472TIP3    H1 4357   5.990   5.742   0.451
 1472TIP3    H2 4358   6.005   5.769   0.303
 1473TIP3   OH2 4359   0.229   2.557   1.559
 1473TIP3    H1 4360   0.135   2.562   1.574
 1473TIP3    H2 4361   0.239   2.583   1.467
 1474TIP3   OH2 4362   1.124   3.812   6.562
 1474TIP3    H1 4363   1.089   3.885   6.512
 1474TIP3    H2 4364   1.199   3.849   6.609
 1475TIP3   OH2 4365   5.718   0.616   0.554
 1475TIP3    H1 4366   5.678   0.545   0.504
 1475TIP3    H2 4367   5.673   0.695   0.522
 1476TIP3   OH2 4368   2.125   1.778   6.602
 1476TIP3    H1 4369   2.061   1.711   6.626
 1476TIP3    H2 4370   2.206   1.752   6.646
 1477TIP3   OH2 4371   5.225   4.698   5.366
 1477TIP3    H1 4372   5.229   4.735   5.278
 1477TIP3    H2 4373   5.141   4.728   5.401
 1478TIP3   OH2 4374   0.348   2.090   0.868
 1478TIP3    H1 4375   0.401   2.076   0.790
 1478TIP3    H2 4376   0.299   2.008   0.878
 1479TIP3   OH2 4377   6.549   7.252   6.674
 1479TIP3    H1 4378   6.546   7.157   6.676
 1479TIP3    H2 4379   6.551   7.278   6.766
 1480TIP3   OH2 4380   7.237   4.819   2.800
 1480TIP3    H1 4381   7.269   4.822   2.710
 1480TIP3    H2 4382   7.239   4.726   2.822
 1481TIP3   OH2 4383   0.340   1.744   4.760
 1481TIP3    H1 4384   0.313   1.784   4.843
 1481TIP3    H2 4385   0.258   1.713   4.721
 1482TIP3   OH2 4386   2.197   6.962   2.613
 1482TIP3    H1 4387   2.126   7.006   2.566
 1482TIP3    H2 4388   2.160   6.941   2.698
 1483TIP3   OH2 4389   5.100   4.536   3.147
 1483TIP3    H1 4390   5.039   4.601   3.112
 1483TIP3    H2 4391   5.167   4.527   3.080
 1484TIP3   OH2 4392   0.713   5.823   1.271
 1484TIP3    H1 4393   0.637   5.770   1.297
 1484TIP3    H2 4394   0.789   5.768   1.291
 1485TIP3   OH2 4395   2.936   6.557   0.416
 1485TIP3    H1 4396   2.875   6.489   0.387
 1485TIP3    H2 4397   3.008   6.508   0.456
 1486TIP3   OH2 4398   3.446   2.533   5.749
 1486TIP3    H1 4399   3.432   2.491   5.665
 1486TIP3    H2 4400   3.528   2.496   5.781
 1487TIP3   OH2 4401   1.189   7.683   0.163
 1487TIP3    H1 4402   1.171   7.645   0.078
 1487TIP3    H2 4403   1.162   7.617   0.226
 1488TIP3   OH2 4404   3.620   6.225   2.466
 1488TIP3    H1 4405   3.609   6.193   2.376
 1488TIP3    H2 4406   3.531   6.230   2.500
 1489TIP3   OH2 4407   3.074   2.347   5.614
 1489TIP3    H1 4408   3.127   2.292   5.672
 1489TIP3    H2 4409   2.990   2.302   5.608
 1490TIP3   OH2 4410   1.396   6.029   1.280
 1490TIP3    H1 4411   1.453   6.052   1.207
 1490TIP3    H2 4412   1.447   6.052   1.358
 1491TIP3   OH2 4413   0.507   3.306   0.662
 1491TIP3    H1 4414   0.449   3.298   0.586
 1491TIP3    H2 4415   0.468   3.251   0.729
 1492TIP3   OH2 4416   1.187   6.082   4.200
 1492TIP3    H1 4417   1.252   6.063   4.133
 1492TIP3    H2 4418   1.183   6.003   4.253
 1493TIP3   OH2 4419   2.051   2.609   3.146
 1493TIP3    H1 4420   2.102   2.548   3.092
 1493TIP3    H2 4421   2.013   2.554   3.215
 1494TIP3   OH2 4422   7.093   2.810   4.919
 1494TIP3    H1 4423   7.072   2.872   4.989
 1494TIP3    H2 4424   7.092   2.724   4.961
 1495TIP3   OH2 4425   4.668   6.379   6.764
 1495TIP3    H1 4426   4.663   6.291   6.802
 1495TIP3    H2 4427   4.594   6.382   6.703
 1496TIP3   OH2 4428   8.153   6.197   1.374
 1496TIP3    H1 4429   8.123   6.277   1.418
 1496TIP3    H2 4430   8.190   6.144   1.445
 1497TIP3   OH2 4431   6.673   6.966   2.222
 1497TIP3    H1 4432   6.645   7.057   2.210
 1497TIP3    H2 4433   6.769   6.970   2.214
 1498TIP3   OH2 4434   6.930   4.773   3.422
 1498TIP3    H1 4435   6.977   4.810   3.498
 1498TIP3    H2 4436   6.838   4.786   3.442
 1499TIP3   OH2 4437   6.916   0.490   2.646
 1499TIP3    H1 4438   6.922   0.414   2.704
 1499TIP3    H2 4439   6.981   0.551   2.681
 1500TIP3   OH2 4440   5.399   5.146   3.382
 1500TIP3    H1 4441   5.454   5.084   3.429
 1500TIP3    H2 4442   5.446   5.164   3.300
 1501TIP3   OH2 4443   0.301   3.146   6.493
 1501TIP3    H1 4444   0.352   3.115   6.419
 1501TIP3    H2 4445   0.360   3.140   6.568
 1502TIP3   OH2 4446   7.769   4.372   6.178
 1502TIP3    H1 4447   7.756   4.449   6.234
 1502TIP3    H2 4448   7.863   4.356   6.182
 1503TIP3   OH2 4449   5.609   1.950   4.212
 1503TIP3    H1 4450   5.611   1.997   4.129
 1503TIP3    H2 4451   5.523   1.970   4.248
 1504TIP3   OH2 4452   6.072   4.191   6.013
 1504TIP3    H1 4453   6.067   4.110   5.962
 1504TIP3    H2 4454   6.144   4.175   6.075
 1505TIP3   OH2 4455   7.233   5.343   2.313
 1505TIP3    H1 4456   7.226   5.336   2.218
 1505TIP3    H2 4457   7.150   5.307   2.346
 1506TIP3   OH2 4458   3.396   2.806   6.429
 1506TIP3    H1 4459   3.381   2.823   6.336
 1506TIP3    H2 4460   3.479   2.848   6.448
 1507TIP3   OH2 4461   3.010   6.701   1.166
 1507TIP3    H1 4462   2.994   6.705   1.261
 1507TIP3    H2 4463   2.980   6.786   1.133
 1508TIP3   OH2 4464   4.676   0.729   6.340
 1508TIP3    H1 4465   4.595   0.696   6.301
 1508TIP3    H2 4466   4.744   0.669   6.309
 1509TIP3   OH2 4467   7.783   0.295   0.838
 1509TIP3    H1 4468   7.812   0.386   0.844
 1509TIP3    H2 4469   7.688   0.300   0.841
 1510TIP3   OH2 4470   4.379   0.991   2.330
 1510TIP3    H1 4471   4.320   0.945   2.270
 1510TIP3    H2 4472   4.396   0.928   2.399
 1511TIP3   OH2 4473   3.492   4.512   5.781
 1511TIP3    H1 4474   3.504   4.603   5.809
 1511TIP3    H2 4475   3.402   4.509   5.749
 1512TIP3   OH2 4476   4.581   3.445   3.383
 1512TIP3    H1 4477   4.659   3.445   3.440
 1512TIP3    H2 4478   4.539   3.529   3.402
 1513TIP3   OH2 4479   5.851   6.204   5.727
 1513TIP3    H1 4480   5.883   6.277   5.674
 1513TIP3    H2 4481   5.756   6.205   5.716
 1514TIP3   OH2 4482   3.563   0.227   2.749
 1514TIP3    H1 4483   3.569   0.316   2.714
 1514TIP3    H2 4484   3.473   0.219   2.779
 1515TIP3   OH2 4485   4.640   3.231   0.185
 1515TIP3    H1 4486   4.584   3.189   0.120
 1515TIP3    H2 4487   4.582   3.287   0.235
 1516TIP3   OH2 4488   1.375   5.035   2.317
 1516TIP3    H1 4489   1.461   5.034   2.275
 1516TIP3    H2 4490   1.393   5.022   2.410
 1517TIP3   OH2 4491   6.977   7.108   4.344
 1517TIP3    H1 4492   6.896   7.094   4.294
 1517TIP3    H2 4493   7.012   7.020   4.357
 1518TIP3   OH2 4494   5.227   4.477   2.687
 1518TIP3    H1 4495   5.255   4.442   2.602
 1518TIP3    H2 4496   5.273   4.422   2.751
 1519TIP3   OH2 4497   7.117   5.001   1.999
 1519TIP3    H1 4498   7.069   4.918   1.998
 1519TIP3    H2 4499   7.104   5.035   2.087
 1520TIP3   OH2 4500   4.864   4.217   6.293
 1520TIP3    H1 4501   4.788   4.184   6.245
 1520TIP3    H2 4502   4.940   4.185   6.244
 1521TIP3   OH2 4503   7.030   5.438   0.891
 1521TIP3    H1 4504   7.113   5.394   0.907
 1521TIP3    H2 4505   6.965   5.386   0.938
 1522TIP3   OH2 4506   6.169   1.745   4.575
 1522TIP3    H1 4507   6.166   1.821   4.633
 1522TIP3    H2 4508   6.102   1.762   4.509
 1523TIP3   OH2 4509   2.819   3.318   0.672
 1523TIP3    H1 4510   2.808   3.237   0.622
 1523TIP3    H2 4511   2.827   3.289   0.763
 1524TIP3   OH2 4512   7.096   3.180   1.878
 1524TIP3    H1 4513   7.002   3.179   1.859
 1524TIP3    H2 4514   7.129   3.255   1.828
 1525TIP3   OH2 4515   2.335   2.303   6.014
 1525TIP3    H1 4516   2.379   2.385   6.037
 1525TIP3    H2 4517   2.242   2.326   6.008
 1526TIP3   OH2 4518   8.342   5.057   5.606
 1526TIP3    H1 4519   8.302   4.970   5.616
 1526TIP3    H2 4520   8.433   5.038   5.584
 1527TIP3   OH2 4521   6.045   6.330   4.097
 1527TIP3    H1 4522   6.047   6.279   4.178
 1527TIP3    H2 4523   5.969   6.296   4.050
 1528TIP3   OH2 4524   6.838   6.233   2.944
 1528TIP3    H1 4525   6.767   6.289   2.910
 1528TIP3    H2 4526   6.822   6.229   3.038
 1529TIP3   OH2 4527   1.844   1.774   5.871
 1529TIP3    H1 4528   1.851   1.859   5.915
 1529TIP3    H2 4529   1.754   1.771   5.839
 1530TIP3   OH2 4530   8.148   0.009   0.727
 1530TIP3    H1 4531   8.187  -0.047   0.794
 1530TIP3    H2 4532   8.056   0.017   0.753
 1531TIP3   OH2 4533   0.864   7.156   6.034
 1531TIP3    H1 4534   0.855   7.095   6.107
 1531TIP3    H2 4535   0.834   7.107   5.957
 1532TIP3   OH2 4536   6.585   4.021   5.044
 1532TIP3    H1 4537   6.671   4.049   5.074
 1532TIP3    H2 4538   6.600   3.989   4.955
 1533TIP3   OH2 4539   5.610   0.578   3.197
 1533TIP3    H1 4540   5.668   0.639   3.242
 1533TIP3    H2 4541   5.567   0.530   3.267
 1534TIP3   OH2 4542   0.227   7.895   0.257
 1534TIP3    H1 4543   0.173   7.916   0.333
 1534TIP3    H2 4544   0.290   7.830   0.289
 1535TIP3   OH2 4545   6.740   7.624   4.781
 1535TIP3    H1 4546   6.804   7.553   4.777
 1535TIP3    H2 4547   6.781   7.688   4.839
 1536TIP3   OH2 4548   1.014   4.951   3.011
 1536TIP3    H1 4549   0.947   4.978   2.948
 1536TIP3    H2 4550   1.008   4.855   3.012
 1537TIP3   OH2 4551   2.200  -0.006   4.149
 1537TIP3    H1 4552   2.193   0.044   4.068
 1537TIP3    H2 4553   2.152   0.046   4.214
 1538TIP3   OH2 4554   0.042   7.542   2.234
 1538TIP3    H1 4555   0.010   7.614   2.290
 1538TIP3    H2 4556   0.036   7.464   2.290
 1539TIP3   OH2 4557   4.586   1.197   6.277
 1539TIP3    H1 4558   4.602   1.153   6.361
 1539TIP3    H2 4559   4.569   1.125   6.215
 1540TIP3   OH2 4560   0.609   1.328   4.271
 1540TIP3    H1 4561   0.557   1.406   4.257
 1540TIP3    H2 4562   0.666   1.322   4.195
 1541TIP3   OH2 4563   4.108   7.831   3.000
 1541TIP3    H1 4564   4.118   7.875   3.084
 1541TIP3    H2 4565   4.043   7.763   3.016
 1542TIP3   OH2 4566   5.779   4.849   1.400
 1542TIP3    H1 4567   5.785   4.826   1.492
 1542TIP3    H2 4568   5.702   4.801   1.368
 1543TIP3   OH2 4569   4.492   3.736   6.417
 1543TIP3    H1 4570   4.435   3.803   6.454
 1543TIP3    H2 4571   4.438   3.657   6.413
 1544TIP3   OH2 4572   0.290   4.353   4.525
 1544TIP3    H1 4573   0.253   4.368   4.612
 1544TIP3    H2 4574   0.371   4.305   4.541
 1545TIP3   OH2 4575   6.900   4.504   3.464
 1545TIP3    H1 4576   6.983   4.463   3.441
 1545TIP3    H2 4577   6.907   4.593   3.429
 1546TIP3   OH2 4578   0.871   1.676   6.849
 1546TIP3    H1 4579   0.822   1.757   6.833
 1546TIP3    H2 4580   0.944   1.703   6.905
 1547TIP3   OH2 4581   6.001   2.674   0.173
 1547TIP3    H1 4582   5.984   2.594   0.123
 1547TIP3    H2 4583   6.096   2.686   0.167
 1548TIP3   OH2 4584   4.876   5.789   3.517
 1548TIP3    H1 4585   4.795   5.837   3.502
 1548TIP3    H2 4586   4.917   5.835   3.590
 1549TIP3   OH2 4587   5.827   5.993   1.586
 1549TIP3    H1 4588   5.796   6.073   1.546
 1549TIP3    H2 4589   5.812   6.006   1.680
 1550TIP3   OH2 4590   1.510   6.211   0.091
 1550TIP3    H1 4591   1.476   6.283   0.145
 1550TIP3    H2 4592   1.590   6.183   0.136
 1551TIP3   OH2 4593   4.198   2.195   2.271
 1551TIP3    H1 4594   4.264   2.142   2.227
 1551TIP3    H2 4595   4.137   2.220   2.201
 1552TIP3   OH2 4596   7.836   0.420   2.269
 1552TIP3    H1 4597   7.774   0.478   2.314
 1552TIP3    H2 4598   7.908   0.478   2.243
 1553TIP3   OH2 4599   7.574   3.941   4.378
 1553TIP3    H1 4600   7.637   3.893   4.324
 1553TIP3    H2 4601   7.622   4.016   4.411
 1554TIP3   OH2 4602   4.046   7.693   5.297
 1554TIP3    H1 4603   4.030   7.600   5.279
 1554TIP3    H2 4604   4.136   7.696   5.329
 1555TIP3   OH2 4605   5.083   4.971   0.271
 1555TIP3    H1 4606   5.120   4.943   0.187
 1555TIP3    H2 4607   5.040   4.893   0.306
 1556TIP3   OH2 4608   5.789   6.432   1.345
 1556TIP3    H1 4609   5.781   6.447   1.439
 1556TIP3    H2 4610   5.839   6.507   1.313
 1557TIP3   OH2 4611   6.098   6.522   2.695
 1557TIP3    H1 4612   6.152   6.456   2.739
 1557TIP3    H2 4613   6.121   6.515   2.603
 1558TIP3   OH2 4614   4.181   0.830   1.941
 1558TIP3    H1 4615   4.221   0.913   1.916
 1558TIP3    H2 4616   4.093   0.833   1.904
 1559TIP3   OH2 4617   2.789   1.310   1.256
 1559TIP3    H1 4618   2.788   1.363   1.176
 1559TIP3    H2 4619   2.875   1.326   1.294
 1560TIP3   OH2 4620   8.201   4.150   1.237
 1560TIP3    H1 4621   8.178   4.094   1.163
 1560TIP3    H2 4622   8.220   4.089   1.308
 1561TIP3   OH2 4623   0.691   5.047   2.130
 1561TIP3    H1 4624   0.608   5.060   2.176
 1561TIP3    H2 4625   0.709   4.953   2.138
 1562TIP3   OH2 4626   2.622   2.802   3.233
 1562TIP3    H1 4627   2.669   2.810   3.315
 1562TIP3    H2 4628   2.645   2.715   3.200
 1563TIP3   OH2 4629   1.989   4.047   6.332
 1563TIP3    H1 4630   1.929   4.119   6.315
 1563TIP3    H2 4631   1.943   3.991   6.394
 1564TIP3   OH2 4632   7.007   2.761   1.845
 1564TIP3    H1 4633   6.919   2.728   1.866
 1564TIP3    H2 4634   7.044   2.693   1.788
 1565TIP3   OH2 4635   0.841   0.440   4.284
 1565TIP3    H1 4636   0.846   0.425   4.378
 1565TIP3    H2 4637   0.886   0.365   4.245
 1566TIP3   OH2 4638   6.975   4.925   6.301
 1566TIP3    H1 4639   7.038   4.977   6.251
 1566TIP3    H2 4640   6.929   4.873   6.235
 1567TIP3   OH2 4641   1.072   3.086   1.214
 1567TIP3    H1 4642   1.074   3.135   1.132
 1567TIP3    H2 4643   1.043   2.998   1.188
 1568TIP3   OH2 4644   8.019   1.298   6.006
 1568TIP3    H1 4645   8.052   1.352   5.934
 1568TIP3    H2 4646   8.072   1.323   6.081
 1569TIP3   OH2 4647   3.748   1.650   2.334
 1569TIP3    H1 4648   3.667   1.609   2.365
 1569TIP3    H2 4649   3.769   1.603   2.254
 1570TIP3   OH2 4650  -0.015   7.770   2.378
 1570TIP3    H1 4651   0.052   7.777   2.447
 1570TIP3    H2 4652   0.019   7.824   2.307
 1571TIP3   OH2 4653   2.093   5.034   1.363
 1571TIP3    H1 4654   2.088   4.978   1.286
 1571TIP3    H2 4655   2.106   4.973   1.436
 1572TIP3   OH2 4656   2.697   7.086   0.095
 1572TIP3    H1 4657   2.643   7.139   0.154
 1572TIP3    H2 4658   2.767   7.052   0.152
 1573TIP3   OH2 4659   1.198   7.137   4.203
 1573TIP3    H1 4660   1.204   7.143   4.107
 1573TIP3    H2 4661   1.143   7.211   4.228
 1574TIP3   OH2 4662   3.048   6.149   3.560
 1574TIP3    H1 4663   3.095   6.206   3.498
 1574TIP3    H2 4664   3.074   6.060   3.534
 1575TIP3   OH2 4665   3.504   6.150   2.237
 1575TIP3    H1 4666   3.540   6.124   2.153
 1575TIP3    H2 4667   3.411   6.168   2.219
 1576TIP3   OH2 4668   7.116   0.921   3.603
 1576TIP3    H1 4669   7.055   0.959   3.666
 1576TIP3    H2 4670   7.061   0.872   3.542
 1577TIP3   OH2 4671   7.582   2.664   1.166
 1577TIP3    H1 4672   7.487   2.664   1.163
 1577TIP3    H2 4673   7.609   2.629   1.081
 1578TIP3   OH2 4674   6.816   4.164   6.814
 1578TIP3    H1 4675   6.784   4.211   6.890
 1578TIP3    H2 4676   6.866   4.091   6.850
 1579TIP3   OH2 4677   5.548   4.796   2.594
 1579TIP3    H1 4678   5.614   4.729   2.611
 1579TIP3    H2 4679   5.511   4.816   2.681
 1580TIP3   OH2 4680   8.049   7.368   4.396
 1580TIP3    H1 4681   8.013   7.343   4.311
 1580TIP3    H2 4682   8.084   7.287   4.432
 1581TIP3   OH2 4683   4.319   6.680   0.119
 1581TIP3    H1 4684   4.315   6.774   0.137
 1581TIP3    H2 4685   4.405   6.666   0.079
 1582TIP3   OH2 4686   7.799   3.429   0.775
 1582TIP3    H1 4687   7.877   3.380   0.802
 1582TIP3    H2 4688   7.785   3.492   0.846
 1583TIP3   OH2 4689   4.021   6.905   1.022
 1583TIP3    H1 4690   4.017   6.817   1.059
 1583TIP3    H2 4691   3.946   6.951   1.061
 1584TIP3   OH2 4692   2.591   2.720   3.902
 1584TIP3    H1 4693   2.637   2.744   3.983
 1584TIP3    H2 4694   2.523   2.660   3.931
 1585TIP3   OH2 4695   0.769   7.515   1.921
 1585TIP3    H1 4696   0.777   7.609   1.905
 1585TIP3    H2 4697   0.738   7.508   2.011
 1586TIP3   OH2 4698   1.249   2.140   3.073
 1586TIP3    H1 4699   1.162   2.150   3.033
 1586TIP3    H2 4700   1.232   2.097   3.157
 1587TIP3   OH2 4701   1.467   3.915   0.212
 1587TIP3    H1 4702   1.475   3.867   0.130
 1587TIP3    H2 4703   1.385   3.884   0.250
 1588TIP3   OH2 4704   3.171   7.612   2.045
 1588TIP3    H1 4705   3.142   7.523   2.067
 1588TIP3    H2 4706   3.250   7.599   1.992
 1589TIP3   OH2 4707   5.241   5.684   6.303
 1589TIP3    H1 4708   5.254   5.729   6.387
 1589TIP3    H2 4709   5.259   5.751   6.237
 1590TIP3   OH2 4710   0.327   5.595   1.603
 1590TIP3    H1 4711   0.280   5.678   1.598
 1590TIP3    H2 4712   0.420   5.619   1.599
 1591TIP3   OH2 4713   1.272   0.121   4.289
 1591TIP3    H1 4714   1.214   0.184   4.332
 1591TIP3    H2 4715   1.355   0.129   4.336
 1592TIP3   OH2 4716   5.450   2.737   0.621
 1592TIP3    H1 4717   5.483   2.819   0.584
 1592TIP3    H2 4718   5.457   2.749   0.716
 1593TIP3   OH2 4719   6.425   5.447   0.121
 1593TIP3    H1 4720   6.411   5.387   0.194
 1593TIP3    H2 4721   6.375   5.525   0.144
 1594TIP3   OH2 4722   7.944   2.099   3.402
 1594TIP3    H1 4723   7.907   2.166   3.460
 1594TIP3    H2 4724   8.032   2.132   3.381
 1595TIP3   OH2 4725   0.394   6.312   0.041
 1595TIP3    H1 4726   0.335   6.322   0.116
 1595TIP3    H2 4727   0.347   6.353  -0.032
 1596TIP3   OH2 4728   2.744   3.804   2.372
 1596TIP3    H1 4729   2.799   3.726   2.372
 1596TIP3    H2 4730   2.719   3.817   2.281
 1597TIP3   OH2 4731   1.010   0.992   5.569
 1597TIP3    H1 4732   0.971   1.040   5.643
 1597TIP3    H2 4733   1.032   0.906   5.605
 1598TIP3   OH2 4734   6.781   2.047   5.821
 1598TIP3    H1 4735   6.733   1.976   5.778
 1598TIP3    H2 4736   6.831   2.088   5.751
 1599TIP3   OH2 4737   6.370   4.767   5.827
 1599TIP3    H1 4738   6.320   4.762   5.745
 1599TIP3    H2 4739   6.311   4.811   5.888
 1600TIP3   OH2 4740   4.272   5.985   2.574
 1600TIP3    H1 4741   4.201   6.027   2.526
 1600TIP3    H2 4742   4.269   6.027   2.660
 1601TIP3   OH2 4743   4.850   1.293   5.683
 1601TIP3    H1 4744   4.876   1.385   5.677
 1601TIP3    H2 4745   4.863   1.271   5.776
 1602TIP3   OH2 4746   6.219   2.148   4.242
 1602TIP3    H1 4747   6.181   2.192   4.318
 1602TIP3    H2 4748   6.147   2.143   4.179
 1603TIP3   OH2 4749   4.743   7.889   3.300
 1603TIP3    H1 4750   4.802   7.902   3.375
 1603TIP3    H2 4751   4.775   7.950   3.234
 1604TIP3   OH2 4752   7.172   3.466   0.847
 1604TIP3    H1 4753   7.221   3.383   0.844
 1604TIP3    H2 4754   7.203   3.514   0.770
 1605TIP3   OH2 4755   2.643   5.964   3.062
 1605TIP3    H1 4756   2.618   6.003   2.978
 1605TIP3    H2 4757   2.611   6.025   3.128
 1606TIP3   OH2 4758   0.372   3.574   1.376
 1606TIP3    H1 4759   0.433   3.557   1.449
 1606TIP3    H2 4760   0.384   3.667   1.357
 1607TIP3   OH2 4761   7.247   5.885   2.526
 1607TIP3    H1 4762   7.251   5.818   2.458
 1607TIP3    H2 4763   7.335   5.923   2.527
 1608TIP3   OH2 4764   4.030   7.810   5.038
 1608TIP3    H1 4765   4.044   7.776   5.126
 1608TIP3    H2 4766   4.115   7.846   5.012
 1609TIP3   OH2 4767   2.622   3.737   4.187
 1609TIP3    H1 4768   2.699   3.746   4.242
 1609TIP3    H2 4769   2.595   3.826   4.166
 1610TIP3   OH2 4770   7.401   4.278   2.250
 1610TIP3    H1 4771   7.368   4.317   2.330
 1610TIP3    H2 4772   7.407   4.184   2.269
 1611TIP3   OH2 4773   5.572   3.998   0.012
 1611TIP3    H1 4774   5.630   3.924   0.034
 1611TIP3    H2 4775   5.620   4.075   0.043
 1612TIP3   OH2 4776   3.948   1.779   4.940
 1612TIP3    H1 4777   3.988   1.697   4.971
 1612TIP3    H2 4778   3.992   1.797   4.857
 1613TIP3   OH2 4779   2.130   6.071   4.861
 1613TIP3    H1 4780   2.132   6.166   4.858
 1613TIP3    H2 4781   2.051   6.050   4.912
 1614TIP3   OH2 4782   0.717   7.458   6.148
 1614TIP3    H1 4783   0.645   7.394   6.152
 1614TIP3    H2 4784   0.738   7.464   6.055
 1615TIP3   OH2 4785   5.944   3.425   1.621
 1615TIP3    H1 4786   5.910   3.351   1.671
 1615TIP3    H2 4787   6.029   3.445   1.661
 1616TIP3   OH2 4788   4.579   3.548   0.050
 1616TIP3    H1 4789   4.623   3.474   0.008
 1616TIP3    H2 4790   4.594   3.622  -0.008
 1617TIP3   OH2 4791   6.515   2.868   3.143
 1617TIP3    H1 4792   6.448   2.840   3.080
 1617TIP3    H2 4793   6.502   2.810   3.218
 1618TIP3   OH2 4794   3.901   2.171   5.005
 1618TIP3    H1 4795   3.917   2.141   4.915
 1618TIP3    H2 4796   3.925   2.264   5.004
 1619TIP3   OH2 4797   1.679   2.087   4.051
 1619TIP3    H1 4798   1.722   2.169   4.027
 1619TIP3    H2 4799   1.617   2.112   4.119
 1620TIP3   OH2 4800   6.440   3.503   1.938
 1620TIP3    H1 4801   6.387   3.484   1.860
 1620TIP3    H2 4802   6.403   3.583   1.974
 1621TIP3   OH2 4803   8.261   5.458   2.537
 1621TIP3    H1 4804   8.209   5.380   2.557
 1621TIP3    H2 4805   8.217   5.498   2.462
 1622TIP3   OH2 4806   4.668   5.613   3.812
 1622TIP3    H1 4807   4.641   5.683   3.752
 1622TIP3    H2 4808   4.656   5.650   3.899
 1623TIP3   OH2 4809   6.512   0.258   1.842
 1623TIP3    H1 4810   6.600   0.261   1.806
 1623TIP3    H2 4811   6.468   0.335   1.804
 1624TIP3   OH2 4812   3.391   1.104   6.618
 1624TIP3    H1 4813   3.469   1.143   6.656
 1624TIP3    H2 4814   3.318   1.148   6.662
 1625TIP3   OH2 4815   8.292   1.532   4.882
 1625TIP3    H1 4816   8.367   1.475   4.899
 1625TIP3    H2 4817   8.295   1.597   4.952
 1626TIP3   OH2 4818   4.884   0.264   6.741
 1626TIP3    H1 4819   4.947   0.332   6.767
 1626TIP3    H2 4820   4.858   0.288   6.653
 1627TIP3   OH2 4821   3.290   6.556   6.122
 1627TIP3    H1 4822   3.216   6.557   6.061
 1627TIP3    H2 4823   3.277   6.476   6.173
 1628TIP3   OH2 4824   6.754   1.120   6.213
 1628TIP3    H1 4825   6.813   1.049   6.188
 1628TIP3    H2 4826   6.669   1.078   6.226
 1629TIP3   OH2 4827   0.040   0.228   5.590
 1629TIP3    H1 4828   0.059   0.309   5.542
 1629TIP3    H2 4829  -0.020   0.180   5.534
 1630TIP3   OH2 4830   8.174   3.498   4.095
 1630TIP3    H1 4831   8.082   3.524   4.104
 1630TIP3    H2 4832   8.220   3.549   4.161
 1631TIP3   OH2 4833   1.341   0.991   5.656
 1631TIP3    H1 4834   1.397   0.920   5.623
 1631TIP3    H2 4835   1.343   0.981   5.751
 1632TIP3   OH2 4836   4.184   1.994   0.336
 1632TIP3    H1 4837   4.229   2.049   0.401
 1632TIP3    H2 4838   4.255   1.944   0.294
 1633TIP3   OH2 4839   1.651   5.184   6.642
 1633TIP3    H1 4840   1.740   5.158   6.618
 1633TIP3    H2 4841   1.610   5.207   6.559
 1634TIP3   OH2 4842   5.003   5.595   5.234
 1634TIP3    H1 4843   4.995   5.541   5.314
 1634TIP3    H2 4844   5.005   5.531   5.163
 1635TIP3   OH2 4845   2.821   4.024   6.102
 1635TIP3    H1 4846   2.899   4.067   6.066
 1635TIP3    H2 4847   2.845   4.004   6.193
 1636TIP3   OH2 4848   3.185   3.942   6.105
 1636TIP3    H1 4849   3.238   3.894   6.042
 1636TIP3    H2 4850   3.210   3.906   6.190
 1637TIP3   OH2 4851   8.303   6.748   2.354
 1637TIP3    H1 4852   8.358   6.712   2.424
 1637TIP3    H2 4853   8.358   6.745   2.276
 1638TIP3   OH2 4854   5.404   5.449   4.921
 1638TIP3    H1 4855   5.322   5.427   4.878
 1638TIP3    H2 4856   5.379   5.471   5.011
 1639TIP3   OH2 4857   4.568   6.346   3.458
 1639TIP3    H1 4858   4.547   6.439   3.459
 1639TIP3    H2 4859   4.664   6.343   3.467
 1640TIP3   OH2 4860   2.756   5.994   2.576
 1640TIP3    H1 4861   2.809   5.918   2.548
 1640TIP3    H2 4862   2.785   6.012   2.665
 1641TIP3   OH2 4863   7.144   0.673   3.802
 1641TIP3    H1 4864   7.160   0.706   3.891
 1641TIP3    H2 4865   7.056   0.703   3.781
 1642TIP3   OH2 4866   2.703   3.508   1.906
 1642TIP3    H1 4867   2.685   3.433   1.849
 1642TIP3    H2 4868   2.625   3.563   1.899
 1643TIP3   OH2 4869   2.123   2.512   0.385
 1643TIP3    H1 4870   2.061   2.444   0.357
 1643TIP3    H2 4871   2.143   2.490   0.476
 1644TIP3   OH2 4872   5.904   5.917   3.389
 1644TIP3    H1 4873   5.881   5.888   3.477
 1644TIP3    H2 4874   5.985   5.871   3.369
 1645TIP3   OH2 4875   8.201   2.234   4.687
 1645TIP3    H1 4876   8.196   2.287   4.767
 1645TIP3    H2 4877   8.269   2.169   4.705
 1646TIP3   OH2 4878   1.220   3.776   2.854
 1646TIP3    H1 4879   1.165   3.761   2.777
 1646TIP3    H2 4880   1.208   3.697   2.907
 1647TIP3   OH2 4881   7.084   2.610   0.270
 1647TIP3    H1 4882   7.150   2.676   0.247
 1647TIP3    H2 4883   7.014   2.624   0.207
 1648TIP3   OH2 4884   0.114   1.568   4.069
 1648TIP3    H1 4885   0.158   1.650   4.095
 1648TIP3    H2 4886   0.119   1.512   4.146
 1649TIP3   OH2 4887   1.887   4.051   0.448
 1649TIP3    H1 4888   1.915   3.965   0.479
 1649TIP3    H2 4889   1.965   4.089   0.408
 1650TIP3   OH2 4890   5.179   5.267   2.831
 1650TIP3    H1 4891   5.243   5.338   2.835
 1650TIP3    H2 4892   5.121   5.282   2.906
 1651TIP3   OH2 4893   0.732   4.921   0.090
 1651TIP3    H1 4894   0.751   4.849   0.149
 1651TIP3    H2 4895   0.676   4.883   0.022
 1652TIP3   OH2 4896   1.694   4.269   0.878
 1652TIP3    H1 4897   1.766   4.326   0.852
 1652TIP3    H2 4898   1.666   4.229   0.796
 1653TIP3   OH2 4899   3.462   5.972   6.606
 1653TIP3    H1 4900   3.508   5.992   6.688
 1653TIP3    H2 4901   3.418   5.889   6.622
 1654TIP3   OH2 4902   2.461   1.142   1.455
 1654TIP3    H1 4903   2.497   1.113   1.539
 1654TIP3    H2 4904   2.380   1.093   1.446
 1655TIP3   OH2 4905   2.788   1.197   5.567
 1655TIP3    H1 4906   2.847   1.206   5.492
 1655TIP3    H2 4907   2.814   1.268   5.626
 1656TIP3   OH2 4908   7.736   2.035   1.381
 1656TIP3    H1 4909   7.642   2.051   1.381
 1656TIP3    H2 4910   7.755   2.010   1.472
 1657TIP3   OH2 4911   3.159   7.322   2.001
 1657TIP3    H1 4912   3.194   7.317   1.912
 1657TIP3    H2 4913   3.133   7.232   2.022
 1658TIP3   OH2 4914   6.952   1.702   2.923
 1658TIP3    H1 4915   6.898   1.771   2.960
 1658TIP3    H2 4916   7.038   1.741   2.912
 1659TIP3   OH2 4917   3.830   4.549   5.601
 1659TIP3    H1 4918   3.843   4.563   5.695
 1659TIP3    H2 4919   3.918   4.546   5.565
 1660TIP3   OH2 4920   3.709   3.815   4.184
 1660TIP3    H1 4921   3.781   3.808   4.122
 1660TIP3    H2 4922   3.648   3.878   4.144
 1661TIP3   OH2 4923   5.219   4.102   6.390
 1661TIP3    H1 4924   5.292   4.104   6.452
 1661TIP3    H2 4925   5.148   4.148   6.435
 1662TIP3   OH2 4926   3.486   2.487   4.716
 1662TIP3    H1 4927   3.550   2.441   4.770
 1662TIP3    H2 4928   3.517   2.578   4.715
 1663TIP3   OH2 4929   5.250   7.803   4.931
 1663TIP3    H1 4930   5.201   7.812   4.849
 1663TIP3    H2 4931   5.224   7.717   4.965
 1664TIP3   OH2 4932   0.814   7.583   6.835
 1664TIP3    H1 4933   0.812   7.551   6.745
 1664TIP3    H2 4934   0.817   7.678   6.827
 1665TIP3   OH2 4935   7.715   7.611   0.037
 1665TIP3    H1 4936   7.679   7.691  -0.002
 1665TIP3    H2 4937   7.664   7.597   0.116
 1666TIP3   OH2 4938   7.282   2.289   4.226
 1666TIP3    H1 4939   7.251   2.370   4.266
 1666TIP3    H2 4940   7.345   2.318   4.160
 1667TIP3   OH2 4941   3.755   4.957   6.074
 1667TIP3    H1 4942   3.664   4.951   6.103
 1667TIP3    H2 4943   3.789   5.035   6.119
 1668TIP3   OH2 4944   6.568   0.993   1.972
 1668TIP3    H1 4945   6.664   1.000   1.967
 1668TIP3    H2 4946   6.538   1.084   1.978
 1669TIP3   OH2 4947   6.812   3.115   5.334
 1669TIP3    H1 4948   6.822   3.108   5.429
 1669TIP3    H2 4949   6.889   3.165   5.306
 1670TIP3   OH2 4950   8.068   0.094   5.361
 1670TIP3    H1 4951   8.027   0.181   5.365
 1670TIP3    H2 4952   7.999   0.037   5.327
 1671TIP3   OH2 4953   3.183   2.613   3.917
 1671TIP3    H1 4954   3.140   2.698   3.926
 1671TIP3    H2 4955   3.275   2.630   3.938
 1672TIP3   OH2 4956   4.989   1.522   5.616
 1672TIP3    H1 4957   5.076   1.491   5.639
 1672TIP3    H2 4958   4.996   1.549   5.525
 1673TIP3   OH2 4959   8.275   1.505   1.744
 1673TIP3    H1 4960   8.311   1.513   1.832
 1673TIP3    H2 4961   8.191   1.462   1.756
 1674TIP3   OH2 4962   0.649   2.734   3.978
 1674TIP3    H1 4963   0.587   2.668   4.010
 1674TIP3    H2 4964   0.685   2.773   4.058
 1675TIP3   OH2 4965   5.346   6.254   6.412
 1675TIP3    H1 4966   5.353   6.348   6.428
 1675TIP3    H2 4967   5.375   6.243   6.321
 1676TIP3   OH2 4968   5.484   2.686   6.227
 1676TIP3    H1 4969   5.536   2.728   6.296
 1676TIP3    H2 4970   5.469   2.597   6.259
 1677TIP3   OH2 4971   0.527   1.120   0.723
 1677TIP3    H1 4972   0.472   1.052   0.760
 1677TIP3    H2 4973   0.561   1.082   0.642
 1678TIP3   OH2 4974   8.201   5.050   4.331
 1678TIP3    H1 4975   8.209   5.125   4.272
 1678TIP3    H2 4976   8.107   5.043   4.348
 1679TIP3   OH2 4977   3.453   5.415   3.810
 1679TIP3    H1 4978   3.438   5.382   3.722
 1679TIP3    H2 4979   3.490   5.341   3.858
 1680TIP3   OH2 4980   6.047   5.482   5.835
 1680TIP3    H1 4981   6.135   5.500   5.802
 1680TIP3    H2 4982   5.990   5.535   5.779
 1681TIP3   OH2 4983   1.958   1.997   3.752
 1681TIP3    H1 4984   1.922   2.050   3.681
 1681TIP3    H2 4985   2.005   2.060   3.807
 1682TIP3   OH2 4986   6.990   0.217   3.536
 1682TIP3    H1 4987   6.908   0.264   3.553
 1682TIP3    H2 4988   6.978   0.132   3.580
 1683TIP3   OH2 4989   2.622   5.707   1.003
 1683TIP3    H1 4990   2.625   5.612   0.995
 1683TIP3    H2 4991   2.692   5.738   0.946
 1684TIP3   OH2 4992   6.894   3.528   0.944
 1684TIP3    H1 4993   6.975   3.482   0.923
 1684TIP3    H2 4994   6.846   3.531   0.862
 1685TIP3   OH2 4995   4.706   2.593   2.134
 1685TIP3    H1 4996   4.733   2.635   2.053
 1685TIP3    H2 4997   4.728   2.655   2.203
 1686TIP3   OH2 4998   7.530   6.521   4.282
 1686TIP3    H1 4999   7.580   6.453   4.327
 1686TIP3    H2 5000   7.597   6.580   4.247
 1687TIP3   OH2 5001   2.160   3.013   6.697
 1687TIP3    H1 5002   2.144   3.052   6.783
 1687TIP3    H2 5003   2.198   3.083   6.645
 1688TIP3   OH2 5004   5.300   4.607   2.986
 1688TIP3    H1 5005   5.350   4.535   2.948
 1688TIP3    H2 5006   5.355   4.641   3.056
 1689TIP3   OH2 5007   2.152   6.690   1.578
 1689TIP3    H1 5008   2.176   6.646   1.659
 1689TIP3    H2 5009   2.121   6.777   1.606
 1690TIP3   OH2 5010   3.253   3.461   6.551
 1690TIP3    H1 5011   3.185   3.508   6.503
 1690TIP3    H2 5012   3.311   3.529   6.584
 1691TIP3   OH2 5013   3.505   3.203   1.162
 1691TIP3    H1 5014   3.456   3.189   1.081
 1691TIP3    H2 5015   3.576   3.139   1.159
 1692TIP3   OH2 5016   7.107   0.419   5.037
 1692TIP3    H1 5017   7.168   0.409   4.964
 1692TIP3    H2 5018   7.020   0.410   4.998
 1693TIP3   OH2 5019   2.341   4.625   3.522
 1693TIP3    H1 5020   2.305   4.595   3.606
 1693TIP3    H2 5021   2.274   4.602   3.458
 1694TIP3   OH2 5022   5.284   0.773   4.658
 1694TIP3    H1 5023   5.339   0.776   4.580
 1694TIP3    H2 5024   5.326   0.834   4.719
 1695TIP3   OH2 5025   1.998   2.023   3.203
 1695TIP3    H1 5026   1.919   1.972   3.188
 1695TIP3    H2 5027   2.007   2.025   3.298
 1696TIP3   OH2 5028   3.241   6.837   0.792
 1696TIP3    H1 5029   3.171   6.806   0.735
 1696TIP3    H2 5030   3.286   6.758   0.821
 1697TIP3   OH2 5031   5.742   3.238   1.906
 1697TIP3    H1 5032   5.717   3.330   1.917
 1697TIP3    H2 5033   5.688   3.191   1.969
 1698TIP3   OH2 5034   4.451   4.948   1.566
 1698TIP3    H1 5035   4.445   5.009   1.640
 1698TIP3    H2 5036   4.389   4.982   1.502
 1699TIP3   OH2 5037   0.348   1.415   6.143
 1699TIP3    H1 5038   0.320   1.353   6.210
 1699TIP3    H2 5039   0.267   1.443   6.100
 1700TIP3   OH2 5040   4.508   1.013   3.962
 1700TIP3    H1 5041   4.500   0.918   3.967
 1700TIP3    H2 5042   4.431   1.042   3.913
 1701TIP3   OH2 5043   3.483   5.046   0.042
 1701TIP3    H1 5044   3.523   5.103  -0.024
 1701TIP3    H2 5045   3.414   5.100   0.081
 1702TIP3   OH2 5046   3.842   4.120   2.050
 1702TIP3    H1 5047   3.765   4.069   2.076
 1702TIP3    H2 5048   3.823   4.149   1.961
 1703TIP3   OH2 5049   1.720   2.415   2.716
 1703TIP3    H1 5050   1.749   2.447   2.631
 1703TIP3    H2 5051   1.792   2.361   2.748
 1704TIP3   OH2 5052   6.932   7.684   3.729
 1704TIP3    H1 5053   6.918   7.607   3.784
 1704TIP3    H2 5054   6.882   7.753   3.771
 1705TIP3   OH2 5055   7.056   2.311   1.292
 1705TIP3    H1 5056   6.999   2.368   1.241
 1705TIP3    H2 5057   7.120   2.277   1.230
 1706TIP3   OH2 5058   6.188   6.604   5.408
 1706TIP3    H1 5059   6.190   6.627   5.315
 1706TIP3    H2 5060   6.139   6.675   5.449
 1707TIP3   OH2 5061   0.551   1.940   5.255
 1707TIP3    H1 5062   0.544   1.883   5.332
 1707TIP3    H2 5063   0.643   1.968   5.254
 1708TIP3   OH2 5064   3.127   1.432   6.533
 1708TIP3    H1 5065   3.154   1.431   6.625
 1708TIP3    H2 5066   3.042   1.478   6.534
 1709TIP3   OH2 5067   1.451   1.447   5.153
 1709TIP3    H1 5068   1.380   1.421   5.213
 1709TIP3    H2 5069   1.455   1.376   5.089
 1710TIP3   OH2 5070   7.013   2.975   5.133
 1710TIP3    H1 5071   6.956   3.048   5.160
 1710TIP3    H2 5072   7.018   2.918   5.209
 1711TIP3   OH2 5073   6.548   6.991   5.694
 1711TIP3    H1 5074   6.489   6.939   5.750
 1711TIP3    H2 5075   6.533   6.958   5.606
 1712TIP3   OH2 5076   0.952   6.486   6.209
 1712TIP3    H1 5077   0.960   6.431   6.287
 1712TIP3    H2 5078   0.911   6.429   6.144
 1713TIP3   OH2 5079   6.059   6.340   5.246
 1713TIP3    H1 5080   6.106   6.266   5.208
 1713TIP3    H2 5081   6.124   6.387   5.298
 1714TIP3   OH2 5082   3.844   4.039   3.463
 1714TIP3    H1 5083   3.766   4.094   3.451
 1714TIP3    H2 5084   3.913   4.100   3.487
 1715TIP3   OH2 5085   5.383   0.618   0.504
 1715TIP3    H1 5086   5.428   0.545   0.463
 1715TIP3    H2 5087   5.309   0.578   0.551
 1716TIP3   OH2 5088   1.427   3.403   0.300
 1716TIP3    H1 5089   1.518   3.409   0.271
 1716TIP3    H2 5090   1.401   3.313   0.280
 1717TIP3   OH2 5091   3.830   2.411   2.485
 1717TIP3    H1 5092   3.776   2.487   2.461
 1717TIP3    H2 5093   3.787   2.337   2.442
 1718TIP3   OH2 5094   5.899   6.298   3.759
 1718TIP3    H1 5095   5.966   6.339   3.704
 1718TIP3    H2 5096   5.816   6.325   3.719
 1719TIP3   OH2 5097   5.680   6.346   5.389
 1719TIP3    H1 5098   5.594   6.353   5.347
 1719TIP3    H2 5099   5.661   6.307   5.475
 1720TIP3   OH2 5100   5.404   5.101   3.691
 1720TIP3    H1 5101   5.459   5.049   3.632
 1720TIP3    H2 5102   5.332   5.133   3.637
 1721TIP3   OH2 5103   6.428   5.521   0.985
 1721TIP3    H1 5104   6.506   5.535   1.040
 1721TIP3    H2 5105   6.463   5.508   0.897
 1722TIP3   OH2 5106   5.636   5.235   3.784
 1722TIP3    H1 5107   5.553   5.229   3.736
 1722TIP3    H2 5108   5.681   5.153   3.765
 1723TIP3   OH2 5109   6.327   4.626   1.217
 1723TIP3    H1 5110   6.397   4.686   1.243
 1723TIP3    H2 5111   6.267   4.680   1.166
 1724TIP3   OH2 5112   0.063   7.342   3.509
 1724TIP3    H1 5113  -0.018   7.292   3.527
 1724TIP3    H2 5114   0.036   7.409   3.446
 1725TIP3   OH2 5115   8.196   0.445   2.491
 1725TIP3    H1 5116   8.237   0.494   2.562
 1725TIP3    H2 5117   8.157   0.369   2.534
 1726TIP3   OH2 5118   1.731   2.387   1.417
 1726TIP3    H1 5119   1.696   2.351   1.498
 1726TIP3    H2 5120   1.654   2.414   1.367
 1727TIP3   OH2 5121   6.499   2.615   3.269
 1727TIP3    H1 5122   6.550   2.643   3.345
 1727TIP3    H2 5123   6.497   2.520   3.276
 1728TIP3   OH2 5124   6.229   2.419   3.208
 1728TIP3    H1 5125   6.223   2.465   3.124
 1728TIP3    H2 5126   6.150   2.366   3.212
 1729TIP3   OH2 5127   2.569   3.476   0.361
 1729TIP3    H1 5128   2.515   3.554   0.345
 1729TIP3    H2 5129   2.591   3.482   0.454
 1730TIP3   OH2 5130   2.064   3.262   3.177
 1730TIP3    H1 5131   2.141   3.224   3.219
 1730TIP3    H2 5132   1.997   3.260   3.245
 1731TIP3   OH2 5133   5.186   1.417   0.937
 1731TIP3    H1 5134   5.180   1.342   0.877
 1731TIP3    H2 5135   5.098   1.455   0.936
 1732TIP3   OH2 5136   5.418   1.167   4.144
 1732TIP3    H1 5137   5.496   1.123   4.178
 1732TIP3    H2 5138   5.452   1.239   4.092
 1733TIP3   OH2 5139   2.796   6.624   6.330
 1733TIP3    H1 5140   2.727   6.615   6.396
 1733TIP3    H2 5141   2.797   6.540   6.285
 1734TIP3   OH2 5142   2.474   7.536   2.739
 1734TIP3    H1 5143   2.511   7.576   2.660
 1734TIP3    H2 5144   2.549   7.526   2.798
 1735TIP3   OH2 5145   0.423   0.640   4.546
 1735TIP3    H1 5146   0.495   0.620   4.485
 1735TIP3    H2 5147   0.429   0.570   4.612
 1736TIP3   OH2 5148   6.760   2.118   6.599
 1736TIP3    H1 5149   6.794   2.050   6.658
 1736TIP3    H2 5150   6.826   2.188   6.604
 1737TIP3   OH2 5151   1.261   5.145   0.202
 1737TIP3    H1 5152   1.356   5.143   0.208
 1737TIP3    H2 5153   1.242   5.149   0.109
 1738TIP3   OH2 5154   2.053   2.651   0.127
 1738TIP3    H1 5155   2.127   2.615   0.080
 1738TIP3    H2 5156   2.074   2.637   0.220
 1739TIP3   OH2 5157   1.194   4.081   1.795
 1739TIP3    H1 5158   1.156   3.992   1.794
 1739TIP3    H2 5159   1.148   4.128   1.726
 1740TIP3   OH2 5160   3.051   6.956   4.264
 1740TIP3    H1 5161   3.082   7.024   4.204
 1740TIP3    H2 5162   3.015   7.005   4.339
 1741TIP3   OH2 5163   0.489   5.656   0.886
 1741TIP3    H1 5164   0.553   5.587   0.870
 1741TIP3    H2 5165   0.541   5.736   0.896
 1742TIP3   OH2 5166   6.356   2.306   1.821
 1742TIP3    H1 5167   6.282   2.315   1.760
 1742TIP3    H2 5168   6.426   2.267   1.769
 1743TIP3   OH2 5169   0.131   3.929   6.290
 1743TIP3    H1 5170   0.083   3.846   6.286
 1743TIP3    H2 5171   0.171   3.937   6.203
 1744TIP3   OH2 5172   3.642   1.365   6.480
 1744TIP3    H1 5173   3.729   1.392   6.451
 1744TIP3    H2 5174   3.583   1.434   6.448
 1745TIP3   OH2 5175   3.727   0.183   0.660
 1745TIP3    H1 5176   3.776   0.261   0.684
 1745TIP3    H2 5177   3.648   0.216   0.618
 1746TIP3   OH2 5178   0.983   0.992   4.265
 1746TIP3    H1 5179   0.899   1.006   4.308
 1746TIP3    H2 5180   1.047   1.032   4.324
 1747TIP3   OH2 5181   5.865   0.294   5.113
 1747TIP3    H1 5182   5.914   0.324   5.190
 1747TIP3    H2 5183   5.872   0.198   5.117
 1748TIP3   OH2 5184   5.709   4.042   6.246
 1748TIP3    H1 5185   5.680   3.951   6.249
 1748TIP3    H2 5186   5.740   4.055   6.156
 1749TIP3   OH2 5187   4.059   6.943   1.326
 1749TIP3    H1 5188   4.051   6.849   1.342
 1749TIP3    H2 5189   3.972   6.978   1.344
 1750TIP3   OH2 5190   5.723   5.941   2.285
 1750TIP3    H1 5191   5.781   5.888   2.231
 1750TIP3    H2 5192   5.762   6.029   2.285
 1751TIP3   OH2 5193   7.122   6.176   2.791
 1751TIP3    H1 5194   7.189   6.177   2.858
 1751TIP3    H2 5195   7.060   6.245   2.818
 1752TIP3   OH2 5196   3.842   7.516   4.944
 1752TIP3    H1 5197   3.778   7.476   5.004
 1752TIP3    H2 5198   3.791   7.579   4.894
 1753TIP3   OH2 5199   3.092   1.627   4.292
 1753TIP3    H1 5200   3.046   1.543   4.300
 1753TIP3    H2 5201   3.091   1.663   4.381
 1754TIP3   OH2 5202   1.815   2.716   1.415
 1754TIP3    H1 5203   1.893   2.724   1.360
 1754TIP3    H2 5204   1.850   2.712   1.504
 1755TIP3   OH2 5205   6.858   7.754   5.238
 1755TIP3    H1 5206   6.790   7.821   5.245
 1755TIP3    H2 5207   6.893   7.746   5.327
 1756TIP3   OH2 5208   2.191   4.459   5.930
 1756TIP3    H1 5209   2.126   4.463   6.000
 1756TIP3    H2 5210   2.182   4.370   5.895
 1757TIP3   OH2 5211   7.154   3.552   2.042
 1757TIP3    H1 5212   7.200   3.474   2.011
 1757TIP3    H2 5213   7.149   3.609   1.964
 1758TIP3   OH2 5214   4.268   1.259   2.170
 1758TIP3    H1 5215   4.239   1.243   2.080
 1758TIP3    H2 5216   4.192   1.298   2.213
 1759TIP3   OH2 5217   1.952   6.035   5.108
 1759TIP3    H1 5218   2.035   6.050   5.154
 1759TIP3    H2 5219   1.891   6.098   5.146
 1760TIP3   OH2 5220   2.698   0.627   0.999
 1760TIP3    H1 5221   2.710   0.718   1.025
 1760TIP3    H2 5222   2.636   0.592   1.063
 1761TIP3   OH2 5223   1.428   6.209   4.137
 1761TIP3    H1 5224   1.391   6.290   4.170
 1761TIP3    H2 5225   1.359   6.172   4.082
 1762TIP3   OH2 5226   2.644   0.991   6.314
 1762TIP3    H1 5227   2.587   1.066   6.332
 1762TIP3    H2 5228   2.729   1.018   6.347
 1763TIP3   OH2 5229   4.059   3.061   6.419
 1763TIP3    H1 5230   4.152   3.039   6.420
 1763TIP3    H2 5231   4.032   3.057   6.510
 1764TIP3   OH2 5232   8.246   5.496   2.927
 1764TIP3    H1 5233   8.212   5.417   2.886
 1764TIP3    H2 5234   8.288   5.545   2.855
 1765TIP3   OH2 5235   6.609   7.146   3.744
 1765TIP3    H1 5236   6.556   7.144   3.824
 1765TIP3    H2 5237   6.648   7.059   3.740
 1766TIP3   OH2 5238   2.237   5.509   5.396
 1766TIP3    H1 5239   2.218   5.551   5.480
 1766TIP3    H2 5240   2.325   5.539   5.374
 1767TIP3   OH2 5241   3.813   4.814   0.640
 1767TIP3    H1 5242   3.843   4.905   0.644
 1767TIP3    H2 5243   3.864   4.769   0.708
 1768TIP3   OH2 5244   3.729   2.211   0.412
 1768TIP3    H1 5245   3.717   2.302   0.382
 1768TIP3    H2 5246   3.783   2.219   0.491
 1769TIP3   OH2 5247   7.205   6.468   4.737
 1769TIP3    H1 5248   7.126   6.419   4.762
 1769TIP3    H2 5249   7.245   6.415   4.668
 1770TIP3   OH2 5250   4.679   6.341   6.339
 1770TIP3    H1 5251   4.645   6.270   6.393
 1770TIP3    H2 5252   4.767   6.357   6.374
 1771TIP3   OH2 5253   3.195   3.314   1.585
 1771TIP3    H1 5254   3.227   3.272   1.665
 1771TIP3    H2 5255   3.144   3.389   1.616
 1772TIP3   OH2 5256   3.577   5.411   1.260
 1772TIP3    H1 5257   3.604   5.363   1.338
 1772TIP3    H2 5258   3.612   5.499   1.273
 1773TIP3   OH2 5259   1.933   4.807   0.300
 1773TIP3    H1 5260   1.986   4.765   0.369
 1773TIP3    H2 5261   1.979   4.889   0.281
 1774TIP3   OH2 5262   5.660   2.161   5.274
 1774TIP3    H1 5263   5.730   2.225   5.288
 1774TIP3    H2 5264   5.640   2.127   5.361
 1775TIP3   OH2 5265   6.320   7.156   3.283
 1775TIP3    H1 5266   6.245   7.132   3.228
 1775TIP3    H2 5267   6.392   7.101   3.252
 1776TIP3   OH2 5268   6.727   0.552   1.421
 1776TIP3    H1 5269   6.687   0.634   1.450
 1776TIP3    H2 5270   6.669   0.483   1.456
 1777TIP3   OH2 5271   0.622   7.483   3.560
 1777TIP3    H1 5272   0.664   7.434   3.630
 1777TIP3    H2 5273   0.692   7.533   3.519
 1778TIP3   OH2 5274   3.622   7.020   0.889
 1778TIP3    H1 5275   3.532   7.027   0.858
 1778TIP3    H2 5276   3.630   6.929   0.919
 1779TIP3   OH2 5277   1.850   6.954   2.187
 1779TIP3    H1 5278   1.876   6.871   2.148
 1779TIP3    H2 5279   1.931   7.005   2.192
 1780TIP3   OH2 5280   4.580   3.481   2.403
 1780TIP3    H1 5281   4.658   3.536   2.395
 1780TIP3    H2 5282   4.570   3.441   2.317
 1781TIP3   OH2 5283   2.765   7.434   5.654
 1781TIP3    H1 5284   2.770   7.464   5.563
 1781TIP3    H2 5285   2.851   7.397   5.673
 1782TIP3   OH2 5286   3.868   1.521   5.160
 1782TIP3    H1 5287   3.867   1.540   5.254
 1782TIP3    H2 5288   3.955   1.548   5.130
 1783TIP3   OH2 5289   0.422   7.122   0.509
 1783TIP3    H1 5290   0.386   7.184   0.573
 1783TIP3    H2 5291   0.512   7.151   0.495
 1784TIP3   OH2 5292   5.842   6.807   4.093
 1784TIP3    H1 5293   5.882   6.753   4.025
 1784TIP3    H2 5294   5.827   6.747   4.166
 1785TIP3   OH2 5295   0.392   4.580   1.859
 1785TIP3    H1 5296   0.312   4.563   1.810
 1785TIP3    H2 5297   0.459   4.527   1.815
 1786TIP3   OH2 5298   6.269   3.586   2.235
 1786TIP3    H1 5299   6.208   3.513   2.229
 1786TIP3    H2 5300   6.228   3.656   2.184
 1787TIP3   OH2 5301   0.792   1.837   0.177
 1787TIP3    H1 5302   0.708   1.793   0.170
 1787TIP3    H2 5303   0.834   1.799   0.254
 1788TIP3   OH2 5304   1.120   4.248   5.877
 1788TIP3    H1 5305   1.208   4.263   5.842
 1788TIP3    H2 5306   1.114   4.154   5.889
 1789TIP3   OH2 5307   5.834   5.043   5.185
 1789TIP3    H1 5308   5.922   5.013   5.208
 1789TIP3    H2 5309   5.778   5.012   5.255
 1790TIP3   OH2 5310   2.672   4.575   3.018
 1790TIP3    H1 5311   2.719   4.547   2.939
 1790TIP3    H2 5312   2.677   4.500   3.077
 1791TIP3   OH2 5313   3.617   4.352   0.586
 1791TIP3    H1 5314   3.614   4.402   0.504
 1791TIP3    H2 5315   3.608   4.417   0.655
 1792TIP3   OH2 5316   6.157   3.667   3.263
 1792TIP3    H1 5317   6.114   3.584   3.280
 1792TIP3    H2 5318   6.092   3.733   3.286
 1793TIP3   OH2 5319   3.907   3.669   6.148
 1793TIP3    H1 5320   3.841   3.601   6.164
 1793TIP3    H2 5321   3.921   3.665   6.054
 1794TIP3   OH2 5322   2.367   4.338   0.122
 1794TIP3    H1 5323   2.304   4.392   0.170
 1794TIP3    H2 5324   2.319   4.311   0.043
 1795TIP3   OH2 5325   8.066   2.546   6.655
 1795TIP3    H1 5326   8.028   2.464   6.687
 1795TIP3    H2 5327   8.077   2.599   6.733
 1796TIP3   OH2 5328   1.581   2.099   0.851
 1796TIP3    H1 5329   1.603   2.013   0.889
 1796TIP3    H2 5330   1.545   2.149   0.925
 1797TIP3   OH2 5331   2.242   7.361   2.092
 1797TIP3    H1 5332   2.264   7.412   2.014
 1797TIP3    H2 5333   2.253   7.422   2.164
 1798TIP3   OH2 5334   4.877   3.896   2.695
 1798TIP3    H1 5335   4.801   3.849   2.659
 1798TIP3    H2 5336   4.849   3.988   2.697
 1799TIP3   OH2 5337   2.495   7.606   4.065
 1799TIP3    H1 5338   2.527   7.525   4.104
 1799TIP3    H2 5339   2.432   7.640   4.128
 1800TIP3   OH2 5340   6.230   4.651   2.942
 1800TIP3    H1 5341   6.268   4.563   2.949
 1800TIP3    H2 5342   6.305   4.709   2.943
 1801TIP3   OH2 5343   7.115   7.891   6.532
 1801TIP3    H1 5344   7.084   7.849   6.612
 1801TIP3    H2 5345   7.198   7.848   6.512
 1802TIP3   OH2 5346   2.817   2.618   3.135
 1802TIP3    H1 5347   2.860   2.561   3.199
 1802TIP3    H2 5348   2.861   2.702   3.144
 1803TIP3   OH2 5349   5.093   4.399   4.714
 1803TIP3    H1 5350   5.109   4.443   4.630
 1803TIP3    H2 5351   5.001   4.419   4.734
 1804TIP3   OH2 5352   0.808   1.764   4.166
 1804TIP3    H1 5353   0.796   1.825   4.238
 1804TIP3    H2 5354   0.721   1.727   4.150
 1805TIP3   OH2 5355   2.561   3.226   6.740
 1805TIP3    H1 5356   2.531   3.136   6.727
 1805TIP3    H2 5357   2.501   3.262   6.806
 1806TIP3   OH2 5358   4.979   4.101   3.529
 1806TIP3    H1 5359   4.899   4.134   3.489
 1806TIP3    H2 5360   5.049   4.156   3.493
 1807TIP3   OH2 5361   4.274   7.627   0.861
 1807TIP3    H1 5362   4.288   7.574   0.940
 1807TIP3    H2 5363   4.243   7.564   0.795
 1808TIP3   OH2 5364   8.046   2.181   5.924
 1808TIP3    H1 5365   7.981   2.213   5.987
 1808TIP3    H2 5366   8.125   2.167   5.976
 1809TIP3   OH2 5367   5.472   6.043   1.285
 1809TIP3    H1 5368   5.559   6.084   1.290
 1809TIP3    H2 5369   5.411   6.114   1.302
 1810TIP3   OH2 5370   3.119   3.995   0.408
 1810TIP3    H1 5371   3.072   3.954   0.480
 1810TIP3    H2 5372   3.212   3.983   0.429
 1811TIP3   OH2 5373   5.450   2.423   6.282
 1811TIP3    H1 5374   5.397   2.431   6.362
 1811TIP3    H2 5375   5.428   2.336   6.248
 1812TIP3   OH2 5376   1.894   3.022   2.941
 1812TIP3    H1 5377   1.807   2.986   2.958
 1812TIP3    H2 5378   1.925   3.051   3.027
 1813TIP3   OH2 5379   0.617   3.479   1.044
 1813TIP3    H1 5380   0.693   3.467   0.987
 1813TIP3    H2 5381   0.562   3.542   0.998
 1814TIP3   OH2 5382   8.406   4.533   5.857
 1814TIP3    H1 5383   8.320   4.511   5.821
 1814TIP3    H2 5384   8.401   4.509   5.949
 1815TIP3   OH2 5385   5.044   1.314   6.510
 1815TIP3    H1 5386   5.019   1.395   6.465
 1815TIP3    H2 5387   4.963   1.262   6.512
 1816TIP3   OH2 5388   6.836   0.821   2.246
 1816TIP3    H1 5389   6.827   0.728   2.227
 1816TIP3    H2 5390   6.762   0.841   2.304
 1817TIP3   OH2 5391   5.832   2.866   0.142
 1817TIP3    H1 5392   5.905   2.804   0.144
 1817TIP3    H2 5393   5.764   2.826   0.195
 1818TIP3   OH2 5394   7.457   7.052   4.344
 1818TIP3    H1 5395   7.425   7.023   4.430
 1818TIP3    H2 5396   7.546   7.083   4.361
 1819TIP3   OH2 5397   3.712   7.071   4.239
 1819TIP3    H1 5398   3.659   6.997   4.211
 1819TIP3    H2 5399   3.746   7.046   4.325
 1820TIP3   OH2 5400   3.382   6.928   0.468
 1820TIP3    H1 5401   3.289   6.918   0.445
 1820TIP3    H2 5402   3.383   6.993   0.538
 1821TIP3   OH2 5403   1.936   5.869   2.019
 1821TIP3    H1 5404   1.949   5.878   2.114
 1821TIP3    H2 5405   1.975   5.784   1.998
 1822TIP3   OH2 5406   6.401   3.142   3.487
 1822TIP3    H1 5407   6.402   3.058   3.533
 1822TIP3    H2 5408   6.392   3.207   3.557
 1823TIP3   OH2 5409   1.163   5.065   3.232
 1823TIP3    H1 5410   1.147   4.972   3.247
 1823TIP3    H2 5411   1.099   5.090   3.166
 1824TIP3   OH2 5412   5.179   7.132   5.304
 1824TIP3    H1 5413   5.138   7.146   5.390
 1824TIP3    H2 5414   5.251   7.071   5.322
 1825TIP3   OH2 5415   6.344   5.359   2.104
 1825TIP3    H1 5416   6.352   5.449   2.073
 1825TIP3    H2 5417   6.420   5.347   2.161
 1826TIP3   OH2 5418   2.912   3.427   4.647
 1826TIP3    H1 5419   2.938   3.340   4.615
 1826TIP3    H2 5420   2.994   3.468   4.675
 1827TIP3   OH2 5421   4.388   7.506   0.131
 1827TIP3    H1 5422   4.482   7.490   0.140
 1827TIP3    H2 5423   4.348   7.435   0.182
 1828TIP3   OH2 5424   2.023   0.849   3.320
 1828TIP3    H1 5425   1.967   0.912   3.366
 1828TIP3    H2 5426   1.997   0.763   3.356
 1829TIP3   OH2 5427   7.985   0.921   0.745
 1829TIP3    H1 5428   7.992   0.910   0.651
 1829TIP3    H2 5429   7.896   0.953   0.760
 1830TIP3   OH2 5430   0.226   6.605   0.151
 1830TIP3    H1 5431   0.204   6.623   0.060
 1830TIP3    H2 5432   0.220   6.690   0.194
 1831TIP3   OH2 5433   5.114   6.973   1.299
 1831TIP3    H1 5434   5.186   6.912   1.281
 1831TIP3    H2 5435   5.156   7.048   1.341
 1832TIP3   OH2 5436   2.830   1.982   0.622
 1832TIP3    H1 5437   2.764   1.968   0.554
 1832TIP3    H2 5438   2.839   1.898   0.666
 1833TIP3   OH2 5439   2.187   4.870   3.751
 1833TIP3    H1 5440   2.241   4.874   3.672
 1833TIP3    H2 5441   2.246   4.836   3.818
 1834TIP3   OH2 5442   3.390   5.950   5.720
 1834TIP3    H1 5443   3.423   6.038   5.701
 1834TIP3    H2 5444   3.368   5.913   5.635
 1835TIP3   OH2 5445   0.964   0.186   4.535
 1835TIP3    H1 5446   0.969   0.090   4.542
 1835TIP3    H2 5447   1.029   0.208   4.468
 1836TIP3   OH2 5448   5.765   2.134   6.747
 1836TIP3    H1 5449   5.855   2.110   6.726
 1836TIP3    H2 5450   5.713   2.099   6.674
 1837TIP3   OH2 5451   0.795   4.052   5.715
 1837TIP3    H1 5452   0.777   3.965   5.751
 1837TIP3    H2 5453   0.881   4.075   5.750
 1838TIP3   OH2 5454   6.671   6.113   4.367
 1838TIP3    H1 5455   6.681   6.035   4.421
 1838TIP3    H2 5456   6.577   6.124   4.358
 1839TIP3   OH2 5457   3.917   3.400   3.859
 1839TIP3    H1 5458   3.871   3.387   3.776
 1839TIP3    H2 5459   4.008   3.379   3.840
 1840TIP3   OH2 5460   1.618   2.899   2.024
 1840TIP3    H1 5461   1.547   2.963   2.029
 1840TIP3    H2 5462   1.581   2.825   1.977
 1841TIP3   OH2 5463   7.473   4.921   5.961
 1841TIP3    H1 5464   7.419   4.847   5.986
 1841TIP3    H2 5465   7.474   4.920   5.866
 1842TIP3   OH2 5466   4.898   2.655   1.221
 1842TIP3    H1 5467   4.929   2.670   1.132
 1842TIP3    H2 5468   4.886   2.743   1.257
 1843TIP3   OH2 5469   0.525   1.204   5.433
 1843TIP3    H1 5470   0.591   1.273   5.433
 1843TIP3    H2 5471   0.520   1.176   5.524
 1844TIP3   OH2 5472   1.231   6.461   5.517
 1844TIP3    H1 5473   1.325   6.446   5.523
 1844TIP3    H2 5474   1.191   6.378   5.545
 1845TIP3   OH2 5475   3.827   6.465   1.565
 1845TIP3    H1 5476   3.808   6.555   1.591
 1845TIP3    H2 5477   3.886   6.473   1.491
 1846TIP3   OH2 5478   6.460   0.859   0.146
 1846TIP3    H1 5479   6.552   0.837   0.161
 1846TIP3    H2 5480   6.416   0.835   0.227
 1847TIP3   OH2 5481   2.828   1.205   3.386
 1847TIP3    H1 5482   2.908   1.211   3.438
 1847TIP3    H2 5483   2.761   1.246   3.440
 1848TIP3   OH2 5484   0.005   7.039   2.494
 1848TIP3    H1 5485  -0.029   7.084   2.571
 1848TIP3    H2 5486   0.088   7.083   2.475
 1849TIP3   OH2 5487   2.800   2.563   1.221
 1849TIP3    H1 5488   2.739   2.566   1.295
 1849TIP3    H2 5489   2.819   2.655   1.203
 1850TIP3   OH2 5490   2.782   7.892   2.914
 1850TIP3    H1 5491   2.839   7.871   2.840
 1850TIP3    H2 5492   2.705   7.933   2.874
 1851TIP3   OH2 5493   4.501   2.158   2.671
 1851TIP3    H1 5494   4.577   2.103   2.654
 1851TIP3    H2 5495   4.453   2.113   2.741
 1852TIP3   OH2 5496   5.760   0.644   5.937
 1852TIP3    H1 5497   5.816   0.583   5.890
 1852TIP3    H2 5498   5.765   0.616   6.029
 1853TIP3   OH2 5499   7.505   6.074   4.431
 1853TIP3    H1 5500   7.568   6.003   4.415
 1853TIP3    H2 5501   7.421   6.029   4.441
 1854TIP3   OH2 5502   3.613   7.120   6.414
 1854TIP3    H1 5503   3.517   7.115   6.413
 1854TIP3    H2 5504   3.640   7.065   6.341
 1855TIP3   OH2 5505   4.606   3.906   3.006
 1855TIP3    H1 5506   4.616   3.816   3.038
 1855TIP3    H2 5507   4.579   3.896   2.915
 1856TIP3   OH2 5508   0.649   1.327   1.887
 1856TIP3    H1 5509   0.621   1.414   1.916
 1856TIP3    H2 5510   0.613   1.268   1.953
 1857TIP3   OH2 5511   0.844   6.298   4.113
 1857TIP3    H1 5512   0.930   6.335   4.135
 1857TIP3    H2 5513   0.860   6.246   4.034
 1858TIP3   OH2 5514   3.768   0.570   3.210
 1858TIP3    H1 5515   3.742   0.523   3.130
 1858TIP3    H2 5516   3.845   0.620   3.184
 1859TIP3   OH2 5517   2.392   4.048   0.230
 1859TIP3    H1 5518   2.469   4.047   0.287
 1859TIP3    H2 5519   2.393   4.134   0.190
 1860TIP3   OH2 5520   7.703   6.233   4.167
 1860TIP3    H1 5521   7.719   6.266   4.255
 1860TIP3    H2 5522   7.723   6.306   4.110
 1861TIP3   OH2 5523   0.366   6.863   0.728
 1861TIP3    H1 5524   0.445   6.846   0.678
 1861TIP3    H2 5525   0.366   6.958   0.741
 1862TIP3   OH2 5526   3.193   4.978   5.945
 1862TIP3    H1 5527   3.104   4.966   5.977
 1862TIP3    H2 5528   3.204   5.073   5.938
 1863TIP3   OH2 5529   3.903   4.460   0.195
 1863TIP3    H1 5530   3.894   4.524   0.266
 1863TIP3    H2 5531   3.974   4.403   0.223
 1864TIP3   OH2 5532   0.948   7.050   5.550
 1864TIP3    H1 5533   0.990   7.134   5.570
 1864TIP3    H2 5534   1.005   7.010   5.484
 1865TIP3   OH2 5535   3.767   2.679   4.997
 1865TIP3    H1 5536   3.672   2.689   4.988
 1865TIP3    H2 5537   3.785   2.700   5.089
 1866TIP3   OH2 5538   2.768   7.126   1.172
 1866TIP3    H1 5539   2.722   7.070   1.235
 1866TIP3    H2 5540   2.703   7.145   1.105
 1867TIP3   OH2 5541   8.084   1.212   6.433
 1867TIP3    H1 5542   8.029   1.142   6.399
 1867TIP3    H2 5543   8.052   1.227   6.522
 1868TIP3   OH2 5544   7.634   1.563   0.211
 1868TIP3    H1 5545   7.592   1.509   0.278
 1868TIP3    H2 5546   7.568   1.628   0.187
 1869TIP3   OH2 5547   5.401   6.972   5.411
 1869TIP3    H1 5548   5.480   7.015   5.379
 1869TIP3    H2 5549   5.413   6.967   5.506
 1870TIP3   OH2 5550   2.124   3.535   2.056
 1870TIP3    H1 5551   2.067   3.493   2.120
 1870TIP3    H2 5552   2.098   3.497   1.972
 1871TIP3   OH2 5553   4.510   0.242   3.861
 1871TIP3    H1 5554   4.529   0.322   3.910
 1871TIP3    H2 5555   4.531   0.171   3.921
 1872TIP3   OH2 5556   2.152   7.887   4.268
 1872TIP3    H1 5557   2.067   7.862   4.304
 1872TIP3    H2 5558   2.156   7.982   4.279
 1873TIP3   OH2 5559   1.855   1.833   1.508
 1873TIP3    H1 5560   1.875   1.922   1.479
 1873TIP3    H2 5561   1.773   1.842   1.557
 1874TIP3   OH2 5562   4.267   0.495   2.275
 1874TIP3    H1 5563   4.356   0.459   2.271
 1874TIP3    H2 5564   4.211   0.425   2.242
 1875TIP3   OH2 5565   2.575   5.805   3.796
 1875TIP3    H1 5566   2.499   5.855   3.826
 1875TIP3    H2 5567   2.540   5.718   3.777
 1876TIP3   OH2 5568   5.572   5.601   2.255
 1876TIP3    H1 5569   5.648   5.658   2.266
 1876TIP3    H2 5570   5.498   5.655   2.281
 1877TIP3   OH2 5571   8.129   4.830   4.864
 1877TIP3    H1 5572   8.127   4.769   4.791
 1877TIP3    H2 5573   8.202   4.889   4.844
 1878TIP3   OH2 5574   6.965   7.768   5.525
 1878TIP3    H1 5575   7.042   7.727   5.563
 1878TIP3    H2 5576   6.968   7.859   5.557
 1879TIP3   OH2 5577   4.698   6.772   1.466
 1879TIP3    H1 5578   4.771   6.810   1.417
 1879TIP3    H2 5579   4.740   6.722   1.536
 1880TIP3   OH2 5580  -0.017   1.776   1.409
 1880TIP3    H1 5581   0.023   1.738   1.487
 1880TIP3    H2 5582   0.041   1.848   1.385
 1881TIP3   OH2 5583   0.395   5.695   4.286
 1881TIP3    H1 5584   0.328   5.643   4.240
 1881TIP3    H2 5585   0.353   5.779   4.303
 1882TIP3   OH2 5586   5.024   5.288   6.857
 1882TIP3    H1 5587   5.111   5.315   6.828
 1882TIP3    H2 5588   5.036   5.200   6.891
 1883TIP3   OH2 5589   2.273   1.146   0.424
 1883TIP3    H1 5590   2.332   1.157   0.499
 1883TIP3    H2 5591   2.186   1.164   0.459
 1884TIP3   OH2 5592   4.001   6.006   0.951
 1884TIP3    H1 5593   4.046   5.984   0.869
 1884TIP3    H2 5594   4.035   6.092   0.975
 1885TIP3   OH2 5595   6.649   0.818   2.454
 1885TIP3    H1 5596   6.615   0.738   2.493
 1885TIP3    H2 5597   6.588   0.838   2.383
 1886TIP3   OH2 5598   0.898   6.099   4.508
 1886TIP3    H1 5599   0.977   6.063   4.467
 1886TIP3    H2 5600   0.859   6.154   4.441
 1887TIP3   OH2 5601   4.873   1.513   6.412
 1887TIP3    H1 5602   4.789   1.544   6.379
 1887TIP3    H2 5603   4.934   1.526   6.339
 1888TIP3   OH2 5604   0.708   2.651   1.830
 1888TIP3    H1 5605   0.685   2.720   1.767
 1888TIP3    H2 5606   0.697   2.570   1.782
 1889TIP3   OH2 5607   6.508   4.453   3.920
 1889TIP3    H1 5608   6.481   4.442   4.012
 1889TIP3    H2 5609   6.517   4.363   3.888
 1890TIP3   OH2 5610   4.141   2.675   4.902
 1890TIP3    H1 5611   4.098   2.660   4.818
 1890TIP3    H2 5612   4.193   2.754   4.888
 1891TIP3   OH2 5613   4.844   3.391   1.415
 1891TIP3    H1 5614   4.887   3.306   1.411
 1891TIP3    H2 5615   4.871   3.427   1.500
 1892TIP3   OH2 5616   2.508   1.231   6.350
 1892TIP3    H1 5617   2.483   1.264   6.436
 1892TIP3    H2 5618   2.572   1.294   6.317
 1893TIP3   OH2 5619   3.809   4.843   1.381
 1893TIP3    H1 5620   3.817   4.914   1.317
 1893TIP3    H2 5621   3.834   4.883   1.464
 1894TIP3   OH2 5622   5.379   6.436   4.550
 1894TIP3    H1 5623   5.381   6.513   4.492
 1894TIP3    H2 5624   5.299   6.446   4.601
 1895TIP3   OH2 5625   1.883   6.440   4.977
 1895TIP3    H1 5626   1.957   6.400   4.931
 1895TIP3    H2 5627   1.920   6.472   5.059
 1896TIP3   OH2 5628   1.690   5.076   1.283
 1896TIP3    H1 5629   1.624   5.132   1.242
 1896TIP3    H2 5630   1.691   4.997   1.229
 1897TIP3   OH2 5631   5.132   0.706   3.885
 1897TIP3    H1 5632   5.172   0.793   3.890
 1897TIP3    H2 5633   5.039   0.724   3.872
 1898TIP3   OH2 5634   5.976   5.011   6.679
 1898TIP3    H1 5635   5.895   4.989   6.632
 1898TIP3    H2 5636   6.044   4.963   6.632
 1899TIP3   OH2 5637   6.775   2.041   3.479
 1899TIP3    H1 5638   6.813   1.974   3.422
 1899TIP3    H2 5639   6.699   1.998   3.519
 1900TIP3   OH2 5640   0.295   0.811   1.713
 1900TIP3    H1 5641   0.303   0.748   1.785
 1900TIP3    H2 5642   0.252   0.762   1.643
 1901TIP3   OH2 5643   3.963   4.366   4.137
 1901TIP3    H1 5644   3.938   4.322   4.218
 1901TIP3    H2 5645   4.036   4.314   4.103
 1902TIP3   OH2 5646   0.920   5.678   4.796
 1902TIP3    H1 5647   0.900   5.587   4.774
 1902TIP3    H2 5648   0.847   5.728   4.758
 1903TIP3   OH2 5649   1.336   0.884   3.860
 1903TIP3    H1 5650   1.368   0.800   3.894
 1903TIP3    H2 5651   1.241   0.874   3.858
 1904TIP3   OH2 5652   1.508   5.879   3.226
 1904TIP3    H1 5653   1.454   5.891   3.147
 1904TIP3    H2 5654   1.464   5.932   3.292
 1905TIP3   OH2 5655   3.913   5.758   1.521
 1905TIP3    H1 5656   3.838   5.816   1.511
 1905TIP3    H2 5657   3.882   5.690   1.582
 1906TIP3   OH2 5658   5.303   7.796   2.967
 1906TIP3    H1 5659   5.339   7.714   3.002
 1906TIP3    H2 5660   5.336   7.864   3.026
 1907TIP3   OH2 5661   6.732   5.359   1.528
 1907TIP3    H1 5662   6.680   5.435   1.551
 1907TIP3    H2 5663   6.681   5.284   1.558
 1908TIP3   OH2 5664   7.668   2.106   3.360
 1908TIP3    H1 5665   7.672   2.035   3.425
 1908TIP3    H2 5666   7.759   2.121   3.336
 1909TIP3   OH2 5667   4.695   1.504   4.317
 1909TIP3    H1 5668   4.745   1.505   4.398
 1909TIP3    H2 5669   4.644   1.424   4.320
 1910TIP3   OH2 5670   4.157   3.016   4.862
 1910TIP3    H1 5671   4.207   3.090   4.826
 1910TIP3    H2 5672   4.204   2.992   4.942
 1911TIP3   OH2 5673   6.703   5.583   0.149
 1911TIP3    H1 5674   6.731   5.667   0.112
 1911TIP3    H2 5675   6.625   5.560   0.099
 1912TIP3   OH2 5676   3.518   1.698   5.134
 1912TIP3    H1 5677   3.594   1.755   5.142
 1912TIP3    H2 5678   3.554   1.614   5.104
 1913TIP3   OH2 5679   5.511   3.932   2.207
 1913TIP3    H1 5680   5.439   3.959   2.149
 1913TIP3    H2 5681   5.469   3.921   2.292
 1914TIP3   OH2 5682   3.514   7.553   6.674
 1914TIP3    H1 5683   3.533   7.551   6.580
 1914TIP3    H2 5684   3.555   7.634   6.705
 1915TIP3   OH2 5685   4.288   3.179   5.389
 1915TIP3    H1 5686   4.270   3.169   5.295
 1915TIP3    H2 5687   4.380   3.157   5.398
 1916TIP3   OH2 5688   1.251   3.529   6.820
 1916TIP3    H1 5689   1.224   3.448   6.777
 1916TIP3    H2 5690   1.292   3.580   6.751
 1917TIP3   OH2 5691   5.967   0.974   4.138
 1917TIP3    H1 5692   5.952   0.879   4.148
 1917TIP3    H2 5693   5.930   1.012   4.218
 1918TIP3   OH2 5694   8.046   4.539   2.145
 1918TIP3    H1 5695   7.971   4.496   2.105
 1918TIP3    H2 5696   8.122   4.498   2.104
 1919TIP3   OH2 5697   7.668   5.854   1.698
 1919TIP3    H1 5698   7.608   5.847   1.624
 1919TIP3    H2 5699   7.755   5.852   1.658
 1920TIP3   OH2 5700   1.454   6.757   1.988
 1920TIP3    H1 5701   1.515   6.828   2.004
 1920TIP3    H2 5702   1.420   6.773   1.900
 1921TIP3   OH2 5703   3.960   7.788   3.475
 1921TIP3    H1 5704   3.866   7.801   3.464
 1921TIP3    H2 5705   3.988   7.746   3.393
 1922TIP3   OH2 5706   0.158   4.428   5.258
 1922TIP3    H1 5707   0.067   4.446   5.283
 1922TIP3    H2 5708   0.186   4.359   5.317
 1923TIP3   OH2 5709   0.223   6.950   0.134
 1923TIP3    H1 5710   0.242   7.041   0.158
 1923TIP3    H2 5711   0.201   6.908   0.217
 1924TIP3   OH2 5712   6.909   2.569   3.491
 1924TIP3    H1 5713   6.995   2.530   3.504
 1924TIP3    H2 5714   6.918   2.659   3.522
 1925TIP3   OH2 5715   5.716   1.473   2.900
 1925TIP3    H1 5716   5.644   1.509   2.951
 1925TIP3    H2 5717   5.771   1.548   2.879
 1926TIP3   OH2 5718   3.960   6.237   6.359
 1926TIP3    H1 5719   4.054   6.223   6.360
 1926TIP3    H2 5720   3.924   6.158   6.320
 1927TIP3   OH2 5721   2.388   2.000   0.536
 1927TIP3    H1 5722   2.436   2.080   0.556
 1927TIP3    H2 5723   2.312   2.002   0.594
 1928TIP3   OH2 5724   5.210   4.952   2.047
 1928TIP3    H1 5725   5.139   4.895   2.017
 1928TIP3    H2 5726   5.166   5.030   2.079
 1929TIP3   OH2 5727   8.150   0.371   1.029
 1929TIP3    H1 5728   8.080   0.405   1.084
 1929TIP3    H2 5729   8.111   0.364   0.942
 1930TIP3   OH2 5730   6.385   3.767   5.881
 1930TIP3    H1 5731   6.471   3.778   5.921
 1930TIP3    H2 5732   6.367   3.851   5.838
 1931TIP3   OH2 5733   4.650   3.486   1.922
 1931TIP3    H1 5734   4.740   3.460   1.943
 1931TIP3    H2 5735   4.630   3.442   1.840
 1932TIP3   OH2 5736   7.582   4.548   2.445
 1932TIP3    H1 5737   7.663   4.556   2.495
 1932TIP3    H2 5738   7.600   4.593   2.362
 1933TIP3   OH2 5739   3.657   3.003   4.776
 1933TIP3    H1 5740   3.740   3.041   4.748
 1933TIP3    H2 5741   3.652   3.021   4.869
 1934TIP3   OH2 5742   2.052   4.441   6.188
 1934TIP3    H1 5743   2.012   4.468   6.271
 1934TIP3    H2 5744   2.108   4.367   6.211
 1935TIP3   OH2 5745   6.978   0.165   6.207
 1935TIP3    H1 5746   7.058   0.125   6.243
 1935TIP3    H2 5747   6.926   0.188   6.284
 1936TIP3   OH2 5748   5.969   1.497   0.984
 1936TIP3    H1 5749   6.027   1.528   1.054
 1936TIP3    H2 5750   5.977   1.563   0.916
 1937TIP3   OH2 5751   5.749   3.135   2.229
 1937TIP3    H1 5752   5.843   3.123   2.230
 1937TIP3    H2 5753   5.734   3.217   2.277
 1938TIP3   OH2 5754   6.097   6.002   4.843
 1938TIP3    H1 5755   6.176   6.034   4.801
 1938TIP3    H2 5756   6.062   6.079   4.888
 1939TIP3   OH2 5757   8.275   2.180   3.251
 1939TIP3    H1 5758   8.203   2.127   3.217
 1939TIP3    H2 5759   8.285   2.251   3.188
 1940TIP3   OH2 5760   6.459   4.640   6.861
 1940TIP3    H1 5761   6.380   4.603   6.821
 1940TIP3    H2 5762   6.491   4.571   6.919
 1941TIP3   OH2 5763   2.478   3.356   1.423
 1941TIP3    H1 5764   2.431   3.286   1.377
 1941TIP3    H2 5765   2.548   3.311   1.470
 1942TIP3   OH2 5766   5.189   0.928   2.952
 1942TIP3    H1 5767   5.235   1.007   2.983
 1942TIP3    H2 5768   5.231   0.909   2.868
 1943TIP3   OH2 5769   6.407   1.070   0.863
 1943TIP3    H1 5770   6.405   0.985   0.819
 1943TIP3    H2 5771   6.318   1.104   0.852
 1944TIP3   OH2 5772   0.120   2.659   5.398
 1944TIP3    H1 5773   0.166   2.611   5.466
 1944TIP3    H2 5774   0.180   2.658   5.323
 1945TIP3   OH2 5775   6.639   4.291   4.799
 1945TIP3    H1 5776   6.634   4.196   4.807
 1945TIP3    H2 5777   6.600   4.324   4.880
 1946TIP3   OH2 5778   8.185   7.359   5.658
 1946TIP3    H1 5779   8.180   7.455   5.662
 1946TIP3    H2 5780   8.236   7.341   5.579
 1947TIP3   OH2 5781   1.630   6.096   0.511
 1947TIP3    H1 5782   1.670   6.085   0.425
 1947TIP3    H2 5783   1.645   6.188   0.533
 1948TIP3   OH2 5784   0.257   0.862   2.377
 1948TIP3    H1 5785   0.347   0.886   2.353
 1948TIP3    H2 5786   0.263   0.770   2.402
 1949TIP3   OH2 5787   7.010   5.778   1.495
 1949TIP3    H1 5788   7.039   5.687   1.503
 1949TIP3    H2 5789   7.042   5.807   1.410
 1950TIP3   OH2 5790   1.384   5.334   5.488
 1950TIP3    H1 5791   1.428   5.256   5.454
 1950TIP3    H2 5792   1.432   5.355   5.568
 1951TIP3   OH2 5793   2.404   3.076   1.004
 1951TIP3    H1 5794   2.370   3.108   0.921
 1951TIP3    H2 5795   2.499   3.078   0.995
 1952TIP3   OH2 5796   5.433   1.946   1.284
 1952TIP3    H1 5797   5.500   1.973   1.221
 1952TIP3    H2 5798   5.449   1.852   1.298
 1953TIP3   OH2 5799   7.955   5.600   1.273
 1953TIP3    H1 5800   7.873   5.613   1.226
 1953TIP3    H2 5801   8.015   5.663   1.235
 1954TIP3   OH2 5802   5.272   5.182   4.424
 1954TIP3    H1 5803   5.226   5.098   4.432
 1954TIP3    H2 5804   5.365   5.158   4.428
 1955TIP3   OH2 5805   0.517   1.980   5.527
 1955TIP3    H1 5806   0.588   1.985   5.591
 1955TIP3    H2 5807   0.511   2.069   5.491
 1956TIP3   OH2 5808   1.876   7.227   3.493
 1956TIP3    H1 5809   1.856   7.146   3.446
 1956TIP3    H2 5810   1.849   7.211   3.583
 1957TIP3   OH2 5811   4.795   1.075   5.185
 1957TIP3    H1 5812   4.804   1.039   5.273
 1957TIP3    H2 5813   4.824   1.004   5.127
 1958TIP3   OH2 5814   5.711   1.183   0.245
 1958TIP3    H1 5815   5.649   1.112   0.264
 1958TIP3    H2 5816   5.665   1.263   0.270
 1959TIP3   OH2 5817   1.499   0.398   3.198
 1959TIP3    H1 5818   1.483   0.445   3.116
 1959TIP3    H2 5819   1.435   0.434   3.260
 1960TIP3   OH2 5820   6.484   3.788   4.823
 1960TIP3    H1 5821   6.476   3.697   4.795
 1960TIP3    H2 5822   6.572   3.794   4.861
 1961TIP3   OH2 5823   6.869   0.934   5.655
 1961TIP3    H1 5824   6.890   0.873   5.725
 1961TIP3    H2 5825   6.912   0.897   5.578
 1962TIP3   OH2 5826   4.692   3.243   4.516
 1962TIP3    H1 5827   4.693   3.215   4.424
 1962TIP3    H2 5828   4.679   3.163   4.565
 1963TIP3   OH2 5829   0.735   0.330   0.937
 1963TIP3    H1 5830   0.700   0.262   0.880
 1963TIP3    H2 5831   0.810   0.365   0.890
 1964TIP3   OH2 5832   1.366   4.593   3.803
 1964TIP3    H1 5833   1.347   4.673   3.852
 1964TIP3    H2 5834   1.434   4.549   3.854
 1965TIP3   OH2 5835   8.045   6.457   2.306
 1965TIP3    H1 5836   7.973   6.489   2.251
 1965TIP3    H2 5837   8.002   6.412   2.378
 1966TIP3   OH2 5838   7.480   0.463   5.867
 1966TIP3    H1 5839   7.386   0.455   5.884
 1966TIP3    H2 5840   7.487   0.523   5.794
 1967TIP3   OH2 5841   6.519   2.223   0.299
 1967TIP3    H1 5842   6.579   2.210   0.225
 1967TIP3    H2 5843   6.439   2.257   0.259
 1968TIP3   OH2 5844   1.444   3.469  -0.005
 1968TIP3    H1 5845   1.416   3.377  -0.007
 1968TIP3    H2 5846   1.389   3.509   0.063
 1969TIP3   OH2 5847   3.631   3.331   6.467
 1969TIP3    H1 5848   3.674   3.248   6.448
 1969TIP3    H2 5849   3.539   3.317   6.443
 1970TIP3   OH2 5850   4.636   1.537   1.893
 1970TIP3    H1 5851   4.653   1.631   1.894
 1970TIP3    H2 5852   4.581   1.522   1.969
 1971TIP3   OH2 5853   2.003   0.130   0.912
 1971TIP3    H1 5854   2.044   0.216   0.924
 1971TIP3    H2 5855   1.939   0.123   0.982
 1972TIP3   OH2 5856   5.073   0.165   5.443
 1972TIP3    H1 5857   5.000   0.109   5.470
 1972TIP3    H2 5858   5.034   0.229   5.383
 1973TIP3   OH2 5859   4.916   1.209   4.992
 1973TIP3    H1 5860   4.911   1.170   5.080
 1973TIP3    H2 5861   4.944   1.137   4.936
 1974TIP3   OH2 5862   6.096   2.101   2.306
 1974TIP3    H1 5863   6.143   2.065   2.381
 1974TIP3    H2 5864   6.087   2.195   2.326
 1975TIP3   OH2 5865   2.012   7.109   3.131
 1975TIP3    H1 5866   2.077   7.120   3.062
 1975TIP3    H2 5867   2.011   7.015   3.150
 1976TIP3   OH2 5868   4.782   2.308   2.237
 1976TIP3    H1 5869   4.710   2.356   2.278
 1976TIP3    H2 5870   4.745   2.274   2.156
 1977TIP3   OH2 5871   0.899   6.188   2.943
 1977TIP3    H1 5872   0.804   6.197   2.938
 1977TIP3    H2 5873   0.923   6.237   3.022
 1978TIP3   OH2 5874   2.862   2.223   6.145
 1978TIP3    H1 5875   2.884   2.287   6.077
 1978TIP3    H2 5876   2.946   2.188   6.174
 1979TIP3   OH2 5877   5.710   0.229   1.259
 1979TIP3    H1 5878   5.643   0.298   1.260
 1979TIP3    H2 5879   5.783   0.267   1.210
 1980TIP3   OH2 5880   6.377   7.503   2.753
 1980TIP3    H1 5881   6.310   7.450   2.797
 1980TIP3    H2 5882   6.446   7.514   2.818
 1981TIP3   OH2 5883   0.404   4.786   5.118
 1981TIP3    H1 5884   0.443   4.705   5.087
 1981TIP3    H2 5885   0.430   4.792   5.210
 1982TIP3   OH2 5886   0.696   2.820   2.723
 1982TIP3    H1 5887   0.668   2.884   2.657
 1982TIP3    H2 5888   0.663   2.854   2.806
 1983TIP3   OH2 5889   1.613   4.404   0.604
 1983TIP3    H1 5890   1.705   4.424   0.584
 1983TIP3    H2 5891   1.609   4.309   0.609
 1984TIP3   OH2 5892   8.163   0.683   3.858
 1984TIP3    H1 5893   8.076   0.674   3.898
 1984TIP3    H2 5894   8.219   0.711   3.931
 1985TIP3   OH2 5895   1.626   4.556   2.515
 1985TIP3    H1 5896   1.538   4.520   2.532
 1985TIP3    H2 5897   1.616   4.605   2.433
 1986TIP3   OH2 5898   6.343   6.746   2.813
 1986TIP3    H1 5899   6.301   6.672   2.858
 1986TIP3    H2 5900   6.303   6.823   2.852
 1987TIP3   OH2 5901   1.814   2.612   2.230
 1987TIP3    H1 5902   1.739   2.591   2.175
 1987TIP3    H2 5903   1.854   2.688   2.188
 1988TIP3   OH2 5904   0.732   5.370   0.055
 1988TIP3    H1 5905   0.657   5.429   0.049
 1988TIP3    H2 5906   0.808   5.426   0.040
 1989TIP3   OH2 5907   3.189   4.990   4.913
 1989TIP3    H1 5908   3.136   5.035   4.979
 1989TIP3    H2 5909   3.156   4.901   4.913
 1990TIP3   OH2 5910   5.005   0.608   0.018
 1990TIP3    H1 5911   4.997   0.588   0.111
 1990TIP3    H2 5912   5.099   0.608   0.001
 1991TIP3   OH2 5913   1.248   3.343   1.600
 1991TIP3    H1 5914   1.169   3.304   1.563
 1991TIP3    H2 5915   1.308   3.349   1.526
 1992TIP3   OH2 5916   7.151   7.396   3.009
 1992TIP3    H1 5917   7.150   7.323   3.071
 1992TIP3    H2 5918   7.169   7.355   2.924
 1993TIP3   OH2 5919   6.574   2.896   2.757
 1993TIP3    H1 5920   6.596   2.929   2.670
 1993TIP3    H2 5921   6.479   2.902   2.762
 1994TIP3   OH2 5922   6.818   0.503   1.691
 1994TIP3    H1 5923   6.770   0.544   1.763
 1994TIP3    H2 5924   6.860   0.575   1.645
 1995TIP3   OH2 5925   8.300   5.354   0.510
 1995TIP3    H1 5926   8.316   5.269   0.469
 1995TIP3    H2 5927   8.245   5.401   0.448
 1996TIP3   OH2 5928   0.828   0.664   3.143
 1996TIP3    H1 5929   0.803   0.680   3.053
 1996TIP3    H2 5930   0.910   0.713   3.155
 1997TIP3   OH2 5931   5.714   7.773   4.699
 1997TIP3    H1 5932   5.694   7.702   4.639
 1997TIP3    H2 5933   5.642   7.773   4.762
 1998TIP3   OH2 5934   2.661   1.596   0.478
 1998TIP3    H1 5935   2.707   1.609   0.395
 1998TIP3    H2 5936   2.691   1.511   0.509
 1999TIP3   OH2 5937   8.110   5.419   0.734
 1999TIP3    H1 5938   8.162   5.377   0.666
 1999TIP3    H2 5939   8.147   5.385   0.816
 2000TIP3   OH2 5940   3.843   5.953   1.181
 2000TIP3    H1 5941   3.914   5.965   1.117
 2000TIP3    H2 5942   3.796   6.036   1.181
 2001TIP3   OH2 5943   2.036   6.572   4.237
 2001TIP3    H1 5944   2.014   6.601   4.326
 2001TIP3    H2 5945   2.124   6.535   4.245
 2002TIP3   OH2 5946   2.082   5.178   5.534
 2002TIP3    H1 5947   2.023   5.198   5.461
 2002TIP3    H2 5948   2.169   5.201   5.501
 2003TIP3   OH2 5949   6.827   1.791   3.685
 2003TIP3    H1 5950   6.736   1.778   3.713
 2003TIP3    H2 5951   6.873   1.712   3.714
 2004TIP3   OH2 5952   8.027   0.202   6.734
 2004TIP3    H1 5953   8.029   0.298   6.737
 2004TIP3    H2 5954   8.018   0.182   6.641
 2005TIP3   OH2 5955   4.855   2.626   5.372
 2005TIP3    H1 5956   4.850   2.691   5.441
 2005TIP3    H2 5957   4.776   2.641   5.319
 2006TIP3   OH2 5958   2.199   1.942   3.005
 2006TIP3    H1 5959   2.141   2.016   3.020
 2006TIP3    H2 5960   2.143   1.873   2.968
 2007TIP3   OH2 5961   6.364   0.598   4.399
 2007TIP3    H1 5962   6.274   0.616   4.374
 2007TIP3    H2 5963   6.410   0.681   4.386
 2008TIP3   OH2 5964   4.993   1.383   1.330
 2008TIP3    H1 5965   5.072   1.433   1.347
 2008TIP3    H2 5966   4.953   1.425   1.254
 2009TIP3   OH2 5967   3.677   7.016   0.573
 2009TIP3    H1 5968   3.727   7.017   0.491
 2009TIP3    H2 5969   3.733   6.969   0.634
 2010TIP3   OH2 5970   4.719   4.899   0.355
 2010TIP3    H1 5971   4.780   4.972   0.343
 2010TIP3    H2 5972   4.765   4.824   0.318
 2011TIP3   OH2 5973   8.402   0.210   2.618
 2011TIP3    H1 5974   8.414   0.116   2.633
 2011TIP3    H2 5975   8.360   0.216   2.533
 2012TIP3   OH2 5976   5.135   6.248   2.893
 2012TIP3    H1 5977   5.145   6.326   2.839
 2012TIP3    H2 5978   5.062   6.201   2.854
 2013TIP3   OH2 5979   5.372   6.103   2.793
 2013TIP3    H1 5980   5.368   6.026   2.849
 2013TIP3    H2 5981   5.324   6.171   2.842
 2014TIP3   OH2 5982   6.322   4.924   0.617
 2014TIP3    H1 5983   6.396   4.899   0.563
 2014TIP3    H2 5984   6.357   4.928   0.706
 2015TIP3   OH2 5985   0.377   7.568   4.363
 2015TIP3    H1 5986   0.403   7.627   4.434
 2015TIP3    H2 5987   0.380   7.481   4.402
 2016TIP3   OH2 5988   1.289   1.552   0.085
 2016TIP3    H1 5989   1.304   1.641   0.117
 2016TIP3    H2 5990   1.195   1.549   0.067
 2017TIP3   OH2 5991   0.002   2.411   0.410
 2017TIP3    H1 5992  -0.072   2.418   0.470
 2017TIP3    H2 5993   0.058   2.343   0.448
 2018TIP3   OH2 5994   1.543   6.405   1.733
 2018TIP3    H1 5995   1.511   6.460   1.661
 2018TIP3    H2 5996   1.498   6.322   1.722
 2019TIP3   OH2 5997   2.232   1.504   1.552
 2019TIP3    H1 5998   2.196   1.592   1.539
 2019TIP3    H2 5999   2.159   1.445   1.536
 2020TIP3   OH2 6000   2.771   3.642   6.315
 2020TIP3    H1 6001   2.866   3.628   6.317
 2020TIP3    H2 6002   2.761   3.733   6.285
 2021TIP3   OH2 6003   1.377   0.308   6.389
 2021TIP3    H1 6004   1.415   0.326   6.475
 2021TIP3    H2 6005   1.451   0.281   6.335
 2022TIP3   OH2 6006  -0.019   2.710   1.965
 2022TIP3    H1 6007   0.021   2.783   2.012
 2022TIP3    H2 6008   0.004   2.633   2.017
 2023TIP3   OH2 6009   7.343   1.089   4.414
 2023TIP3    H1 6010   7.255   1.053   4.424
 2023TIP3    H2 6011   7.337   1.178   4.450
 2024TIP3   OH2 6012   4.508   7.587   4.072
 2024TIP3    H1 6013   4.413   7.579   4.072
 2024TIP3    H2 6014   4.525   7.675   4.038
 2025TIP3   OH2 6015   6.182   7.521   1.460
 2025TIP3    H1 6016   6.177   7.573   1.541
 2025TIP3    H2 6017   6.091   7.501   1.439
 2026TIP3   OH2 6018   7.517   4.530   5.910
 2026TIP3    H1 6019   7.556   4.533   5.823
 2026TIP3    H2 6020   7.426   4.554   5.897
 2027TIP3   OH2 6021   5.695   0.432   5.356
 2027TIP3    H1 6022   5.717   0.498   5.291
 2027TIP3    H2 6023   5.599   0.427   5.353
 2028TIP3   OH2 6024   0.652   1.706   1.342
 2028TIP3    H1 6025   0.677   1.792   1.376
 2028TIP3    H2 6026   0.618   1.725   1.254
 2029TIP3   OH2 6027   0.629   6.226   2.966
 2029TIP3    H1 6028   0.614   6.177   3.047
 2029TIP3    H2 6029   0.579   6.306   2.977
 2030TIP3   OH2 6030   3.804   2.364   0.704
 2030TIP3    H1 6031   3.780   2.453   0.728
 2030TIP3    H2 6032   3.744   2.308   0.753
 2031TIP3   OH2 6033   7.528   4.029   2.297
 2031TIP3    H1 6034   7.468   3.971   2.343
 2031TIP3    H2 6035   7.612   3.983   2.297
 2032TIP3   OH2 6036   3.227   4.259   0.585
 2032TIP3    H1 6037   3.197   4.337   0.631
 2032TIP3    H2 6038   3.168   4.251   0.510
 2033TIP3   OH2 6039   6.344   3.691   5.106
 2033TIP3    H1 6040   6.431   3.667   5.138
 2033TIP3    H2 6041   6.351   3.784   5.086
 2034TIP3   OH2 6042   8.183   1.279   3.185
 2034TIP3    H1 6043   8.111   1.341   3.176
 2034TIP3    H2 6044   8.262   1.334   3.182
 2035TIP3   OH2 6045   4.309   6.612   0.920
 2035TIP3    H1 6046   4.350   6.578   0.840
 2035TIP3    H2 6047   4.326   6.545   0.986
 2036TIP3   OH2 6048   8.233   1.214   3.465
 2036TIP3    H1 6049   8.275   1.213   3.379
 2036TIP3    H2 6050   8.303   1.189   3.526
 2037TIP3   OH2 6051   3.384   1.437   2.786
 2037TIP3    H1 6052   3.319   1.452   2.855
 2037TIP3    H2 6053   3.443   1.512   2.792
 2038TIP3   OH2 6054   1.207   0.463   5.864
 2038TIP3    H1 6055   1.210   0.501   5.776
 2038TIP3    H2 6056   1.117   0.477   5.893
 2039TIP3   OH2 6057   3.532   6.783   1.580
 2039TIP3    H1 6058   3.567   6.748   1.662
 2039TIP3    H2 6059   3.528   6.878   1.594
 2040TIP3   OH2 6060   0.191   6.641   2.950
 2040TIP3    H1 6061   0.121   6.703   2.930
 2040TIP3    H2 6062   0.242   6.635   2.869
 2041TIP3   OH2 6063   6.656   0.978   5.013
 2041TIP3    H1 6064   6.592   0.910   5.031
 2041TIP3    H2 6065   6.606   1.050   4.974
 2042TIP3   OH2 6066   0.030   0.147   5.283
 2042TIP3    H1 6067  -0.003   0.144   5.193
 2042TIP3    H2 6068   0.120   0.115   5.277
 2043TIP3   OH2 6069   6.857   2.254   3.762
 2043TIP3    H1 6070   6.767   2.283   3.780
 2043TIP3    H2 6071   6.908   2.286   3.836
 2044TIP3   OH2 6072   6.557   5.197   5.045
 2044TIP3    H1 6073   6.481   5.235   5.089
 2044TIP3    H2 6074   6.623   5.266   5.047
 2045TIP3   OH2 6075   3.044   7.371   2.602
 2045TIP3    H1 6076   3.014   7.447   2.552
 2045TIP3    H2 6077   3.011   7.387   2.691
 2046TIP3   OH2 6078   7.855   4.947   3.670
 2046TIP3    H1 6079   7.766   4.956   3.704
 2046TIP3    H2 6080   7.851   4.986   3.583
 2047TIP3   OH2 6081   7.375   7.271   1.415
 2047TIP3    H1 6082   7.351   7.238   1.502
 2047TIP3    H2 6083   7.463   7.236   1.400
 2048TIP3   OH2 6084   7.738   1.938   1.640
 2048TIP3    H1 6085   7.693   1.978   1.714
 2048TIP3    H2 6086   7.733   1.844   1.657
 2049TIP3   OH2 6087   1.582   1.966   6.055
 2049TIP3    H1 6088   1.675   1.985   6.059
 2049TIP3    H2 6089   1.567   1.903   6.126
 2050TIP3   OH2 6090   0.716   4.125   4.072
 2050TIP3    H1 6091   0.650   4.066   4.106
 2050TIP3    H2 6092   0.694   4.136   3.980
 2051TIP3   OH2 6093   1.969   0.467   4.530
 2051TIP3    H1 6094   1.883   0.445   4.495
 2051TIP3    H2 6095   1.960   0.557   4.562
 2052TIP3   OH2 6096   4.270   0.292   3.725
 2052TIP3    H1 6097   4.359   0.256   3.729
 2052TIP3    H2 6098   4.262   0.324   3.635
 2053TIP3   OH2 6099   0.697   1.446   3.027
 2053TIP3    H1 6100   0.733   1.465   3.114
 2053TIP3    H2 6101   0.775   1.437   2.971
 2054TIP3   OH2 6102   3.221   3.528   0.106
 2054TIP3    H1 6103   3.250   3.495   0.192
 2054TIP3    H2 6104   3.150   3.589   0.127
 2055TIP3   OH2 6105   0.446   2.471   2.159
 2055TIP3    H1 6106   0.383   2.404   2.183
 2055TIP3    H2 6107   0.392   2.544   2.126
 2056TIP3   OH2 6108   1.720   5.026   0.393
 2056TIP3    H1 6109   1.741   4.934   0.375
 2056TIP3    H2 6110   1.742   5.038   0.485
 2057TIP3   OH2 6111   7.968   5.378   4.032
 2057TIP3    H1 6112   7.910   5.434   4.082
 2057TIP3    H2 6113   7.957   5.406   3.941
 2058TIP3   OH2 6114   7.978   5.532   4.741
 2058TIP3    H1 6115   8.031   5.603   4.776
 2058TIP3    H2 6116   7.893   5.573   4.722
 2059TIP3   OH2 6117   7.795   0.727   6.577
 2059TIP3    H1 6118   7.782   0.820   6.597
 2059TIP3    H2 6119   7.855   0.696   6.644
 2060TIP3   OH2 6120   6.074   3.579   1.205
 2060TIP3    H1 6121   6.169   3.579   1.196
 2060TIP3    H2 6122   6.055   3.645   1.271
 2061TIP3   OH2 6123   0.181   4.828   0.791
 2061TIP3    H1 6124   0.272   4.858   0.784
 2061TIP3    H2 6125   0.129   4.906   0.776
 2062TIP3   OH2 6126   4.345   6.150   4.438
 2062TIP3    H1 6127   4.380   6.157   4.350
 2062TIP3    H2 6128   4.250   6.145   4.426
 2063TIP3   OH2 6129   4.808   4.593   6.587
 2063TIP3    H1 6130   4.836   4.515   6.539
 2063TIP3    H2 6131   4.824   4.572   6.679
 2064TIP3   OH2 6132   4.270   4.694   2.997
 2064TIP3    H1 6133   4.227   4.748   3.063
 2064TIP3    H2 6134   4.249   4.604   3.022
 2065TIP3   OH2 6135   3.111   4.074   1.296
 2065TIP3    H1 6136   3.098   4.007   1.229
 2065TIP3    H2 6137   3.099   4.157   1.249
 2066TIP3   OH2 6138   0.071   6.256   0.892
 2066TIP3    H1 6139   0.038   6.336   0.851
 2066TIP3    H2 6140  -0.005   6.221   0.939
 2067TIP3   OH2 6141   5.757   3.051   0.540
 2067TIP3    H1 6142   5.737   3.144   0.555
 2067TIP3    H2 6143   5.820   3.051   0.468
 2068TIP3   OH2 6144   8.350   4.386   6.085
 2068TIP3    H1 6145   8.330   4.292   6.086
 2068TIP3    H2 6146   8.277   4.426   6.132
 2069TIP3   OH2 6147   4.928   1.828   0.067
 2069TIP3    H1 6148   4.997   1.776   0.026
 2069TIP3    H2 6149   4.873   1.763   0.111
 2070TIP3   OH2 6150   4.620   5.354   3.729
 2070TIP3    H1 6151   4.527   5.332   3.741
 2070TIP3    H2 6152   4.627   5.443   3.763
 2071TIP3   OH2 6153   4.296   0.303   4.627
 2071TIP3    H1 6154   4.271   0.362   4.556
 2071TIP3    H2 6155   4.390   0.291   4.617
 2072TIP3   OH2 6156   4.382   7.690   3.232
 2072TIP3    H1 6157   4.435   7.762   3.265
 2072TIP3    H2 6158   4.292   7.713   3.257
 2073TIP3   OH2 6159   1.867   1.170   5.823
 2073TIP3    H1 6160   1.947   1.222   5.830
 2073TIP3    H2 6161   1.847   1.169   5.730
 2074TIP3   OH2 6162   4.074   3.336   6.371
 2074TIP3    H1 6163   4.072   3.241   6.355
 2074TIP3    H2 6164   4.019   3.372   6.302
 2075TIP3   OH2 6165   0.591   6.791   6.648
 2075TIP3    H1 6166   0.588   6.878   6.609
 2075TIP3    H2 6167   0.604   6.807   6.742
 2076TIP3   OH2 6168   1.038   0.833   3.192
 2076TIP3    H1 6169   1.116   0.877   3.228
 2076TIP3    H2 6170   1.027   0.873   3.105
 2077TIP3   OH2 6171   1.249   6.871   3.536
 2077TIP3    H1 6172   1.225   6.944   3.594
 2077TIP3    H2 6173   1.330   6.837   3.573
 2078TIP3   OH2 6174   8.129   1.277   1.326
 2078TIP3    H1 6175   8.165   1.328   1.253
 2078TIP3    H2 6176   8.156   1.187   1.308
 2079TIP3   OH2 6177   7.400   7.489   4.011
 2079TIP3    H1 6178   7.493   7.510   4.001
 2079TIP3    H2 6179   7.356   7.574   4.014
 2080TIP3   OH2 6180   3.726   7.703   5.526
 2080TIP3    H1 6181   3.649   7.663   5.486
 2080TIP3    H2 6182   3.708   7.797   5.525
 2081TIP3   OH2 6183   5.823   7.049   4.215
 2081TIP3    H1 6184   5.915   7.034   4.237
 2081TIP3    H2 6185   5.807   6.994   4.139
 2082TIP3   OH2 6186   7.048   1.943   5.585
 2082TIP3    H1 6187   6.992   1.876   5.624
 2082TIP3    H2 6188   7.082   1.904   5.505
 2083TIP3   OH2 6189   2.014   5.759   3.104
 2083TIP3    H1 6190   1.929   5.720   3.124
 2083TIP3    H2 6191   1.993   5.840   3.058
 2084TIP3   OH2 6192   2.891   0.735   1.545
 2084TIP3    H1 6193   2.824   0.670   1.526
 2084TIP3    H2 6194   2.855   0.817   1.510
 2085TIP3   OH2 6195   6.718   4.470   2.463
 2085TIP3    H1 6196   6.662   4.508   2.531
 2085TIP3    H2 6197   6.788   4.426   2.512
 2086TIP3   OH2 6198   4.238   4.220   0.777
 2086TIP3    H1 6199   4.274   4.307   0.796
 2086TIP3    H2 6200   4.160   4.215   0.832
 2087TIP3   OH2 6201   3.773   1.199   4.582
 2087TIP3    H1 6202   3.739   1.112   4.602
 2087TIP3    H2 6203   3.700   1.258   4.598
 2088TIP3   OH2 6204   0.384   2.433   2.648
 2088TIP3    H1 6205   0.416   2.487   2.576
 2088TIP3    H2 6206   0.291   2.456   2.655
 2089TIP3   OH2 6207   1.545   5.634   2.997
 2089TIP3    H1 6208   1.495   5.574   3.053
 2089TIP3    H2 6209   1.610   5.673   3.056
 2090TIP3   OH2 6210   8.138   1.624   0.065
 2090TIP3    H1 6211   8.044   1.617   0.084
 2090TIP3    H2 6212   8.162   1.537   0.035
 2091TIP3   OH2 6213   0.544   0.604   6.653
 2091TIP3    H1 6214   0.539   0.696   6.680
 2091TIP3    H2 6215   0.607   0.603   6.581
 2092TIP3   OH2 6216   0.824   4.480   5.851
 2092TIP3    H1 6217   0.857   4.562   5.888
 2092TIP3    H2 6218   0.742   4.465   5.899
 2093TIP3   OH2 6219   0.890   3.514   3.586
 2093TIP3    H1 6220   0.981   3.536   3.605
 2093TIP3    H2 6221   0.840   3.561   3.653
 2094TIP3   OH2 6222   6.207   2.031   3.038
 2094TIP3    H1 6223   6.146   2.103   3.022
 2094TIP3    H2 6224   6.275   2.042   2.972
 2095TIP3   OH2 6225   7.115   0.644   2.298
 2095TIP3    H1 6226   7.178   0.635   2.370
 2095TIP3    H2 6227   7.060   0.719   2.323
 2096TIP3   OH2 6228   7.338   6.563   3.982
 2096TIP3    H1 6229   7.359   6.631   4.046
 2096TIP3    H2 6230   7.347   6.480   4.030
 2097TIP3   OH2 6231   0.899   2.797   5.234
 2097TIP3    H1 6232   0.814   2.770   5.202
 2097TIP3    H2 6233   0.906   2.759   5.321
 2098TIP3   OH2 6234   4.586   1.690   1.557
 2098TIP3    H1 6235   4.582   1.721   1.647
 2098TIP3    H2 6236   4.582   1.769   1.504
 2099TIP3   OH2 6237   4.317   5.063   0.395
 2099TIP3    H1 6238   4.241   5.062   0.338
 2099TIP3    H2 6239   4.391   5.050   0.336
 2100TIP3   OH2 6240   5.422   3.936   5.429
 2100TIP3    H1 6241   5.453   3.873   5.364
 2100TIP3    H2 6242   5.343   3.897   5.466
 2101TIP3   OH2 6243   3.179   0.455   3.399
 2101TIP3    H1 6244   3.114   0.438   3.468
 2101TIP3    H2 6245   3.146   0.409   3.322
 2102TIP3   OH2 6246   1.009   5.401   2.423
 2102TIP3    H1 6247   1.011   5.492   2.453
 2102TIP3    H2 6248   1.102   5.377   2.414
 2103TIP3   OH2 6249   3.407   3.796   2.843
 2103TIP3    H1 6250   3.434   3.716   2.887
 2103TIP3    H2 6251   3.444   3.866   2.897
 2104TIP3   OH2 6252   1.799   5.121   2.789
 2104TIP3    H1 6253   1.853   5.127   2.868
 2104TIP3    H2 6254   1.711   5.098   2.822
 2105TIP3   OH2 6255   7.028   7.381   3.936
 2105TIP3    H1 6256   7.002   7.460   3.984
 2105TIP3    H2 6257   6.957   7.319   3.951
 2106TIP3   OH2 6258   0.970   4.417   1.817
 2106TIP3    H1 6259   1.049   4.450   1.774
 2106TIP3    H2 6260   0.949   4.484   1.883
 2107TIP3   OH2 6261   2.534   4.461   0.625
 2107TIP3    H1 6262   2.588   4.489   0.552
 2107TIP3    H2 6263   2.532   4.536   0.684
 2108TIP3   OH2 6264   6.187   7.155   0.606
 2108TIP3    H1 6265   6.127   7.146   0.532
 2108TIP3    H2 6266   6.261   7.205   0.571
 2109TIP3   OH2 6267   2.822   6.236  -0.015
 2109TIP3    H1 6268   2.889   6.305  -0.016
 2109TIP3    H2 6269   2.863   6.163  -0.062
 2110TIP3   OH2 6270   6.132   7.818   0.633
 2110TIP3    H1 6271   6.050   7.855   0.602
 2110TIP3    H2 6272   6.127   7.725   0.611
 2111TIP3   OH2 6273   3.296   5.381   4.290
 2111TIP3    H1 6274   3.346   5.454   4.328
 2111TIP3    H2 6275   3.224   5.423   4.244
 2112TIP3   OH2 6276   4.908   6.307   2.471
 2112TIP3    H1 6277   4.870   6.343   2.390
 2112TIP3    H2 6278   4.945   6.223   2.444
 2113TIP3   OH2 6279   7.160   6.608   3.522
 2113TIP3    H1 6280   7.091   6.643   3.465
 2113TIP3    H2 6281   7.217   6.559   3.462
 2114TIP3   OH2 6282   4.071   0.165   5.834
 2114TIP3    H1 6283   3.990   0.193   5.791
 2114TIP3    H2 6284   4.103   0.244   5.877
 2115TIP3   OH2 6285   8.371   4.519   4.825
 2115TIP3    H1 6286   8.431   4.552   4.891
 2115TIP3    H2 6287   8.363   4.425   4.844
 2116TIP3   OH2 6288   6.579   0.852   6.155
 2116TIP3    H1 6289   6.563   0.760   6.180
 2116TIP3    H2 6290   6.671   0.866   6.176
 2117TIP3   OH2 6291   5.776   3.296   0.140
 2117TIP3    H1 6292   5.766   3.209   0.181
 2117TIP3    H2 6293   5.690   3.316   0.104
 2118TIP3   OH2 6294   3.380   3.719   3.323
 2118TIP3    H1 6295   3.445   3.787   3.303
 2118TIP3    H2 6296   3.314   3.729   3.254
 2119TIP3   OH2 6297   3.395   2.627   3.689
 2119TIP3    H1 6298   3.417   2.719   3.672
 2119TIP3    H2 6299   3.386   2.622   3.784
 2120TIP3   OH2 6300   4.022   7.403   4.751
 2120TIP3    H1 6301   3.989   7.471   4.810
 2120TIP3    H2 6302   4.019   7.322   4.803
 2121TIP3   OH2 6303   3.856   6.828   0.673
 2121TIP3    H1 6304   3.917   6.862   0.607
 2121TIP3    H2 6305   3.912   6.802   0.746
 2122TIP3   OH2 6306   0.974   1.669   4.843
 2122TIP3    H1 6307   0.916   1.745   4.849
 2122TIP3    H2 6308   0.926   1.606   4.789
 2123TIP3   OH2 6309   7.210   5.674   5.380
 2123TIP3    H1 6310   7.116   5.662   5.367
 2123TIP3    H2 6311   7.251   5.629   5.307
 2124TIP3   OH2 6312   8.177   7.428   4.001
 2124TIP3    H1 6313   8.223   7.456   3.921
 2124TIP3    H2 6314   8.088   7.461   3.990
 2125TIP3   OH2 6315   4.818   3.858   3.558
 2125TIP3    H1 6316   4.894   3.916   3.569
 2125TIP3    H2 6317   4.749   3.900   3.609
 2126TIP3   OH2 6318   0.214   4.502   2.274
 2126TIP3    H1 6319   0.174   4.504   2.187
 2126TIP3    H2 6320   0.206   4.411   2.302
 2127TIP3   OH2 6321   0.814   0.076   4.976
 2127TIP3    H1 6322   0.748   0.110   5.037
 2127TIP3    H2 6323   0.774  -0.004   4.940
 2128TIP3   OH2 6324   4.964   6.421   1.006
 2128TIP3    H1 6325   4.997   6.384   1.088
 2128TIP3    H2 6326   5.041   6.454   0.961
 2129TIP3   OH2 6327   4.715   5.268   1.836
 2129TIP3    H1 6328   4.764   5.329   1.782
 2129TIP3    H2 6329   4.663   5.323   1.894
 2130TIP3   OH2 6330   2.509   0.633   1.779
 2130TIP3    H1 6331   2.552   0.635   1.865
 2130TIP3    H2 6332   2.502   0.540   1.758
 2131TIP3   OH2 6333   8.284   3.605   3.417
 2131TIP3    H1 6334   8.346   3.592   3.346
 2131TIP3    H2 6335   8.335   3.648   3.486
 2132TIP3   OH2 6336   7.167   0.404   6.336
 2132TIP3    H1 6337   7.233   0.347   6.296
 2132TIP3    H2 6338   7.178   0.390   6.431
 2133TIP3   OH2 6339   1.447   0.405   5.302
 2133TIP3    H1 6340   1.504   0.437   5.232
 2133TIP3    H2 6341   1.501   0.408   5.380
 2134TIP3   OH2 6342   6.664   7.243   2.169
 2134TIP3    H1 6343   6.688   7.243   2.261
 2134TIP3    H2 6344   6.719   7.311   2.130
 2135TIP3   OH2 6345   2.309   6.584   4.215
 2135TIP3    H1 6346   2.355   6.522   4.158
 2135TIP3    H2 6347   2.310   6.666   4.165
 2136TIP3   OH2 6348   5.512   2.780   4.052
 2136TIP3    H1 6349   5.578   2.849   4.061
 2136TIP3    H2 6350   5.534   2.736   3.970
 2137TIP3   OH2 6351   7.015   6.530   1.891
 2137TIP3    H1 6352   7.038   6.581   1.813
 2137TIP3    H2 6353   6.958   6.588   1.942
 2138TIP3   OH2 6354   5.645   4.990   2.406
 2138TIP3    H1 6355   5.624   4.945   2.488
 2138TIP3    H2 6356   5.672   5.078   2.433
 2139TIP3   OH2 6357   3.447   6.625   5.611
 2139TIP3    H1 6358   3.472   6.678   5.687
 2139TIP3    H2 6359   3.355   6.645   5.597
 2140TIP3   OH2 6360   3.439   6.943   5.542
 2140TIP3    H1 6361   3.453   6.887   5.618
 2140TIP3    H2 6362   3.423   6.881   5.470
 2141TIP3   OH2 6363   4.500   1.173   4.264
 2141TIP3    H1 6364   4.450   1.133   4.193
 2141TIP3    H2 6365   4.591   1.155   4.243
 2142TIP3   OH2 6366   3.880   1.061   3.071
 2142TIP3    H1 6367   3.842   1.035   3.155
 2142TIP3    H2 6368   3.876   0.982   3.017
 2143TIP3   OH2 6369   0.329   3.283   1.413
 2143TIP3    H1 6370   0.350   3.200   1.370
 2143TIP3    H2 6371   0.350   3.350   1.348
 2144TIP3   OH2 6372   2.175   6.202   1.962
 2144TIP3    H1 6373   2.177   6.213   2.057
 2144TIP3    H2 6374   2.256   6.243   1.931
 2145TIP3   OH2 6375   2.314   6.347   1.772
 2145TIP3    H1 6376   2.371   6.300   1.711
 2145TIP3    H2 6377   2.333   6.440   1.755
 2146TIP3   OH2 6378   8.262   7.689   6.196
 2146TIP3    H1 6379   8.323   7.620   6.220
 2146TIP3    H2 6380   8.198   7.692   6.267
 2147TIP3   OH2 6381   6.177   7.102   3.045
 2147TIP3    H1 6382   6.233   7.025   3.054
 2147TIP3    H2 6383   6.147   7.099   2.954
 2148TIP3   OH2 6384   8.041   4.703   3.914
 2148TIP3    H1 6385   7.977   4.704   3.985
 2148TIP3    H2 6386   8.126   4.698   3.957
 2149TIP3   OH2 6387   7.375   1.127   2.680
 2149TIP3    H1 6388   7.356   1.124   2.774
 2149TIP3    H2 6389   7.339   1.211   2.651
 2150TIP3   OH2 6390   0.897   7.770   2.013
 2150TIP3    H1 6391   0.985   7.738   1.995
 2150TIP3    H2 6392   0.900   7.863   1.993
 2151TIP3   OH2 6393   0.599   0.401   5.854
 2151TIP3    H1 6394   0.642   0.433   5.775
 2151TIP3    H2 6395   0.605   0.305   5.848
 2152TIP3   OH2 6396   2.544   6.266   3.861
 2152TIP3    H1 6397   2.597   6.335   3.821
 2152TIP3    H2 6398   2.536   6.292   3.953
 2153TIP3   OH2 6399   3.421   1.806   3.744
 2153TIP3    H1 6400   3.382   1.719   3.745
 2153TIP3    H2 6401   3.506   1.793   3.701
 2154TIP3   OH2 6402   3.963   7.505   1.728
 2154TIP3    H1 6403   3.902   7.447   1.684
 2154TIP3    H2 6404   3.991   7.456   1.806
 2155TIP3   OH2 6405   3.666   0.442   5.961
 2155TIP3    H1 6406   3.571   0.449   5.960
 2155TIP3    H2 6407   3.696   0.514   5.905
 2156TIP3   OH2 6408   8.185   2.986   4.087
 2156TIP3    H1 6409   8.155   2.901   4.053
 2156TIP3    H2 6410   8.279   2.973   4.103
 2157TIP3   OH2 6411   4.159   7.832   1.645
 2157TIP3    H1 6412   4.197   7.895   1.583
 2157TIP3    H2 6413   4.097   7.782   1.592
 2158TIP3   OH2 6414   5.001   3.450   3.760
 2158TIP3    H1 6415   5.058   3.515   3.801
 2158TIP3    H2 6416   5.005   3.374   3.818
 2159TIP3   OH2 6417   0.585   2.855   3.736
 2159TIP3    H1 6418   0.645   2.929   3.749
 2159TIP3    H2 6419   0.589   2.807   3.819
 2160TIP3   OH2 6420   3.650   5.012   3.139
 2160TIP3    H1 6421   3.651   5.074   3.211
 2160TIP3    H2 6422   3.742   4.989   3.126
 2161TIP3   OH2 6423   0.149   4.047   2.671
 2161TIP3    H1 6424   0.167   4.139   2.650
 2161TIP3    H2 6425   0.223   3.999   2.634
 2162TIP3   OH2 6426   8.306   5.096   0.381
 2162TIP3    H1 6427   8.263   5.020   0.419
 2162TIP3    H2 6428   8.400   5.077   0.388
 2163TIP3   OH2 6429   6.405   2.111   0.987
 2163TIP3    H1 6430   6.457   2.062   0.923
 2163TIP3    H2 6431   6.447   2.197   0.991
 2164TIP3   OH2 6432   1.819   6.277   3.969
 2164TIP3    H1 6433   1.821   6.191   3.927
 2164TIP3    H2 6434   1.778   6.334   3.904
 2165TIP3   OH2 6435   5.522   4.287   6.262
 2165TIP3    H1 6436   5.588   4.218   6.262
 2165TIP3    H2 6437   5.506   4.305   6.354
 2166TIP3   OH2 6438   3.004   6.980   2.870
 2166TIP3    H1 6439   2.923   6.930   2.861
 2166TIP3    H2 6440   3.033   6.962   2.960
 2167TIP3   OH2 6441   2.113   0.467   0.202
 2167TIP3    H1 6442   2.020   0.480   0.223
 2167TIP3    H2 6443   2.159   0.526   0.263
 2168TIP3   OH2 6444   4.816   2.642   2.448
 2168TIP3    H1 6445   4.767   2.562   2.467
 2168TIP3    H2 6446   4.753   2.702   2.410
 2169TIP3   OH2 6447   4.305   5.662   6.279
 2169TIP3    H1 6448   4.275   5.656   6.370
 2169TIP3    H2 6449   4.390   5.705   6.284
 2170TIP3   OH2 6450   6.914   2.341   0.622
 2170TIP3    H1 6451   6.999   2.358   0.582
 2170TIP3    H2 6452   6.858   2.314   0.549
 2171TIP3   OH2 6453   6.180   0.649   6.220
 2171TIP3    H1 6454   6.204   0.613   6.134
 2171TIP3    H2 6455   6.232   0.600   6.283
 2172TIP3   OH2 6456   0.450   4.480   5.867
 2172TIP3    H1 6457   0.429   4.526   5.948
 2172TIP3    H2 6458   0.484   4.396   5.895
 2173TIP3   OH2 6459   0.260   5.852   0.537
 2173TIP3    H1 6460   0.311   5.919   0.492
 2173TIP3    H2 6461   0.196   5.901   0.589
 2174TIP3   OH2 6462   7.277   6.373   3.401
 2174TIP3    H1 6463   7.248   6.371   3.310
 2174TIP3    H2 6464   7.360   6.326   3.401
 2175TIP3   OH2 6465   0.134   7.796   6.151
 2175TIP3    H1 6466   0.088   7.728   6.103
 2175TIP3    H2 6467   0.203   7.750   6.199
 2176TIP3   OH2 6468   2.817   0.084   6.596
 2176TIP3    H1 6469   2.831  -0.007   6.571
 2176TIP3    H2 6470   2.804   0.081   6.691
 2177TIP3   OH2 6471   5.815   2.591   3.577
 2177TIP3    H1 6472   5.739   2.633   3.536
 2177TIP3    H2 6473   5.853   2.538   3.508
 2178TIP3   OH2 6474   2.718   6.027   5.501
 2178TIP3    H1 6475   2.634   6.026   5.454
 2178TIP3    H2 6476   2.704   6.088   5.574
 2179TIP3   OH2 6477   5.437   2.891   1.393
 2179TIP3    H1 6478   5.344   2.876   1.409
 2179TIP3    H2 6479   5.466   2.944   1.467
 2180TIP3   OH2 6480   1.935   7.276   2.651
 2180TIP3    H1 6481   1.983   7.270   2.734
 2180TIP3    H2 6482   1.857   7.327   2.671
 2181TIP3   OH2 6483   4.905   7.003   0.173
 2181TIP3    H1 6484   4.902   6.985   0.267
 2181TIP3    H2 6485   4.826   6.961   0.139
 2182TIP3   OH2 6486   7.115   0.806   5.383
 2182TIP3    H1 6487   7.053   0.866   5.342
 2182TIP3    H2 6488   7.103   0.723   5.337
 2183TIP3   OH2 6489   4.124   2.723   3.489
 2183TIP3    H1 6490   4.172   2.642   3.506
 2183TIP3    H2 6491   4.036   2.707   3.523
 2184TIP3   OH2 6492   1.238   3.304   3.294
 2184TIP3    H1 6493   1.163   3.329   3.240
 2184TIP3    H2 6494   1.202   3.241   3.356
 2185TIP3   OH2 6495   3.666   4.089   0.500
 2185TIP3    H1 6496   3.657   4.179   0.531
 2185TIP3    H2 6497   3.756   4.084   0.467
 2186TIP3   OH2 6498   4.299   0.308   1.428
 2186TIP3    H1 6499   4.299   0.302   1.524
 2186TIP3    H2 6500   4.208   0.290   1.403
 2187TIP3   OH2 6501   2.838   6.316   5.506
 2187TIP3    H1 6502   2.843   6.364   5.423
 2187TIP3    H2 6503   2.907   6.251   5.500
 2188TIP3   OH2 6504   2.736   1.429   4.284
 2188TIP3    H1 6505   2.697   1.373   4.217
 2188TIP3    H2 6506   2.693   1.403   4.365
 2189TIP3   OH2 6507   6.035   0.719   2.112
 2189TIP3    H1 6508   6.006   0.633   2.081
 2189TIP3    H2 6509   5.959   0.753   2.159
 2190TIP3   OH2 6510   0.070   3.606   4.937
 2190TIP3    H1 6511   0.041   3.515   4.926
 2190TIP3    H2 6512   0.137   3.602   5.004
 2191TIP3   OH2 6513   7.139   6.179   4.456
 2191TIP3    H1 6514   7.052   6.183   4.497
 2191TIP3    H2 6515   7.120   6.159   4.364
 2192TIP3   OH2 6516   4.384   2.843   0.781
 2192TIP3    H1 6517   4.357   2.752   0.791
 2192TIP3    H2 6518   4.320   2.893   0.831
 2193TIP3   OH2 6519   5.488   3.053   1.638
 2193TIP3    H1 6520   5.476   3.093   1.724
 2193TIP3    H2 6521   5.541   3.117   1.589
 2194TIP3   OH2 6522   7.648   3.155   5.711
 2194TIP3    H1 6523   7.669   3.228   5.770
 2194TIP3    H2 6524   7.564   3.122   5.743
 2195TIP3   OH2 6525   1.620   1.192   5.923
 2195TIP3    H1 6526   1.707   1.164   5.951
 2195TIP3    H2 6527   1.591   1.124   5.861
 2196TIP3   OH2 6528   3.785   3.906   4.449
 2196TIP3    H1 6529   3.752   3.846   4.382
 2196TIP3    H2 6530   3.737   3.881   4.528
 2197TIP3   OH2 6531   3.608   2.245   2.773
 2197TIP3    H1 6532   3.688   2.282   2.735
 2197TIP3    H2 6533   3.589   2.303   2.847
 2198TIP3   OH2 6534   6.127   1.561   1.208
 2198TIP3    H1 6535   6.203   1.501   1.210
 2198TIP3    H2 6536   6.123   1.596   1.297
 2199TIP3   OH2 6537   5.165   4.872   0.010
 2199TIP3    H1 6538   5.108   4.833  -0.057
 2199TIP3    H2 6539   5.254   4.854  -0.021
 2200TIP3   OH2 6540   5.550   4.669   0.117
 2200TIP3    H1 6541   5.518   4.739   0.060
 2200TIP3    H2 6542   5.589   4.714   0.191
 2201TIP3   OH2 6543   5.525   2.625   2.386
 2201TIP3    H1 6544   5.494   2.590   2.303
 2201TIP3    H2 6545   5.619   2.637   2.375
 2202TIP3   OH2 6546   0.694   0.303   3.380
 2202TIP3    H1 6547   0.770   0.358   3.360
 2202TIP3    H2 6548   0.725   0.213   3.367
 2203TIP3   OH2 6549   4.958   1.721   3.075
 2203TIP3    H1 6550   5.049   1.697   3.092
 2203TIP3    H2 6551   4.944   1.698   2.982
 2204TIP3   OH2 6552   5.489   6.199   4.465
 2204TIP3    H1 6553   5.447   6.178   4.381
 2204TIP3    H2 6554   5.451   6.283   4.490
 2205TIP3   OH2 6555   5.164   4.236   0.760
 2205TIP3    H1 6556   5.107   4.252   0.835
 2205TIP3    H2 6557   5.176   4.141   0.758
 2206TIP3   OH2 6558   7.062   7.145   2.003
 2206TIP3    H1 6559   7.147   7.141   1.960
 2206TIP3    H2 6560   7.015   7.217   1.959
 2207TIP3   OH2 6561   6.484   5.910   5.945
 2207TIP3    H1 6562   6.493   5.997   5.983
 2207TIP3    H2 6563   6.391   5.900   5.927
 2208TIP3   OH2 6564   1.325   3.852   2.352
 2208TIP3    H1 6565   1.304   3.863   2.259
 2208TIP3    H2 6566   1.420   3.854   2.356
 2209TIP3   OH2 6567   6.614   6.340   6.346
 2209TIP3    H1 6568   6.539   6.281   6.337
 2209TIP3    H2 6569   6.691   6.284   6.335
 2210TIP3   OH2 6570   0.780   4.013   1.307
 2210TIP3    H1 6571   0.845   3.947   1.284
 2210TIP3    H2 6572   0.717   3.967   1.363
 2211TIP3   OH2 6573   3.143   3.123   6.479
 2211TIP3    H1 6574   3.085   3.187   6.519
 2211TIP3    H2 6575   3.152   3.054   6.544
 2212TIP3   OH2 6576   3.450   7.224   1.356
 2212TIP3    H1 6577   3.445   7.275   1.276
 2212TIP3    H2 6578   3.463   7.134   1.326
 2213TIP3   OH2 6579   1.335   3.948   4.762
 2213TIP3    H1 6580   1.332   3.873   4.821
 2213TIP3    H2 6581   1.363   4.022   4.817
 2214TIP3   OH2 6582   1.549   1.189   0.117
 2214TIP3    H1 6583   1.644   1.184   0.108
 2214TIP3    H2 6584   1.518   1.101   0.096
 2215TIP3   OH2 6585   0.940   4.476   6.474
 2215TIP3    H1 6586   0.857   4.487   6.428
 2215TIP3    H2 6587   0.917   4.483   6.567
 2216TIP3   OH2 6588   3.587   3.426   0.581
 2216TIP3    H1 6589   3.589   3.507   0.529
 2216TIP3    H2 6590   3.679   3.401   0.588
 2217TIP3   OH2 6591   8.123   5.146   4.646
 2217TIP3    H1 6592   8.120   5.232   4.604
 2217TIP3    H2 6593   8.207   5.144   4.691
 2218TIP3   OH2 6594   1.858   1.389   6.420
 2218TIP3    H1 6595   1.878   1.386   6.513
 2218TIP3    H2 6596   1.766   1.415   6.416
 2219TIP3   OH2 6597   1.790   4.105   3.174
 2219TIP3    H1 6598   1.709   4.061   3.151
 2219TIP3    H2 6599   1.763   4.189   3.211
 2220TIP3   OH2 6600   6.122   5.189   3.363
 2220TIP3    H1 6601   6.199   5.156   3.410
 2220TIP3    H2 6602   6.105   5.274   3.403
 2221TIP3   OH2 6603   5.967   5.217   4.270
 2221TIP3    H1 6604   5.878   5.191   4.248
 2221TIP3    H2 6605   5.960   5.309   4.295
 2222TIP3   OH2 6606   3.115   4.283   4.293
 2222TIP3    H1 6607   3.143   4.374   4.287
 2222TIP3    H2 6608   3.146   4.243   4.211
 2223TIP3   OH2 6609   0.165   6.292   4.490
 2223TIP3    H1 6610   0.222   6.216   4.491
 2223TIP3    H2 6611   0.095   6.269   4.429
 2224TIP3   OH2 6612   1.752   5.349   0.372
 2224TIP3    H1 6613   1.736   5.382   0.284
 2224TIP3    H2 6614   1.665   5.323   0.404
 2225TIP3   OH2 6615   1.891   5.382   4.693
 2225TIP3    H1 6616   1.868   5.450   4.756
 2225TIP3    H2 6617   1.953   5.424   4.633
 2226TIP3   OH2 6618   5.331   6.869   3.503
 2226TIP3    H1 6619   5.339   6.775   3.521
 2226TIP3    H2 6620   5.289   6.873   3.417
 2227TIP3   OH2 6621   5.254   0.773   1.485
 2227TIP3    H1 6622   5.292   0.686   1.496
 2227TIP3    H2 6623   5.300   0.828   1.549
 2228TIP3   OH2 6624   6.463   2.861   2.043
 2228TIP3    H1 6625   6.386   2.813   2.013
 2228TIP3    H2 6626   6.446   2.878   2.136
 2229TIP3   OH2 6627   5.227   2.901   2.334
 2229TIP3    H1 6628   5.297   2.966   2.338
 2229TIP3    H2 6629   5.159   2.941   2.279
 2230TIP3   OH2 6630   7.942   7.228   4.914
 2230TIP3    H1 6631   8.021   7.237   4.860
 2230TIP3    H2 6632   7.939   7.309   4.965
 2231TIP3   OH2 6633   5.746   3.596   1.737
 2231TIP3    H1 6634   5.824   3.547   1.711
 2231TIP3    H2 6635   5.715   3.553   1.816
 2232TIP3   OH2 6636   5.892   4.761   1.940
 2232TIP3    H1 6637   5.867   4.802   2.023
 2232TIP3    H2 6638   5.842   4.680   1.937
 2233TIP3   OH2 6639   6.703   4.903   0.328
 2233TIP3    H1 6640   6.665   4.973   0.275
 2233TIP3    H2 6641   6.751   4.949   0.396
 2234TIP3   OH2 6642   7.238   1.928   0.247
 2234TIP3    H1 6643   7.290   1.886   0.316
 2234TIP3    H2 6644   7.151   1.936   0.285
 2235TIP3   OH2 6645   6.272   5.031   0.307
 2235TIP3    H1 6646   6.300   4.940   0.302
 2235TIP3    H2 6647   6.178   5.027   0.324
 2236TIP3   OH2 6648   6.481   0.751   5.056
 2236TIP3    H1 6649   6.480   0.657   5.075
 2236TIP3    H2 6650   6.412   0.763   4.990
 2237TIP3   OH2 6651   0.638   5.105   1.113
 2237TIP3    H1 6652   0.568   5.168   1.094
 2237TIP3    H2 6653   0.701   5.117   1.042
 2238TIP3   OH2 6654   4.770   0.111   4.567
 2238TIP3    H1 6655   4.823   0.191   4.574
 2238TIP3    H2 6656   4.834   0.040   4.572
 2239TIP3   OH2 6657   3.919   2.552   6.767
 2239TIP3    H1 6658   3.824   2.556   6.780
 2239TIP3    H2 6659   3.953   2.624   6.820
 2240TIP3   OH2 6660   0.995   3.881   5.978
 2240TIP3    H1 6661   1.060   3.921   6.035
 2240TIP3    H2 6662   1.030   3.893   5.890
 2241TIP3   OH2 6663   0.764   5.018   1.756
 2241TIP3    H1 6664   0.839   5.070   1.783
 2241TIP3    H2 6665   0.718   5.074   1.692
 2242TIP3   OH2 6666   0.955   6.065   6.520
 2242TIP3    H1 6667   0.939   6.145   6.470
 2242TIP3    H2 6668   0.946   5.994   6.456
 2243TIP3   OH2 6669   4.601   1.580   0.897
 2243TIP3    H1 6670   4.614   1.486   0.906
 2243TIP3    H2 6671   4.520   1.588   0.847
 2244TIP3   OH2 6672   5.089   2.750   4.248
 2244TIP3    H1 6673   5.181   2.775   4.258
 2244TIP3    H2 6674   5.064   2.717   4.334
 2245TIP3   OH2 6675   2.725   1.504   6.615
 2245TIP3    H1 6676   2.810   1.528   6.579
 2245TIP3    H2 6677   2.681   1.457   6.544
 2246TIP3   OH2 6678   1.247   6.623   2.105
 2246TIP3    H1 6679   1.187   6.581   2.043
 2246TIP3    H2 6680   1.331   6.624   2.060
 2247TIP3   OH2 6681   6.366   1.293   3.518
 2247TIP3    H1 6682   6.400   1.218   3.468
 2247TIP3    H2 6683   6.392   1.369   3.466
 2248TIP3   OH2 6684   6.744   0.238   1.690
 2248TIP3    H1 6685   6.786   0.323   1.701
 2248TIP3    H2 6686   6.711   0.239   1.601
 2249TIP3   OH2 6687   2.960   6.026   5.287
 2249TIP3    H1 6688   2.900   6.037   5.361
 2249TIP3    H2 6689   2.965   6.113   5.247
 2250TIP3   OH2 6690   6.408   6.360   6.677
 2250TIP3    H1 6691   6.390   6.397   6.590
 2250TIP3    H2 6692   6.428   6.268   6.660
 2251TIP3   OH2 6693   4.210   3.544   6.740
 2251TIP3    H1 6694   4.138   3.546   6.678
 2251TIP3    H2 6695   4.286   3.574   6.691
 2252TIP3   OH2 6696   6.152   0.052   4.463
 2252TIP3    H1 6697   6.187   0.036   4.375
 2252TIP3    H2 6698   6.168   0.145   4.479
 2253TIP3   OH2 6699   4.798   2.266   3.143
 2253TIP3    H1 6700   4.756   2.199   3.089
 2253TIP3    H2 6701   4.798   2.230   3.232
 2254TIP3   OH2 6702   0.553   0.144   0.320
 2254TIP3    H1 6703   0.524   0.083   0.253
 2254TIP3    H2 6704   0.472   0.186   0.351
 2255TIP3   OH2 6705   4.764   4.186   3.272
 2255TIP3    H1 6706   4.816   4.263   3.298
 2255TIP3    H2 6707   4.676   4.204   3.305
 2256TIP3   OH2 6708   8.026   1.396   1.796
 2256TIP3    H1 6709   8.050   1.318   1.846
 2256TIP3    H2 6710   7.998   1.459   1.862
 2257TIP3   OH2 6711   5.423   2.359   5.539
 2257TIP3    H1 6712   5.446   2.310   5.618
 2257TIP3    H2 6713   5.499   2.415   5.523
 2258TIP3   OH2 6714   1.737   4.619   2.939
 2258TIP3    H1 6715   1.814   4.640   2.886
 2258TIP3    H2 6716   1.669   4.678   2.908
 2259TIP3   OH2 6717   7.549   0.695   1.720
 2259TIP3    H1 6718   7.480   0.659   1.664
 2259TIP3    H2 6719   7.535   0.789   1.716
 2260TIP3   OH2 6720   7.412   6.200   2.040
 2260TIP3    H1 6721   7.485   6.263   2.043
 2260TIP3    H2 6722   7.387   6.198   1.948
 2261TIP3   OH2 6723   7.272   2.725   3.293
 2261TIP3    H1 6724   7.234   2.779   3.224
 2261TIP3    H2 6725   7.293   2.786   3.363
 2262TIP3   OH2 6726   0.333   0.244   0.964
 2262TIP3    H1 6727   0.351   0.282   0.878
 2262TIP3    H2 6728   0.316   0.319   1.021
 2263TIP3   OH2 6729   4.578   1.647   2.992
 2263TIP3    H1 6730   4.595   1.619   3.082
 2263TIP3    H2 6731   4.491   1.612   2.973
 2264TIP3   OH2 6732   5.285   0.560   3.716
 2264TIP3    H1 6733   5.217   0.607   3.765
 2264TIP3    H2 6734   5.363   0.614   3.728
 2265TIP3   OH2 6735   2.243   6.852   2.037
 2265TIP3    H1 6736   2.266   6.919   2.102
 2265TIP3    H2 6737   2.221   6.902   1.958
 2266TIP3   OH2 6738   4.762   7.540   4.737
 2266TIP3    H1 6739   4.740   7.448   4.719
 2266TIP3    H2 6740   4.785   7.540   4.830
 2267TIP3   OH2 6741   4.674   3.506   4.691
 2267TIP3    H1 6742   4.663   3.425   4.641
 2267TIP3    H2 6743   4.682   3.574   4.624
 2268TIP3   OH2 6744   6.091   6.128   4.313
 2268TIP3    H1 6745   6.121   6.047   4.354
 2268TIP3    H2 6746   6.021   6.159   4.371
 2269TIP3   OH2 6747   4.825   1.408   2.201
 2269TIP3    H1 6748   4.850   1.401   2.109
 2269TIP3    H2 6749   4.778   1.491   2.207
 2270TIP3   OH2 6750   2.392   4.616   2.920
 2270TIP3    H1 6751   2.470   4.661   2.954
 2270TIP3    H2 6752   2.368   4.554   2.989
 2271TIP3   OH2 6753   5.838   4.637   6.080
 2271TIP3    H1 6754   5.871   4.686   6.155
 2271TIP3    H2 6755   5.746   4.621   6.101
 2272TIP3   OH2 6756   2.967   1.101   6.386
 2272TIP3    H1 6757   3.022   1.179   6.390
 2272TIP3    H2 6758   3.012   1.043   6.324
 2273TIP3   OH2 6759   6.040   4.349   3.863
 2273TIP3    H1 6760   5.968   4.302   3.820
 2273TIP3    H2 6761   6.049   4.306   3.948
 2274TIP3   OH2 6762   2.513   2.429   6.687
 2274TIP3    H1 6763   2.504   2.361   6.620
 2274TIP3    H2 6764   2.441   2.490   6.669
 2275TIP3   OH2 6765   6.722   3.908   0.101
 2275TIP3    H1 6766   6.681   3.864   0.026
 2275TIP3    H2 6767   6.769   3.983   0.062
 2276TIP3   OH2 6768   5.775   3.915   3.070
 2276TIP3    H1 6769   5.795   4.001   3.107
 2276TIP3    H2 6770   5.842   3.903   3.002
 2277TIP3   OH2 6771   5.808   6.612   4.880
 2277TIP3    H1 6772   5.743   6.560   4.833
 2277TIP3    H2 6773   5.758   6.657   4.948
 2278TIP3   OH2 6774   6.592   3.408   5.932
 2278TIP3    H1 6775   6.642   3.338   5.973
 2278TIP3    H2 6776   6.514   3.417   5.988
 2279TIP3   OH2 6777   3.034   5.572   0.603
 2279TIP3    H1 6778   3.088   5.515   0.659
 2279TIP3    H2 6779   2.954   5.586   0.654
 2280TIP3   OH2 6780   6.199   3.171   0.224
 2280TIP3    H1 6781   6.180   3.240   0.161
 2280TIP3    H2 6782   6.273   3.204   0.275
 2281TIP3   OH2 6783   0.432   7.192   5.011
 2281TIP3    H1 6784   0.352   7.190   5.064
 2281TIP3    H2 6785   0.477   7.111   5.033
 2282TIP3   OH2 6786   5.415   7.463   3.013
 2282TIP3    H1 6787   5.437   7.381   3.056
 2282TIP3    H2 6788   5.499   7.508   3.003
 2283TIP3   OH2 6789   2.349   5.923   0.846
 2283TIP3    H1 6790   2.295   5.875   0.909
 2283TIP3    H2 6791   2.427   5.947   0.896
 2284TIP3   OH2 6792   3.840   1.916   0.777
 2284TIP3    H1 6793   3.915   1.885   0.828
 2284TIP3    H2 6794   3.878   1.954   0.698
 2285TIP3   OH2 6795   7.006   2.356   5.495
 2285TIP3    H1 6796   7.048   2.329   5.413
 2285TIP3    H2 6797   6.927   2.402   5.467
 2286TIP3   OH2 6798   0.848   3.835   4.543
 2286TIP3    H1 6799   0.774   3.837   4.482
 2286TIP3    H2 6800   0.923   3.862   4.491
 2287TIP3   OH2 6801   4.261   5.834   5.018
 2287TIP3    H1 6802   4.206   5.767   4.978
 2287TIP3    H2 6803   4.217   5.855   5.100
 2288TIP3   OH2 6804   7.792   1.552   2.863
 2288TIP3    H1 6805   7.755   1.470   2.896
 2288TIP3    H2 6806   7.887   1.541   2.869
 2289TIP3   OH2 6807   6.336   3.964   6.701
 2289TIP3    H1 6808   6.367   3.915   6.624
 2289TIP3    H2 6809   6.245   3.984   6.681
 2290TIP3   OH2 6810   8.219   4.191   5.059
 2290TIP3    H1 6811   8.272   4.248   5.003
 2290TIP3    H2 6812   8.135   4.185   5.014
 2291TIP3   OH2 6813   4.326   4.337   1.823
 2291TIP3    H1 6814   4.244   4.332   1.775
 2291TIP3    H2 6815   4.300   4.346   1.915
 2292TIP3   OH2 6816   6.795   3.507   4.679
 2292TIP3    H1 6817   6.771   3.508   4.587
 2292TIP3    H2 6818   6.840   3.591   4.693
 2293TIP3   OH2 6819   5.599   2.034   5.518
 2293TIP3    H1 6820   5.676   2.090   5.526
 2293TIP3    H2 6821   5.570   2.019   5.608
 2294TIP3   OH2 6822   7.482   2.261   3.522
 2294TIP3    H1 6823   7.416   2.315   3.478
 2294TIP3    H2 6824   7.524   2.211   3.452
 2295TIP3   OH2 6825   1.318   6.784   4.228
 2295TIP3    H1 6826   1.309   6.878   4.241
 2295TIP3    H2 6827   1.367   6.776   4.146
 2296TIP3   OH2 6828   0.260   7.377   6.038
 2296TIP3    H1 6829   0.341   7.330   6.059
 2296TIP3    H2 6830   0.275   7.466   6.069
 2297TIP3   OH2 6831   4.453   2.039   5.193
 2297TIP3    H1 6832   4.482   2.028   5.284
 2297TIP3    H2 6833   4.369   2.084   5.201
 2298TIP3   OH2 6834   3.086   4.192   1.033
 2298TIP3    H1 6835   3.019   4.239   0.983
 2298TIP3    H2 6836   3.128   4.135   0.969
 2299TIP3   OH2 6837   6.488   1.718   6.251
 2299TIP3    H1 6838   6.452   1.806   6.261
 2299TIP3    H2 6839   6.512   1.692   6.340
 2300TIP3   OH2 6840   5.505   6.049   1.898
 2300TIP3    H1 6841   5.511   6.015   1.987
 2300TIP3    H2 6842   5.416   6.029   1.870
 2301TIP3   OH2 6843   2.975   5.678   0.114
 2301TIP3    H1 6844   2.999   5.768   0.093
 2301TIP3    H2 6845   2.952   5.680   0.207
 2302TIP3   OH2 6846   3.222   1.654   5.744
 2302TIP3    H1 6847   3.193   1.568   5.715
 2302TIP3    H2 6848   3.155   1.714   5.712
 2303TIP3   OH2 6849   5.557   6.606   6.024
 2303TIP3    H1 6850   5.576   6.582   6.115
 2303TIP3    H2 6851   5.471   6.648   6.029
 2304TIP3   OH2 6852   4.260   6.344   4.177
 2304TIP3    H1 6853   4.210   6.409   4.128
 2304TIP3    H2 6854   4.193   6.289   4.218
 2305TIP3   OH2 6855   4.245   7.787   6.435
 2305TIP3    H1 6856   4.332   7.826   6.446
 2305TIP3    H2 6857   4.245   7.756   6.345
 2306TIP3   OH2 6858   7.121   3.864   5.194
 2306TIP3    H1 6859   7.199   3.874   5.138
 2306TIP3    H2 6860   7.127   3.938   5.255
 2307TIP3   OH2 6861   0.694   4.606   0.877
 2307TIP3    H1 6862   0.726   4.586   0.789
 2307TIP3    H2 6863   0.682   4.521   0.919
 2308TIP3   OH2 6864   8.197   1.816   2.456
 2308TIP3    H1 6865   8.190   1.909   2.434
 2308TIP3    H2 6866   8.229   1.815   2.546
 2309TIP3   OH2 6867   3.526   6.597   4.040
 2309TIP3    H1 6868   3.532   6.676   4.094
 2309TIP3    H2 6869   3.516   6.526   4.103
 2310TIP3   OH2 6870   3.622   1.350   1.544
 2310TIP3    H1 6871   3.668   1.275   1.582
 2310TIP3    H2 6872   3.614   1.330   1.451
 2311TIP3   OH2 6873   1.730   2.293   0.520
 2311TIP3    H1 6874   1.746   2.244   0.600
 2311TIP3    H2 6875   1.818   2.315   0.487
 2312TIP3   OH2 6876   5.848   2.089   3.813
 2312TIP3    H1 6877   5.808   2.128   3.736
 2312TIP3    H2 6878   5.925   2.042   3.781
 2313TIP3   OH2 6879   5.970   6.014   2.059
 2313TIP3    H1 6880   6.020   5.933   2.066
 2313TIP3    H2 6881   5.891   5.990   2.011
 2314TIP3   OH2 6882   4.795   5.786   1.833
 2314TIP3    H1 6883   4.877   5.768   1.878
 2314TIP3    H2 6884   4.814   5.771   1.740
 2315TIP3   OH2 6885   8.014   5.788   3.785
 2315TIP3    H1 6886   7.954   5.860   3.765
 2315TIP3    H2 6887   8.090   5.805   3.730
 2316TIP3   OH2 6888   7.608   1.003   2.110
 2316TIP3    H1 6889   7.679   0.967   2.056
 2316TIP3    H2 6890   7.528   0.969   2.070
 2317TIP3   OH2 6891   4.016   7.195   4.918
 2317TIP3    H1 6892   4.045   7.123   4.973
 2317TIP3    H2 6893   3.923   7.178   4.904
 2318TIP3   OH2 6894   0.664   5.718   6.669
 2318TIP3    H1 6895   0.573   5.689   6.671
 2318TIP3    H2 6896   0.705   5.664   6.602
 2319TIP3   OH2 6897   6.216   1.879   0.510
 2319TIP3    H1 6898   6.262   1.872   0.426
 2319TIP3    H2 6899   6.160   1.957   0.500
 2320TIP3   OH2 6900   1.160   5.359   2.902
 2320TIP3    H1 6901   1.064   5.356   2.900
 2320TIP3    H2 6902   1.186   5.337   2.813
 2321TIP3   OH2 6903   3.985   6.752   3.098
 2321TIP3    H1 6904   3.997   6.847   3.097
 2321TIP3    H2 6905   4.066   6.717   3.061
 2322TIP3   OH2 6906   4.483   1.674   4.465
 2322TIP3    H1 6907   4.507   1.702   4.554
 2322TIP3    H2 6908   4.473   1.579   4.473
 2323TIP3   OH2 6909   6.785   6.417   4.237
 2323TIP3    H1 6910   6.819   6.498   4.275
 2323TIP3    H2 6911   6.862   6.374   4.199
 2324TIP3   OH2 6912   3.289   5.872   1.161
 2324TIP3    H1 6913   3.314   5.964   1.164
 2324TIP3    H2 6914   3.333   5.838   1.082
 2325TIP3   OH2 6915   2.068   1.259   3.199
 2325TIP3    H1 6916   2.060   1.168   3.172
 2325TIP3    H2 6917   2.058   1.309   3.118
 2326TIP3   OH2 6918   1.560   4.071   6.779
 2326TIP3    H1 6919   1.592   4.161   6.775
 2326TIP3    H2 6920   1.621   4.022   6.725
 2327TIP3   OH2 6921   6.601   2.406   2.784
 2327TIP3    H1 6922   6.606   2.487   2.835
 2327TIP3    H2 6923   6.597   2.336   2.849
 2328TIP3   OH2 6924   4.894   0.070   0.479
 2328TIP3    H1 6925   4.954  -0.004   0.491
 2328TIP3    H2 6926   4.824   0.034   0.424
 2329TIP3   OH2 6927   4.432   5.895   6.635
 2329TIP3    H1 6928   4.513   5.856   6.668
 2329TIP3    H2 6929   4.395   5.940   6.711
 2330TIP3   OH2 6930   7.798   1.430   1.317
 2330TIP3    H1 6931   7.867   1.386   1.267
 2330TIP3    H2 6932   7.764   1.497   1.258
 2331TIP3   OH2 6933   3.965   5.897   0.510
 2331TIP3    H1 6934   3.971   5.850   0.427
 2331TIP3    H2 6935   3.879   5.875   0.545
 2332TIP3   OH2 6936   3.148   6.354   6.243
 2332TIP3    H1 6937   3.057   6.324   6.235
 2332TIP3    H2 6938   3.147   6.416   6.316
 2333TIP3   OH2 6939   6.476   6.750   2.550
 2333TIP3    H1 6940   6.390   6.789   2.535
 2333TIP3    H2 6941   6.470   6.712   2.637
 2334TIP3   OH2 6942   4.572   0.420   3.210
 2334TIP3    H1 6943   4.633   0.473   3.158
 2334TIP3    H2 6944   4.615   0.335   3.219
 2335TIP3   OH2 6945   3.566   2.020   1.345
 2335TIP3    H1 6946   3.579   2.115   1.346
 2335TIP3    H2 6947   3.643   1.987   1.298
 2336TIP3   OH2 6948   3.484   0.764   6.096
 2336TIP3    H1 6949   3.510   0.723   6.014
 2336TIP3    H2 6950   3.393   0.736   6.109
 2337TIP3   OH2 6951   4.976   5.380   4.039
 2337TIP3    H1 6952   4.963   5.440   3.966
 2337TIP3    H2 6953   4.910   5.312   4.028
 2338TIP3   OH2 6954   6.727   5.477   5.306
 2338TIP3    H1 6955   6.726   5.518   5.393
 2338TIP3    H2 6956   6.716   5.384   5.323
 2339TIP3   OH2 6957   1.037   3.590   1.966
 2339TIP3    H1 6958   0.992   3.517   1.923
 2339TIP3    H2 6959   1.130   3.571   1.954
 2340TIP3   OH2 6960   0.842   2.513   6.006
 2340TIP3    H1 6961   0.821   2.510   5.912
 2340TIP3    H2 6962   0.762   2.544   6.048
 2341TIP3   OH2 6963   6.387   1.057   5.707
 2341TIP3    H1 6964   6.333   1.132   5.730
 2341TIP3    H2 6965   6.472   1.094   5.685
 2342TIP3   OH2 6966   1.766   4.001   4.647
 2342TIP3    H1 6967   1.856   3.969   4.641
 2342TIP3    H2 6968   1.719   3.955   4.577
 2343TIP3   OH2 6969   3.952   7.575   3.834
 2343TIP3    H1 6970   3.867   7.531   3.843
 2343TIP3    H2 6971   3.931   7.668   3.833
 2344TIP3   OH2 6972   4.050   6.725   5.902
 2344TIP3    H1 6973   4.016   6.642   5.867
 2344TIP3    H2 6974   4.005   6.793   5.851
 2345TIP3   OH2 6975   5.525   7.410   4.718
 2345TIP3    H1 6976   5.538   7.363   4.635
 2345TIP3    H2 6977   5.499   7.498   4.691
 2346TIP3   OH2 6978   7.995   4.356   0.248
 2346TIP3    H1 6979   7.903   4.379   0.246
 2346TIP3    H2 6980   8.010   4.304   0.169
 2347TIP3   OH2 6981   7.635   3.136   5.207
 2347TIP3    H1 6982   7.698   3.203   5.232
 2347TIP3    H2 6983   7.614   3.092   5.290
 2348TIP3   OH2 6984   4.972   4.151   5.723
 2348TIP3    H1 6985   4.881   4.145   5.754
 2348TIP3    H2 6986   5.021   4.094   5.783
 2349TIP3   OH2 6987   2.252   3.744   5.763
 2349TIP3    H1 6988   2.224   3.669   5.815
 2349TIP3    H2 6989   2.296   3.801   5.826
 2350TIP3   OH2 6990   7.584   1.363   3.230
 2350TIP3    H1 6991   7.501   1.322   3.253
 2350TIP3    H2 6992   7.633   1.293   3.187
 2351TIP3   OH2 6993   4.789   2.861   0.909
 2351TIP3    H1 6994   4.730   2.812   0.966
 2351TIP3    H2 6995   4.732   2.926   0.867
 2352TIP3   OH2 6996   6.457   5.083   4.825
 2352TIP3    H1 6997   6.478   4.989   4.824
 2352TIP3    H2 6998   6.470   5.108   4.917
 2353TIP3   OH2 6999   2.059   0.994   4.661
 2353TIP3    H1 7000   2.036   1.024   4.572
 2353TIP3    H2 7001   2.139   1.043   4.682
 2354TIP3   OH2 7002   6.818   4.299   6.560
 2354TIP3    H1 7003   6.791   4.270   6.647
 2354TIP3    H2 7004   6.873   4.228   6.527
 2355TIP3   OH2 7005   1.779   1.833   4.543
 2355TIP3    H1 7006   1.782   1.739   4.529
 2355TIP3    H2 7007   1.855   1.867   4.495
 2356TIP3   OH2 7008   2.039   1.290   2.004
 2356TIP3    H1 7009   2.111   1.227   1.995
 2356TIP3    H2 7010   2.058   1.356   1.938
 2357TIP3   OH2 7011   8.347   0.367   4.419
 2357TIP3    H1 7012   8.429   0.320   4.405
 2357TIP3    H2 7013   8.368   0.435   4.482
 2358TIP3   OH2 7014   4.674   6.123   3.777
 2358TIP3    H1 7015   4.628   6.207   3.779
 2358TIP3    H2 7016   4.724   6.125   3.696
 2359TIP3   OH2 7017   7.163   3.358   4.686
 2359TIP3    H1 7018   7.142   3.389   4.598
 2359TIP3    H2 7019   7.078   3.340   4.726
 2360TIP3   OH2 7020   2.238   1.345   5.165
 2360TIP3    H1 7021   2.200   1.433   5.152
 2360TIP3    H2 7022   2.187   1.308   5.237
 2361TIP3   OH2 7023   2.988   2.451   3.297
 2361TIP3    H1 7024   3.079   2.455   3.268
 2361TIP3    H2 7025   2.990   2.396   3.375
 2362TIP3   OH2 7026   1.050   6.442   3.476
 2362TIP3    H1 7027   1.030   6.515   3.418
 2362TIP3    H2 7028   1.143   6.452   3.497
 2363TIP3   OH2 7029   6.713   5.421   5.019
 2363TIP3    H1 7030   6.655   5.465   4.957
 2363TIP3    H2 7031   6.716   5.479   5.095
 2364TIP3   OH2 7032   6.853   1.498   1.010
 2364TIP3    H1 7033   6.870   1.488   0.916
 2364TIP3    H2 7034   6.758   1.503   1.017
 2365TIP3   OH2 7035   5.299   7.382   0.579
 2365TIP3    H1 7036   5.349   7.382   0.498
 2365TIP3    H2 7037   5.339   7.450   0.633
 2366TIP3   OH2 7038   3.874   2.703   4.732
 2366TIP3    H1 7039   3.789   2.726   4.695
 2366TIP3    H2 7040   3.860   2.700   4.826
 2367TIP3   OH2 7041   2.904   5.009   1.710
 2367TIP3    H1 7042   2.912   4.997   1.616
 2367TIP3    H2 7043   2.830   4.954   1.735
 2368TIP3   OH2 7044   5.076   6.883   2.755
 2368TIP3    H1 7045   5.094   6.874   2.661
 2368TIP3    H2 7046   5.056   6.794   2.784
 2369TIP3   OH2 7047   0.767   7.058   1.220
 2369TIP3    H1 7048   0.703   6.990   1.197
 2369TIP3    H2 7049   0.838   7.046   1.158
 2370TIP3   OH2 7050   7.244   5.332   2.049
 2370TIP3    H1 7051   7.156   5.367   2.042
 2370TIP3    H2 7052   7.245   5.257   1.989
 2371TIP3   OH2 7053   1.232   2.122   5.442
 2371TIP3    H1 7054   1.285   2.132   5.521
 2371TIP3    H2 7055   1.172   2.196   5.443
 2372TIP3   OH2 7056   5.065   6.099   0.543
 2372TIP3    H1 7057   5.104   6.119   0.628
 2372TIP3    H2 7058   5.104   6.163   0.483
 2373TIP3   OH2 7059   6.071   1.386   6.268
 2373TIP3    H1 7060   6.058   1.325   6.341
 2373TIP3    H2 7061   6.102   1.466   6.310
 2374TIP3   OH2 7062   4.250   6.589   0.396
 2374TIP3    H1 7063   4.266   6.635   0.314
 2374TIP3    H2 7064   4.305   6.512   0.391
 2375TIP3   OH2 7065   5.416   1.453   4.468
 2375TIP3    H1 7066   5.384   1.455   4.558
 2375TIP3    H2 7067   5.509   1.474   4.475
 2376TIP3   OH2 7068   5.818   3.252   5.581
 2376TIP3    H1 7069   5.884   3.192   5.545
 2376TIP3    H2 7070   5.754   3.194   5.623
 2377TIP3   OH2 7071   6.465   3.209   4.175
 2377TIP3    H1 7072   6.402   3.256   4.230
 2377TIP3    H2 7073   6.427   3.213   4.087
 2378TIP3   OH2 7074   4.077   6.656   1.488
 2378TIP3    H1 7075   4.057   6.695   1.573
 2378TIP3    H2 7076   3.995   6.662   1.438
 2379TIP3   OH2 7077   5.845   3.102   6.272
 2379TIP3    H1 7078   5.927   3.104   6.321
 2379TIP3    H2 7079   5.778   3.120   6.337
 2380TIP3   OH2 7080   7.111   7.569   1.933
 2380TIP3    H1 7081   7.079   7.572   2.024
 2380TIP3    H2 7082   7.185   7.630   1.932
 2381TIP3   OH2 7083   7.223   7.157   1.184
 2381TIP3    H1 7084   7.276   7.184   1.259
 2381TIP3    H2 7085   7.136   7.141   1.220
 2382TIP3   OH2 7086   5.044   2.675   1.736
 2382TIP3    H1 7087   5.125   2.726   1.728
 2382TIP3    H2 7088   5.075   2.585   1.747
 2383TIP3   OH2 7089   6.268   5.256   1.491
 2383TIP3    H1 7090   6.190   5.201   1.482
 2383TIP3    H2 7091   6.239   5.343   1.461
 2384TIP3   OH2 7092   7.868   2.860   1.893
 2384TIP3    H1 7093   7.781   2.820   1.890
 2384TIP3    H2 7094   7.854   2.946   1.934
 2385TIP3   OH2 7095   2.124   7.677   5.932
 2385TIP3    H1 7096   2.136   7.760   5.886
 2385TIP3    H2 7097   2.073   7.700   6.010
 2386TIP3   OH2 7098   0.375   6.869   4.901
 2386TIP3    H1 7099   0.352   6.782   4.868
 2386TIP3    H2 7100   0.324   6.929   4.847
 2387TIP3   OH2 7101   4.434   1.700   3.595
 2387TIP3    H1 7102   4.363   1.644   3.625
 2387TIP3    H2 7103   4.485   1.719   3.673
 2388TIP3   OH2 7104   3.771   3.638   1.255
 2388TIP3    H1 7105   3.772   3.555   1.303
 2388TIP3    H2 7106   3.774   3.705   1.324
 2389TIP3   OH2 7107   4.027   6.152   2.160
 2389TIP3    H1 7108   4.007   6.061   2.184
 2389TIP3    H2 7109   3.952   6.179   2.107
 2390TIP3   OH2 7110   2.491   3.527   5.394
 2390TIP3    H1 7111   2.400   3.497   5.401
 2390TIP3    H2 7112   2.540   3.447   5.371
 2391TIP3   OH2 7113   7.285   3.178   2.355
 2391TIP3    H1 7114   7.195   3.202   2.335
 2391TIP3    H2 7115   7.292   3.087   2.325
 2392TIP3   OH2 7116   6.307   0.927   6.101
 2392TIP3    H1 7117   6.308   0.837   6.132
 2392TIP3    H2 7118   6.291   0.919   6.007
 2393TIP3   OH2 7119   6.818   3.647   4.055
 2393TIP3    H1 7120   6.828   3.556   4.082
 2393TIP3    H2 7121   6.890   3.663   3.994
 2394TIP3   OH2 7122   5.796   7.195   2.602
 2394TIP3    H1 7123   5.740   7.174   2.677
 2394TIP3    H2 7124   5.821   7.287   2.616
 2395TIP3   OH2 7125   2.187   5.145   2.166
 2395TIP3    H1 7126   2.114   5.083   2.175
 2395TIP3    H2 7127   2.199   5.182   2.253
 2396TIP3   OH2 7128   3.266   1.031   4.580
 2396TIP3    H1 7129   3.244   0.967   4.647
 2396TIP3    H2 7130   3.203   1.102   4.593
 2397TIP3   OH2 7131   6.696   3.833   5.810
 2397TIP3    H1 7132   6.674   3.783   5.731
 2397TIP3    H2 7133   6.703   3.923   5.780
 2398TIP3   OH2 7134   4.389   0.971   5.226
 2398TIP3    H1 7135   4.327   0.969   5.153
 2398TIP3    H2 7136   4.369   0.891   5.275
 2399TIP3   OH2 7137   8.260   4.129   6.059
 2399TIP3    H1 7138   8.178   4.154   6.017
 2399TIP3    H2 7139   8.279   4.042   6.025
 2400TIP3   OH2 7140   4.724   4.937   3.638
 2400TIP3    H1 7141   4.696   4.848   3.659
 2400TIP3    H2 7142   4.707   4.946   3.544
 2401TIP3   OH2 7143   5.194   5.740   3.637
 2401TIP3    H1 7144   5.153   5.800   3.575
 2401TIP3    H2 7145   5.155   5.655   3.617
 2402TIP3   OH2 7146   2.628   3.834   2.094
 2402TIP3    H1 7147   2.686   3.892   2.044
 2402TIP3    H2 7148   2.545   3.836   2.047
 2403TIP3   OH2 7149   1.139   1.138   2.647
 2403TIP3    H1 7150   1.212   1.156   2.587
 2403TIP3    H2 7151   1.150   1.046   2.671
 2404TIP3   OH2 7152   5.376   1.485   4.744
 2404TIP3    H1 7153   5.344   1.571   4.771
 2404TIP3    H2 7154   5.317   1.423   4.785
 2405TIP3   OH2 7155   2.213   7.266   5.722
 2405TIP3    H1 7156   2.205   7.177   5.757
 2405TIP3    H2 7157   2.307   7.285   5.727
 2406TIP3   OH2 7158   0.234   2.160   1.721
 2406TIP3    H1 7159   0.256   2.195   1.635
 2406TIP3    H2 7160   0.210   2.237   1.773
 2407TIP3   OH2 7161   8.040   3.106   1.105
 2407TIP3    H1 7162   8.106   3.038   1.114
 2407TIP3    H2 7163   8.064   3.172   1.171
 2408TIP3   OH2 7164   1.262   5.305   2.437
 2408TIP3    H1 7165   1.283   5.252   2.514
 2408TIP3    H2 7166   1.310   5.265   2.366
 2409TIP3   OH2 7167   3.397   5.160   4.593
 2409TIP3    H1 7168   3.418   5.253   4.591
 2409TIP3    H2 7169   3.314   5.153   4.546
 2410TIP3   OH2 7170   0.793   7.668   4.036
 2410TIP3    H1 7171   0.830   7.600   3.979
 2410TIP3    H2 7172   0.838   7.656   4.119
 2411TIP3   OH2 7173   6.890   6.038   1.546
 2411TIP3    H1 7174   6.961   5.975   1.530
 2411TIP3    H2 7175   6.815   6.002   1.499
 2412TIP3   OH2 7176   3.240   5.802   6.494
 2412TIP3    H1 7177   3.237   5.785   6.400
 2412TIP3    H2 7178   3.169   5.865   6.509
 2413TIP3   OH2 7179   6.786   5.822   3.955
 2413TIP3    H1 7180   6.724   5.798   4.024
 2413TIP3    H2 7181   6.807   5.913   3.972
 2414TIP3   OH2 7182   6.439   6.023   3.908
 2414TIP3    H1 7183   6.437   6.037   4.003
 2414TIP3    H2 7184   6.347   6.009   3.884
 2415TIP3   OH2 7185   5.485   1.793   4.567
 2415TIP3    H1 7186   5.498   1.842   4.649
 2415TIP3    H2 7187   5.557   1.731   4.564
 2416TIP3   OH2 7188   2.331   7.380   0.223
 2416TIP3    H1 7189   2.398   7.432   0.180
 2416TIP3    H2 7190   2.296   7.324   0.153
 2417TIP3   OH2 7191   3.322   3.109   0.454
 2417TIP3    H1 7192   3.394   3.116   0.516
 2417TIP3    H2 7193   3.255   3.168   0.488
 2418TIP3   OH2 7194   7.134   7.625   1.306
 2418TIP3    H1 7195   7.213   7.576   1.284
 2418TIP3    H2 7196   7.081   7.623   1.227
 2419TIP3   OH2 7197   1.115   2.371   4.770
 2419TIP3    H1 7198   1.086   2.462   4.773
 2419TIP3    H2 7199   1.133   2.349   4.861
 2420TIP3   OH2 7200   2.227   5.973   3.245
 2420TIP3    H1 7201   2.319   5.953   3.265
 2420TIP3    H2 7202   2.215   5.940   3.156
 2421TIP3   OH2 7203   3.634   4.682   6.165
 2421TIP3    H1 7204   3.713   4.702   6.114
 2421TIP3    H2 7205   3.598   4.603   6.125
 2422TIP3   OH2 7206   8.301   3.044   2.736
 2422TIP3    H1 7207   8.355   3.110   2.779
 2422TIP3    H2 7208   8.364   2.987   2.691
 2423TIP3   OH2 7209   0.963   1.571   3.941
 2423TIP3    H1 7210   0.932   1.590   3.852
 2423TIP3    H2 7211   0.894   1.515   3.978
 2424TIP3   OH2 7212   7.155   1.644   5.943
 2424TIP3    H1 7213   7.204   1.622   6.022
 2424TIP3    H2 7214   7.130   1.735   5.954
 2425TIP3   OH2 7215   5.080   7.609   0.713
 2425TIP3    H1 7216   5.074   7.515   0.727
 2425TIP3    H2 7217   5.104   7.644   0.799
 2426TIP3   OH2 7218   7.981   0.792   2.254
 2426TIP3    H1 7219   8.011   0.850   2.323
 2426TIP3    H2 7220   8.041   0.717   2.258
 2427TIP3   OH2 7221   1.758   1.261   4.535
 2427TIP3    H1 7222   1.843   1.296   4.561
 2427TIP3    H2 7223   1.699   1.287   4.606
 2428TIP3   OH2 7224   7.613   3.901   1.737
 2428TIP3    H1 7225   7.639   3.964   1.670
 2428TIP3    H2 7226   7.683   3.835   1.736
 2429TIP3   OH2 7227   1.759   0.677   4.210
 2429TIP3    H1 7228   1.797   0.720   4.287
 2429TIP3    H2 7229   1.834   0.658   4.154
 2430TIP3   OH2 7230   0.710   5.461   2.259
 2430TIP3    H1 7231   0.786   5.519   2.266
 2430TIP3    H2 7232   0.737   5.394   2.196
 2431TIP3   OH2 7233   3.752   6.259   5.953
 2431TIP3    H1 7234   3.721   6.335   5.903
 2431TIP3    H2 7235   3.751   6.187   5.890
 2432TIP3   OH2 7236   2.602   2.703   5.454
 2432TIP3    H1 7237   2.667   2.703   5.383
 2432TIP3    H2 7238   2.625   2.629   5.508
 2433TIP3   OH2 7239   0.765   0.613   6.479
 2433TIP3    H1 7240   0.796   0.534   6.524
 2433TIP3    H2 7241   0.846   0.661   6.460
 2434TIP3   OH2 7242   6.837   0.190   4.938
 2434TIP3    H1 7243   6.915   0.135   4.940
 2434TIP3    H2 7244   6.780   0.150   4.873
 2435TIP3   OH2 7245   4.878   6.856   4.495
 2435TIP3    H1 7246   4.825   6.861   4.574
 2435TIP3    H2 7247   4.883   6.762   4.476
 2436TIP3   OH2 7248   8.209   2.923   1.220
 2436TIP3    H1 7249   8.176   2.835   1.201
 2436TIP3    H2 7250   8.294   2.928   1.177
 2437TIP3   OH2 7251   7.391   2.384   5.037
 2437TIP3    H1 7252   7.412   2.296   5.069
 2437TIP3    H2 7253   7.471   2.414   4.994
 2438TIP3   OH2 7254   2.689   5.452   0.079
 2438TIP3    H1 7255   2.773   5.415   0.053
 2438TIP3    H2 7256   2.685   5.438   0.174
 2439TIP3   OH2 7257   6.550   7.770   1.647
 2439TIP3    H1 7258   6.560   7.714   1.570
 2439TIP3    H2 7259   6.475   7.826   1.627
 2440TIP3   OH2 7260   2.897   6.714   0.100
 2440TIP3    H1 7261   2.986   6.736   0.074
 2440TIP3    H2 7262   2.902   6.622   0.126
 2441TIP3   OH2 7263   1.494   5.525   1.541
 2441TIP3    H1 7264   1.456   5.606   1.508
 2441TIP3    H2 7265   1.588   5.542   1.545
 2442TIP3   OH2 7266   1.723   0.396   3.414
 2442TIP3    H1 7267   1.708   0.384   3.321
 2442TIP3    H2 7268   1.728   0.307   3.449
 2443TIP3   OH2 7269   2.585   1.781   0.847
 2443TIP3    H1 7270   2.562   1.692   0.822
 2443TIP3    H2 7271   2.555   1.835   0.773
 2444TIP3   OH2 7272   2.916   7.584   2.880
 2444TIP3    H1 7273   2.842   7.533   2.849
 2444TIP3    H2 7274   2.928   7.652   2.814
 2445TIP3   OH2 7275   5.275   1.197   0.386
 2445TIP3    H1 7276   5.239   1.188   0.297
 2445TIP3    H2 7277   5.233   1.276   0.420
 2446TIP3   OH2 7278   4.181   3.418   2.664
 2446TIP3    H1 7279   4.271   3.385   2.655
 2446TIP3    H2 7280   4.189   3.495   2.720
 2447TIP3   OH2 7281   5.612   7.037   0.751
 2447TIP3    H1 7282   5.620   6.942   0.758
 2447TIP3    H2 7283   5.618   7.055   0.657
 2448TIP3   OH2 7284   2.746   5.588   2.067
 2448TIP3    H1 7285   2.652   5.587   2.084
 2448TIP3    H2 7286   2.784   5.532   2.135
 2449TIP3   OH2 7287   0.326   3.037   3.978
 2449TIP3    H1 7288   0.343   3.110   3.919
 2449TIP3    H2 7289   0.411   2.997   3.993
 2450TIP3   OH2 7290   5.883   0.462   1.184
 2450TIP3    H1 7291   5.835   0.496   1.259
 2450TIP3    H2 7292   5.969   0.504   1.188
 2451TIP3   OH2 7293   0.796   4.244   3.081
 2451TIP3    H1 7294   0.826   4.317   3.027
 2451TIP3    H2 7295   0.877   4.199   3.107
 2452TIP3   OH2 7296   1.585   1.320   6.666
 2452TIP3    H1 7297   1.585   1.245   6.607
 2452TIP3    H2 7298   1.603   1.396   6.610
 2453TIP3   OH2 7299   1.095   3.233   0.993
 2453TIP3    H1 7300   1.049   3.252   0.911
 2453TIP3    H2 7301   1.183   3.268   0.980
 2454TIP3   OH2 7302   7.780   0.858   5.070
 2454TIP3    H1 7303   7.776   0.820   5.158
 2454TIP3    H2 7304   7.836   0.935   5.080
 2455TIP3   OH2 7305   0.472   4.225   3.995
 2455TIP3    H1 7306   0.469   4.174   4.076
 2455TIP3    H2 7307   0.409   4.296   4.009
 2456TIP3   OH2 7308   4.686   1.047   2.297
 2456TIP3    H1 7309   4.683   0.965   2.347
 2456TIP3    H2 7310   4.779   1.061   2.279
 2457TIP3   OH2 7311   1.863   4.552   3.786
 2457TIP3    H1 7312   1.807   4.476   3.795
 2457TIP3    H2 7313   1.838   4.609   3.859
 2458TIP3   OH2 7314   7.586   7.340   5.920
 2458TIP3    H1 7315   7.655   7.380   5.973
 2458TIP3    H2 7316   7.566   7.258   5.966
 2459TIP3   OH2 7317   7.782   7.727   1.244
 2459TIP3    H1 7318   7.695   7.750   1.276
 2459TIP3    H2 7319   7.819   7.671   1.313
 2460TIP3   OH2 7320   0.517   1.990   4.976
 2460TIP3    H1 7321   0.545   1.986   5.067
 2460TIP3    H2 7322   0.590   2.031   4.929
 2461TIP3   OH2 7323   6.412   2.243   2.625
 2461TIP3    H1 7324   6.442   2.276   2.541
 2461TIP3    H2 7325   6.453   2.301   2.690
 2462TIP3   OH2 7326   7.168   3.990   2.724
 2462TIP3    H1 7327   7.197   3.899   2.724
 2462TIP3    H2 7328   7.244   4.040   2.696
 2463TIP3   OH2 7329   7.302   4.740   0.205
 2463TIP3    H1 7330   7.230   4.799   0.228
 2463TIP3    H2 7331   7.270   4.690   0.131
 2464TIP3   OH2 7332   7.113   6.598   3.831
 2464TIP3    H1 7333   7.196   6.587   3.877
 2464TIP3    H2 7334   7.138   6.633   3.745
 2465TIP3   OH2 7335   6.784   5.644   4.410
 2465TIP3    H1 7336   6.832   5.580   4.464
 2465TIP3    H2 7337   6.849   5.711   4.390
 2466TIP3   OH2 7338   6.843   0.156   5.676
 2466TIP3    H1 7339   6.922   0.125   5.631
 2466TIP3    H2 7340   6.771   0.122   5.623
 2467TIP3   OH2 7341   1.210   0.089   5.985
 2467TIP3    H1 7342   1.205   0.119   5.895
 2467TIP3    H2 7343   1.278   0.021   5.984
 2468TIP3   OH2 7344   2.635   4.983   5.954
 2468TIP3    H1 7345   2.620   5.011   6.044
 2468TIP3    H2 7346   2.581   5.042   5.901
 2469TIP3   OH2 7347   2.973   0.610   4.033
 2469TIP3    H1 7348   2.927   0.638   4.112
 2469TIP3    H2 7349   3.007   0.523   4.054
 2470TIP3   OH2 7350   1.921   2.362   2.040
 2470TIP3    H1 7351   1.982   2.315   1.983
 2470TIP3    H2 7352   1.860   2.404   1.979
 2471TIP3   OH2 7353   6.610   5.759   6.731
 2471TIP3    H1 7354   6.692   5.772   6.682
 2471TIP3    H2 7355   6.597   5.843   6.777
 2472TIP3   OH2 7356   5.531   1.212   3.288
 2472TIP3    H1 7357   5.604   1.224   3.349
 2472TIP3    H2 7358   5.495   1.300   3.278
 2473TIP3   OH2 7359   3.307   1.205   5.926
 2473TIP3    H1 7360   3.305   1.235   6.017
 2473TIP3    H2 7361   3.259   1.122   5.927
 2474TIP3   OH2 7362   0.890   3.751   6.785
 2474TIP3    H1 7363   0.869   3.696   6.709
 2474TIP3    H2 7364   0.839   3.831   6.772
 2475TIP3   OH2 7365   7.588   1.369   6.825
 2475TIP3    H1 7366   7.514   1.339   6.773
 2475TIP3    H2 7367   7.574   1.329   6.911
 2476TIP3   OH2 7368   5.156   3.917   2.743
 2476TIP3    H1 7369   5.063   3.925   2.760
 2476TIP3    H2 7370   5.174   3.983   2.676
 2477TIP3   OH2 7371   1.992   2.850   5.819
 2477TIP3    H1 7372   1.944   2.779   5.861
 2477TIP3    H2 7373   2.078   2.813   5.800
 2478TIP3   OH2 7374   7.422   4.021   5.517
 2478TIP3    H1 7375   7.504   3.979   5.492
 2478TIP3    H2 7376   7.428   4.110   5.481
 2479TIP3   OH2 7377   0.202   2.739   6.119
 2479TIP3    H1 7378   0.283   2.787   6.138
 2479TIP3    H2 7379   0.224   2.647   6.135
 2480TIP3   OH2 7380   6.790   2.501   5.406
 2480TIP3    H1 7381   6.706   2.458   5.388
 2480TIP3    H2 7382   6.790   2.577   5.348
 2481TIP3   OH2 7383   2.496   1.870   1.390
 2481TIP3    H1 7384   2.405   1.847   1.411
 2481TIP3    H2 7385   2.543   1.786   1.392
 2482TIP3   OH2 7386   2.158   5.183   3.852
 2482TIP3    H1 7387   2.098   5.122   3.809
 2482TIP3    H2 7388   2.181   5.246   3.785
 2483TIP3   OH2 7389   3.445   7.356   0.249
 2483TIP3    H1 7390   3.526   7.341   0.201
 2483TIP3    H2 7391   3.474   7.377   0.338
 2484TIP3   OH2 7392   0.183   4.453   1.694
 2484TIP3    H1 7393   0.124   4.513   1.648
 2484TIP3    H2 7394   0.260   4.448   1.636
 2485TIP3   OH2 7395   2.487   0.318   5.251
 2485TIP3    H1 7396   2.553   0.323   5.320
 2485TIP3    H2 7397   2.404   0.322   5.298
 2486TIP3   OH2 7398   0.973   5.503  -0.010
 2486TIP3    H1 7399   0.987   5.593   0.017
 2486TIP3    H2 7400   1.056   5.475  -0.048
 2487TIP3   OH2 7401   5.051   5.392   4.430
 2487TIP3    H1 7402   5.132   5.345   4.412
 2487TIP3    H2 7403   5.040   5.450   4.354
 2488TIP3   OH2 7404   3.744   1.858   5.095
 2488TIP3    H1 7405   3.672   1.898   5.045
 2488TIP3    H2 7406   3.813   1.844   5.031
 2489TIP3   OH2 7407   1.685   3.151   1.675
 2489TIP3    H1 7408   1.623   3.078   1.675
 2489TIP3    H2 7409   1.699   3.171   1.768
 2490TIP3   OH2 7410   2.198   3.876   1.120
 2490TIP3    H1 7411   2.150   3.887   1.038
 2490TIP3    H2 7412   2.237   3.962   1.137
 2491TIP3   OH2 7413   6.837   1.059   3.731
 2491TIP3    H1 7414   6.800   1.083   3.645
 2491TIP3    H2 7415   6.770   1.085   3.794
 2492TIP3   OH2 7416   0.417   2.701   2.795
 2492TIP3    H1 7417   0.505   2.685   2.831
 2492TIP3    H2 7418   0.424   2.787   2.753
 2493TIP3   OH2 7419   1.199   6.159   6.606
 2493TIP3    H1 7420   1.122   6.112   6.572
 2493TIP3    H2 7421   1.163   6.242   6.638
 2494TIP3   OH2 7422   3.104   5.411   0.817
 2494TIP3    H1 7423   3.083   5.436   0.906
 2494TIP3    H2 7424   3.197   5.431   0.807
 2495TIP3   OH2 7425   7.376   6.761   0.709
 2495TIP3    H1 7426   7.436   6.735   0.779
 2495TIP3    H2 7427   7.418   6.732   0.629
 2496TIP3   OH2 7428   2.272   3.211   0.705
 2496TIP3    H1 7429   2.248   3.119   0.721
 2496TIP3    H2 7430   2.254   3.224   0.612
 2497TIP3   OH2 7431   6.826   5.167   1.877
 2497TIP3    H1 7432   6.744   5.211   1.898
 2497TIP3    H2 7433   6.841   5.108   1.951
 2498TIP3   OH2 7434   0.720   3.209   0.972
 2498TIP3    H1 7435   0.637   3.177   0.936
 2498TIP3    H2 7436   0.726   3.299   0.941
 2499TIP3   OH2 7437   5.414   6.142   1.013
 2499TIP3    H1 7438   5.467   6.214   0.977
 2499TIP3    H2 7439   5.475   6.068   1.017
 2500TIP3   OH2 7440   7.630   1.363   3.978
 2500TIP3    H1 7441   7.553   1.336   4.027
 2500TIP3    H2 7442   7.690   1.288   3.983
 2501TIP3   OH2 7443   0.170   7.093   5.587
 2501TIP3    H1 7444   0.171   7.168   5.646
 2501TIP3    H2 7445   0.261   7.083   5.559
 2502TIP3   OH2 7446   0.504   7.732   6.073
 2502TIP3    H1 7447   0.444   7.676   6.122
 2502TIP3    H2 7448   0.590   7.714   6.113
 2503TIP3   OH2 7449   6.388   1.550   4.012
 2503TIP3    H1 7450   6.468   1.497   4.008
 2503TIP3    H2 7451   6.420   1.638   4.032
 2504TIP3   OH2 7452   2.255   2.697   5.115
 2504TIP3    H1 7453   2.242   2.715   5.208
 2504TIP3    H2 7454   2.176   2.730   5.072
 2505TIP3   OH2 7455   3.171   0.565   4.333
 2505TIP3    H1 7456   3.113   0.612   4.392
 2505TIP3    H2 7457   3.121   0.487   4.307
 2506TIP3   OH2 7458   7.340   7.312   4.547
 2506TIP3    H1 7459   7.305   7.227   4.571
 2506TIP3    H2 7460   7.343   7.311   4.451
 2507TIP3   OH2 7461   0.159   0.828   4.833
 2507TIP3    H1 7462   0.223   0.884   4.877
 2507TIP3    H2 7463   0.168   0.743   4.876
 2508TIP3   OH2 7464   4.478   4.253   5.724
 2508TIP3    H1 7465   4.457   4.205   5.644
 2508TIP3    H2 7466   4.519   4.334   5.693
 2509TIP3   OH2 7467   0.263   5.227   3.697
 2509TIP3    H1 7468   0.253   5.166   3.770
 2509TIP3    H2 7469   0.217   5.306   3.725
 2510TIP3   OH2 7470   1.997   2.149   0.081
 2510TIP3    H1 7471   2.054   2.097   0.025
 2510TIP3    H2 7472   1.909   2.129   0.051
 2511TIP3   OH2 7473   7.233   6.711   6.734
 2511TIP3    H1 7474   7.255   6.688   6.824
 2511TIP3    H2 7475   7.161   6.773   6.741
 2512TIP3   OH2 7476   7.099   0.076   2.855
 2512TIP3    H1 7477   7.035   0.029   2.908
 2512TIP3    H2 7478   7.183   0.057   2.896
 2513TIP3   OH2 7479   3.336   5.834   4.644
 2513TIP3    H1 7480   3.256   5.786   4.625
 2513TIP3    H2 7481   3.371   5.858   4.558
 2514TIP3   OH2 7482   5.629   1.688   5.385
 2514TIP3    H1 7483   5.557   1.727   5.334
 2514TIP3    H2 7484   5.595   1.683   5.474
 2515TIP3   OH2 7485   0.780   0.930   4.923
 2515TIP3    H1 7486   0.742   1.014   4.899
 2515TIP3    H2 7487   0.875   0.943   4.914
 2516TIP3   OH2 7488   7.013   7.251   5.957
 2516TIP3    H1 7489   7.028   7.292   5.872
 2516TIP3    H2 7490   7.061   7.169   5.953
 2517TIP3   OH2 7491   8.215   5.710   3.989
 2517TIP3    H1 7492   8.146   5.715   3.923
 2517TIP3    H2 7493   8.179   5.759   4.063
 2518TIP3   OH2 7494   2.752   7.182   1.944
 2518TIP3    H1 7495   2.725   7.111   1.886
 2518TIP3    H2 7496   2.673   7.235   1.956
 2519TIP3   OH2 7497   4.455   6.396   6.582
 2519TIP3    H1 7498   4.470   6.472   6.526
 2519TIP3    H2 7499   4.482   6.321   6.529
 2520TIP3   OH2 7500   6.168   7.855   5.422
 2520TIP3    H1 7501   6.122   7.789   5.474
 2520TIP3    H2 7502   6.241   7.808   5.382
 2521TIP3   OH2 7503   0.607   3.835   0.480
 2521TIP3    H1 7504   0.538   3.898   0.500
 2521TIP3    H2 7505   0.563   3.750   0.480
 2522TIP3   OH2 7506   2.403   4.355   4.222
 2522TIP3    H1 7507   2.496   4.354   4.244
 2522TIP3    H2 7508   2.382   4.263   4.206
 2523TIP3   OH2 7509   3.275   5.711   4.885
 2523TIP3    H1 7510   3.332   5.636   4.902
 2523TIP3    H2 7511   3.312   5.752   4.807
 2524TIP3   OH2 7512   2.725   3.167   1.215
 2524TIP3    H1 7513   2.773   3.247   1.236
 2524TIP3    H2 7514   2.653   3.165   1.279
 2525TIP3   OH2 7515   5.817   7.835   1.254
 2525TIP3    H1 7516   5.873   7.802   1.323
 2525TIP3    H2 7517   5.837   7.929   1.250
 2526TIP3   OH2 7518   4.331   5.094   1.938
 2526TIP3    H1 7519   4.414   5.049   1.953
 2526TIP3    H2 7520   4.342   5.137   1.853
 2527TIP3   OH2 7521   6.038   7.847   1.788
 2527TIP3    H1 7522   6.002   7.884   1.868
 2527TIP3    H2 7523   6.090   7.918   1.750
 2528TIP3   OH2 7524   0.333   7.890   1.664
 2528TIP3    H1 7525   0.263   7.854   1.610
 2528TIP3    H2 7526   0.289   7.950   1.724
 2529TIP3   OH2 7527   1.002   0.384   4.824
 2529TIP3    H1 7528   0.919   0.351   4.790
 2529TIP3    H2 7529   1.069   0.331   4.780
 2530TIP3   OH2 7530   2.715   5.387   4.043
 2530TIP3    H1 7531   2.655   5.431   4.102
 2530TIP3    H2 7532   2.743   5.309   4.091
 2531TIP3   OH2 7533   4.861   0.073   5.129
 2531TIP3    H1 7534   4.798   0.131   5.172
 2531TIP3    H2 7535   4.900   0.023   5.200
 2532TIP3   OH2 7536   7.054   2.566   0.529
 2532TIP3    H1 7537   6.981   2.627   0.526
 2532TIP3    H2 7538   7.088   2.565   0.439
 2533TIP3   OH2 7539   0.851   6.139   1.676
 2533TIP3    H1 7540   0.918   6.137   1.744
 2533TIP3    H2 7541   0.860   6.226   1.635
 2534TIP3   OH2 7542   4.675   7.404   3.456
 2534TIP3    H1 7543   4.761   7.386   3.417
 2534TIP3    H2 7544   4.673   7.350   3.535
 2535TIP3   OH2 7545   6.190   7.649   3.005
 2535TIP3    H1 7546   6.220   7.569   3.049
 2535TIP3    H2 7547   6.268   7.704   3.000
 2536TIP3   OH2 7548   6.429   6.168   0.830
 2536TIP3    H1 7549   6.523   6.155   0.816
 2536TIP3    H2 7550   6.423   6.219   0.911
 2537TIP3   OH2 7551   5.224   4.378   5.907
 2537TIP3    H1 7552   5.166   4.335   5.970
 2537TIP3    H2 7553   5.235   4.314   5.837
 2538TIP3   OH2 7554   0.292   6.830   1.390
 2538TIP3    H1 7555   0.238   6.866   1.461
 2538TIP3    H2 7556   0.373   6.881   1.393
 2539TIP3   OH2 7557   7.354   2.500   5.493
 2539TIP3    H1 7558   7.348   2.413   5.453
 2539TIP3    H2 7559   7.341   2.561   5.421
 2540TIP3   OH2 7560   1.327   1.862   0.967
 2540TIP3    H1 7561   1.258   1.852   0.902
 2540TIP3    H2 7562   1.408   1.867   0.916
 2541TIP3   OH2 7563   1.677   4.335   3.309
 2541TIP3    H1 7564   1.724   4.417   3.316
 2541TIP3    H2 7565   1.604   4.354   3.250
 2542TIP3   OH2 7566   7.192   7.264   4.319
 2542TIP3    H1 7567   7.218   7.244   4.229
 2542TIP3    H2 7568   7.118   7.206   4.336
 2543TIP3   OH2 7569   2.098   2.962   3.906
 2543TIP3    H1 7570   2.092   2.994   3.816
 2543TIP3    H2 7571   2.187   2.928   3.913
 2544TIP3   OH2 7572   3.103   1.611   4.915
 2544TIP3    H1 7573   3.109   1.579   5.005
 2544TIP3    H2 7574   3.188   1.588   4.876
 2545TIP3   OH2 7575   4.697   7.487   3.115
 2545TIP3    H1 7576   4.628   7.420   3.110
 2545TIP3    H2 7577   4.694   7.531   3.029
 2546TIP3   OH2 7578   5.035   3.811   2.141
 2546TIP3    H1 7579   4.984   3.886   2.108
 2546TIP3    H2 7580   4.995   3.791   2.226
 2547TIP3   OH2 7581   1.138   5.845   6.170
 2547TIP3    H1 7582   1.224   5.884   6.187
 2547TIP3    H2 7583   1.107   5.889   6.092
 2548TIP3   OH2 7584   0.868   2.105   6.027
 2548TIP3    H1 7585   0.818   2.100   5.945
 2548TIP3    H2 7586   0.822   2.168   6.081
 2549TIP3   OH2 7587   1.526   6.456   5.900
 2549TIP3    H1 7588   1.488   6.418   5.979
 2549TIP3    H2 7589   1.618   6.430   5.903
 2550TIP3   OH2 7590   3.227   1.453   2.564
 2550TIP3    H1 7591   3.154   1.396   2.539
 2550TIP3    H2 7592   3.239   1.437   2.658
 2551TIP3   OH2 7593   3.052   3.901   6.601
 2551TIP3    H1 7594   3.104   3.955   6.542
 2551TIP3    H2 7595   2.974   3.954   6.619
 2552TIP3   OH2 7596   2.477   6.348   0.134
 2552TIP3    H1 7597   2.384   6.373   0.142
 2552TIP3    H2 7598   2.477   6.253   0.139
 2553TIP3   OH2 7599   1.347   7.259   0.515
 2553TIP3    H1 7600   1.309   7.240   0.429
 2553TIP3    H2 7601   1.274   7.296   0.566
 2554TIP3   OH2 7602   7.804   2.980   4.151
 2554TIP3    H1 7603   7.892   2.960   4.117
 2554TIP3    H2 7604   7.798   3.075   4.150
 2555TIP3   OH2 7605   1.616   5.015   3.201
 2555TIP3    H1 7606   1.559   5.056   3.266
 2555TIP3    H2 7607   1.580   4.927   3.191
 2556TIP3   OH2 7608   3.825   0.094   1.732
 2556TIP3    H1 7609   3.917   0.099   1.761
 2556TIP3    H2 7610   3.774   0.101   1.813
 2557TIP3   OH2 7611   5.493   6.465   1.976
 2557TIP3    H1 7612   5.484   6.485   1.882
 2557TIP3    H2 7613   5.403   6.470   2.010
 2558TIP3   OH2 7614   3.941   1.129   1.449
 2558TIP3    H1 7615   4.013   1.094   1.398
 2558TIP3    H2 7616   3.870   1.065   1.439
 2559TIP3   OH2 7617   2.877   6.356   1.792
 2559TIP3    H1 7618   2.953   6.410   1.772
 2559TIP3    H2 7619   2.910   6.285   1.847
 2560TIP3   OH2 7620   2.838   2.305   1.879
 2560TIP3    H1 7621   2.817   2.339   1.791
 2560TIP3    H2 7622   2.837   2.210   1.869
 2561TIP3   OH2 7623   4.280   2.389   4.056
 2561TIP3    H1 7624   4.375   2.398   4.054
 2561TIP3    H2 7625   4.251   2.455   4.118
 2562TIP3   OH2 7626   0.684   2.692   1.080
 2562TIP3    H1 7627   0.722   2.696   0.993
 2562TIP3    H2 7628   0.601   2.739   1.072
 2563TIP3   OH2 7629   2.727   4.690   2.466
 2563TIP3    H1 7630   2.731   4.699   2.371
 2563TIP3    H2 7631   2.808   4.644   2.489
 2564TIP3   OH2 7632   4.971   5.130   1.900
 2564TIP3    H1 7633   4.885   5.149   1.863
 2564TIP3    H2 7634   4.953   5.102   1.990
 2565TIP3   OH2 7635   3.364   1.790   6.171
 2565TIP3    H1 7636   3.307   1.824   6.240
 2565TIP3    H2 7637   3.423   1.862   6.150
 2566TIP3   OH2 7638   3.683   4.585   3.262
 2566TIP3    H1 7639   3.752   4.649   3.280
 2566TIP3    H2 7640   3.618   4.634   3.212
 2567TIP3   OH2 7641   2.869   5.265   4.387
 2567TIP3    H1 7642   2.822   5.246   4.306
 2567TIP3    H2 7643   2.831   5.206   4.452
 2568TIP3   OH2 7644   1.762   3.202   1.044
 2568TIP3    H1 7645   1.839   3.163   1.002
 2568TIP3    H2 7646   1.698   3.131   1.049
 2569TIP3   OH2 7647   3.655   3.436   1.666
 2569TIP3    H1 7648   3.712   3.512   1.664
 2569TIP3    H2 7649   3.671   3.391   1.583
 2570TIP3   OH2 7650   5.141   0.666   3.070
 2570TIP3    H1 7651   5.049   0.643   3.078
 2570TIP3    H2 7652   5.141   0.760   3.053
 2571TIP3   OH2 7653   7.535   1.636   5.933
 2571TIP3    H1 7654   7.614   1.588   5.959
 2571TIP3    H2 7655   7.462   1.579   5.961
 2572TIP3   OH2 7656   7.389   6.074   2.355
 2572TIP3    H1 7657   7.457   6.007   2.361
 2572TIP3    H2 7658   7.386   6.113   2.442
 2573TIP3   OH2 7659   7.407   1.164   1.029
 2573TIP3    H1 7660   7.457   1.090   0.995
 2573TIP3    H2 7661   7.351   1.125   1.096
 2574TIP3   OH2 7662   1.155   6.783   3.123
 2574TIP3    H1 7663   1.203   6.760   3.044
 2574TIP3    H2 7664   1.206   6.854   3.163
 2575TIP3   OH2 7665   4.967   3.504   1.641
 2575TIP3    H1 7666   4.917   3.555   1.704
 2575TIP3    H2 7667   5.048   3.480   1.687
 2576TIP3   OH2 7668   5.521   3.899   5.015
 2576TIP3    H1 7669   5.440   3.917   4.968
 2576TIP3    H2 7670   5.570   3.841   4.957
 2577TIP3   OH2 7671   3.811   6.986   3.835
 2577TIP3    H1 7672   3.723   7.001   3.869
 2577TIP3    H2 7673   3.869   6.993   3.911
 2578TIP3   OH2 7674   8.284   2.972   2.069
 2578TIP3    H1 7675   8.219   3.031   2.031
 2578TIP3    H2 7676   8.246   2.885   2.058
 2579TIP3   OH2 7677   2.116   1.069   3.661
 2579TIP3    H1 7678   2.122   1.036   3.571
 2579TIP3    H2 7679   2.059   1.146   3.654
 2580TIP3   OH2 7680   2.281   1.037   5.729
 2580TIP3    H1 7681   2.276   1.128   5.699
 2580TIP3    H2 7682   2.193   1.003   5.713
 2581TIP3   OH2 7683   6.982   6.350   1.617
 2581TIP3    H1 7684   6.984   6.414   1.546
 2581TIP3    H2 7685   7.065   6.304   1.609
 2582TIP3   OH2 7686   6.635   5.351   1.970
 2582TIP3    H1 7687   6.663   5.442   1.969
 2582TIP3    H2 7688   6.558   5.349   1.913
 2583TIP3   OH2 7689   6.543   7.753   1.941
 2583TIP3    H1 7690   6.551   7.744   1.846
 2583TIP3    H2 7691   6.498   7.673   1.969
 2584TIP3   OH2 7692   1.561   7.722   1.439
 2584TIP3    H1 7693   1.577   7.648   1.498
 2584TIP3    H2 7694   1.523   7.789   1.496
 2585TIP3   OH2 7695   7.317   0.212   5.945
 2585TIP3    H1 7696   7.276   0.280   5.890
 2585TIP3    H2 7697   7.319   0.134   5.889
 2586TIP3   OH2 7698   4.663   4.498   2.810
 2586TIP3    H1 7699   4.584   4.496   2.865
 2586TIP3    H2 7700   4.639   4.445   2.733
 2587TIP3   OH2 7701   6.924   2.919   2.448
 2587TIP3    H1 7702   7.005   2.939   2.495
 2587TIP3    H2 7703   6.942   2.941   2.357
 2588TIP3   OH2 7704   2.209   5.735   1.751
 2588TIP3    H1 7705   2.216   5.661   1.690
 2588TIP3    H2 7706   2.160   5.700   1.825
 2589TIP3   OH2 7707   5.947   5.719   1.232
 2589TIP3    H1 7708   5.907   5.632   1.225
 2589TIP3    H2 7709   5.948   5.752   1.142
 2590TIP3   OH2 7710   6.430   5.472   5.996
 2590TIP3    H1 7711   6.502   5.409   6.003
 2590TIP3    H2 7712   6.402   5.467   5.905
 2591TIP3   OH2 7713   7.805   7.332   0.249
 2591TIP3    H1 7714   7.720   7.368   0.223
 2591TIP3    H2 7715   7.868   7.401   0.226
 2592TIP3   OH2 7716   2.249   5.660   0.993
 2592TIP3    H1 7717   2.254   5.617   1.079
 2592TIP3    H2 7718   2.155   5.659   0.972
 2593TIP3   OH2 7719   4.522   5.386   2.098
 2593TIP3    H1 7720   4.459   5.373   2.169
 2593TIP3    H2 7721   4.607   5.382   2.141
 2594TIP3   OH2 7722   3.579   2.180   1.620
 2594TIP3    H1 7723   3.492   2.140   1.618
 2594TIP3    H2 7724   3.639   2.105   1.620
 2595TIP3   OH2 7725   6.458   5.377   5.602
 2595TIP3    H1 7726   6.537   5.420   5.633
 2595TIP3    H2 7727   6.474   5.360   5.509
 2596TIP3   OH2 7728   1.280   0.442   0.651
 2596TIP3    H1 7729   1.193   0.459   0.688
 2596TIP3    H2 7730   1.340   0.481   0.715
 2597TIP3   OH2 7731   0.582   5.328   4.081
 2597TIP3    H1 7732   0.678   5.332   4.077
 2597TIP3    H2 7733   0.558   5.401   4.138
 2598TIP3   OH2 7734   4.345   2.018   4.673
 2598TIP3    H1 7735   4.337   2.113   4.679
 2598TIP3    H2 7736   4.367   2.001   4.581
 2599TIP3   OH2 7737   3.523   2.428   3.007
 2599TIP3    H1 7738   3.493   2.511   2.970
 2599TIP3    H2 7739   3.570   2.453   3.087
 2600TIP3   OH2 7740   7.550   6.916   6.820
 2600TIP3    H1 7741   7.475   6.973   6.800
 2600TIP3    H2 7742   7.626   6.969   6.796
 2601TIP3   OH2 7743   7.835   6.313   5.470
 2601TIP3    H1 7744   7.817   6.399   5.431
 2601TIP3    H2 7745   7.800   6.319   5.559
 2602TIP3   OH2 7746   6.968   3.797   5.969
 2602TIP3    H1 7747   7.048   3.809   5.917
 2602TIP3    H2 7748   6.919   3.729   5.922
 2603TIP3   OH2 7749   4.075   0.706   1.611
 2603TIP3    H1 7750   4.043   0.792   1.639
 2603TIP3    H2 7751   4.031   0.690   1.527
 2604TIP3   OH2 7752   0.487   7.847   4.783
 2604TIP3    H1 7753   0.474   7.776   4.719
 2604TIP3    H2 7754   0.410   7.843   4.839
 2605TIP3   OH2 7755   2.538   5.000   5.639
 2605TIP3    H1 7756   2.603   5.068   5.624
 2605TIP3    H2 7757   2.504   5.018   5.726
 2606TIP3   OH2 7758   1.246   7.633   3.144
 2606TIP3    H1 7759   1.170   7.674   3.186
 2606TIP3    H2 7760   1.236   7.655   3.051
 2607TIP3   OH2 7761   8.374   7.018   1.386
 2607TIP3    H1 7762   8.372   7.077   1.461
 2607TIP3    H2 7763   8.282   7.007   1.361
 2608TIP3   OH2 7764   8.209   4.358   0.843
 2608TIP3    H1 7765   8.128   4.308   0.848
 2608TIP3    H2 7766   8.198   4.415   0.767
 2609TIP3   OH2 7767   1.076   7.580   4.987
 2609TIP3    H1 7768   1.128   7.660   4.993
 2609TIP3    H2 7769   1.111   7.533   4.911
 2610TIP3   OH2 7770   0.621   2.550   0.614
 2610TIP3    H1 7771   0.562   2.505   0.554
 2610TIP3    H2 7772   0.614   2.643   0.591
 2611TIP3   OH2 7773   7.755   3.216   6.767
 2611TIP3    H1 7774   7.825   3.220   6.702
 2611TIP3    H2 7775   7.731   3.307   6.782
 2612TIP3   OH2 7776   5.772   0.084   3.388
 2612TIP3    H1 7777   5.836   0.021   3.356
 2612TIP3    H2 7778   5.751   0.137   3.311
 2613TIP3   OH2 7779   4.841   3.371   6.028
 2613TIP3    H1 7780   4.929   3.334   6.025
 2613TIP3    H2 7781   4.782   3.298   6.009
 2614TIP3   OH2 7782   2.056   6.815   2.367
 2614TIP3    H1 7783   2.031   6.904   2.393
 2614TIP3    H2 7784   1.976   6.764   2.377
 2615TIP3   OH2 7785   5.565   5.421   6.540
 2615TIP3    H1 7786   5.488   5.471   6.565
 2615TIP3    H2 7787   5.575   5.437   6.446
 2616TIP3   OH2 7788   3.951   7.848   3.872
 2616TIP3    H1 7789   4.016   7.890   3.816
 2616TIP3    H2 7790   3.990   7.851   3.960
 2617TIP3   OH2 7791   1.375   2.947   0.239
 2617TIP3    H1 7792   1.305   2.971   0.179
 2617TIP3    H2 7793   1.439   2.901   0.184
 2618TIP3   OH2 7794   2.120   4.366   2.981
 2618TIP3    H1 7795   2.216   4.369   2.983
 2618TIP3    H2 7796   2.095   4.331   3.066
 2619TIP3   OH2 7797   6.845   0.910   4.572
 2619TIP3    H1 7798   6.884   0.825   4.592
 2619TIP3    H2 7799   6.750   0.894   4.578
 2620TIP3   OH2 7800   5.358   6.763   6.165
 2620TIP3    H1 7801   5.295   6.734   6.099
 2620TIP3    H2 7802   5.351   6.698   6.235
 2621TIP3   OH2 7803   6.764   6.106   4.113
 2621TIP3    H1 7804   6.856   6.080   4.108
 2621TIP3    H2 7805   6.750   6.129   4.205
 2622TIP3   OH2 7806   3.298   6.787   2.487
 2622TIP3    H1 7807   3.271   6.745   2.569
 2622TIP3    H2 7808   3.217   6.821   2.449
 2623TIP3   OH2 7809   1.764   1.351   4.292
 2623TIP3    H1 7810   1.790   1.296   4.365
 2623TIP3    H2 7811   1.784   1.299   4.214
 2624TIP3   OH2 7812   0.098   6.330   4.755
 2624TIP3    H1 7813   0.063   6.260   4.809
 2624TIP3    H2 7814   0.076   6.305   4.665
 2625TIP3   OH2 7815   8.188   0.909   4.429
 2625TIP3    H1 7816   8.276   0.883   4.402
 2625TIP3    H2 7817   8.172   0.991   4.383
 2626TIP3   OH2 7818   4.602   1.361   0.533
 2626TIP3    H1 7819   4.552   1.316   0.465
 2626TIP3    H2 7820   4.612   1.297   0.603
 2627TIP3   OH2 7821   3.112   2.171   3.813
 2627TIP3    H1 7822   3.140   2.244   3.758
 2627TIP3    H2 7823   3.030   2.141   3.773
 2628TIP3   OH2 7824   2.186   4.648   1.967
 2628TIP3    H1 7825   2.172   4.587   1.895
 2628TIP3    H2 7826   2.228   4.596   2.035
 2629TIP3   OH2 7827   2.599   2.133   3.609
 2629TIP3    H1 7828   2.528   2.111   3.548
 2629TIP3    H2 7829   2.625   2.221   3.583
 2630TIP3   OH2 7830   7.980   3.553   3.077
 2630TIP3    H1 7831   7.908   3.591   3.026
 2630TIP3    H2 7832   8.042   3.523   3.011
 2631TIP3   OH2 7833   6.877   5.732   6.651
 2631TIP3    H1 7834   6.914   5.653   6.691
 2631TIP3    H2 7835   6.941   5.800   6.667
 2632TIP3   OH2 7836   3.833   3.987   1.138
 2632TIP3    H1 7837   3.914   3.947   1.170
 2632TIP3    H2 7838   3.804   3.929   1.067
 2633TIP3   OH2 7839   7.690   6.506   0.854
 2633TIP3    H1 7840   7.637   6.454   0.794
 2633TIP3    H2 7841   7.777   6.466   0.849
 2634TIP3   OH2 7842   4.874   1.293   1.914
 2634TIP3    H1 7843   4.836   1.205   1.906
 2634TIP3    H2 7844   4.843   1.339   1.835
 2635TIP3   OH2 7845   6.186   1.370   6.025
 2635TIP3    H1 7846   6.131   1.369   6.103
 2635TIP3    H2 7847   6.273   1.344   6.056
 2636TIP3   OH2 7848   0.857   7.927   6.555
 2636TIP3    H1 7849   0.786   7.864   6.560
 2636TIP3    H2 7850   0.936   7.875   6.542
 2637TIP3   OH2 7851   7.782   4.069   0.256
 2637TIP3    H1 7852   7.786   4.110   0.343
 2637TIP3    H2 7853   7.709   4.113   0.212
 2638TIP3   OH2 7854   4.630   3.088   1.487
 2638TIP3    H1 7855   4.617   3.161   1.428
 2638TIP3    H2 7856   4.542   3.062   1.514
 2639TIP3   OH2 7857   3.150   6.730   3.598
 2639TIP3    H1 7858   3.183   6.674   3.528
 2639TIP3    H2 7859   3.224   6.785   3.622
 2640TIP3   OH2 7860   2.859   1.968   0.993
 2640TIP3    H1 7861   2.941   1.996   1.034
 2640TIP3    H2 7862   2.845   1.879   1.026
 2641TIP3   OH2 7863   7.982   0.720   4.399
 2641TIP3    H1 7864   7.920   0.714   4.472
 2641TIP3    H2 7865   8.051   0.777   4.432
 2642TIP3   OH2 7866   1.106   0.422   6.302
 2642TIP3    H1 7867   1.068   0.339   6.273
 2642TIP3    H2 7868   1.191   0.397   6.340
 2643TIP3   OH2 7869   8.161   0.845   1.914
 2643TIP3    H1 7870   8.218   0.825   1.989
 2643TIP3    H2 7871   8.092   0.899   1.952
 2644TIP3   OH2 7872   4.741   3.399   0.946
 2644TIP3    H1 7873   4.758   3.421   0.855
 2644TIP3    H2 7874   4.799   3.456   0.996
 2645TIP3   OH2 7875   6.083   7.362   4.898
 2645TIP3    H1 7876   6.135   7.424   4.846
 2645TIP3    H2 7877   5.994   7.397   4.895
 2646TIP3   OH2 7878   4.680   1.062   0.231
 2646TIP3    H1 7879   4.633   0.990   0.188
 2646TIP3    H2 7880   4.709   1.117   0.158
 2647TIP3   OH2 7881   0.707   3.523   5.836
 2647TIP3    H1 7882   0.631   3.524   5.894
 2647TIP3    H2 7883   0.681   3.466   5.763
 2648TIP3   OH2 7884   7.079   2.938   3.983
 2648TIP3    H1 7885   7.033   2.857   4.001
 2648TIP3    H2 7886   7.158   2.912   3.936
 2649TIP3   OH2 7887   2.168   0.468   6.267
 2649TIP3    H1 7888   2.209   0.524   6.333
 2649TIP3    H2 7889   2.074   0.471   6.287
 2650TIP3   OH2 7890   6.918   6.915   1.474
 2650TIP3    H1 7891   6.887   6.844   1.419
 2650TIP3    H2 7892   6.843   6.934   1.532
 2651TIP3   OH2 7893   0.874   7.106   1.590
 2651TIP3    H1 7894   0.780   7.094   1.605
 2651TIP3    H2 7895   0.881   7.196   1.560
 2652TIP3   OH2 7896   3.232   6.035   4.878
 2652TIP3    H1 7897   3.257   5.967   4.816
 2652TIP3    H2 7898   3.312   6.086   4.891
 2653TIP3   OH2 7899   0.675   7.578   2.394
 2653TIP3    H1 7900   0.607   7.554   2.331
 2653TIP3    H2 7901   0.718   7.654   2.355
 2654TIP3   OH2 7902   1.364   7.584   3.584
 2654TIP3    H1 7903   1.405   7.609   3.501
 2654TIP3    H2 7904   1.386   7.656   3.644
 2655TIP3   OH2 7905   0.845   3.878   2.369
 2655TIP3    H1 7906   0.873   3.955   2.319
 2655TIP3    H2 7907   0.834   3.910   2.458
 2656TIP3   OH2 7908   5.626   4.762   3.824
 2656TIP3    H1 7909   5.664   4.714   3.750
 2656TIP3    H2 7910   5.535   4.732   3.826
 2657TIP3   OH2 7911   0.506   7.135   1.712
 2657TIP3    H1 7912   0.438   7.200   1.729
 2657TIP3    H2 7913   0.483   7.060   1.767
 2658TIP3   OH2 7914   2.992   0.876   0.193
 2658TIP3    H1 7915   3.070   0.867   0.139
 2658TIP3    H2 7916   2.993   0.967   0.221
 2659TIP3   OH2 7917   2.500   7.753   1.817
 2659TIP3    H1 7918   2.570   7.810   1.849
 2659TIP3    H2 7919   2.514   7.749   1.722
 2660TIP3   OH2 7920   8.217   2.894   5.060
 2660TIP3    H1 7921   8.222   2.897   5.156
 2660TIP3    H2 7922   8.201   2.984   5.034
 2661TIP3   OH2 7923   5.766   4.650   3.618
 2661TIP3    H1 7924   5.779   4.713   3.548
 2661TIP3    H2 7925   5.852   4.610   3.630
 2662TIP3   OH2 7926   6.032   5.387   2.506
 2662TIP3    H1 7927   6.072   5.328   2.443
 2662TIP3    H2 7928   5.943   5.353   2.517
 2663TIP3   OH2 7929   4.728   4.736   3.111
 2663TIP3    H1 7930   4.805   4.707   3.063
 2663TIP3    H2 7931   4.664   4.759   3.044
 2664TIP3   OH2 7932   6.256   3.020   6.515
 2664TIP3    H1 7933   6.212   2.938   6.491
 2664TIP3    H2 7934   6.190   3.088   6.497
 2665TIP3   OH2 7935   6.022   7.494   3.665
 2665TIP3    H1 7936   6.018   7.416   3.610
 2665TIP3    H2 7937   6.025   7.461   3.754
 2666TIP3   OH2 7938   8.281   5.896   3.084
 2666TIP3    H1 7939   8.219   5.823   3.074
 2666TIP3    H2 7940   8.317   5.884   3.172
 2667TIP3   OH2 7941   7.297   7.433   6.631
 2667TIP3    H1 7942   7.277   7.360   6.690
 2667TIP3    H2 7943   7.361   7.397   6.570
 2668TIP3   OH2 7944   6.552   4.933   1.057
 2668TIP3    H1 7945   6.511   4.942   0.971
 2668TIP3    H2 7946   6.625   4.873   1.042
 2669TIP3   OH2 7947   6.826   1.190   0.824
 2669TIP3    H1 7948   6.867   1.105   0.841
 2669TIP3    H2 7949   6.892   1.255   0.848
 2670TIP3   OH2 7950   0.455   5.370   2.253
 2670TIP3    H1 7951   0.465   5.418   2.170
 2670TIP3    H2 7952   0.545   5.348   2.279
 2671TIP3   OH2 7953   6.339   4.208   2.592
 2671TIP3    H1 7954   6.337   4.303   2.584
 2671TIP3    H2 7955   6.425   4.183   2.559
 2672TIP3   OH2 7956   6.156   2.018   4.970
 2672TIP3    H1 7957   6.168   2.113   4.963
 2672TIP3    H2 7958   6.138   2.004   5.063
 2673TIP3   OH2 7959   8.426   4.170   0.532
 2673TIP3    H1 7960   8.335   4.153   0.557
 2673TIP3    H2 7961   8.442   4.111   0.458
 2674TIP3   OH2 7962   0.841   0.294   5.748
 2674TIP3    H1 7963   0.878   0.212   5.782
 2674TIP3    H2 7964   0.896   0.314   5.672
 2675TIP3   OH2 7965   7.690   4.676   3.243
 2675TIP3    H1 7966   7.627   4.606   3.259
 2675TIP3    H2 7967   7.674   4.703   3.153
 2676TIP3   OH2 7968   7.019   5.371   6.438
 2676TIP3    H1 7969   7.030   5.312   6.364
 2676TIP3    H2 7970   6.930   5.353   6.470
 2677TIP3   OH2 7971   1.266   0.519   0.359
 2677TIP3    H1 7972   1.237   0.462   0.429
 2677TIP3    H2 7973   1.356   0.543   0.383
 2678TIP3   OH2 7974   3.590   2.635   5.396
 2678TIP3    H1 7975   3.673   2.605   5.359
 2678TIP3    H2 7976   3.535   2.556   5.399
 2679TIP3   OH2 7977   2.060   6.201   3.200
 2679TIP3    H1 7978   2.089   6.114   3.225
 2679TIP3    H2 7979   2.139   6.247   3.172
 2680TIP3   OH2 7980   1.291   3.873   3.754
 2680TIP3    H1 7981   1.307   3.799   3.696
 2680TIP3    H2 7982   1.235   3.838   3.823
 2681TIP3   OH2 7983   2.846   6.651   1.582
 2681TIP3    H1 7984   2.809   6.698   1.507
 2681TIP3    H2 7985   2.941   6.654   1.567
 2682TIP3   OH2 7986   3.476   0.287   2.047
 2682TIP3    H1 7987   3.502   0.288   2.139
 2682TIP3    H2 7988   3.484   0.379   2.019
 2683TIP3   OH2 7989   4.056   4.536   4.792
 2683TIP3    H1 7990   3.981   4.479   4.776
 2683TIP3    H2 7991   4.102   4.495   4.865
 2684TIP3   OH2 7992   3.888   7.338   1.268
 2684TIP3    H1 7993   3.974   7.332   1.310
 2684TIP3    H2 7994   3.831   7.281   1.320
 2685TIP3   OH2 7995   5.899   6.173   2.552
 2685TIP3    H1 7996   5.951   6.228   2.493
 2685TIP3    H2 7997   5.879   6.095   2.500
 2686TIP3   OH2 7998   7.905   6.527   6.611
 2686TIP3    H1 7999   7.841   6.463   6.640
 2686TIP3    H2 8000   7.909   6.515   6.516
 2687TIP3   OH2 8001   6.743   5.330   3.938
 2687TIP3    H1 8002   6.686   5.297   4.007
 2687TIP3    H2 8003   6.741   5.425   3.948
 2688TIP3   OH2 8004   4.032   5.540   0.618
 2688TIP3    H1 8005   4.047   5.447   0.635
 2688TIP3    H2 8006   4.117   5.582   0.635
 2689TIP3   OH2 8007   7.573   6.123   5.413
 2689TIP3    H1 8008   7.535   6.197   5.461
 2689TIP3    H2 8009   7.506   6.055   5.417
 2690TIP3   OH2 8010   5.817   4.935   5.701
 2690TIP3    H1 8011   5.839   5.017   5.746
 2690TIP3    H2 8012   5.888   4.875   5.725
 2691TIP3   OH2 8013   3.006   6.922   5.102
 2691TIP3    H1 8014   3.042   6.833   5.110
 2691TIP3    H2 8015   3.071   6.978   5.143
 2692TIP3   OH2 8016   6.649   2.963   1.194
 2692TIP3    H1 8017   6.690   2.877   1.198
 2692TIP3    H2 8018   6.704   3.012   1.132
 2693TIP3   OH2 8019   6.495   2.997   0.234
 2693TIP3    H1 8020   6.582   2.981   0.199
 2693TIP3    H2 8021   6.491   3.092   0.245
 2694TIP3   OH2 8022   2.220   6.028   2.438
 2694TIP3    H1 8023   2.311   6.001   2.443
 2694TIP3    H2 8024   2.192   6.037   2.529
 2695TIP3   OH2 8025   4.667   2.157   4.128
 2695TIP3    H1 8026   4.722   2.136   4.204
 2695TIP3    H2 8027   4.708   2.112   4.055
 2696TIP3   OH2 8028   4.321   0.976   5.962
 2696TIP3    H1 8029   4.315   0.928   6.045
 2696TIP3    H2 8030   4.415   0.979   5.944
 2697TIP3   OH2 8031   1.153   2.092   6.637
 2697TIP3    H1 8032   1.208   2.017   6.657
 2697TIP3    H2 8033   1.119   2.121   6.723
 2698TIP3   OH2 8034   3.896   5.173   0.061
 2698TIP3    H1 8035   3.955   5.098   0.066
 2698TIP3    H2 8036   3.953   5.249   0.048
 2699TIP3   OH2 8037   3.941   2.180   3.545
 2699TIP3    H1 8038   3.848   2.179   3.523
 2699TIP3    H2 8039   3.976   2.256   3.499
 2700TIP3   OH2 8040   7.297   2.024   4.543
 2700TIP3    H1 8041   7.356   1.963   4.499
 2700TIP3    H2 8042   7.260   1.974   4.615
 2701TIP3   OH2 8043   1.081   7.304   3.688
 2701TIP3    H1 8044   1.089   7.388   3.733
 2701TIP3    H2 8045   1.172   7.274   3.679
 2702TIP3   OH2 8046   7.172   7.308   2.739
 2702TIP3    H1 8047   7.217   7.281   2.660
 2702TIP3    H2 8048   7.098   7.361   2.708
 2703TIP3   OH2 8049   1.064   7.465   6.649
 2703TIP3    H1 8050   0.974   7.440   6.631
 2703TIP3    H2 8051   1.116   7.389   6.625
 2704TIP3   OH2 8052   6.658   3.552   3.299
 2704TIP3    H1 8053   6.642   3.469   3.345
 2704TIP3    H2 8054   6.572   3.593   3.295
 2705TIP3   OH2 8055   7.003   7.314   3.592
 2705TIP3    H1 8056   7.043   7.274   3.669
 2705TIP3    H2 8057   6.913   7.333   3.619
 2706TIP3   OH2 8058   3.896   1.177   5.232
 2706TIP3    H1 8059   3.981   1.178   5.276
 2706TIP3    H2 8060   3.908   1.231   5.155
 2707TIP3   OH2 8061   0.737   4.387   6.161
 2707TIP3    H1 8062   0.735   4.469   6.210
 2707TIP3    H2 8063   0.829   4.376   6.138
 2708TIP3   OH2 8064   6.061   2.683   1.312
 2708TIP3    H1 8065   6.058   2.775   1.287
 2708TIP3    H2 8066   6.147   2.673   1.354
 2709TIP3   OH2 8067   6.532   3.102   1.789
 2709TIP3    H1 8068   6.473   3.031   1.813
 2709TIP3    H2 8069   6.501   3.131   1.704
 2710TIP3   OH2 8070   1.481   1.806   0.470
 2710TIP3    H1 8071   1.460   1.899   0.462
 2710TIP3    H2 8072   1.569   1.798   0.431
 2711TIP3   OH2 8073   4.406   5.370   0.077
 2711TIP3    H1 8074   4.406   5.355  -0.018
 2711TIP3    H2 8075   4.314   5.368   0.102
 2712TIP3   OH2 8076   5.341   2.891   1.874
 2712TIP3    H1 8077   5.343   2.832   1.799
 2712TIP3    H2 8078   5.391   2.845   1.942
 2713TIP3   OH2 8079   8.232   7.199   4.152
 2713TIP3    H1 8080   8.308   7.213   4.208
 2713TIP3    H2 8081   8.210   7.285   4.118
 2714TIP3   OH2 8082   2.591   0.883   5.101
 2714TIP3    H1 8083   2.662   0.867   5.038
 2714TIP3    H2 8084   2.559   0.796   5.123
 2715TIP3   OH2 8085   3.473   4.225   5.258
 2715TIP3    H1 8086   3.497   4.136   5.233
 2715TIP3    H2 8087   3.404   4.214   5.324
 2716TIP3   OH2 8088   0.135   2.959   2.544
 2716TIP3    H1 8089   0.150   2.877   2.497
 2716TIP3    H2 8090   0.148   3.028   2.479
 2717TIP3   OH2 8091   7.048   0.112   6.761
 2717TIP3    H1 8092   7.080   0.167   6.689
 2717TIP3    H2 8093   7.103   0.033   6.756
 2718TIP3   OH2 8094   1.400   5.790   3.495
 2718TIP3    H1 8095   1.321   5.836   3.467
 2718TIP3    H2 8096   1.393   5.703   3.455
 2719TIP3   OH2 8097   7.885   3.923   6.681
 2719TIP3    H1 8098   7.945   3.861   6.640
 2719TIP3    H2 8099   7.827   3.869   6.735
 2720TIP3   OH2 8100   1.024   7.628   0.390
 2720TIP3    H1 8101   0.944   7.680   0.381
 2720TIP3    H2 8102   1.071   7.668   0.463
 2721TIP3   OH2 8103   2.326   6.367   0.765
 2721TIP3    H1 8104   2.287   6.300   0.822
 2721TIP3    H2 8105   2.254   6.395   0.708
 2722TIP3   OH2 8106   0.029   6.383   6.324
 2722TIP3    H1 8107   0.023   6.459   6.381
 2722TIP3    H2 8108   0.044   6.309   6.383
 2723TIP3   OH2 8109   5.113   5.048   6.564
 2723TIP3    H1 8110   5.178   4.992   6.605
 2723TIP3    H2 8111   5.163   5.121   6.528
 2724TIP3   OH2 8112   7.564   0.105   6.334
 2724TIP3    H1 8113   7.597   0.121   6.422
 2724TIP3    H2 8114   7.642   0.081   6.284
 2725TIP3   OH2 8115   2.706   2.022   1.910
 2725TIP3    H1 8116   2.628   2.077   1.915
 2725TIP3    H2 8117   2.722   1.993   1.999
 2726TIP3   OH2 8118   3.384   2.598   4.268
 2726TIP3    H1 8119   3.288   2.597   4.268
 2726TIP3    H2 8120   3.408   2.507   4.248
 2727TIP3   OH2 8121   1.303   3.691   4.217
 2727TIP3    H1 8122   1.312   3.649   4.303
 2727TIP3    H2 8123   1.347   3.631   4.157
 2728TIP3   OH2 8124   2.586   4.769   4.077
 2728TIP3    H1 8125   2.656   4.773   4.012
 2728TIP3    H2 8126   2.625   4.722   4.151
 2729TIP3   OH2 8127   5.836   3.842   1.663
 2729TIP3    H1 8128   5.792   3.911   1.713
 2729TIP3    H2 8129   5.794   3.761   1.691
 2730TIP3   OH2 8130   3.251   4.107   0.819
 2730TIP3    H1 8131   3.232   4.158   0.741
 2730TIP3    H2 8132   3.341   4.130   0.842
 2731TIP3   OH2 8133   3.081   7.290   6.705
 2731TIP3    H1 8134   3.108   7.288   6.613
 2731TIP3    H2 8135   3.076   7.383   6.726
 2732TIP3   OH2 8136   0.596   7.858   2.062
 2732TIP3    H1 8137   0.671   7.850   2.121
 2732TIP3    H2 8138   0.520   7.860   2.119
 2733TIP3   OH2 8139   3.648   7.906   4.937
 2733TIP3    H1 8140   3.665   7.870   5.024
 2733TIP3    H2 8141   3.633   7.829   4.882
 2734TIP3   OH2 8142   2.840   2.648   4.691
 2734TIP3    H1 8143   2.929   2.613   4.683
 2734TIP3    H2 8144   2.808   2.611   4.773
 2735TIP3   OH2 8145   6.932   3.154   3.945
 2735TIP3    H1 8146   6.974   3.070   3.960
 2735TIP3    H2 8147   6.841   3.133   3.926
 2736TIP3   OH2 8148   5.193   4.765   2.701
 2736TIP3    H1 8149   5.208   4.671   2.708
 2736TIP3    H2 8150   5.201   4.783   2.607
 2737TIP3   OH2 8151   2.026   5.542   1.378
 2737TIP3    H1 8152   1.982   5.470   1.333
 2737TIP3    H2 8153   1.979   5.621   1.349
 2738TIP3   OH2 8154   6.471   3.889   6.462
 2738TIP3    H1 8155   6.544   3.832   6.437
 2738TIP3    H2 8156   6.498   3.976   6.434
 2739TIP3   OH2 8157   3.655   3.157   2.850
 2739TIP3    H1 8158   3.735   3.163   2.902
 2739TIP3    H2 8159   3.656   3.236   2.796
 2740TIP3   OH2 8160   4.509   4.838   2.929
 2740TIP3    H1 8161   4.504   4.803   2.840
 2740TIP3    H2 8162   4.420   4.826   2.964
 2741TIP3   OH2 8163   5.215   4.849   6.309
 2741TIP3    H1 8164   5.216   4.844   6.405
 2741TIP3    H2 8165   5.215   4.757   6.281
 2742TIP3   OH2 8166   1.455   7.315   4.346
 2742TIP3    H1 8167   1.432   7.225   4.369
 2742TIP3    H2 8168   1.538   7.307   4.300
 2743TIP3   OH2 8169   6.447   7.433   2.218
 2743TIP3    H1 8170   6.431   7.480   2.136
 2743TIP3    H2 8171   6.539   7.449   2.237
 2744TIP3   OH2 8172   6.730   5.998   0.688
 2744TIP3    H1 8173   6.704   5.962   0.603
 2744TIP3    H2 8174   6.815   5.957   0.705
 2745TIP3   OH2 8175   0.981   4.405   5.645
 2745TIP3    H1 8176   0.927   4.438   5.716
 2745TIP3    H2 8177   1.052   4.358   5.689
 2746TIP3   OH2 8178   4.914   4.834   0.614
 2746TIP3    H1 8179   4.914   4.762   0.551
 2746TIP3    H2 8180   4.949   4.796   0.694
 2747TIP3   OH2 8181   3.715   7.520   5.724
 2747TIP3    H1 8182   3.707   7.573   5.644
 2747TIP3    H2 8183   3.793   7.554   5.767
 2748TIP3   OH2 8184   3.695   7.764   6.713
 2748TIP3    H1 8185   3.713   7.705   6.786
 2748TIP3    H2 8186   3.777   7.767   6.664
 2749TIP3   OH2 8187   5.514   0.008   1.547
 2749TIP3    H1 8188   5.573  -0.022   1.478
 2749TIP3    H2 8189   5.572   0.049   1.612
 2750TIP3   OH2 8190   2.425   3.541   1.861
 2750TIP3    H1 8191   2.334   3.512   1.854
 2750TIP3    H2 8192   2.419   3.636   1.865
 2751TIP3   OH2 8193   4.335   2.182   3.742
 2751TIP3    H1 8194   4.257   2.236   3.735
 2751TIP3    H2 8195   4.311   2.098   3.703
 2752TIP3   OH2 8196   7.356   5.675   1.718
 2752TIP3    H1 8197   7.268   5.669   1.756
 2752TIP3    H2 8198   7.379   5.585   1.695
 2753TIP3   OH2 8199   4.400   1.823   4.871
 2753TIP3    H1 8200   4.487   1.846   4.902
 2753TIP3    H2 8201   4.380   1.889   4.804
 2754TIP3   OH2 8202   7.983   0.292   2.574
 2754TIP3    H1 8203   7.904   0.264   2.620
 2754TIP3    H2 8204   7.954   0.368   2.522
 2755TIP3   OH2 8205   6.326   2.784   2.973
 2755TIP3    H1 8206   6.271   2.705   2.967
 2755TIP3    H2 8207   6.278   2.850   2.924
 2756TIP3   OH2 8208   7.023   4.030   2.425
 2756TIP3    H1 8209   6.997   4.018   2.334
 2756TIP3    H2 8210   7.117   4.012   2.425
 2757TIP3   OH2 8211   7.775   6.813   0.433
 2757TIP3    H1 8212   7.780   6.900   0.391
 2757TIP3    H2 8213   7.784   6.752   0.360
 2758TIP3   OH2 8214   3.714   6.162   6.208
 2758TIP3    H1 8215   3.773   6.099   6.250
 2758TIP3    H2 8216   3.742   6.162   6.116
 2759TIP3   OH2 8217   1.189   4.933   5.234
 2759TIP3    H1 8218   1.207   4.978   5.317
 2759TIP3    H2 8219   1.273   4.893   5.210
 2760TIP3   OH2 8220   7.457   6.858   1.300
 2760TIP3    H1 8221   7.532   6.801   1.281
 2760TIP3    H2 8222   7.496   6.944   1.317
 2761TIP3   OH2 8223   8.034   3.047   2.687
 2761TIP3    H1 8224   8.125   3.017   2.694
 2761TIP3    H2 8225   8.022   3.102   2.764
 2762TIP3   OH2 8226   0.179   2.838   2.301
 2762TIP3    H1 8227   0.151   2.749   2.282
 2762TIP3    H2 8228   0.162   2.886   2.220
 2763TIP3   OH2 8229   7.594   3.241   3.882
 2763TIP3    H1 8230   7.614   3.148   3.872
 2763TIP3    H2 8231   7.679   3.284   3.891
 2764TIP3   OH2 8232   1.769   5.593   5.531
 2764TIP3    H1 8233   1.750   5.669   5.585
 2764TIP3    H2 8234   1.833   5.625   5.467
 2765TIP3   OH2 8235   5.118   2.066   3.710
 2765TIP3    H1 8236   5.143   2.104   3.794
 2765TIP3    H2 8237   5.154   2.128   3.645
 2766TIP3   OH2 8238   8.074   5.509   2.312
 2766TIP3    H1 8239   8.114   5.523   2.226
 2766TIP3    H2 8240   8.017   5.434   2.300
 2767TIP3   OH2 8241   0.029   6.598   6.493
 2767TIP3    H1 8242  -0.063   6.623   6.493
 2767TIP3    H2 8243   0.049   6.577   6.584
 2768TIP3   OH2 8244   5.836   3.972   6.818
 2768TIP3    H1 8245   5.789   4.048   6.853
 2768TIP3    H2 8246   5.824   3.903   6.883
 2769TIP3   OH2 8247   8.081   6.296   0.088
 2769TIP3    H1 8248   8.007   6.239   0.070
 2769TIP3    H2 8249   8.117   6.317   0.002
 2770TIP3   OH2 8250   7.004   6.961   1.776
 2770TIP3    H1 8251   7.000   6.988   1.684
 2770TIP3    H2 8252   7.016   7.042   1.824
 2771TIP3   OH2 8253   1.691   3.221   2.809
 2771TIP3    H1 8254   1.682   3.126   2.803
 2771TIP3    H2 8255   1.604   3.253   2.830
 2772TIP3   OH2 8256   6.754   1.951   4.703
 2772TIP3    H1 8257   6.661   1.944   4.724
 2772TIP3    H2 8258   6.785   2.025   4.754
 2773TIP3   OH2 8259   7.870   0.683   6.258
 2773TIP3    H1 8260   7.809   0.670   6.186
 2773TIP3    H2 8261   7.835   0.758   6.306
 2774TIP3   OH2 8262   7.757   3.487   0.120
 2774TIP3    H1 8263   7.823   3.505   0.187
 2774TIP3    H2 8264   7.679   3.534   0.151
 2775TIP3   OH2 8265   3.327   1.284   2.099
 2775TIP3    H1 8266   3.258   1.252   2.041
 2775TIP3    H2 8267   3.400   1.303   2.041
 2776TIP3   OH2 8268   4.474   4.918   1.197
 2776TIP3    H1 8269   4.474   5.012   1.214
 2776TIP3    H2 8270   4.392   4.887   1.236
 2777TIP3   OH2 8271   4.211   6.311   6.271
 2777TIP3    H1 8272   4.185   6.310   6.179
 2777TIP3    H2 8273   4.283   6.249   6.277
 2778TIP3   OH2 8274   1.853   0.158   2.593
 2778TIP3    H1 8275   1.771   0.208   2.588
 2778TIP3    H2 8276   1.838   0.097   2.665
 2779TIP3   OH2 8277   0.223   6.482   1.399
 2779TIP3    H1 8278   0.149   6.527   1.441
 2779TIP3    H2 8279   0.297   6.542   1.410
 2780TIP3   OH2 8280   5.111   6.793   2.503
 2780TIP3    H1 8281   5.154   6.789   2.418
 2780TIP3    H2 8282   5.017   6.788   2.483
 2781TIP3   OH2 8283   4.427   1.226   1.131
 2781TIP3    H1 8284   4.335   1.242   1.151
 2781TIP3    H2 8285   4.468   1.312   1.136
 2782TIP3   OH2 8286   1.296   1.228   0.593
 2782TIP3    H1 8287   1.356   1.297   0.619
 2782TIP3    H2 8288   1.293   1.233   0.497
 2783TIP3   OH2 8289   3.203   0.482   3.885
 2783TIP3    H1 8290   3.133   0.422   3.910
 2783TIP3    H2 8291   3.205   0.547   3.954
 2784TIP3   OH2 8292   5.410   2.923   1.102
 2784TIP3    H1 8293   5.440   2.925   1.193
 2784TIP3    H2 8294   5.481   2.962   1.052
 2785TIP3   OH2 8295   0.667   5.753   4.699
 2785TIP3    H1 8296   0.615   5.704   4.636
 2785TIP3    H2 8297   0.631   5.841   4.696
 2786TIP3   OH2 8298   3.007   1.331   2.467
 2786TIP3    H1 8299   2.962   1.375   2.394
 2786TIP3    H2 8300   2.936   1.297   2.522
 2787TIP3   OH2 8301   8.392   5.621   3.611
 2787TIP3    H1 8302   8.341   5.662   3.541
 2787TIP3    H2 8303   8.332   5.557   3.649
 2788TIP3   OH2 8304   4.707   4.328   6.789
 2788TIP3    H1 8305   4.760   4.407   6.802
 2788TIP3    H2 8306   4.721   4.305   6.697
 2789TIP3   OH2 8307   1.267   5.469  -0.003
 2789TIP3    H1 8308   1.347   5.422   0.023
 2789TIP3    H2 8309   1.263   5.544   0.056
 2790TIP3   OH2 8310   4.914   3.049   3.817
 2790TIP3    H1 8311   4.888   2.960   3.793
 2790TIP3    H2 8312   4.939   3.091   3.734
 2791TIP3   OH2 8313   3.021   3.483   5.039
 2791TIP3    H1 8314   3.072   3.461   5.117
 2791TIP3    H2 8315   3.073   3.549   4.994
 2792TIP3   OH2 8316   7.237   2.012   3.501
 2792TIP3    H1 8317   7.298   2.016   3.575
 2792TIP3    H2 8318   7.151   2.009   3.542
 2793TIP3   OH2 8319   3.846   5.366   6.548
 2793TIP3    H1 8320   3.884   5.365   6.635
 2793TIP3    H2 8321   3.831   5.274   6.526
 2794TIP3   OH2 8322   1.288   1.359   3.576
 2794TIP3    H1 8323   1.323   1.431   3.629
 2794TIP3    H2 8324   1.309   1.280   3.626
 2795TIP3   OH2 8325   2.485   1.766   5.744
 2795TIP3    H1 8326   2.458   1.807   5.826
 2795TIP3    H2 8327   2.505   1.676   5.767
 2796TIP3   OH2 8328   6.268   6.502   5.657
 2796TIP3    H1 8329   6.225   6.534   5.578
 2796TIP3    H2 8330   6.262   6.407   5.651
 2797TIP3   OH2 8331   8.076   5.502   3.233
 2797TIP3    H1 8332   8.130   5.426   3.211
 2797TIP3    H2 8333   8.066   5.550   3.150
 2798TIP3   OH2 8334   3.739   6.344   4.769
 2798TIP3    H1 8335   3.792   6.419   4.742
 2798TIP3    H2 8336   3.649   6.371   4.750
 2799TIP3   OH2 8337   3.200   5.412   3.548
 2799TIP3    H1 8338   3.161   5.350   3.609
 2799TIP3    H2 8339   3.294   5.395   3.553
 2800TIP3   OH2 8340   4.528   0.453   2.664
 2800TIP3    H1 8341   4.516   0.434   2.757
 2800TIP3    H2 8342   4.541   0.547   2.659
 2801TIP3   OH2 8343   5.668   3.815   6.094
 2801TIP3    H1 8344   5.717   3.794   6.014
 2801TIP3    H2 8345   5.689   3.743   6.154
 2802TIP3   OH2 8346   4.395   1.863   0.263
 2802TIP3    H1 8347   4.447   1.939   0.237
 2802TIP3    H2 8348   4.452   1.812   0.321
 2803TIP3   OH2 8349   3.130   5.045   1.848
 2803TIP3    H1 8350   3.049   5.036   1.798
 2803TIP3    H2 8351   3.109   5.112   1.914
 2804TIP3   OH2 8352   7.441   5.338   2.500
 2804TIP3    H1 8353   7.352   5.346   2.467
 2804TIP3    H2 8354   7.487   5.289   2.431
 2805TIP3   OH2 8355   6.244   2.711   3.385
 2805TIP3    H1 8356   6.260   2.631   3.434
 2805TIP3    H2 8357   6.305   2.708   3.312
 2806TIP3   OH2 8358   0.212   5.509   4.173
 2806TIP3    H1 8359   0.169   5.462   4.244
 2806TIP3    H2 8360   0.262   5.442   4.126
 2807TIP3   OH2 8361   3.404   3.397   5.659
 2807TIP3    H1 8362   3.422   3.325   5.719
 2807TIP3    H2 8363   3.488   3.442   5.649
 2808TIP3   OH2 8364   0.012   3.586   4.526
 2808TIP3    H1 8365  -0.018   3.651   4.590
 2808TIP3    H2 8366   0.094   3.552   4.563
 2809TIP3   OH2 8367   7.230   6.265   1.541
 2809TIP3    H1 8368   7.218   6.258   1.447
 2809TIP3    H2 8369   7.255   6.356   1.556
 2810TIP3   OH2 8370   7.316   3.273   1.592
 2810TIP3    H1 8371   7.246   3.217   1.558
 2810TIP3    H2 8372   7.275   3.324   1.661
 2811TIP3   OH2 8373   4.112   4.713   5.788
 2811TIP3    H1 8374   4.097   4.765   5.867
 2811TIP3    H2 8375   4.193   4.749   5.751
 2812TIP3   OH2 8376   1.096   7.018   6.386
 2812TIP3    H1 8377   1.179   7.065   6.392
 2812TIP3    H2 8378   1.120   6.926   6.384
 2813TIP3   OH2 8379   2.505   7.898   5.201
 2813TIP3    H1 8380   2.590   7.858   5.222
 2813TIP3    H2 8381   2.493   7.965   5.269
 2814TIP3   OH2 8382   7.361   1.377   2.506
 2814TIP3    H1 8383   7.401   1.462   2.490
 2814TIP3    H2 8384   7.351   1.338   2.419
 2815TIP3   OH2 8385   5.715   2.024   2.574
 2815TIP3    H1 8386   5.684   1.939   2.605
 2815TIP3    H2 8387   5.686   2.028   2.482
 2816TIP3   OH2 8388   4.995   5.358   5.099
 2816TIP3    H1 8389   4.948   5.314   5.029
 2816TIP3    H2 8390   5.063   5.295   5.126
 2817TIP3   OH2 8391   7.772   0.671   4.560
 2817TIP3    H1 8392   7.780   0.638   4.649
 2817TIP3    H2 8393   7.683   0.706   4.555
 2818TIP3   OH2 8394   8.341   3.264   6.026
 2818TIP3    H1 8395   8.305   3.212   5.955
 2818TIP3    H2 8396   8.281   3.338   6.035
 2819TIP3   OH2 8397   1.621   2.362   3.933
 2819TIP3    H1 8398   1.553   2.355   4.000
 2819TIP3    H2 8399   1.665   2.445   3.952
 2820TIP3   OH2 8400   7.245   4.305   4.010
 2820TIP3    H1 8401   7.268   4.321   4.101
 2820TIP3    H2 8402   7.288   4.377   3.962
 2821TIP3   OH2 8403   5.789   2.414   2.906
 2821TIP3    H1 8404   5.740   2.338   2.874
 2821TIP3    H2 8405   5.787   2.476   2.833
 2822TIP3   OH2 8406   2.233   2.409   0.038
 2822TIP3    H1 8407   2.309   2.462   0.014
 2822TIP3    H2 8408   2.267   2.349   0.105
 2823TIP3   OH2 8409   3.781   5.727   4.156
 2823TIP3    H1 8410   3.864   5.760   4.189
 2823TIP3    H2 8411   3.752   5.792   4.092
 2824TIP3   OH2 8412   8.187   3.505   1.471
 2824TIP3    H1 8413   8.276   3.540   1.470
 2824TIP3    H2 8414   8.192   3.429   1.528
 2825TIP3   OH2 8415   8.159   6.099   0.459
 2825TIP3    H1 8416   8.216   6.142   0.395
 2825TIP3    H2 8417   8.076   6.145   0.452
 2826TIP3   OH2 8418   1.243   6.866   5.413
 2826TIP3    H1 8419   1.191   6.785   5.414
 2826TIP3    H2 8420   1.184   6.932   5.377
 2827TIP3   OH2 8421   3.284   1.213   2.372
 2827TIP3    H1 8422   3.315   1.214   2.281
 2827TIP3    H2 8423   3.202   1.263   2.370
 2828TIP3   OH2 8424   5.376   2.291   2.470
 2828TIP3    H1 8425   5.468   2.312   2.453
 2828TIP3    H2 8426   5.359   2.212   2.419
 2829TIP3   OH2 8427   0.540   1.549   0.170
 2829TIP3    H1 8428   0.545   1.530   0.076
 2829TIP3    H2 8429   0.515   1.642   0.175
 2830TIP3   OH2 8430   3.588   4.892   5.612
 2830TIP3    H1 8431   3.497   4.921   5.618
 2830TIP3    H2 8432   3.582   4.801   5.582
 2831TIP3   OH2 8433   6.556   7.367   4.547
 2831TIP3    H1 8434   6.611   7.339   4.620
 2831TIP3    H2 8435   6.544   7.288   4.494
 2832TIP3   OH2 8436   4.067   0.149   1.504
 2832TIP3    H1 8437   4.015   0.099   1.442
 2832TIP3    H2 8438   4.008   0.218   1.534
 2833TIP3   OH2 8439   7.579   6.756   2.090
 2833TIP3    H1 8440   7.599   6.847   2.110
 2833TIP3    H2 8441   7.492   6.741   2.129
 2834TIP3   OH2 8442   3.084   4.308   2.219
 2834TIP3    H1 8443   3.137   4.367   2.273
 2834TIP3    H2 8444   3.093   4.342   2.130
 2835TIP3   OH2 8445   1.778   2.274   5.952
 2835TIP3    H1 8446   1.688   2.306   5.955
 2835TIP3    H2 8447   1.832   2.352   5.958
 2836TIP3   OH2 8448   7.631   3.851   0.354
 2836TIP3    H1 8449   7.685   3.921   0.318
 2836TIP3    H2 8450   7.692   3.797   0.404
 2837TIP3   OH2 8451   6.182   4.168   2.805
 2837TIP3    H1 8452   6.252   4.153   2.741
 2837TIP3    H2 8453   6.173   4.264   2.808
 2838TIP3   OH2 8454   2.542   0.632   0.755
 2838TIP3    H1 8455   2.572   0.543   0.739
 2838TIP3    H2 8456   2.511   0.632   0.846
 2839TIP3   OH2 8457   8.279   4.281   4.022
 2839TIP3    H1 8458   8.199   4.305   4.068
 2839TIP3    H2 8459   8.266   4.317   3.934
 2840TIP3   OH2 8460   1.338   5.567   2.470
 2840TIP3    H1 8461   1.319   5.474   2.477
 2840TIP3    H2 8462   1.422   5.572   2.425
 2841TIP3   OH2 8463   1.133   1.858   1.187
 2841TIP3    H1 8464   1.161   1.856   1.095
 2841TIP3    H2 8465   1.051   1.809   1.187
 2842TIP3   OH2 8466   5.473   7.489   3.857
 2842TIP3    H1 8467   5.465   7.401   3.821
 2842TIP3    H2 8468   5.404   7.539   3.814
 2843TIP3   OH2 8469   3.819   4.171   1.790
 2843TIP3    H1 8470   3.839   4.108   1.721
 2843TIP3    H2 8471   3.831   4.257   1.748
 2844TIP3   OH2 8472   5.727   1.157   3.090
 2844TIP3    H1 8473   5.651   1.161   3.148
 2844TIP3    H2 8474   5.770   1.241   3.101
 2845TIP3   OH2 8475   5.478   7.268   5.442
 2845TIP3    H1 8476   5.397   7.265   5.493
 2845TIP3    H2 8477   5.449   7.259   5.351
 2846TIP3   OH2 8478   4.618   5.044   2.739
 2846TIP3    H1 8479   4.574   4.962   2.717
 2846TIP3    H2 8480   4.661   5.026   2.822
 2847TIP3   OH2 8481   6.634   5.420   2.683
 2847TIP3    H1 8482   6.679   5.368   2.750
 2847TIP3    H2 8483   6.701   5.479   2.649
 2848TIP3   OH2 8484   3.396   4.045   6.442
 2848TIP3    H1 8485   3.350   4.121   6.407
 2848TIP3    H2 8486   3.470   4.082   6.490
 2849TIP3   OH2 8487   3.135   2.867   2.883
 2849TIP3    H1 8488   3.198   2.820   2.829
 2849TIP3    H2 8489   3.096   2.932   2.825
 2850TIP3   OH2 8490   7.371   6.155   2.936
 2850TIP3    H1 8491   7.425   6.163   2.857
 2850TIP3    H2 8492   7.398   6.072   2.975
 2851TIP3   OH2 8493   8.054   7.344   0.937
 2851TIP3    H1 8494   8.032   7.333   1.029
 2851TIP3    H2 8495   8.004   7.276   0.892
 2852TIP3   OH2 8496   7.105   1.816   2.415
 2852TIP3    H1 8497   7.113   1.741   2.474
 2852TIP3    H2 8498   7.014   1.815   2.386
 2853TIP3   OH2 8499   5.130   1.729   5.111
 2853TIP3    H1 8500   5.051   1.684   5.081
 2853TIP3    H2 8501   5.111   1.822   5.101
 2854TIP3   OH2 8502   7.686   7.303   0.927
 2854TIP3    H1 8503   7.693   7.311   0.832
 2854TIP3    H2 8504   7.713   7.388   0.961
 2855TIP3   OH2 8505   0.349   6.246   5.166
 2855TIP3    H1 8506   0.408   6.249   5.091
 2855TIP3    H2 8507   0.269   6.208   5.132
 2856TIP3   OH2 8508   1.842   1.113   6.623
 2856TIP3    H1 8509   1.786   1.114   6.545
 2856TIP3    H2 8510   1.912   1.175   6.603
 2857TIP3   OH2 8511   5.318   3.332   1.763
 2857TIP3    H1 8512   5.255   3.260   1.771
 2857TIP3    H2 8513   5.399   3.298   1.802
 2858TIP3   OH2 8514   0.083   4.149   3.031
 2858TIP3    H1 8515   0.039   4.136   2.947
 2858TIP3    H2 8516   0.025   4.107   3.095
 2859TIP3   OH2 8517   7.214   5.032   0.758
 2859TIP3    H1 8518   7.231   5.103   0.819
 2859TIP3    H2 8519   7.269   4.960   0.789
 2860TIP3   OH2 8520   1.805   0.560   2.933
 2860TIP3    H1 8521   1.881   0.502   2.941
 2860TIP3    H2 8522   1.814   0.620   3.007
 2861TIP3   OH2 8523   5.517   3.755   1.624
 2861TIP3    H1 8524   5.557   3.704   1.553
 2861TIP3    H2 8525   5.478   3.689   1.682
 2862TIP3   OH2 8526   7.454   3.803   3.300
 2862TIP3    H1 8527   7.397   3.727   3.288
 2862TIP3    H2 8528   7.540   3.766   3.319
 2863TIP3   OH2 8529   6.127   5.459   2.815
 2863TIP3    H1 8530   6.209   5.475   2.770
 2863TIP3    H2 8531   6.080   5.397   2.760
 2864TIP3   OH2 8532   3.379   6.692   2.820
 2864TIP3    H1 8533   3.449   6.755   2.806
 2864TIP3    H2 8534   3.349   6.708   2.909
 2865TIP3   OH2 8535   4.025   1.872   5.923
 2865TIP3    H1 8536   3.998   1.911   6.006
 2865TIP3    H2 8537   4.012   1.778   5.935
 2866TIP3   OH2 8538   7.646   3.602   3.337
 2866TIP3    H1 8539   7.707   3.558   3.278
 2866TIP3    H2 8540   7.680   3.691   3.345
 2867TIP3   OH2 8541   0.686   7.057   3.585
 2867TIP3    H1 8542   0.594   7.083   3.573
 2867TIP3    H2 8543   0.721   7.054   3.496
 2868TIP3   OH2 8544   7.888   6.919   4.719
 2868TIP3    H1 8545   7.973   6.943   4.757
 2868TIP3    H2 8546   7.841   6.878   4.792
 2869TIP3   OH2 8547   4.129   0.230   2.218
 2869TIP3    H1 8548   4.038   0.253   2.196
 2869TIP3    H2 8549   4.126   0.205   2.310
 2870TIP3   OH2 8550   6.053   6.266   4.948
 2870TIP3    H1 8551   6.004   6.300   4.874
 2870TIP3    H2 8552   6.082   6.343   4.996
 2871TIP3   OH2 8553   6.651   5.703   2.650
 2871TIP3    H1 8554   6.670   5.770   2.584
 2871TIP3    H2 8555   6.734   5.658   2.665
 2872TIP3   OH2 8556   3.027   4.305   0.409
 2872TIP3    H1 8557   3.058   4.271   0.325
 2872TIP3    H2 8558   2.997   4.394   0.389
 2873TIP3   OH2 8559   6.876   5.226   3.301
 2873TIP3    H1 8560   6.818   5.153   3.281
 2873TIP3    H2 8561   6.938   5.192   3.365
 2874TIP3   OH2 8562   5.683   3.618   2.349
 2874TIP3    H1 8563   5.617   3.661   2.403
 2874TIP3    H2 8564   5.744   3.688   2.326
 2875TIP3   OH2 8565   3.942   2.698   1.939
 2875TIP3    H1 8566   4.036   2.685   1.953
 2875TIP3    H2 8567   3.910   2.611   1.915
 2876TIP3   OH2 8568   2.269   1.738   3.892
 2876TIP3    H1 8569   2.282   1.729   3.987
 2876TIP3    H2 8570   2.337   1.801   3.865
 2877TIP3   OH2 8571   6.984   5.313   1.715
 2877TIP3    H1 8572   6.939   5.263   1.782
 2877TIP3    H2 8573   6.917   5.333   1.650
 2878TIP3   OH2 8574   2.264   4.948   6.025
 2878TIP3    H1 8575   2.208   4.946   6.103
 2878TIP3    H2 8576   2.232   4.875   5.971
 2879TIP3   OH2 8577   0.884   7.500   0.681
 2879TIP3    H1 8578   0.891   7.567   0.749
 2879TIP3    H2 8579   0.802   7.521   0.636
 2880TIP3   OH2 8580   5.838   0.846   4.719
 2880TIP3    H1 8581   5.743   0.854   4.713
 2880TIP3    H2 8582   5.864   0.803   4.638
 2881TIP3   OH2 8583   5.224   1.610   3.049
 2881TIP3    H1 8584   5.189   1.521   3.037
 2881TIP3    H2 8585   5.256   1.635   2.963
 2882TIP3   OH2 8586   3.977   1.175   4.395
 2882TIP3    H1 8587   3.950   1.102   4.339
 2882TIP3    H2 8588   3.902   1.192   4.451
 2883TIP3   OH2 8589   4.696   4.642   3.605
 2883TIP3    H1 8590   4.712   4.565   3.659
 2883TIP3    H2 8591   4.782   4.666   3.570
 2884TIP3   OH2 8592   6.975   4.490   4.324
 2884TIP3    H1 8593   6.987   4.470   4.416
 2884TIP3    H2 8594   7.060   4.522   4.294
 2885TIP3   OH2 8595   7.775   2.989   2.634
 2885TIP3    H1 8596   7.865   2.987   2.666
 2885TIP3    H2 8597   7.766   3.077   2.596
 2886TIP3   OH2 8598   4.736   3.375   5.365
 2886TIP3    H1 8599   4.683   3.440   5.319
 2886TIP3    H2 8600   4.819   3.374   5.317
 2887TIP3   OH2 8601   3.060   3.356   3.966
 2887TIP3    H1 8602   3.119   3.372   4.039
 2887TIP3    H2 8603   3.062   3.261   3.954
 2888TIP3   OH2 8604   5.755   1.407   4.465
 2888TIP3    H1 8605   5.754   1.385   4.372
 2888TIP3    H2 8606   5.843   1.383   4.495
 2889TIP3   OH2 8607   7.879   4.984   1.674
 2889TIP3    H1 8608   7.867   5.076   1.650
 2889TIP3    H2 8609   7.869   4.983   1.769
 2890TIP3   OH2 8610   1.837   2.896   3.932
 2890TIP3    H1 8611   1.845   2.854   4.018
 2890TIP3    H2 8612   1.927   2.911   3.904
 2891TIP3   OH2 8613   5.857   5.893   3.950
 2891TIP3    H1 8614   5.795   5.821   3.964
 2891TIP3    H2 8615   5.848   5.915   3.858
 2892TIP3   OH2 8616   0.211   5.917   5.657
 2892TIP3    H1 8617   0.207   5.974   5.581
 2892TIP3    H2 8618   0.187   5.973   5.731
 2893TIP3   OH2 8619   1.866   6.860   2.823
 2893TIP3    H1 8620   1.918   6.935   2.850
 2893TIP3    H2 8621   1.928   6.787   2.822
 2894TIP3   OH2 8622   3.850   6.718   1.670
 2894TIP3    H1 8623   3.798   6.693   1.747
 2894TIP3    H2 8624   3.883   6.805   1.690
 2895TIP3   OH2 8625   6.885   3.425   4.206
 2895TIP3    H1 8626   6.969   3.385   4.227
 2895TIP3    H2 8627   6.862   3.475   4.284
 2896TIP3   OH2 8628   6.520   6.986   3.160
 2896TIP3    H1 8629   6.594   6.972   3.220
 2896TIP3    H2 8630   6.466   6.908   3.169
 2897TIP3   OH2 8631   0.856   7.840   1.608
 2897TIP3    H1 8632   0.919   7.886   1.662
 2897TIP3    H2 8633   0.781   7.825   1.666
 2898TIP3   OH2 8634   7.992   4.595   1.082
 2898TIP3    H1 8635   7.937   4.658   1.129
 2898TIP3    H2 8636   8.071   4.645   1.059
 2899TIP3   OH2 8637   4.399   0.582   3.778
 2899TIP3    H1 8638   4.434   0.654   3.726
 2899TIP3    H2 8639   4.396   0.507   3.718
 2900TIP3   OH2 8640   0.795   4.704   1.300
 2900TIP3    H1 8641   0.862   4.729   1.237
 2900TIP3    H2 8642   0.832   4.631   1.348
 2901TIP3   OH2 8643   8.221   6.576   0.217
 2901TIP3    H1 8644   8.165   6.599   0.143
 2901TIP3    H2 8645   8.192   6.634   0.287
 2902TIP3   OH2 8646   6.542   6.388   5.867
 2902TIP3    H1 8647   6.456   6.387   5.909
 2902TIP3    H2 8648   6.590   6.316   5.907
 2903TIP3   OH2 8649   1.842   5.677   0.366
 2903TIP3    H1 8650   1.884   5.740   0.425
 2903TIP3    H2 8651   1.785   5.625   0.422
 2904TIP3   OH2 8652   4.941   0.544   2.400
 2904TIP3    H1 8653   4.858   0.500   2.414
 2904TIP3    H2 8654   4.967   0.573   2.488
 2905TIP3   OH2 8655   5.311   7.417   1.441
 2905TIP3    H1 8656   5.308   7.506   1.406
 2905TIP3    H2 8657   5.264   7.423   1.525
 2906TIP3   OH2 8658   7.684   5.856   0.083
 2906TIP3    H1 8659   7.765   5.898   0.110
 2906TIP3    H2 8660   7.706   5.763   0.077
 2907TIP3   OH2 8661   2.077   0.833   2.925
 2907TIP3    H1 8662   2.172   0.844   2.923
 2907TIP3    H2 8663   2.063   0.740   2.908
 2908TIP3   OH2 8664   6.449   2.817   1.404
 2908TIP3    H1 8665   6.430   2.767   1.483
 2908TIP3    H2 8666   6.505   2.759   1.352
 2909TIP3   OH2 8667   7.463   6.860   5.309
 2909TIP3    H1 8668   7.431   6.907   5.232
 2909TIP3    H2 8669   7.557   6.879   5.311
 2910TIP3   OH2 8670   1.524   2.551   2.177
 2910TIP3    H1 8671   1.519   2.475   2.234
 2910TIP3    H2 8672   1.480   2.621   2.226
 2911TIP3   OH2 8673   5.523   6.947   6.526
 2911TIP3    H1 8674   5.601   6.969   6.577
 2911TIP3    H2 8675   5.452   6.995   6.569
 2912TIP3   OH2 8676   1.744   3.612   2.187
 2912TIP3    H1 8677   1.726   3.590   2.279
 2912TIP3    H2 8678   1.704   3.699   2.176
 2913TIP3   OH2 8679   4.485   0.263   5.911
 2913TIP3    H1 8680   4.520   0.352   5.902
 2913TIP3    H2 8681   4.391   0.275   5.921
 2914TIP3   OH2 8682   0.123   0.035   3.597
 2914TIP3    H1 8683   0.183   0.104   3.568
 2914TIP3    H2 8684   0.178  -0.026   3.646
 2915TIP3   OH2 8685   2.310   0.997   6.431
 2915TIP3    H1 8686   2.311   0.942   6.354
 2915TIP3    H2 8687   2.310   1.087   6.397
 2916TIP3   OH2 8688   8.369   7.423   4.606
 2916TIP3    H1 8689   8.436   7.401   4.540
 2916TIP3    H2 8690   8.298   7.463   4.556
 2917TIP3   OH2 8691   7.498   4.401   4.979
 2917TIP3    H1 8692   7.407   4.382   4.955
 2917TIP3    H2 8693   7.529   4.321   5.022
 2918TIP3   OH2 8694   8.284   7.198   0.090
 2918TIP3    H1 8695   8.327   7.129   0.141
 2918TIP3    H2 8696   8.272   7.269   0.153
 2919TIP3   OH2 8697   4.380   5.305   0.579
 2919TIP3    H1 8698   4.295   5.263   0.569
 2919TIP3    H2 8699   4.423   5.291   0.494
 2920TIP3   OH2 8700   6.040   7.605   5.292
 2920TIP3    H1 8701   6.045   7.515   5.261
 2920TIP3    H2 8702   6.129   7.639   5.279
 2921TIP3   OH2 8703   2.510   7.355   1.871
 2921TIP3    H1 8704   2.447   7.324   1.805
 2921TIP3    H2 8705   2.488   7.306   1.950
 2922TIP3   OH2 8706   4.788   4.457   0.701
 2922TIP3    H1 8707   4.839   4.534   0.677
 2922TIP3    H2 8708   4.800   4.448   0.796
 2923TIP3   OH2 8709   7.848   0.612   3.198
 2923TIP3    H1 8710   7.928   0.615   3.145
 2923TIP3    H2 8711   7.786   0.668   3.151
 2924TIP3   OH2 8712   5.595   4.206   3.106
 2924TIP3    H1 8713   5.680   4.249   3.113
 2924TIP3    H2 8714   5.593   4.144   3.179
 2925TIP3   OH2 8715   7.676   5.210   5.972
 2925TIP3    H1 8716   7.593   5.187   5.929
 2925TIP3    H2 8717   7.660   5.294   6.013
 2926TIP3   OH2 8718   1.343   0.023   2.049
 2926TIP3    H1 8719   1.417  -0.024   2.010
 2926TIP3    H2 8720   1.362   0.024   2.143
 2927TIP3   OH2 8721   6.227   3.164   3.220
 2927TIP3    H1 8722   6.171   3.094   3.188
 2927TIP3    H2 8723   6.243   3.143   3.312
 2928TIP3   OH2 8724   3.125   0.330   2.934
 2928TIP3    H1 8725   3.125   0.426   2.938
 2928TIP3    H2 8726   3.153   0.302   3.021
 2929TIP3   OH2 8727   1.355   3.247   5.313
 2929TIP3    H1 8728   1.316   3.161   5.297
 2929TIP3    H2 8729   1.447   3.236   5.290
 2930TIP3   OH2 8730   4.257   3.611   2.901
 2930TIP3    H1 8731   4.329   3.561   2.940
 2930TIP3    H2 8732   4.213   3.653   2.974
 2931TIP3   OH2 8733   4.140   2.171   3.958
 2931TIP3    H1 8734   4.077   2.222   3.907
 2931TIP3    H2 8735   4.206   2.234   3.986
 2932TIP3   OH2 8736   4.042   3.742   0.058
 2932TIP3    H1 8737   4.109   3.811   0.057
 2932TIP3    H2 8738   4.066   3.688   0.133
 2933TIP3   OH2 8739   1.960   2.558   6.192
 2933TIP3    H1 8740   1.977   2.645   6.156
 2933TIP3    H2 8741   1.865   2.550   6.191
 2934TIP3   OH2 8742   1.858   6.763   5.472
 2934TIP3    H1 8743   1.876   6.824   5.543
 2934TIP3    H2 8744   1.813   6.690   5.513
 2935TIP3   OH2 8745   1.424   2.338   6.595
 2935TIP3    H1 8746   1.353   2.357   6.534
 2935TIP3    H2 8747   1.413   2.402   6.666
 2936TIP3   OH2 8748   7.779   7.053   0.300
 2936TIP3    H1 8749   7.787   7.141   0.264
 2936TIP3    H2 8750   7.773   6.996   0.223
 2937TIP3   OH2 8751   6.603   0.292   3.464
 2937TIP3    H1 8752   6.633   0.255   3.547
 2937TIP3    H2 8753   6.559   0.374   3.488
 2938TIP3   OH2 8754   7.754   4.217   5.697
 2938TIP3    H1 8755   7.743   4.227   5.791
 2938TIP3    H2 8756   7.698   4.284   5.659
 2939TIP3   OH2 8757   3.253   7.432   2.303
 2939TIP3    H1 8758   3.211   7.503   2.255
 2939TIP3    H2 8759   3.278   7.472   2.387
 2940TIP3   OH2 8760   1.843   7.619   3.173
 2940TIP3    H1 8761   1.798   7.628   3.089
 2940TIP3    H2 8762   1.783   7.570   3.228
 2941TIP3   OH2 8763   7.083   2.328   0.098
 2941TIP3    H1 8764   6.990   2.309   0.110
 2941TIP3    H2 8765   7.100   2.403   0.154
 2942TIP3   OH2 8766   1.235   1.653   2.242
 2942TIP3    H1 8767   1.150   1.680   2.207
 2942TIP3    H2 8768   1.297   1.716   2.205
 2943TIP3   OH2 8769   8.285   4.001   1.004
 2943TIP3    H1 8770   8.198   3.988   0.966
 2943TIP3    H2 8771   8.344   3.995   0.929
 2944TIP3   OH2 8772   6.839   5.045   5.702
 2944TIP3    H1 8773   6.767   5.027   5.641
 2944TIP3    H2 8774   6.803   5.025   5.788
 2945TIP3   OH2 8775   2.327   4.931   3.532
 2945TIP3    H1 8776   2.412   4.897   3.506
 2945TIP3    H2 8777   2.333   5.025   3.517
 2946TIP3   OH2 8778   3.116   6.017   4.362
 2946TIP3    H1 8779   3.129   6.111   4.351
 2946TIP3    H2 8780   3.079   6.008   4.450
 2947TIP3   OH2 8781   0.141   0.946   0.437
 2947TIP3    H1 8782   0.153   0.870   0.381
 2947TIP3    H2 8783   0.136   1.020   0.376
 2948TIP3   OH2 8784   6.944   7.859   2.732
 2948TIP3    H1 8785   6.987   7.776   2.711
 2948TIP3    H2 8786   6.941   7.907   2.649
 2949TIP3   OH2 8787   4.102   1.764   2.757
 2949TIP3    H1 8788   4.050   1.752   2.678
 2949TIP3    H2 8789   4.038   1.785   2.825
 2950TIP3   OH2 8790   5.157   6.479   6.609
 2950TIP3    H1 8791   5.228   6.433   6.653
 2950TIP3    H2 8792   5.106   6.519   6.679
 2951TIP3   OH2 8793   6.253   6.233   0.578
 2951TIP3    H1 8794   6.187   6.171   0.546
 2951TIP3    H2 8795   6.337   6.190   0.561
 2952TIP3   OH2 8796  -0.018   4.865   5.245
 2952TIP3    H1 8797   0.034   4.815   5.309
 2952TIP3    H2 8798  -0.023   4.953   5.281
 2953TIP3   OH2 8799   6.415   0.259   5.256
 2953TIP3    H1 8800   6.398   0.351   5.274
 2953TIP3    H2 8801   6.480   0.259   5.186
 2954TIP3   OH2 8802   7.789   1.116   3.735
 2954TIP3    H1 8803   7.876   1.077   3.727
 2954TIP3    H2 8804   7.774   1.122   3.829
 2955TIP3   OH2 8805   2.206   5.528   1.589
 2955TIP3    H1 8806   2.157   5.544   1.509
 2955TIP3    H2 8807   2.177   5.441   1.618
 2956TIP3   OH2 8808   7.948   7.855   1.483
 2956TIP3    H1 8809   7.924   7.764   1.462
 2956TIP3    H2 8810   7.872   7.907   1.457
 2957TIP3   OH2 8811   7.468   5.574   2.622
 2957TIP3    H1 8812   7.445   5.491   2.581
 2957TIP3    H2 8813   7.514   5.550   2.702
 2958TIP3   OH2 8814   5.493   0.580   5.583
 2958TIP3    H1 8815   5.540   0.554   5.662
 2958TIP3    H2 8816   5.410   0.615   5.614
 2959TIP3   OH2 8817   4.136   6.918   1.618
 2959TIP3    H1 8818   4.122   7.012   1.601
 2959TIP3    H2 8819   4.210   6.895   1.563
 2960TIP3   OH2 8820   2.888   0.476   3.671
 2960TIP3    H1 8821   2.823   0.519   3.726
 2960TIP3    H2 8822   2.905   0.540   3.601
 2961TIP3   OH2 8823   2.576   6.251   5.635
 2961TIP3    H1 8824   2.514   6.318   5.662
 2961TIP3    H2 8825   2.655   6.299   5.612
 2962TIP3   OH2 8826   6.713   1.820   5.139
 2962TIP3    H1 8827   6.695   1.745   5.195
 2962TIP3    H2 8828   6.765   1.784   5.067
 2963TIP3   OH2 8829   7.274   6.910   3.878
 2963TIP3    H1 8830   7.303   6.866   3.798
 2963TIP3    H2 8831   7.348   6.901   3.938
 2964TIP3   OH2 8832   7.127   4.624   0.445
 2964TIP3    H1 8833   7.125   4.640   0.351
 2964TIP3    H2 8834   7.134   4.711   0.484
 2965TIP3   OH2 8835   7.448   1.089   6.039
 2965TIP3    H1 8836   7.435   1.132   6.124
 2965TIP3    H2 8837   7.442   0.996   6.059
 2966TIP3   OH2 8838   2.204   0.961   5.005
 2966TIP3    H1 8839   2.190   0.867   4.998
 2966TIP3    H2 8840   2.164   0.986   5.088
 2967TIP3   OH2 8841   3.510   3.531   2.965
 2967TIP3    H1 8842   3.490   3.488   2.882
 2967TIP3    H2 8843   3.603   3.553   2.959
 2968TIP3   OH2 8844   2.141   5.680   3.545
 2968TIP3    H1 8845   2.172   5.770   3.536
 2968TIP3    H2 8846   2.220   5.629   3.562
 2969TIP3   OH2 8847   5.086   0.438   1.957
 2969TIP3    H1 8848   5.102   0.384   2.034
 2969TIP3    H2 8849   5.004   0.405   1.920
 2970TIP3   OH2 8850   6.065   7.002   4.369
 2970TIP3    H1 8851   6.124   6.991   4.293
 2970TIP3    H2 8852   6.087   7.089   4.403
 2971TIP3   OH2 8853   7.056   0.976   4.410
 2971TIP3    H1 8854   7.036   1.047   4.350
 2971TIP3    H2 8855   6.978   0.967   4.465
 2972TIP3   OH2 8856   4.880   0.863   3.804
 2972TIP3    H1 8857   4.866   0.954   3.778
 2972TIP3    H2 8858   4.910   0.820   3.724
 2973TIP3   OH2 8859   5.628   2.567   5.461
 2973TIP3    H1 8860   5.681   2.555   5.540
 2973TIP3    H2 8861   5.659   2.649   5.423
 2974TIP3   OH2 8862   8.225   2.485   2.449
 2974TIP3    H1 8863   8.183   2.438   2.520
 2974TIP3    H2 8864   8.161   2.485   2.378
 2975TIP3   OH2 8865   0.461   7.383   2.408
 2975TIP3    H1 8866   0.545   7.397   2.452
 2975TIP3    H2 8867   0.405   7.345   2.474
 2976TIP3   OH2 8868   5.401   5.726   2.962
 2976TIP3    H1 8869   5.362   5.646   2.927
 2976TIP3    H2 8870   5.351   5.744   3.041
 2977TIP3   OH2 8871   5.346   1.479   5.899
 2977TIP3    H1 8872   5.372   1.571   5.905
 2977TIP3    H2 8873   5.274   1.478   5.836
 2978TIP3   OH2 8874   4.519   4.665   4.010
 2978TIP3    H1 8875   4.584   4.607   4.048
 2978TIP3    H2 8876   4.435   4.624   4.031
 2979TIP3   OH2 8877   0.744   4.817   6.512
 2979TIP3    H1 8878   0.748   4.854   6.600
 2979TIP3    H2 8879   0.667   4.859   6.472
 2980TIP3   OH2 8880   3.508   4.577   1.135
 2980TIP3    H1 8881   3.529   4.598   1.226
 2980TIP3    H2 8882   3.489   4.662   1.095
 2981TIP3   OH2 8883   2.633   3.298   4.715
 2981TIP3    H1 8884   2.603   3.334   4.798
 2981TIP3    H2 8885   2.722   3.333   4.704
 2982TIP3   OH2 8886   7.585   1.706   4.473
 2982TIP3    H1 8887   7.550   1.621   4.446
 2982TIP3    H2 8888   7.511   1.751   4.514
 2983TIP3   OH2 8889   7.602   0.630   6.830
 2983TIP3    H1 8890   7.508   0.639   6.844
 2983TIP3    H2 8891   7.627   0.707   6.779
 2984TIP3   OH2 8892   6.457   7.111   2.471
 2984TIP3    H1 8893   6.417   7.198   2.469
 2984TIP3    H2 8894   6.383   7.051   2.466
 2985TIP3   OH2 8895   8.044   7.078   2.125
 2985TIP3    H1 8896   8.112   7.057   2.189
 2985TIP3    H2 8897   8.037   7.173   2.126
 2986TIP3   OH2 8898   6.386   1.974   2.820
 2986TIP3    H1 8899   6.322   1.903   2.825
 2986TIP3    H2 8900   6.469   1.930   2.803
 2987TIP3   OH2 8901   4.361   6.028   4.190
 2987TIP3    H1 8902   4.307   5.949   4.186
 2987TIP3    H2 8903   4.364   6.059   4.100
 2988TIP3   OH2 8904   3.648   3.532   2.013
 2988TIP3    H1 8905   3.686   3.509   1.929
 2988TIP3    H2 8906   3.568   3.581   1.991
 2989TIP3   OH2 8907   0.529   7.595   0.828
 2989TIP3    H1 8908   0.535   7.677   0.877
 2989TIP3    H2 8909   0.589   7.606   0.755
 2990TIP3   OH2 8910   6.507   3.888   0.698
 2990TIP3    H1 8911   6.483   3.971   0.738
 2990TIP3    H2 8912   6.437   3.870   0.635
 2991TIP3   OH2 8913   5.625   5.902   4.381
 2991TIP3    H1 8914   5.634   5.973   4.445
 2991TIP3    H2 8915   5.606   5.824   4.434
 2992TIP3   OH2 8916   0.342   3.959   3.919
 2992TIP3    H1 8917   0.324   4.047   3.953
 2992TIP3    H2 8918   0.355   3.906   3.998
 2993TIP3   OH2 8919   3.251   3.598   5.519
 2993TIP3    H1 8920   3.294   3.531   5.572
 2993TIP3    H2 8921   3.159   3.592   5.543
 2994TIP3   OH2 8922   3.191   4.128   5.751
 2994TIP3    H1 8923   3.251   4.083   5.809
 2994TIP3    H2 8924   3.227   4.115   5.663
 2995TIP3   OH2 8925   4.356   3.233   6.509
 2995TIP3    H1 8926   4.343   3.139   6.498
 2995TIP3    H2 8927   4.310   3.254   6.590
 2996TIP3   OH2 8928   2.533   3.942   0.014
 2996TIP3    H1 8929   2.509   4.014  -0.044
 2996TIP3    H2 8930   2.478   3.955   0.091
 2997TIP3   OH2 8931   2.198   7.152   4.376
 2997TIP3    H1 8932   2.217   7.169   4.468
 2997TIP3    H2 8933   2.262   7.085   4.350
 2998TIP3   OH2 8934   7.799   5.307   3.337
 2998TIP3    H1 8935   7.887   5.329   3.367
 2998TIP3    H2 8936   7.799   5.327   3.243
 2999TIP3   OH2 8937   5.726   0.524   0.818
 2999TIP3    H1 8938   5.714   0.548   0.726
 2999TIP3    H2 8939   5.698   0.433   0.823
 3000TIP3   OH2 8940   3.855   5.266   3.546
 3000TIP3    H1 8941   3.894   5.264   3.633
 3000TIP3    H2 8942   3.924   5.302   3.490
 3001TIP3   OH2 8943   5.231   7.643   6.222
 3001TIP3    H1 8944   5.170   7.623   6.151
 3001TIP3    H2 8945   5.213   7.576   6.289
 3002TIP3   OH2 8946   8.170   4.764   6.377
 3002TIP3    H1 8947   8.240   4.829   6.387
 3002TIP3    H2 8948   8.106   4.807   6.320
 3003TIP3   OH2 8949   0.274   4.240   0.140
 3003TIP3    H1 8950   0.220   4.162   0.148
 3003TIP3    H2 8951   0.348   4.224   0.199
 3004TIP3   OH2 8952   2.841   6.959   4.893
 3004TIP3    H1 8953   2.907   6.944   4.960
 3004TIP3    H2 8954   2.864   7.045   4.856
 3005TIP3   OH2 8955   3.880   1.648   5.443
 3005TIP3    H1 8956   3.944   1.703   5.399
 3005TIP3    H2 8957   3.806   1.707   5.460
 3006TIP3   OH2 8958   1.335   7.541   1.807
 3006TIP3    H1 8959   1.313   7.486   1.733
 3006TIP3    H2 8960   1.422   7.576   1.786
 3007TIP3   OH2 8961   0.813   7.758   5.683
 3007TIP3    H1 8962   0.821   7.704   5.605
 3007TIP3    H2 8963   0.787   7.696   5.752
 3008TIP3   OH2 8964   6.886   4.753   0.194
 3008TIP3    H1 8965   6.918   4.815   0.128
 3008TIP3    H2 8966   6.817   4.801   0.240
 3009TIP3   OH2 8967   5.073   3.170   6.781
 3009TIP3    H1 8968   5.106   3.258   6.762
 3009TIP3    H2 8969   5.151   3.117   6.797
 3010TIP3   OH2 8970   7.288   1.920   5.707
 3010TIP3    H1 8971   7.204   1.925   5.661
 3010TIP3    H2 8972   7.332   1.845   5.666
 3011TIP3   OH2 8973   2.743   6.752   6.781
 3011TIP3    H1 8974   2.704   6.823   6.731
 3011TIP3    H2 8975   2.688   6.745   6.859
 3012TIP3   OH2 8976   0.752   6.764   4.542
 3012TIP3    H1 8977   0.793   6.770   4.456
 3012TIP3    H2 8978   0.660   6.743   4.523
 3013TIP3   OH2 8979   5.759   2.292   6.301
 3013TIP3    H1 8980   5.726   2.284   6.212
 3013TIP3    H2 8981   5.851   2.316   6.290
 3014TIP3   OH2 8982   3.555   0.335   1.744
 3014TIP3    H1 8983   3.563   0.263   1.681
 3014TIP3    H2 8984   3.507   0.403   1.697
 3015TIP3   OH2 8985   3.481   2.293   6.790
 3015TIP3    H1 8986   3.414   2.358   6.767
 3015TIP3    H2 8987   3.433   2.224   6.835
 3016TIP3   OH2 8988   6.674   5.097   1.529
 3016TIP3    H1 8989   6.614   5.089   1.603
 3016TIP3    H2 8990   6.618   5.125   1.456
 3017TIP3   OH2 8991   5.696   3.276   6.765
 3017TIP3    H1 8992   5.613   3.257   6.810
 3017TIP3    H2 8993   5.732   3.350   6.814
 3018TIP3   OH2 8994   6.105   1.581   5.534
 3018TIP3    H1 8995   6.088   1.572   5.627
 3018TIP3    H2 8996   6.194   1.550   5.522
 3019TIP3   OH2 8997   3.514   0.883   2.982
 3019TIP3    H1 8998   3.456   0.932   2.924
 3019TIP3    H2 8999   3.600   0.888   2.939
 3020TIP3   OH2 9000   4.622   4.535   3.280
 3020TIP3    H1 9001   4.709   4.496   3.293
 3020TIP3    H2 9002   4.633   4.593   3.205
 3021TIP3   OH2 9003   0.884   3.607   2.327
 3021TIP3    H1 9004   0.867   3.700   2.313
 3021TIP3    H2 9005   0.980   3.600   2.328
 3022TIP3   OH2 9006   3.497   4.090   1.098
 3022TIP3    H1 9007   3.490   4.123   1.008
 3022TIP3    H2 9008   3.450   4.006   1.096
 3023TIP3   OH2 9009   3.914   2.021   5.283
 3023TIP3    H1 9010   3.870   1.958   5.225
 3023TIP3    H2 9011   3.972   1.968   5.337
 3024TIP3   OH2 9012   4.294   1.141   3.397
 3024TIP3    H1 9013   4.249   1.215   3.438
 3024TIP3    H2 9014   4.283   1.068   3.458
 3025TIP3   OH2 9015   6.959   3.933   4.784
 3025TIP3    H1 9016   7.038   3.987   4.776
 3025TIP3    H2 9017   6.990   3.843   4.773
 3026TIP3   OH2 9018   4.532   6.815   1.877
 3026TIP3    H1 9019   4.459   6.765   1.839
 3026TIP3    H2 9020   4.530   6.899   1.830
 3027TIP3   OH2 9021   3.178   1.019   0.767
 3027TIP3    H1 9022   3.131   0.938   0.748
 3027TIP3    H2 9023   3.217   1.005   0.853
 3028TIP3   OH2 9024   0.421   3.152   0.142
 3028TIP3    H1 9025   0.350   3.110   0.094
 3028TIP3    H2 9026   0.500   3.109   0.109
 3029TIP3   OH2 9027   6.487   6.081   4.706
 3029TIP3    H1 9028   6.462   6.164   4.667
 3029TIP3    H2 9029   6.419   6.020   4.677
 3030TIP3   OH2 9030   1.448   6.355   5.639
 3030TIP3    H1 9031   1.435   6.423   5.705
 3030TIP3    H2 9032   1.507   6.292   5.681
 3031TIP3   OH2 9033   1.316   6.949   3.287
 3031TIP3    H1 9034   1.410   6.948   3.304
 3031TIP3    H2 9035   1.277   6.943   3.374
 3032TIP3   OH2 9036   6.034   6.702   2.304
 3032TIP3    H1 9037   6.076   6.780   2.267
 3032TIP3    H2 9038   6.044   6.636   2.235
 3033TIP3   OH2 9039   5.293   4.514   1.421
 3033TIP3    H1 9040   5.325   4.601   1.396
 3033TIP3    H2 9041   5.356   4.483   1.486
 3034TIP3   OH2 9042   5.070   7.338   5.833
 3034TIP3    H1 9043   5.078   7.327   5.928
 3034TIP3    H2 9044   5.081   7.249   5.798
 3035TIP3   OH2 9045   1.468   5.882   1.540
 3035TIP3    H1 9046   1.440   5.839   1.459
 3035TIP3    H2 9047   1.387   5.896   1.588
 3036TIP3   OH2 9048   4.003   4.872   5.978
 3036TIP3    H1 9049   4.061   4.948   5.979
 3036TIP3    H2 9050   3.915   4.908   5.989
 3037TIP3   OH2 9051   1.905   2.112   1.157
 3037TIP3    H1 9052   1.939   2.096   1.245
 3037TIP3    H2 9053   1.817   2.075   1.159
 3038TIP3   OH2 9054   1.850   6.938   3.406
 3038TIP3    H1 9055   1.927   6.912   3.355
 3038TIP3    H2 9056   1.853   6.882   3.484
 3039TIP3   OH2 9057   5.227   3.408   4.558
 3039TIP3    H1 9058   5.166   3.342   4.523
 3039TIP3    H2 9059   5.247   3.377   4.646
 3040TIP3   OH2 9060   1.598   3.877   6.564
 3040TIP3    H1 9061   1.582   3.783   6.554
 3040TIP3    H2 9062   1.513   3.918   6.546
 3041TIP3   OH2 9063   0.739   0.012   1.577
 3041TIP3    H1 9064   0.685   0.019   1.499
 3041TIP3    H2 9065   0.729   0.097   1.621
 3042TIP3   OH2 9066   3.841   6.444   6.200
 3042TIP3    H1 9067   3.775   6.375   6.198
 3042TIP3    H2 9068   3.924   6.397   6.209
 3043TIP3   OH2 9069   7.123   7.391   2.353
 3043TIP3    H1 9070   7.089   7.304   2.375
 3043TIP3    H2 9071   7.061   7.424   2.287
 3044TIP3   OH2 9072   6.897   4.821   2.463
 3044TIP3    H1 9073   6.898   4.784   2.552
 3044TIP3    H2 9074   6.914   4.745   2.407
 3045TIP3   OH2 9075   3.229   7.476   1.352
 3045TIP3    H1 9076   3.312   7.443   1.317
 3045TIP3    H2 9077   3.162   7.433   1.299
 3046TIP3   OH2 9078   2.795   3.809   1.600
 3046TIP3    H1 9079   2.768   3.887   1.551
 3046TIP3    H2 9080   2.787   3.737   1.537
 3047TIP3   OH2 9081   7.412   0.611   3.129
 3047TIP3    H1 9082   7.392   0.517   3.136
 3047TIP3    H2 9083   7.493   0.615   3.079
 3048TIP3   OH2 9084   5.050   6.530   1.399
 3048TIP3    H1 9085   5.061   6.497   1.311
 3048TIP3    H2 9086   4.981   6.476   1.438
 3049TIP3   OH2 9087   7.381   3.251   1.200
 3049TIP3    H1 9088   7.312   3.242   1.265
 3049TIP3    H2 9089   7.402   3.345   1.200
 3050TIP3   OH2 9090   4.244   2.873   6.067
 3050TIP3    H1 9091   4.337   2.855   6.082
 3050TIP3    H2 9092   4.198   2.797   6.103
 3051TIP3   OH2 9093   7.367   7.407   0.999
 3051TIP3    H1 9094   7.406   7.324   0.973
 3051TIP3    H2 9095   7.407   7.472   0.940
 3052TIP3   OH2 9096   2.990   2.844   3.117
 3052TIP3    H1 9097   3.053   2.851   3.189
 3052TIP3    H2 9098   3.039   2.869   3.039
 3053TIP3   OH2 9099   1.524   2.929   5.446
 3053TIP3    H1 9100   1.593   2.986   5.481
 3053TIP3    H2 9101   1.474   2.903   5.523
 3054TIP3   OH2 9102   0.678   7.864   3.041
 3054TIP3    H1 9103   0.744   7.813   2.993
 3054TIP3    H2 9104   0.611   7.884   2.975
 3055TIP3   OH2 9105   0.932   6.361   4.867
 3055TIP3    H1 9106   1.011   6.414   4.879
 3055TIP3    H2 9107   0.964   6.272   4.852
 3056TIP3   OH2 9108   4.351   2.497   4.860
 3056TIP3    H1 9109   4.435   2.531   4.892
 3056TIP3    H2 9110   4.289   2.569   4.876
 3057TIP3   OH2 9111   3.679   3.024   0.941
 3057TIP3    H1 9112   3.719   2.964   1.004
 3057TIP3    H2 9113   3.737   3.100   0.939
 3058TIP3   OH2 9114   1.942   0.448   6.549
 3058TIP3    H1 9115   1.986   0.527   6.517
 3058TIP3    H2 9116   1.881   0.424   6.479
 3059TIP3   OH2 9117   2.172   2.367   1.515
 3059TIP3    H1 9118   2.212   2.342   1.431
 3059TIP3    H2 9119   2.137   2.285   1.550
 3060TIP3   OH2 9120   6.487   0.790   0.682
 3060TIP3    H1 9121   6.417   0.728   0.703
 3060TIP3    H2 9122   6.562   0.734   0.660
 3061TIP3   OH2 9123   6.956   0.712   5.007
 3061TIP3    H1 9124   7.037   0.678   5.045
 3061TIP3    H2 9125   6.932   0.785   5.063
 3062TIP3   OH2 9126   2.355   6.307   3.131
 3062TIP3    H1 9127   2.434   6.259   3.155
 3062TIP3    H2 9128   2.347   6.375   3.199
 3063TIP3   OH2 9129   6.852   0.026   1.875
 3063TIP3    H1 9130   6.795   0.095   1.840
 3063TIP3    H2 9131   6.899  -0.008   1.799
 3064TIP3   OH2 9132   3.987   2.863   5.091
 3064TIP3    H1 9133   3.953   2.881   5.003
 3064TIP3    H2 9134   4.027   2.945   5.118
 3065TIP3   OH2 9135   5.145   7.164   0.947
 3065TIP3    H1 9136   5.118   7.074   0.930
 3065TIP3    H2 9137   5.206   7.158   1.020
 3066TIP3   OH2 9138   2.522   7.364   5.767
 3066TIP3    H1 9139   2.473   7.437   5.805
 3066TIP3    H2 9140   2.597   7.404   5.724
 3067TIP3   OH2 9141   5.186   3.033   0.136
 3067TIP3    H1 9142   5.268   3.042   0.087
 3067TIP3    H2 9143   5.207   2.973   0.207
 3068TIP3   OH2 9144   8.126   0.457   1.542
 3068TIP3    H1 9145   8.132   0.469   1.637
 3068TIP3    H2 9146   8.107   0.545   1.508
 3069TIP3   OH2 9147   2.343   4.443   5.441
 3069TIP3    H1 9148   2.279   4.440   5.512
 3069TIP3    H2 9149   2.396   4.521   5.461
 3070TIP3   OH2 9150   1.196   5.936   1.050
 3070TIP3    H1 9151   1.243   5.903   1.127
 3070TIP3    H2 9152   1.244   6.015   1.025
 3071TIP3   OH2 9153   2.060   1.910   4.462
 3071TIP3    H1 9154   2.072   1.943   4.373
 3071TIP3    H2 9155   2.086   1.983   4.518
 3072TIP3   OH2 9156   8.209   4.311   6.851
 3072TIP3    H1 9157   8.286   4.318   6.909
 3072TIP3    H2 9158   8.214   4.222   6.816
 3073TIP3   OH2 9159   6.365   7.541   6.634
 3073TIP3    H1 9160   6.415   7.495   6.702
 3073TIP3    H2 9161   6.275   7.512   6.647
 3074TIP3   OH2 9162   4.778   4.248   1.964
 3074TIP3    H1 9163   4.749   4.325   2.013
 3074TIP3    H2 9164   4.866   4.271   1.933
 3075TIP3   OH2 9165   4.215   1.414   6.341
 3075TIP3    H1 9166   4.220   1.321   6.362
 3075TIP3    H2 9167   4.303   1.436   6.311
 3076TIP3   OH2 9168   1.944   1.730   0.831
 3076TIP3    H1 9169   2.013   1.766   0.887
 3076TIP3    H2 9170   1.990   1.674   0.769
 3077TIP3   OH2 9171   4.815   6.925   1.906
 3077TIP3    H1 9172   4.856   6.892   1.986
 3077TIP3    H2 9173   4.724   6.894   1.911
 3078TIP3   OH2 9174   7.345   2.876   4.103
 3078TIP3    H1 9175   7.433   2.852   4.073
 3078TIP3    H2 9176   7.311   2.934   4.035
 3079TIP3   OH2 9177   8.244   3.368   6.395
 3079TIP3    H1 9178   8.296   3.418   6.458
 3079TIP3    H2 9179   8.276   3.278   6.404
 3080TIP3   OH2 9180   5.119   3.741   1.888
 3080TIP3    H1 9181   5.146   3.831   1.873
 3080TIP3    H2 9182   5.088   3.739   1.978
 3081TIP3   OH2 9183   1.827   6.579   3.021
 3081TIP3    H1 9184   1.899   6.518   3.007
 3081TIP3    H2 9185   1.850   6.656   2.969
 3082TIP3   OH2 9186   1.870   1.685   4.870
 3082TIP3    H1 9187   1.836   1.664   4.782
 3082TIP3    H2 9188   1.917   1.768   4.858
 3083TIP3   OH2 9189   4.407   5.657   1.679
 3083TIP3    H1 9190   4.460   5.623   1.751
 3083TIP3    H2 9191   4.324   5.680   1.719
 3084TIP3   OH2 9192   5.232   2.872   3.578
 3084TIP3    H1 9193   5.203   2.799   3.523
 3084TIP3    H2 9194   5.233   2.835   3.667
 3085TIP3   OH2 9195   2.483   4.411   6.297
 3085TIP3    H1 9196   2.501   4.372   6.382
 3085TIP3    H2 9197   2.443   4.340   6.246
 3086TIP3   OH2 9198   3.555   1.197   3.365
 3086TIP3    H1 9199   3.572   1.171   3.274
 3086TIP3    H2 9200   3.618   1.267   3.381
 3087TIP3   OH2 9201   6.721   2.587   0.073
 3087TIP3    H1 9202   6.813   2.602   0.051
 3087TIP3    H2 9203   6.681   2.674   0.071
 3088TIP3   OH2 9204   4.109   3.910   0.447
 3088TIP3    H1 9205   4.194   3.919   0.490
 3088TIP3    H2 9206   4.058   3.853   0.505
 3089TIP3   OH2 9207   3.579   6.962   3.155
 3089TIP3    H1 9208   3.631   7.017   3.097
 3089TIP3    H2 9209   3.503   7.016   3.178
 3090TIP3   OH2 9210   5.417   6.997   0.215
 3090TIP3    H1 9211   5.383   6.908   0.223
 3090TIP3    H2 9212   5.497   6.988   0.164
 3091TIP3   OH2 9213   5.879   1.464   6.083
 3091TIP3    H1 9214   5.811   1.403   6.110
 3091TIP3    H2 9215   5.954   1.443   6.139
 3092TIP3   OH2 9216   0.912   6.960   1.805
 3092TIP3    H1 9217   0.906   7.016   1.727
 3092TIP3    H2 9218   0.912   7.021   1.879
 3093TIP3   OH2 9219   2.972   0.852   2.629
 3093TIP3    H1 9220   3.042   0.847   2.564
 3093TIP3    H2 9221   2.915   0.779   2.608
 3094TIP3   OH2 9222   5.150   6.427   4.742
 3094TIP3    H1 9223   5.190   6.346   4.772
 3094TIP3    H2 9224   5.060   6.402   4.721
 3095TIP3   OH2 9225   6.685   6.902   3.811
 3095TIP3    H1 9226   6.774   6.882   3.782
 3095TIP3    H2 9227   6.675   6.856   3.894
 3096TIP3   OH2 9228   0.830   2.323   5.308
 3096TIP3    H1 9229   0.849   2.401   5.359
 3096TIP3    H2 9230   0.782   2.266   5.368
 3097TIP3   OH2 9231   4.240   6.618   4.125
 3097TIP3    H1 9232   4.306   6.611   4.056
 3097TIP3    H2 9233   4.260   6.701   4.168
 3098TIP3   OH2 9234   3.635   4.462   6.553
 3098TIP3    H1 9235   3.701   4.400   6.520
 3098TIP3    H2 9236   3.573   4.472   6.482
 3099TIP3   OH2 9237   4.055   4.425   6.558
 3099TIP3    H1 9238   4.122   4.488   6.529
 3099TIP3    H2 9239   4.051   4.438   6.653
 3100TIP3   OH2 9240   3.498   4.395   4.948
 3100TIP3    H1 9241   3.406   4.415   4.966
 3100TIP3    H2 9242   3.506   4.302   4.969
 3101TIP3   OH2 9243   0.598   6.667   2.329
 3101TIP3    H1 9244   0.623   6.708   2.246
 3101TIP3    H2 9245   0.588   6.740   2.390
 3102TIP3   OH2 9246   4.543   2.114   4.948
 3102TIP3    H1 9247   4.541   2.070   5.033
 3102TIP3    H2 9248   4.636   2.117   4.926
 3103TIP3   OH2 9249   3.888   1.455   0.163
 3103TIP3    H1 9250   3.905   1.548   0.172
 3103TIP3    H2 9251   3.967   1.413   0.198
 3104TIP3   OH2 9252   5.376   2.027   2.335
 3104TIP3    H1 9253   5.346   1.936   2.340
 3104TIP3    H2 9254   5.336   2.061   2.255
 3105TIP3   OH2 9255   0.641   5.916   5.334
 3105TIP3    H1 9256   0.653   5.957   5.248
 3105TIP3    H2 9257   0.552   5.940   5.359
 3106TIP3   OH2 9258   1.365   1.724   5.087
 3106TIP3    H1 9259   1.315   1.731   5.006
 3106TIP3    H2 9260   1.372   1.630   5.103
 3107TIP3   OH2 9261   7.732   5.380   4.200
 3107TIP3    H1 9262   7.688   5.392   4.116
 3107TIP3    H2 9263   7.698   5.450   4.256
 3108TIP3   OH2 9264   1.367   6.004   0.645
 3108TIP3    H1 9265   1.376   5.984   0.738
 3108TIP3    H2 9266   1.456   6.018   0.614
 3109TIP3   OH2 9267   0.952   7.608   1.471
 3109TIP3    H1 9268   0.901   7.683   1.501
 3109TIP3    H2 9269   1.043   7.631   1.490
 3110TIP3   OH2 9270   4.068   0.705   5.415
 3110TIP3    H1 9271   4.003   0.759   5.371
 3110TIP3    H2 9272   4.037   0.615   5.402
 3111TIP3   OH2 9273   2.815   2.889   2.478
 3111TIP3    H1 9274   2.721   2.910   2.480
 3111TIP3    H2 9275   2.855   2.966   2.438
 3112TIP3   OH2 9276   0.087   3.629   6.286
 3112TIP3    H1 9277   0.112   3.570   6.215
 3112TIP3    H2 9278  -0.009   3.621   6.291
 3113TIP3   OH2 9279   0.853   1.650   3.620
 3113TIP3    H1 9280   0.889   1.622   3.535
 3113TIP3    H2 9281   0.764   1.680   3.599
 3114TIP3   OH2 9282   6.574   1.753   4.008
 3114TIP3    H1 9283   6.624   1.768   4.089
 3114TIP3    H2 9284   6.588   1.832   3.956
 3115TIP3   OH2 9285   7.949   5.905   2.393
 3115TIP3    H1 9286   7.960   5.824   2.443
 3115TIP3    H2 9287   7.876   5.887   2.334
 3116TIP3   OH2 9288   0.578   7.494   0.216
 3116TIP3    H1 9289   0.487   7.481   0.188
 3116TIP3    H2 9290   0.624   7.521   0.136
 3117TIP3   OH2 9291   1.126   7.350   0.652
 3117TIP3    H1 9292   1.068   7.338   0.577
 3117TIP3    H2 9293   1.072   7.394   0.718
 3118TIP3   OH2 9294   1.891   0.595   0.366
 3118TIP3    H1 9295   1.878   0.642   0.449
 3118TIP3    H2 9296   1.849   0.650   0.300
 3119TIP3   OH2 9297   4.254   3.365   2.238
 3119TIP3    H1 9298   4.326   3.428   2.248
 3119TIP3    H2 9299   4.217   3.384   2.152
 3120TIP3   OH2 9300   5.647   0.648   3.800
 3120TIP3    H1 9301   5.592   0.592   3.855
 3120TIP3    H2 9302   5.625   0.737   3.827
 3121TIP3   OH2 9303   5.919   1.006   3.415
 3121TIP3    H1 9304   5.875   1.014   3.499
 3121TIP3    H2 9305   5.895   1.086   3.368
 3122TIP3   OH2 9306   6.002   4.011   0.329
 3122TIP3    H1 9307   5.987   3.979   0.240
 3122TIP3    H2 9308   5.996   4.106   0.322
 3123TIP3   OH2 9309   0.937   0.573   1.248
 3123TIP3    H1 9310   0.957   0.656   1.290
 3123TIP3    H2 9311   0.843   0.562   1.259
 3124TIP3   OH2 9312   6.109   1.415   5.303
 3124TIP3    H1 9313   6.181   1.434   5.363
 3124TIP3    H2 9314   6.061   1.497   5.297
 3125TIP3   OH2 9315   2.703   2.142   4.573
 3125TIP3    H1 9316   2.777   2.086   4.551
 3125TIP3    H2 9317   2.629   2.104   4.526
 3126TIP3   OH2 9318   0.995   7.031   3.389
 3126TIP3    H1 9319   1.003   6.974   3.312
 3126TIP3    H2 9320   0.924   7.092   3.366
 3127TIP3   OH2 9321   0.470   6.508   5.235
 3127TIP3    H1 9322   0.378   6.526   5.255
 3127TIP3    H2 9323   0.467   6.428   5.181
 3128TIP3   OH2 9324   0.440   2.110   2.359
 3128TIP3    H1 9325   0.359   2.119   2.409
 3128TIP3    H2 9326   0.505   2.160   2.409
 3129TIP3   OH2 9327   3.094   5.081   4.231
 3129TIP3    H1 9328   3.048   5.157   4.196
 3129TIP3    H2 9329   3.025   5.018   4.250
 3130TIP3   OH2 9330   2.900   4.257   4.996
 3130TIP3    H1 9331   2.877   4.275   4.905
 3130TIP3    H2 9332   2.816   4.260   5.042
 3131TIP3   OH2 9333   4.075   5.328   3.366
 3131TIP3    H1 9334   4.153   5.381   3.350
 3131TIP3    H2 9335   4.035   5.318   3.280
 3132TIP3   OH2 9336   0.280   4.354   4.825
 3132TIP3    H1 9337   0.258   4.436   4.870
 3132TIP3    H2 9338   0.352   4.317   4.875
 3133TIP3   OH2 9339   0.686   4.912   6.786
 3133TIP3    H1 9340   0.678   4.866   6.869
 3133TIP3    H2 9341   0.681   5.005   6.809
 3134TIP3   OH2 9342   0.814   5.513   2.669
 3134TIP3    H1 9343   0.731   5.561   2.678
 3134TIP3    H2 9344   0.832   5.513   2.575
 3135TIP3   OH2 9345   3.903   3.092   4.747
 3135TIP3    H1 9346   3.960   3.075   4.822
 3135TIP3    H2 9347   3.959   3.081   4.671
 3136TIP3   OH2 9348   2.777   2.883   1.487
 3136TIP3    H1 9349   2.739   2.843   1.565
 3136TIP3    H2 9350   2.869   2.855   1.488
 3137TIP3   OH2 9351   6.677   1.792   6.603
 3137TIP3    H1 9352   6.660   1.818   6.694
 3137TIP3    H2 9353   6.591   1.767   6.570
 3138TIP3   OH2 9354   1.082   6.690   3.356
 3138TIP3    H1 9355   1.115   6.743   3.429
 3138TIP3    H2 9356   1.121   6.729   3.278
 3139TIP3   OH2 9357   8.005   1.719   0.529
 3139TIP3    H1 9358   7.993   1.743   0.437
 3139TIP3    H2 9359   8.090   1.675   0.532
 3140TIP3   OH2 9360   6.728   1.852   1.706
 3140TIP3    H1 9361   6.727   1.813   1.618
 3140TIP3    H2 9362   6.639   1.840   1.738
 3141TIP3   OH2 9363   0.906   0.807   0.987
 3141TIP3    H1 9364   0.922   0.901   0.992
 3141TIP3    H2 9365   0.983   0.771   0.945
 3142TIP3   OH2 9366   2.956   0.271   3.401
 3142TIP3    H1 9367   2.874   0.276   3.450
 3142TIP3    H2 9368   2.976   0.177   3.398
 3143TIP3   OH2 9369   5.562   1.702   5.020
 3143TIP3    H1 9370   5.495   1.720   5.085
 3143TIP3    H2 9371   5.634   1.762   5.041
 3144TIP3   OH2 9372   2.486   5.095   4.830
 3144TIP3    H1 9373   2.420   5.111   4.763
 3144TIP3    H2 9374   2.557   5.052   4.783
 3145TIP3   OH2 9375   5.522   3.481   4.652
 3145TIP3    H1 9376   5.460   3.539   4.696
 3145TIP3    H2 9377   5.500   3.393   4.682
 3146TIP3   OH2 9378   1.081   1.898   0.816
 3146TIP3    H1 9379   1.017   1.866   0.752
 3146TIP3    H2 9380   1.087   1.992   0.799
 3147TIP3   OH2 9381   2.039   6.912   0.487
 3147TIP3    H1 9382   2.016   6.900   0.579
 3147TIP3    H2 9383   2.037   6.824   0.450
 3148TIP3   OH2 9384   0.264   7.515   1.485
 3148TIP3    H1 9385   0.248   7.454   1.557
 3148TIP3    H2 9386   0.358   7.511   1.470
 3149TIP3   OH2 9387   0.251   6.944   6.475
 3149TIP3    H1 9388   0.199   6.970   6.399
 3149TIP3    H2 9389   0.274   6.853   6.459
 3150TIP3   OH2 9390   1.252   1.441   3.172
 3150TIP3    H1 9391   1.253   1.439   3.076
 3150TIP3    H2 9392   1.339   1.474   3.196
 3151TIP3   OH2 9393   7.836   2.967   1.027
 3151TIP3    H1 9394   7.769   3.020   0.984
 3151TIP3    H2 9395   7.897   3.031   1.063
 3152TIP3   OH2 9396   7.705   7.055   3.883
 3152TIP3    H1 9397   7.749   7.139   3.867
 3152TIP3    H2 9398   7.627   7.079   3.933
 3153TIP3   OH2 9399   1.000   5.688   5.335
 3153TIP3    H1 9400   1.000   5.713   5.242
 3153TIP3    H2 9401   1.083   5.721   5.368
 3154TIP3   OH2 9402   6.894   3.015   5.596
 3154TIP3    H1 9403   6.923   2.948   5.657
 3154TIP3    H2 9404   6.842   3.076   5.649
 3155TIP3   OH2 9405   7.812   2.400   6.440
 3155TIP3    H1 9406   7.811   2.307   6.421
 3155TIP3    H2 9407   7.828   2.405   6.534
 3156TIP3   OH2 9408   2.510   3.968   4.419
 3156TIP3    H1 9409   2.548   4.017   4.347
 3156TIP3    H2 9410   2.435   4.021   4.446
 3157TIP3   OH2 9411   3.890   1.314   5.770
 3157TIP3    H1 9412   3.877   1.376   5.842
 3157TIP3    H2 9413   3.962   1.258   5.798
 3158TIP3   OH2 9414   2.668   4.733   1.425
 3158TIP3    H1 9415   2.686   4.811   1.372
 3158TIP3    H2 9416   2.754   4.695   1.441
 3159TIP3   OH2 9417   4.447   6.409   0.416
 3159TIP3    H1 9418   4.522   6.468   0.407
 3159TIP3    H2 9419   4.440   6.393   0.510
 3160TIP3   OH2 9420   7.720   2.856   6.470
 3160TIP3    H1 9421   7.757   2.921   6.530
 3160TIP3    H2 9422   7.796   2.813   6.432
 3161TIP3   OH2 9423   7.382   6.838   5.876
 3161TIP3    H1 9424   7.456   6.898   5.872
 3161TIP3    H2 9425   7.411   6.769   5.936
 3162TIP3   OH2 9426   2.729   2.376   1.044
 3162TIP3    H1 9427   2.745   2.396   0.952
 3162TIP3    H2 9428   2.796   2.424   1.092
 3163TIP3   OH2 9429   4.710   6.725   3.876
 3163TIP3    H1 9430   4.783   6.677   3.914
 3163TIP3    H2 9431   4.700   6.689   3.788
 3164TIP3   OH2 9432   1.760   0.051   4.889
 3164TIP3    H1 9433   1.731  -0.024   4.940
 3164TIP3    H2 9434   1.790   0.013   4.806
 3165TIP3   OH2 9435   4.609   4.237   3.786
 3165TIP3    H1 9436   4.538   4.262   3.727
 3165TIP3    H2 9437   4.604   4.141   3.790
 3166TIP3   OH2 9438   3.189   2.608   5.587
 3166TIP3    H1 9439   3.173   2.514   5.578
 3166TIP3    H2 9440   3.108   2.649   5.558
 3167TIP3   OH2 9441   0.685   0.632   2.651
 3167TIP3    H1 9442   0.600   0.616   2.692
 3167TIP3    H2 9443   0.670   0.707   2.593
 3168TIP3   OH2 9444   1.059   6.029   0.134
 3168TIP3    H1 9445   1.145   6.013   0.095
 3168TIP3    H2 9446   1.062   5.983   0.218
 3169TIP3   OH2 9447   7.393   0.988   3.739
 3169TIP3    H1 9448   7.310   0.960   3.699
 3169TIP3    H2 9449   7.367   1.054   3.803
 3170TIP3   OH2 9450   3.515   3.224   2.391
 3170TIP3    H1 9451   3.498   3.299   2.334
 3170TIP3    H2 9452   3.611   3.217   2.394
 3171TIP3   OH2 9453   8.244   6.388   1.212
 3171TIP3    H1 9454   8.188   6.363   1.286
 3171TIP3    H2 9455   8.190   6.446   1.159
 3172TIP3   OH2 9456   0.554   4.394   4.375
 3172TIP3    H1 9457   0.596   4.459   4.318
 3172TIP3    H2 9458   0.560   4.431   4.463
 3173TIP3   OH2 9459   0.411   7.646   3.779
 3173TIP3    H1 9460   0.325   7.605   3.788
 3173TIP3    H2 9461   0.470   7.590   3.831
 3174TIP3   OH2 9462   5.720   5.167   4.090
 3174TIP3    H1 9463   5.745   5.216   4.012
 3174TIP3    H2 9464   5.651   5.221   4.130
 3175TIP3   OH2 9465   5.833   2.771   2.822
 3175TIP3    H1 9466   5.777   2.803   2.752
 3175TIP3    H2 9467   5.809   2.825   2.898
 3176TIP3   OH2 9468   8.142   4.343   2.013
 3176TIP3    H1 9469   8.112   4.253   1.999
 3176TIP3    H2 9470   8.234   4.334   2.038
 3177TIP3   OH2 9471   8.185   3.443   5.445
 3177TIP3    H1 9472   8.234   3.427   5.527
 3177TIP3    H2 9473   8.184   3.358   5.402
 3178TIP3   OH2 9474   5.239   2.233   3.558
 3178TIP3    H1 9475   5.304   2.233   3.488
 3178TIP3    H2 9476   5.204   2.322   3.557
 3179TIP3   OH2 9477   2.693   4.372   4.291
 3179TIP3    H1 9478   2.739   4.423   4.224
 3179TIP3    H2 9479   2.733   4.285   4.287
 3180TIP3   OH2 9480   2.400   2.425   5.444
 3180TIP3    H1 9481   2.321   2.471   5.472
 3180TIP3    H2 9482   2.368   2.342   5.408
 3181TIP3   OH2 9483   3.648   4.478   0.317
 3181TIP3    H1 9484   3.722   4.429   0.281
 3181TIP3    H2 9485   3.674   4.570   0.312
 3182TIP3   OH2 9486   6.327   6.492   0.402
 3182TIP3    H1 9487   6.344   6.437   0.325
 3182TIP3    H2 9488   6.265   6.442   0.454
 3183TIP3   OH2 9489   6.970   7.119   5.181
 3183TIP3    H1 9490   6.995   7.049   5.121
 3183TIP3    H2 9491   6.930   7.073   5.256
 3184TIP3   OH2 9492   0.065   6.158   0.537
 3184TIP3    H1 9493   0.092   6.112   0.617
 3184TIP3    H2 9494   0.014   6.093   0.489
 3185TIP3   OH2 9495   0.432   1.104   6.590
 3185TIP3    H1 9496   0.337   1.095   6.594
 3185TIP3    H2 9497   0.466   1.029   6.638
 3186TIP3   OH2 9498   2.250   1.120   4.035
 3186TIP3    H1 9499   2.312   1.090   4.102
 3186TIP3    H2 9500   2.201   1.190   4.079
 3187TIP3   OH2 9501   7.979   0.969   5.364
 3187TIP3    H1 9502   7.949   1.045   5.414
 3187TIP3    H2 9503   7.901   0.914   5.356
 3188TIP3   OH2 9504   0.751   2.227   2.795
 3188TIP3    H1 9505   0.830   2.188   2.834
 3188TIP3    H2 9506   0.698   2.253   2.870
 3189TIP3   OH2 9507   1.809   1.700   1.217
 3189TIP3    H1 9508   1.892   1.681   1.261
 3189TIP3    H2 9509   1.797   1.795   1.228
 3190TIP3   OH2 9510   0.960   0.061   3.624
 3190TIP3    H1 9511   1.013   0.130   3.583
 3190TIP3    H2 9512   0.974  -0.016   3.568
 3191TIP3   OH2 9513   5.093   7.775   0.313
 3191TIP3    H1 9514   5.052   7.798   0.396
 3191TIP3    H2 9515   5.183   7.807   0.320
 3192TIP3   OH2 9516   2.710   7.222   0.697
 3192TIP3    H1 9517   2.661   7.303   0.688
 3192TIP3    H2 9518   2.801   7.248   0.692
 3193TIP3   OH2 9519   7.815   2.379   1.988
 3193TIP3    H1 9520   7.846   2.458   2.032
 3193TIP3    H2 9521   7.870   2.373   1.909
 3194TIP3   OH2 9522   7.804   3.969   6.160
 3194TIP3    H1 9523   7.793   3.922   6.243
 3194TIP3    H2 9524   7.715   3.992   6.133
 3195TIP3   OH2 9525   3.787   3.812   0.863
 3195TIP3    H1 9526   3.716   3.805   0.799
 3195TIP3    H2 9527   3.857   3.858   0.815
 3196TIP3   OH2 9528   6.082   6.739   5.181
 3196TIP3    H1 9529   5.994   6.774   5.192
 3196TIP3    H2 9530   6.139   6.816   5.184
 3197TIP3   OH2 9531   7.742   4.080   1.559
 3197TIP3    H1 9532   7.823   4.063   1.511
 3197TIP3    H2 9533   7.721   4.171   1.539
 3198TIP3   OH2 9534   7.967   1.259   4.933
 3198TIP3    H1 9535   8.020   1.282   5.009
 3198TIP3    H2 9536   7.900   1.328   4.928
 3199TIP3   OH2 9537   3.135   5.816   0.813
 3199TIP3    H1 9538   3.179   5.773   0.739
 3199TIP3    H2 9539   3.205   5.844   0.871
 3200TIP3   OH2 9540   3.138   2.709   3.475
 3200TIP3    H1 9541   3.189   2.631   3.456
 3200TIP3    H2 9542   3.172   2.776   3.416
 3201TIP3   OH2 9543   1.859   5.021   5.363
 3201TIP3    H1 9544   1.917   5.052   5.294
 3201TIP3    H2 9545   1.918   4.984   5.429
 3202TIP3   OH2 9546   7.847   4.423   2.001
 3202TIP3    H1 9547   7.870   4.408   1.909
 3202TIP3    H2 9548   7.761   4.383   2.011
 3203TIP3   OH2 9549   3.499   5.667   0.459
 3203TIP3    H1 9550   3.424   5.718   0.428
 3203TIP3    H2 9551   3.534   5.625   0.381
 3204TIP3   OH2 9552   3.335   3.965   1.428
 3204TIP3    H1 9553   3.272   4.000   1.365
 3204TIP3    H2 9554   3.330   3.870   1.416
 3205TIP3   OH2 9555   4.314   1.587   1.346
 3205TIP3    H1 9556   4.395   1.565   1.300
 3205TIP3    H2 9557   4.272   1.502   1.363
 3206TIP3   OH2 9558   0.359   5.704   5.485
 3206TIP3    H1 9559   0.378   5.736   5.397
 3206TIP3    H2 9560   0.443   5.671   5.517
 3207TIP3   OH2 9561   6.647   4.087   2.760
 3207TIP3    H1 9562   6.604   4.126   2.836
 3207TIP3    H2 9563   6.741   4.103   2.775
 3208TIP3   OH2 9564   4.295   1.015   3.646
 3208TIP3    H1 9565   4.313   1.098   3.690
 3208TIP3    H2 9566   4.256   0.960   3.714
 3209TIP3   OH2 9567   4.959   5.643   2.977
 3209TIP3    H1 9568   4.954   5.628   3.071
 3209TIP3    H2 9569   4.903   5.719   2.962
 3210TIP3   OH2 9570   2.872   2.316   2.177
 3210TIP3    H1 9571   2.944   2.336   2.237
 3210TIP3    H2 9572   2.797   2.364   2.213
 3211TIP3   OH2 9573   3.514   0.373   5.657
 3211TIP3    H1 9574   3.512   0.277   5.648
 3211TIP3    H2 9575   3.466   0.391   5.738
 3212TIP3   OH2 9576   0.205   2.460   5.604
 3212TIP3    H1 9577   0.234   2.474   5.694
 3212TIP3    H2 9578   0.160   2.375   5.607
 3213TIP3   OH2 9579   8.028   4.635   1.426
 3213TIP3    H1 9580   8.046   4.545   1.452
 3213TIP3    H2 9581   8.112   4.679   1.431
 3214TIP3   OH2 9582   3.885   5.244   5.680
 3214TIP3    H1 9583   3.972   5.241   5.718
 3214TIP3    H2 9584   3.834   5.181   5.730
 3215TIP3   OH2 9585   5.877   1.394   5.524
 3215TIP3    H1 9586   5.954   1.451   5.519
 3215TIP3    H2 9587   5.846   1.388   5.434
 3216TIP3   OH2 9588   1.604   5.003   2.580
 3216TIP3    H1 9589   1.511   4.983   2.586
 3216TIP3    H2 9590   1.632   5.016   2.670
 3217TIP3   OH2 9591   7.736   6.185   1.981
 3217TIP3    H1 9592   7.738   6.209   2.073
 3217TIP3    H2 9593   7.825   6.202   1.950
 3218TIP3   OH2 9594   7.728   7.819   2.396
 3218TIP3    H1 9595   7.636   7.796   2.411
 3218TIP3    H2 9596   7.778   7.755   2.447
 3219TIP3   OH2 9597   8.067   6.727   0.430
 3219TIP3    H1 9598   7.994   6.736   0.491
 3219TIP3    H2 9599   8.077   6.814   0.390
 3220TIP3   OH2 9600   1.935   6.297   1.194
 3220TIP3    H1 9601   1.893   6.247   1.124
 3220TIP3    H2 9602   1.920   6.245   1.273
 3221TIP3   OH2 9603   6.293   7.842   6.299
 3221TIP3    H1 9604   6.328   7.916   6.349
 3221TIP3    H2 9605   6.313   7.862   6.208
 3222TIP3   OH2 9606   6.731   5.685   0.633
 3222TIP3    H1 9607   6.743   5.744   0.558
 3222TIP3    H2 9608   6.815   5.687   0.679
 3223TIP3   OH2 9609   2.532   3.166   4.308
 3223TIP3    H1 9610   2.499   3.250   4.275
 3223TIP3    H2 9611   2.486   3.153   4.391
 3224TIP3   OH2 9612   4.319   7.733   2.668
 3224TIP3    H1 9613   4.407   7.769   2.653
 3224TIP3    H2 9614   4.262   7.782   2.608
 3225TIP3   OH2 9615   3.702   7.518   1.167
 3225TIP3    H1 9616   3.774   7.465   1.202
 3225TIP3    H2 9617   3.741   7.566   1.094
 3226TIP3   OH2 9618   3.636   6.896   6.236
 3226TIP3    H1 9619   3.593   6.820   6.275
 3226TIP3    H2 9620   3.724   6.866   6.213
 3227TIP3   OH2 9621   7.969   6.102   3.464
 3227TIP3    H1 9622   7.995   6.182   3.508
 3227TIP3    H2 9623   7.888   6.076   3.507
 3228TIP3   OH2 9624   4.353   2.815   0.504
 3228TIP3    H1 9625   4.397   2.874   0.443
 3228TIP3    H2 9626   4.360   2.858   0.589
 3229TIP3   OH2 9627   7.069   2.926   1.264
 3229TIP3    H1 9628   7.050   2.994   1.199
 3229TIP3    H2 9629   7.019   2.850   1.233
 3230TIP3   OH2 9630   5.547   6.655   1.064
 3230TIP3    H1 9631   5.479   6.588   1.055
 3230TIP3    H2 9632   5.621   6.608   1.104
 3231TIP3   OH2 9633   3.971   6.226   5.691
 3231TIP3    H1 9634   4.038   6.177   5.739
 3231TIP3    H2 9635   3.896   6.167   5.687
 3232TIP3   OH2 9636   4.272   3.546   4.939
 3232TIP3    H1 9637   4.213   3.574   5.008
 3232TIP3    H2 9638   4.275   3.451   4.947
 3233TIP3   OH2 9639   5.451   2.443   5.061
 3233TIP3    H1 9640   5.530   2.447   5.116
 3233TIP3    H2 9641   5.388   2.501   5.106
 3234TIP3   OH2 9642   1.872   4.285   5.805
 3234TIP3    H1 9643   1.921   4.367   5.805
 3234TIP3    H2 9644   1.907   4.236   5.731
 3235TIP3   OH2 9645   3.447   0.732   3.253
 3235TIP3    H1 9646   3.476   0.659   3.308
 3235TIP3    H2 9647   3.472   0.810   3.303
 3236TIP3   OH2 9648   3.968   2.092   4.725
 3236TIP3    H1 9649   4.011   2.008   4.742
 3236TIP3    H2 9650   3.894   2.070   4.668
 3237TIP3   OH2 9651   4.394   4.736   2.445
 3237TIP3    H1 9652   4.309   4.709   2.408
 3237TIP3    H2 9653   4.409   4.823   2.409
 3238TIP3   OH2 9654   0.340   6.976   3.556
 3238TIP3    H1 9655   0.318   6.989   3.463
 3238TIP3    H2 9656   0.391   6.895   3.558
 3239TIP3   OH2 9657   0.963   0.259   3.903
 3239TIP3    H1 9658   1.040   0.251   3.847
 3239TIP3    H2 9659   0.892   0.221   3.851
 3240TIP3   OH2 9660   1.590   6.227   1.968
 3240TIP3    H1 9661   1.660   6.289   1.948
 3240TIP3    H2 9662   1.531   6.276   2.025
 3241TIP3   OH2 9663   3.105   1.064   3.890
 3241TIP3    H1 9664   3.088   1.154   3.919
 3241TIP3    H2 9665   3.110   1.069   3.795
 3242TIP3   OH2 9666   3.078   0.174   6.418
 3242TIP3    H1 9667   2.989   0.184   6.452
 3242TIP3    H2 9668   3.092   0.079   6.419
 3243TIP3   OH2 9669   5.772   4.582   2.882
 3243TIP3    H1 9670   5.849   4.631   2.855
 3243TIP3    H2 9671   5.807   4.507   2.931
 3244TIP3   OH2 9672   1.954   4.892   2.586
 3244TIP3    H1 9673   1.954   4.797   2.598
 3244TIP3    H2 9674   1.894   4.925   2.653
 3245TIP3   OH2 9675   1.415   0.741   6.446
 3245TIP3    H1 9676   1.445   0.699   6.526
 3245TIP3    H2 9677   1.495   0.761   6.397
 3246TIP3   OH2 9678   1.487   7.757   5.323
 3246TIP3    H1 9679   1.439   7.728   5.245
 3246TIP3    H2 9680   1.424   7.746   5.395
 3247TIP3   OH2 9681   3.387   2.906   4.360
 3247TIP3    H1 9682   3.351   2.834   4.308
 3247TIP3    H2 9683   3.482   2.893   4.356
 3248TIP3   OH2 9684   3.047   6.360   4.607
 3248TIP3    H1 9685   2.959   6.378   4.575
 3248TIP3    H2 9686   3.097   6.335   4.530
 3249TIP3   OH2 9687   0.994   3.832   3.310
 3249TIP3    H1 9688   0.956   3.745   3.321
 3249TIP3    H2 9689   1.088   3.816   3.303
 3250TIP3   OH2 9690   5.847   5.992   6.299
 3250TIP3    H1 9691   5.907   6.042   6.355
 3250TIP3    H2 9692   5.869   6.021   6.210
 3251TIP3   OH2 9693   4.649   2.992   4.619
 3251TIP3    H1 9694   4.623   2.989   4.711
 3251TIP3    H2 9695   4.662   2.900   4.595
 3252TIP3   OH2 9696   3.558   5.652   2.181
 3252TIP3    H1 9697   3.498   5.656   2.107
 3252TIP3    H2 9698   3.645   5.660   2.142
 3253TIP3   OH2 9699  -0.025   2.939   3.644
 3253TIP3    H1 9700  -0.003   2.952   3.552
 3253TIP3    H2 9701   0.056   2.953   3.691
 3254TIP3   OH2 9702   4.604   1.796   1.820
 3254TIP3    H1 9703   4.658   1.845   1.883
 3254TIP3    H2 9704   4.548   1.863   1.780
 3255TIP3   OH2 9705   5.993   1.985   2.608
 3255TIP3    H1 9706   5.897   1.983   2.609
 3255TIP3    H2 9707   6.018   1.894   2.624
 3256TIP3   OH2 9708   8.248   1.568   3.981
 3256TIP3    H1 9709   8.200   1.535   4.057
 3256TIP3    H2 9710   8.340   1.561   4.005
 3257TIP3   OH2 9711   2.126   0.941   5.258
 3257TIP3    H1 9712   2.100   1.027   5.293
 3257TIP3    H2 9713   2.148   0.890   5.336
 3258TIP3   OH2 9714   6.917   5.245   4.963
 3258TIP3    H1 9715   6.979   5.233   5.036
 3258TIP3    H2 9716   6.848   5.301   4.999
 3259TIP3   OH2 9717   1.888   7.606   0.756
 3259TIP3    H1 9718   1.889   7.606   0.852
 3259TIP3    H2 9719   1.796   7.592   0.733
 3260TIP3   OH2 9720   2.824   0.361   6.149
 3260TIP3    H1 9721   2.822   0.367   6.244
 3260TIP3    H2 9722   2.788   0.275   6.129
 3261TIP3   OH2 9723   2.249   7.239   6.816
 3261TIP3    H1 9724   2.205   7.305   6.869
 3261TIP3    H2 9725   2.242   7.158   6.868
 3262TIP3   OH2 9726   6.716   6.446   1.172
 3262TIP3    H1 9727   6.629   6.454   1.133
 3262TIP3    H2 9728   6.759   6.377   1.120
 3263TIP3   OH2 9729   6.702   0.609   0.661
 3263TIP3    H1 9730   6.783   0.600   0.612
 3263TIP3    H2 9731   6.679   0.520   0.688
 3264TIP3   OH2 9732   2.627   0.530   3.300
 3264TIP3    H1 9733   2.623   0.625   3.289
 3264TIP3    H2 9734   2.696   0.502   3.240
 3265TIP3   OH2 9735   8.083   3.548   4.621
 3265TIP3    H1 9736   8.149   3.593   4.674
 3265TIP3    H2 9737   8.043   3.485   4.681
 3266TIP3   OH2 9738   6.391   0.533   3.911
 3266TIP3    H1 9739   6.337   0.566   3.839
 3266TIP3    H2 9740   6.366   0.587   3.986
 3267TIP3   OH2 9741   0.278   2.650   2.066
 3267TIP3    H1 9742   0.290   2.597   1.987
 3267TIP3    H2 9743   0.252   2.736   2.033
 3268TIP3   OH2 9744   5.011   7.185   6.244
 3268TIP3    H1 9745   5.080   7.251   6.238
 3268TIP3    H2 9746   5.051   7.105   6.210
 3269TIP3   OH2 9747   0.588   1.375   4.649
 3269TIP3    H1 9748   0.637   1.374   4.568
 3269TIP3    H2 9749   0.619   1.453   4.696
 3270TIP3   OH2 9750   0.984   2.713   1.716
 3270TIP3    H1 9751   0.961   2.725   1.624
 3270TIP3    H2 9752   1.018   2.624   1.720
 3271TIP3   OH2 9753   3.881   7.082   5.771
 3271TIP3    H1 9754   3.952   7.146   5.774
 3271TIP3    H2 9755   3.816   7.121   5.712
 3272TIP3   OH2 9756   3.925   4.696   0.830
 3272TIP3    H1 9757   3.919   4.720   0.922
 3272TIP3    H2 9758   3.949   4.603   0.832
 3273TIP3   OH2 9759   6.044   1.469   4.334
 3273TIP3    H1 9760   6.037   1.476   4.429
 3273TIP3    H2 9761   6.132   1.503   4.314
 3274TIP3   OH2 9762   6.831   5.473   3.340
 3274TIP3    H1 9763   6.806   5.516   3.258
 3274TIP3    H2 9764   6.866   5.388   3.313
 3275TIP3   OH2 9765   0.615   1.715   1.055
 3275TIP3    H1 9766   0.551   1.654   1.019
 3275TIP3    H2 9767   0.690   1.660   1.079
 3276TIP3   OH2 9768   4.451   4.386   3.628
 3276TIP3    H1 9769   4.362   4.406   3.656
 3276TIP3    H2 9770   4.494   4.472   3.624
 3277TIP3   OH2 9771   8.347   4.733   2.479
 3277TIP3    H1 9772   8.442   4.724   2.471
 3277TIP3    H2 9773   8.321   4.658   2.531
 3278TIP3   OH2 9774   0.473   7.583   4.976
 3278TIP3    H1 9775   0.487   7.664   5.025
 3278TIP3    H2 9776   0.398   7.541   5.017
 3279TIP3   OH2 9777   0.821   6.938   3.898
 3279TIP3    H1 9778   0.862   6.894   3.823
 3279TIP3    H2 9779   0.756   6.876   3.930
 3280TIP3   OH2 9780   4.119   6.964   5.618
 3280TIP3    H1 9781   4.197   6.986   5.668
 3280TIP3    H2 9782   4.078   7.049   5.600
 3281TIP3   OH2 9783   1.632   7.504   1.248
 3281TIP3    H1 9784   1.640   7.506   1.153
 3281TIP3    H2 9785   1.642   7.595   1.275
 3282TIP3   OH2 9786   2.468   1.748   1.769
 3282TIP3    H1 9787   2.453   1.725   1.860
 3282TIP3    H2 9788   2.388   1.793   1.742
 3283TIP3   OH2 9789   2.357   7.122   5.329
 3283TIP3    H1 9790   2.388   7.126   5.420
 3283TIP3    H2 9791   2.346   7.214   5.304
 3284TIP3   OH2 9792   0.408   5.103   4.576
 3284TIP3    H1 9793   0.444   5.183   4.615
 3284TIP3    H2 9794   0.316   5.123   4.560
 3285TIP3   OH2 9795   3.813   5.633   1.990
 3285TIP3    H1 9796   3.823   5.615   1.896
 3285TIP3    H2 9797   3.903   5.630   2.024
 3286TIP3   OH2 9798   2.714   1.533   1.079
 3286TIP3    H1 9799   2.643   1.586   1.116
 3286TIP3    H2 9800   2.789   1.593   1.076
 3287TIP3   OH2 9801   5.241   7.338   4.634
 3287TIP3    H1 9802   5.217   7.429   4.653
 3287TIP3    H2 9803   5.303   7.344   4.561
 3288TIP3   OH2 9804   1.867   1.485   3.848
 3288TIP3    H1 9805   1.829   1.570   3.827
 3288TIP3    H2 9806   1.923   1.501   3.924
 3289TIP3   OH2 9807   4.344   5.110   4.789
 3289TIP3    H1 9808   4.337   5.194   4.835
 3289TIP3    H2 9809   4.306   5.127   4.703
 3290TIP3   OH2 9810   6.362   1.523   3.325
 3290TIP3    H1 9811   6.284   1.568   3.357
 3290TIP3    H2 9812   6.433   1.558   3.378
 3291TIP3   OH2 9813   5.810   5.686   0.815
 3291TIP3    H1 9814   5.892   5.636   0.820
 3291TIP3    H2 9815   5.745   5.630   0.859
 3292TIP3   OH2 9816   2.145   0.791   1.946
 3292TIP3    H1 9817   2.135   0.855   2.016
 3292TIP3    H2 9818   2.223   0.819   1.899
 3293TIP3   OH2 9819   6.324   6.467   6.116
 3293TIP3    H1 9820   6.314   6.420   6.199
 3293TIP3    H2 9821   6.251   6.437   6.063
 3294TIP3   OH2 9822   3.901   7.380   6.763
 3294TIP3    H1 9823   3.967   7.335   6.710
 3294TIP3    H2 9824   3.839   7.311   6.786
 3295TIP3   OH2 9825   3.300   6.723   4.699
 3295TIP3    H1 9826   3.365   6.792   4.682
 3295TIP3    H2 9827   3.297   6.717   4.794
 3296TIP3   OH2 9828   5.030   4.190   2.113
 3296TIP3    H1 9829   4.958   4.130   2.133
 3296TIP3    H2 9830   5.016   4.214   2.021
 3297TIP3   OH2 9831   3.357   7.087   0.833
 3297TIP3    H1 9832   3.287   7.022   0.825
 3297TIP3    H2 9833   3.312   7.166   0.863
 3298TIP3   OH2 9834   3.512   4.175   3.459
 3298TIP3    H1 9835   3.580   4.240   3.441
 3298TIP3    H2 9836   3.442   4.224   3.502
 3299TIP3   OH2 9837   0.912   6.858   2.480
 3299TIP3    H1 9838   0.885   6.795   2.547
 3299TIP3    H2 9839   0.881   6.942   2.513
 3300TIP3   OH2 9840   7.410   0.439   4.621
 3300TIP3    H1 9841   7.320   0.433   4.654
 3300TIP3    H2 9842   7.452   0.505   4.676
 3301TIP3   OH2 9843   5.268   3.753   0.341
 3301TIP3    H1 9844   5.308   3.772   0.425
 3301TIP3    H2 9845   5.321   3.681   0.306
 3302TIP3   OH2 9846   2.503   7.794   4.672
 3302TIP3    H1 9847   2.454   7.838   4.602
 3302TIP3    H2 9848   2.520   7.863   4.736
 3303TIP3   OH2 9849   1.578   5.277   6.057
 3303TIP3    H1 9850   1.591   5.183   6.070
 3303TIP3    H2 9851   1.626   5.296   5.976
 3304TIP3   OH2 9852   0.372   1.216   4.017
 3304TIP3    H1 9853   0.342   1.130   4.047
 3304TIP3    H2 9854   0.319   1.233   3.939
 3305TIP3   OH2 9855   8.309   3.233   2.281
 3305TIP3    H1 9856   8.315   3.223   2.186
 3305TIP3    H2 9857   8.217   3.218   2.301
 3306TIP3   OH2 9858   1.238   5.319   4.083
 3306TIP3    H1 9859   1.287   5.330   4.001
 3306TIP3    H2 9860   1.279   5.381   4.143
 3307TIP3   OH2 9861   6.353   3.869   3.537
 3307TIP3    H1 9862   6.338   3.919   3.617
 3307TIP3    H2 9863   6.277   3.811   3.531
 3308TIP3   OH2 9864   4.251   7.043   3.167
 3308TIP3    H1 9865   4.238   7.135   3.141
 3308TIP3    H2 9866   4.310   7.008   3.099
 3309TIP3   OH2 9867   1.948   5.277   2.316
 3309TIP3    H1 9868   2.001   5.354   2.335
 3309TIP3    H2 9869   1.925   5.285   2.224
 3310TIP3   OH2 9870   2.051   6.742   6.133
 3310TIP3    H1 9871   2.143   6.746   6.159
 3310TIP3    H2 9872   2.004   6.711   6.211
 3311TIP3   OH2 9873   1.447   1.698   5.541
 3311TIP3    H1 9874   1.465   1.783   5.500
 3311TIP3    H2 9875   1.418   1.643   5.469
 3312TIP3   OH2 9876   6.232   3.240   4.792
 3312TIP3    H1 9877   6.209   3.331   4.772
 3312TIP3    H2 9878   6.245   3.238   4.886
 3313TIP3   OH2 9879   6.882   2.223   2.129
 3313TIP3    H1 9880   6.872   2.228   2.224
 3313TIP3    H2 9881   6.962   2.173   2.115
 3314TIP3   OH2 9882   2.106   5.240   6.051
 3314TIP3    H1 9883   2.168   5.305   6.084
 3314TIP3    H2 9884   2.113   5.246   5.956
 3315TIP3   OH2 9885   2.853   6.509   2.069
 3315TIP3    H1 9886   2.873   6.441   2.005
 3315TIP3    H2 9887   2.796   6.570   2.023
 3316TIP3   OH2 9888   5.026   3.646   0.609
 3316TIP3    H1 9889   5.003   3.603   0.527
 3316TIP3    H2 9890   5.122   3.648   0.609
 3317TIP3   OH2 9891   1.915   5.788   3.746
 3317TIP3    H1 9892   1.971   5.711   3.734
 3317TIP3    H2 9893   1.884   5.809   3.658
 3318TIP3   OH2 9894   4.103   1.432   3.525
 3318TIP3    H1 9895   4.044   1.391   3.462
 3318TIP3    H2 9896   4.177   1.461   3.472
 3319TIP3   OH2 9897   3.515   3.468   2.259
 3319TIP3    H1 9898   3.504   3.561   2.274
 3319TIP3    H2 9899   3.538   3.460   2.166
 3320TIP3   OH2 9900   1.789   2.104   1.436
 3320TIP3    H1 9901   1.883   2.105   1.453
 3320TIP3    H2 9902   1.764   2.196   1.432
 3321TIP3   OH2 9903   1.265   2.212   5.720
 3321TIP3    H1 9904   1.353   2.173   5.726
 3321TIP3    H2 9905   1.214   2.166   5.787
 3322TIP3   OH2 9906   2.807   2.410   1.631
 3322TIP3    H1 9907   2.874   2.406   1.563
 3322TIP3    H2 9908   2.729   2.371   1.590
 3323TIP3   OH2 9909   4.332   2.221   0.161
 3323TIP3    H1 9910   4.409   2.174   0.128
 3323TIP3    H2 9911   4.279   2.235   0.083
 3324TIP3   OH2 9912   7.776   3.409   4.609
 3324TIP3    H1 9913   7.818   3.405   4.695
 3324TIP3    H2 9914   7.849   3.419   4.548
 3325TIP3   OH2 9915   6.956   1.311   2.619
 3325TIP3    H1 9916   6.983   1.220   2.628
 3325TIP3    H2 9917   7.029   1.361   2.655
 3326TIP3   OH2 9918   0.845   5.144   3.161
 3326TIP3    H1 9919   0.782   5.087   3.205
 3326TIP3    H2 9920   0.896   5.084   3.106
 3327TIP3   OH2 9921   6.490   3.842   4.374
 3327TIP3    H1 9922   6.436   3.803   4.306
 3327TIP3    H2 9923   6.440   3.918   4.403
 3328TIP3   OH2 9924   0.709   3.317   5.662
 3328TIP3    H1 9925   0.769   3.245   5.682
 3328TIP3    H2 9926   0.666   3.290   5.581
 3329TIP3   OH2 9927   6.849   6.433   5.401
 3329TIP3    H1 9928   6.809   6.410   5.318
 3329TIP3    H2 9929   6.776   6.439   5.463
 3330TIP3   OH2 9930   0.337   0.250   6.585
 3330TIP3    H1 9931   0.380   0.284   6.662
 3330TIP3    H2 9932   0.244   0.271   6.597
 3331TIP3   OH2 9933   4.351   3.377   6.090
 3331TIP3    H1 9934   4.409   3.451   6.104
 3331TIP3    H2 9935   4.384   3.335   6.011
 3332TIP3   OH2 9936   1.332   0.670   5.977
 3332TIP3    H1 9937   1.289   0.600   5.928
 3332TIP3    H2 9938   1.294   0.665   6.065
 3333TIP3   OH2 9939   5.994   6.814   6.213
 3333TIP3    H1 9940   6.082   6.836   6.243
 3333TIP3    H2 9941   5.937   6.877   6.258
 3334TIP3   OH2 9942   0.345   7.226   1.472
 3334TIP3    H1 9943   0.314   7.290   1.536
 3334TIP3    H2 9944   0.436   7.211   1.495
 3335TIP3   OH2 9945   1.022   4.439   2.564
 3335TIP3    H1 9946   0.943   4.483   2.595
 3335TIP3    H2 9947   1.048   4.384   2.638
 3336TIP3   OH2 9948   1.030   4.667   2.909
 3336TIP3    H1 9949   1.111   4.650   2.862
 3336TIP3    H2 9950   1.046   4.633   2.997
 3337TIP3   OH2 9951   4.509   4.945   3.198
 3337TIP3    H1 9952   4.523   4.877   3.131
 3337TIP3    H2 9953   4.511   4.897   3.281
 3338TIP3   OH2 9954   2.392   3.118   3.533
 3338TIP3    H1 9955   2.414   3.196   3.583
 3338TIP3    H2 9956   2.464   3.057   3.550
 3339TIP3   OH2 9957   4.982   6.502   3.302
 3339TIP3    H1 9958   5.060   6.556   3.307
 3339TIP3    H2 9959   4.910   6.565   3.295
 3340TIP3   OH2 9960   5.877   7.866   4.291
 3340TIP3    H1 9961   5.939   7.904   4.229
 3340TIP3    H2 9962   5.917   7.782   4.316
 3341TIP3   OH2 9963   8.058   0.268   0.464
 3341TIP3    H1 9964   8.083   0.186   0.506
 3341TIP3    H2 9965   8.090   0.260   0.374
 3342TIP3   OH2 9966   7.207   6.541   4.359
 3342TIP3    H1 9967   7.146   6.594   4.309
 3342TIP3    H2 9968   7.152   6.484   4.413
 3343TIP3   OH2 9969   4.019   7.341   5.841
 3343TIP3    H1 9970   3.932   7.373   5.815
 3343TIP3    H2 9971   4.080   7.407   5.807
 3344TIP3   OH2 9972   0.745   4.835   5.743
 3344TIP3    H1 9973   0.783   4.895   5.679
 3344TIP3    H2 9974   0.790   4.856   5.825
 3345TIP3   OH2 9975   0.641   0.823   6.004
 3345TIP3    H1 9976   0.690   0.821   5.922
 3345TIP3    H2 9977   0.657   0.911   6.040
 3346TIP3   OH2 9978   1.681   7.442   3.374
 3346TIP3    H1 9979   1.768   7.404   3.384
 3346TIP3    H2 9980   1.621   7.370   3.394
 3347TIP3   OH2 9981   7.740   4.960   5.616
 3347TIP3    H1 9982   7.661   4.906   5.606
 3347TIP3    H2 9983   7.762   4.951   5.709
 3348TIP3   OH2 9984   8.281  -0.018   5.462
 3348TIP3    H1 9985   8.334   0.033   5.400
 3348TIP3    H2 9986   8.191   0.008   5.443
 3349TIP3   OH2 9987   1.206   3.635   0.890
 3349TIP3    H1 9988   1.140   3.681   0.838
 3349TIP3    H2 9989   1.161   3.612   0.971
 3350TIP3   OH2 9990   1.028   6.815   2.239
 3350TIP3    H1 9991   0.980   6.777   2.165
 3350TIP3    H2 9992   0.960   6.833   2.304
 3351TIP3   OH2 9993   2.167   3.619   3.873
 3351TIP3    H1 9994   2.213   3.645   3.793
 3351TIP3    H2 9995   2.191   3.685   3.938
 3352TIP3   OH2 9996   4.777   6.000   6.574
 3352TIP3    H1 9997   4.817   5.979   6.490
 3352TIP3    H2 9998   4.842   6.055   6.618
 3353TIP3   OH2 9999   5.493   5.926   5.435
 3353TIP3    H110000   5.467   5.983   5.362
 3353TIP3    H210001   5.417   5.925   5.493
 3354TIP3   OH210002   0.240   4.533   0.229
 3354TIP3    H110003   0.209   4.444   0.242
 3354TIP3    H210004   0.287   4.531   0.146
 3355TIP3   OH210005   2.742   5.148   4.166
 3355TIP3    H110006   2.681   5.121   4.097
 3355TIP3    H210007   2.761   5.068   4.214
 3356TIP3   OH210008   2.233   7.561   2.294
 3356TIP3    H110009   2.225   7.580   2.388
 3356TIP3    H210010   2.175   7.624   2.252
 3357TIP3   OH210011   4.777   7.330   1.164
 3357TIP3    H110012   4.796   7.358   1.075
 3357TIP3    H210013   4.859   7.343   1.212
 3358TIP3   OH210014   1.868   1.672   6.814
 3358TIP3    H110015   1.925   1.747   6.831
 3358TIP3    H210016   1.782   1.712   6.798
 3359TIP3   OH210017   6.014   0.534   4.844
 3359TIP3    H110018   5.967   0.546   4.761
 3359TIP3    H210019   5.951   0.560   4.911
 3360TIP3   OH210020   4.269   3.034   3.872
 3360TIP3    H110021   4.326   3.019   3.948
 3360TIP3    H210022   4.182   3.011   3.903
 3361TIP3   OH210023   5.421   5.070   1.483
 3361TIP3    H110024   5.450   4.989   1.440
 3361TIP3    H210025   5.367   5.114   1.417
 3362TIP3   OH210026   0.759   6.322   6.057
 3362TIP3    H110027   0.704   6.292   5.985
 3362TIP3    H210028   0.794   6.242   6.096
 3363TIP3   OH210029   0.708   7.897   0.681
 3363TIP3    H110030   0.745   7.953   0.748
 3363TIP3    H210031   0.783   7.862   0.634
 3364TIP3   OH210032   0.621   6.542   6.154
 3364TIP3    H110033   0.652   6.452   6.153
 3364TIP3    H210034   0.552   6.544   6.087
 3365TIP3   OH210035   7.340   0.832   2.732
 3365TIP3    H110036   7.305   0.921   2.738
 3365TIP3    H210037   7.389   0.821   2.813
 3366TIP3   OH210038   4.585   2.662   2.759
 3366TIP3    H110039   4.517   2.728   2.748
 3366TIP3    H210040   4.576   2.605   2.683
 3367TIP3   OH210041   0.327   1.690   3.101
 3367TIP3    H110042   0.262   1.669   3.033
 3367TIP3    H210043   0.388   1.750   3.058
 3368TIP3   OH210044   2.362   7.220   6.032
 3368TIP3    H110045   2.416   7.172   6.096
 3368TIP3    H210046   2.310   7.281   6.085
 3369TIP3   OH210047   3.162   1.502   2.934
 3369TIP3    H110048   3.108   1.574   2.901
 3369TIP3    H210049   3.161   1.514   3.029
 3370TIP3   OH210050   5.761   0.866   1.593
 3370TIP3    H110051   5.803   0.866   1.679
 3370TIP3    H210052   5.806   0.935   1.545
 3371TIP3   OH210053   1.951   1.679   0.091
 3371TIP3    H110054   1.977   1.589   0.071
 3371TIP3    H210055   1.855   1.676   0.094
 3372TIP3   OH210056   3.153   0.610   0.810
 3372TIP3    H110057   3.080   0.653   0.763
 3372TIP3    H210058   3.148   0.646   0.899
 3373TIP3   OH210059   5.997   1.651   5.204
 3373TIP3    H110060   5.953   1.687   5.127
 3373TIP3    H210061   6.086   1.684   5.197
 3374TIP3   OH210062   5.038   7.201   0.029
 3374TIP3    H110063   4.990   7.140   0.085
 3374TIP3    H210064   5.113   7.229   0.082
 3375TIP3   OH210065   5.502   7.729   4.884
 3375TIP3    H110066   5.547   7.745   4.967
 3375TIP3    H210067   5.414   7.764   4.897
 3376TIP3   OH210068   1.389   7.704   4.334
 3376TIP3    H110069   1.478   7.697   4.367
 3376TIP3    H210070   1.369   7.798   4.341
 3377TIP3   OH210071   1.521   4.319   6.414
 3377TIP3    H110072   1.471   4.312   6.333
 3377TIP3    H210073   1.456   4.315   6.484
 3378TIP3   OH210074   6.621   6.613   3.163
 3378TIP3    H110075   6.646   6.687   3.218
 3378TIP3    H210076   6.595   6.653   3.080
 3379TIP3   OH210077   5.690   7.619   3.937
 3379TIP3    H110078   5.696   7.699   3.885
 3379TIP3    H210079   5.613   7.574   3.904
 3380TIP3   OH210080   6.077   5.952   1.465
 3380TIP3    H110081   5.997   5.974   1.512
 3380TIP3    H210082   6.048   5.930   1.377
 3381TIP3   OH210083   1.882   2.128   3.506
 3381TIP3    H110084   1.810   2.173   3.550
 3381TIP3    H210085   1.942   2.198   3.480
 3382TIP3   OH210086   6.562   0.303   5.012
 3382TIP3    H110087   6.639   0.266   4.970
 3382TIP3    H210088   6.491   0.289   4.948
 3383TIP3   OH210089   7.484   5.605   6.637
 3383TIP3    H110090   7.558   5.561   6.596
 3383TIP3    H210091   7.421   5.617   6.566
 3384TIP3   OH210092   6.296   0.645   0.998
 3384TIP3    H110093   6.352   0.567   1.000
 3384TIP3    H210094   6.257   0.644   0.910
 3385TIP3   OH210095   5.598   7.877   3.915
 3385TIP3    H110096   5.522   7.856   3.862
 3385TIP3    H210097   5.591   7.971   3.932
 3386TIP3   OH210098   2.250   0.812   0.033
 3386TIP3    H110099   2.272   0.893   0.078
 3386TIP3    H210100   2.300   0.745   0.079
 3387TIP3   OH210101   6.978   5.483   4.530
 3387TIP3    H110102   7.070   5.477   4.559
 3387TIP3    H210103   6.935   5.409   4.571
 3388TIP3   OH210104   6.179   4.067   0.024
 3388TIP3    H110105   6.090   4.041   0.000
 3388TIP3    H210106   6.173   4.092   0.116
 3389TIP3   OH210107   1.821   3.213   1.448
 3389TIP3    H110108   1.899   3.162   1.424
 3389TIP3    H210109   1.776   3.158   1.511
 3390TIP3   OH210110   8.269   0.474   6.716
 3390TIP3    H110111   8.263   0.568   6.733
 3390TIP3    H210112   8.181   0.450   6.686
 3391TIP3   OH210113   7.094   0.132   0.493
 3391TIP3    H110114   7.188   0.143   0.506
 3391TIP3    H210115   7.086   0.102   0.402
 3392TIP3   OH210116   2.718   3.105   0.948
 3392TIP3    H110117   2.683   3.124   1.035
 3392TIP3    H210118   2.799   3.158   0.943
 3393TIP3   OH210119   3.780   7.825   1.731
 3393TIP3    H110120   3.861   7.779   1.755
 3393TIP3    H210121   3.742   7.772   1.661
 3394TIP3   OH210122   1.111   2.080   3.362
 3394TIP3    H110123   1.058   2.099   3.440
 3394TIP3    H210124   1.121   1.985   3.363
 3395TIP3   OH210125   1.552   5.023   2.864
 3395TIP3    H110126   1.470   5.020   2.913
 3395TIP3    H210127   1.585   4.933   2.867
 3396TIP3   OH210128   8.319   3.703   2.126
 3396TIP3    H110129   8.367   3.767   2.073
 3396TIP3    H210130   8.329   3.734   2.216
 3397TIP3   OH210131   1.946   3.399   4.135
 3397TIP3    H110132   2.034   3.383   4.167
 3397TIP3    H210133   1.889   3.374   4.207
 3398TIP3   OH210134   0.469   4.217   0.359
 3398TIP3    H110135   0.547   4.231   0.413
 3398TIP3    H210136   0.400   4.264   0.406
 3399TIP3   OH210137   3.584   6.114   2.958
 3399TIP3    H110138   3.550   6.052   2.894
 3399TIP3    H210139   3.506   6.146   3.004
 3400TIP3   OH210140   3.197   7.157   1.767
 3400TIP3    H110141   3.216   7.190   1.679
 3400TIP3    H210142   3.104   7.135   1.763
 3401TIP3   OH210143   1.053   1.447   6.560
 3401TIP3    H110144   0.969   1.452   6.515
 3401TIP3    H210145   1.085   1.359   6.541
 3402TIP3   OH210146   3.023   3.395   0.323
 3402TIP3    H110147   3.012   3.474   0.269
 3402TIP3    H210148   2.945   3.343   0.305
 3403TIP3   OH210149   2.977   7.452   3.334
 3403TIP3    H110150   3.044   7.483   3.395
 3403TIP3    H210151   2.975   7.519   3.265
 3404TIP3   OH210152   3.725   2.058   5.543
 3404TIP3    H110153   3.799   2.018   5.589
 3404TIP3    H210154   3.676   2.103   5.611
 3405TIP3   OH210155   2.847   1.072   3.690
 3405TIP3    H110156   2.841   1.151   3.745
 3405TIP3    H210157   2.940   1.064   3.671
 3406TIP3   OH210158   0.162   2.986   0.222
 3406TIP3    H110159   0.175   3.026   0.136
 3406TIP3    H210160   0.127   3.056   0.277
 3407TIP3   OH210161   0.741   2.313   3.439
 3407TIP3    H110162   0.651   2.323   3.409
 3407TIP3    H210163   0.771   2.231   3.399
 3408TIP3   OH210164   5.301   2.562   2.064
 3408TIP3    H110165   5.214   2.537   2.093
 3408TIP3    H210166   5.360   2.507   2.115
 3409TIP3   OH210167   5.473   4.131   5.209
 3409TIP3    H110168   5.546   4.188   5.189
 3409TIP3    H210169   5.451   4.089   5.125
 3410TIP3   OH210170   5.512   5.346   2.372
 3410TIP3    H110171   5.585   5.328   2.431
 3410TIP3    H210172   5.528   5.435   2.341
 3411TIP3   OH210173   6.828   3.134   1.949
 3411TIP3    H110174   6.779   3.209   1.916
 3411TIP3    H210175   6.823   3.069   1.879
 3412TIP3   OH210176   1.263   2.776   4.791
 3412TIP3    H110177   1.272   2.718   4.867
 3412TIP3    H210178   1.318   2.852   4.812
 3413TIP3   OH210179   7.482   2.000   4.298
 3413TIP3    H110180   7.414   2.018   4.233
 3413TIP3    H210181   7.529   2.083   4.307
 3414TIP3   OH210182   5.197   0.435   2.381
 3414TIP3    H110183   5.187   0.530   2.384
 3414TIP3    H210184   5.120   0.405   2.331
 3415TIP3   OH210185   5.625   6.359   5.899
 3415TIP3    H110186   5.603   6.445   5.936
 3415TIP3    H210187   5.650   6.378   5.808
 3416TIP3   OH210188   0.146   0.830   0.957
 3416TIP3    H110189   0.053   0.822   0.976
 3416TIP3    H210190   0.183   0.874   1.034
 3417TIP3   OH210191   4.913   1.778   6.528
 3417TIP3    H110192   4.864   1.753   6.606
 3417TIP3    H210193   4.895   1.708   6.465
 3418TIP3   OH210194   0.246   5.250   0.806
 3418TIP3    H110195   0.308   5.178   0.797
 3418TIP3    H210196   0.251   5.296   0.722
 3419TIP3   OH210197   6.942   7.498   3.382
 3419TIP3    H110198   6.976   7.439   3.449
 3419TIP3    H210199   6.847   7.501   3.398
 3420TIP3   OH210200   0.336   5.274   2.524
 3420TIP3    H110201   0.361   5.323   2.446
 3420TIP3    H210202   0.282   5.335   2.575
 3421TIP3   OH210203   3.972   6.633   4.257
 3421TIP3    H110204   4.067   6.645   4.260
 3421TIP3    H210205   3.949   6.642   4.165
 3422TIP3   OH210206   1.243   6.243   0.575
 3422TIP3    H110207   1.283   6.174   0.629
 3422TIP3    H210208   1.276   6.225   0.487
 3423TIP3   OH210209   0.600   4.620   5.625
 3423TIP3    H110210   0.650   4.694   5.660
 3423TIP3    H210211   0.529   4.607   5.689
 3424TIP3   OH210212   3.308   0.753   0.461
 3424TIP3    H110213   3.294   0.847   0.446
 3424TIP3    H210214   3.220   0.718   0.472
 3425TIP3   OH210215   6.129   3.995   3.216
 3425TIP3    H110216   6.221   3.984   3.238
 3425TIP3    H210217   6.093   4.046   3.288
 3426TIP3   OH210218   0.261   1.849   5.008
 3426TIP3    H110219   0.198   1.921   5.015
 3426TIP3    H210220   0.346   1.892   5.009
 3427TIP3   OH210221   8.286   2.341   3.017
 3427TIP3    H110222   8.378   2.350   3.042
 3427TIP3    H210223   8.287   2.278   2.945
 3428TIP3   OH210224   2.603   4.006   0.400
 3428TIP3    H110225   2.604   3.918   0.437
 3428TIP3    H210226   2.589   4.063   0.475
 3429TIP3   OH210227   0.998   7.360   0.378
 3429TIP3    H110228   1.017   7.453   0.380
 3429TIP3    H210229   0.906   7.353   0.402
 3430TIP3   OH210230   5.453   1.414   0.136
 3430TIP3    H110231   5.518   1.385   0.072
 3430TIP3    H210232   5.388   1.344   0.139
 3431TIP3   OH210233   3.652   2.184   5.119
 3431TIP3    H110234   3.740   2.169   5.085
 3431TIP3    H210235   3.665   2.212   5.209
 3432TIP3   OH210236   6.892   1.468   0.731
 3432TIP3    H110237   6.969   1.425   0.694
 3432TIP3    H210238   6.846   1.504   0.656
 3433TIP3   OH210239   6.694   4.970   5.070
 3433TIP3    H110240   6.639   5.047   5.054
 3433TIP3    H210241   6.667   4.907   5.004
 3434TIP3   OH210242   0.500   4.133   1.580
 3434TIP3    H110243   0.528   4.208   1.632
 3434TIP3    H210244   0.435   4.088   1.635
 3435TIP3   OH210245   5.476   0.021   0.793
 3435TIP3    H110246   5.493  -0.071   0.812
 3435TIP3    H210247   5.435   0.021   0.707
 3436TIP3   OH210248   3.374   2.095   0.940
 3436TIP3    H110249   3.300   2.097   0.880
 3436TIP3    H210250   3.367   2.011   0.985
 3437TIP3   OH210251   4.317   0.396   5.662
 3437TIP3    H110252   4.308   0.363   5.752
 3437TIP3    H210253   4.325   0.317   5.608
 3438TIP3   OH210254   7.760   7.454   6.350
 3438TIP3    H110255   7.775   7.524   6.414
 3438TIP3    H210256   7.665   7.441   6.350
 3439TIP3   OH210257   1.247   2.866   4.443
 3439TIP3    H110258   1.318   2.804   4.456
 3439TIP3    H210259   1.251   2.924   4.519
 3440TIP3   OH210260   2.873   6.784   5.995
 3440TIP3    H110261   2.782   6.755   5.989
 3440TIP3    H210262   2.871   6.876   5.967
 3441TIP3   OH210263   6.321   2.316   5.657
 3441TIP3    H110264   6.397   2.368   5.683
 3441TIP3    H210265   6.358   2.235   5.622
 3442TIP3   OH210266   7.788   7.296   0.670
 3442TIP3    H110267   7.818   7.385   0.651
 3442TIP3    H210268   7.867   7.242   0.661
 3443TIP3   OH210269   8.068   1.023   3.628
 3443TIP3    H110270   8.122   1.028   3.707
 3443TIP3    H210271   8.110   1.083   3.566
 3444TIP3   OH210272   7.461   1.532   3.847
 3444TIP3    H110273   7.524   1.495   3.908
 3444TIP3    H210274   7.379   1.535   3.896
 3445TIP3   OH210275   7.464   1.055   6.739
 3445TIP3    H110276   7.393   1.040   6.801
 3445TIP3    H210277   7.544   1.031   6.787
 3446TIP3   OH210278   6.587   5.575   1.623
 3446TIP3    H110279   6.539   5.619   1.552
 3446TIP3    H210280   6.628   5.646   1.671
 3447TIP3   OH210281   4.972   4.681   4.021
 3447TIP3    H110282   5.003   4.755   3.968
 3447TIP3    H210283   4.895   4.716   4.066
 3448TIP3   OH210284   3.258   7.350   4.042
 3448TIP3    H110285   3.234   7.305   4.123
 3448TIP3    H210286   3.353   7.360   4.047
 3449TIP3   OH210287   2.427   2.185   3.370
 3449TIP3    H110288   2.369   2.129   3.319
 3449TIP3    H210289   2.437   2.265   3.317
 3450TIP3   OH210290   1.008   0.265   5.545
 3450TIP3    H110291   1.059   0.290   5.468
 3450TIP3    H210292   0.950   0.196   5.514
 3451TIP3   OH210293   5.520   6.117   6.569
 3451TIP3    H110294   5.547   6.177   6.639
 3451TIP3    H210295   5.469   6.173   6.510
 3452TIP3   OH210296   4.975   0.233   4.330
 3452TIP3    H110297   5.032   0.305   4.302
 3452TIP3    H210298   4.939   0.262   4.413
 3453TIP3   OH210299   2.236   5.271   2.437
 3453TIP3    H110300   2.321   5.305   2.466
 3453TIP3    H210301   2.184   5.267   2.518
 3454TIP3   OH210302   5.284   7.867   4.072
 3454TIP3    H110303   5.355   7.851   4.010
 3454TIP3    H210304   5.262   7.781   4.106
 3455TIP3   OH210305   7.655   2.062   1.855
 3455TIP3    H110306   7.612   2.143   1.828
 3455TIP3    H210307   7.709   2.088   1.929
 3456TIP3   OH210308   0.624   6.482   3.329
 3456TIP3    H110309   0.704   6.491   3.277
 3456TIP3    H210310   0.581   6.567   3.322
 3457TIP3   OH210311   1.953   6.492   1.479
 3457TIP3    H110312   1.966   6.537   1.562
 3457TIP3    H210313   2.041   6.464   1.452
 3458TIP3   OH210314   4.957   1.182   0.105
 3458TIP3    H110315   4.983   1.093   0.131
 3458TIP3    H210316   4.923   1.172   0.016
 3459TIP3   OH210317   6.005   4.262   4.112
 3459TIP3    H110318   5.989   4.350   4.148
 3459TIP3    H210319   6.047   4.215   4.184
 3460TIP3   OH210320   1.190   0.238   1.963
 3460TIP3    H110321   1.261   0.303   1.956
 3460TIP3    H210322   1.235   0.154   1.957
 3461TIP3   OH210323   6.071   3.533   0.886
 3461TIP3    H110324   6.084   3.466   0.953
 3461TIP3    H210325   5.990   3.577   0.911
 3462TIP3   OH210326   1.399   0.314   1.655
 3462TIP3    H110327   1.439   0.346   1.736
 3462TIP3    H210328   1.458   0.245   1.626
 3463TIP3   OH210329   3.370   5.222   1.470
 3463TIP3    H110330   3.282   5.227   1.434
 3463TIP3    H210331   3.357   5.229   1.565
 3464TIP3   OH210332   2.802   1.664   4.142
 3464TIP3    H110333   2.734   1.726   4.167
 3464TIP3    H210334   2.776   1.582   4.184
 3465TIP3   OH210335   2.179   5.696   5.625
 3465TIP3    H110336   2.134   5.659   5.702
 3465TIP3    H210337   2.238   5.762   5.661
 3466TIP3   OH210338   1.952   5.005   6.000
 3466TIP3    H110339   1.980   4.931   6.054
 3466TIP3    H210340   1.982   5.082   6.047
 3467TIP3   OH210341   1.414   7.407   6.429
 3467TIP3    H110342   1.425   7.424   6.335
 3467TIP3    H210343   1.462   7.478   6.471
 3468TIP3   OH210344   6.981   1.263   3.604
 3468TIP3    H110345   6.919   1.312   3.550
 3468TIP3    H210346   7.014   1.194   3.546
 3469TIP3   OH210347   7.626   7.451   2.381
 3469TIP3    H110348   7.558   7.390   2.409
 3469TIP3    H210349   7.588   7.538   2.395
 3470TIP3   OH210350   8.285   7.196   0.937
 3470TIP3    H110351   8.333   7.257   0.994
 3470TIP3    H210352   8.204   7.242   0.917
 3471TIP3   OH210353   2.098   2.956   6.336
 3471TIP3    H110354   2.187   2.956   6.372
 3471TIP3    H210355   2.066   3.045   6.350
 3472TIP3   OH210356   5.369   6.279   5.488
 3472TIP3    H110357   5.323   6.230   5.419
 3472TIP3    H210358   5.305   6.344   5.518
 3473TIP3   OH210359   6.900   7.320   0.539
 3473TIP3    H110360   6.881   7.404   0.496
 3473TIP3    H210361   6.988   7.332   0.577
 3474TIP3   OH210362   6.697   3.296   4.037
 3474TIP3    H110363   6.636   3.312   4.109
 3474TIP3    H210364   6.784   3.299   4.078
 3475TIP3   OH210365   3.830   2.020   1.193
 3475TIP3    H110366   3.901   1.959   1.172
 3475TIP3    H210367   3.845   2.095   1.135
 3476TIP3   OH210368   3.751   3.174   0.382
 3476TIP3    H110369   3.754   3.196   0.475
 3476TIP3    H210370   3.813   3.102   0.372
 3477TIP3   OH210371   6.485   5.004   5.339
 3477TIP3    H110372   6.549   4.932   5.337
 3477TIP3    H210373   6.420   4.980   5.273
 3478TIP3   OH210374   7.230   2.931   1.643
 3478TIP3    H110375   7.153   2.874   1.640
 3478TIP3    H210376   7.301   2.873   1.671
 3479TIP3   OH210377   8.374   6.725   0.979
 3479TIP3    H110378   8.320   6.681   0.913
 3479TIP3    H210379   8.312   6.761   1.041
 3480TIP3   OH210380   8.371   3.750   1.027
 3480TIP3    H110381   8.314   3.743   0.950
 3480TIP3    H210382   8.384   3.844   1.038
 3481TIP3   OH210383   2.956   5.990   5.923
 3481TIP3    H110384   2.956   6.022   6.013
 3481TIP3    H210385   2.946   6.069   5.869
 3482TIP3   OH210386   0.725   6.729   1.677
 3482TIP3    H110387   0.774   6.798   1.721
 3482TIP3    H210388   0.735   6.652   1.734
 3483TIP3   OH210389   4.836   7.425   6.138
 3483TIP3    H110390   4.881   7.367   6.199
 3483TIP3    H210391   4.757   7.452   6.185
 3484TIP3   OH210392   2.418   6.560   1.373
 3484TIP3    H110393   2.380   6.496   1.434
 3484TIP3    H210394   2.508   6.529   1.360
 3485TIP3   OH210395   5.246   5.747   0.704
 3485TIP3    H110396   5.294   5.809   0.650
 3485TIP3    H210397   5.154   5.764   0.687
 3486TIP3   OH210398   7.188   5.279   2.652
 3486TIP3    H110399   7.226   5.202   2.609
 3486TIP3    H210400   7.094   5.267   2.643
 3487TIP3   OH210401   5.253   3.256   1.465
 3487TIP3    H110402   5.344   3.276   1.487
 3487TIP3    H210403   5.201   3.314   1.520
 3488TIP3   OH210404   8.266   3.456   0.395
 3488TIP3    H110405   8.284   3.488   0.483
 3488TIP3    H210406   8.283   3.530   0.337
 3489TIP3   OH210407   6.363   5.254   3.004
 3489TIP3    H110408   6.444   5.276   3.051
 3489TIP3    H210409   6.392   5.218   2.921
 3490TIP3   OH210410   3.786   6.011   4.304
 3490TIP3    H110411   3.828   6.012   4.218
 3490TIP3    H210412   3.747   6.098   4.313
 3491TIP3   OH210413   5.604   1.709   0.233
 3491TIP3    H110414   5.547   1.669   0.298
 3491TIP3    H210415   5.674   1.645   0.218
 3492TIP3   OH210416   7.297   0.982   5.485
 3492TIP3    H110417   7.232   0.913   5.472
 3492TIP3    H210418   7.367   0.940   5.535
 3493TIP3   OH210419   1.339   1.237   2.467
 3493TIP3    H110420   1.392   1.313   2.443
 3493TIP3    H210421   1.383   1.201   2.544
 3494TIP3   OH210422   6.138   1.649   3.456
 3494TIP3    H110423   6.052   1.688   3.444
 3494TIP3    H210424   6.138   1.616   3.545
 3495TIP3   OH210425   2.033   4.229   4.320
 3495TIP3    H110426   2.078   4.301   4.365
 3495TIP3    H210427   1.944   4.231   4.355
 3496TIP3   OH210428   4.804   1.397   2.612
 3496TIP3    H110429   4.848   1.347   2.543
 3496TIP3    H210430   4.714   1.364   2.611
 3497TIP3   OH210431   2.606   0.495   6.024
 3497TIP3    H110432   2.683   0.465   6.073
 3497TIP3    H210433   2.634   0.495   5.933
 3498TIP3   OH210434   1.936   0.412   4.811
 3498TIP3    H110435   2.005   0.477   4.824
 3498TIP3    H210436   1.926   0.407   4.715
 3499TIP3   OH210437   4.929   6.198   6.701
 3499TIP3    H110438   4.946   6.224   6.791
 3499TIP3    H210439   5.016   6.179   6.664
 3500TIP3   OH210440   4.882   7.314   2.992
 3500TIP3    H110441   4.830   7.271   3.060
 3500TIP3    H210442   4.883   7.407   3.018
 3501TIP3   OH210443   1.892   0.801   5.098
 3501TIP3    H110444   1.974   0.842   5.124
 3501TIP3    H210445   1.874   0.836   5.011
 3502TIP3   OH210446   5.804   3.930   4.200
 3502TIP3    H110447   5.768   4.017   4.188
 3502TIP3    H210448   5.756   3.894   4.274
 3503TIP3   OH210449   5.458   7.399   4.426
 3503TIP3    H110450   5.461   7.459   4.352
 3503TIP3    H210451   5.461   7.312   4.386
 3504TIP3   OH210452   2.172   2.478   2.230
 3504TIP3    H110453   2.142   2.568   2.246
 3504TIP3    H210454   2.092   2.425   2.236
 3505TIP3   OH210455   0.110   6.383   4.095
 3505TIP3    H110456   0.103   6.358   4.003
 3505TIP3    H210457   0.150   6.471   4.092
 3506TIP3   OH210458   3.628   3.357   4.442
 3506TIP3    H110459   3.697   3.350   4.507
 3506TIP3    H210460   3.654   3.430   4.386
 3507TIP3   OH210461   2.793   0.274   0.670
 3507TIP3    H110462   2.731   0.205   0.692
 3507TIP3    H210463   2.799   0.327   0.750
 3508TIP3   OH210464   4.568   0.526   4.692
 3508TIP3    H110465   4.571   0.481   4.777
 3508TIP3    H210466   4.615   0.468   4.633
 3509TIP3   OH210467   5.315   4.621   2.161
 3509TIP3    H110468   5.308   4.537   2.205
 3509TIP3    H210469   5.225   4.649   2.149
 3510TIP3   OH210470   8.310   0.969   6.312
 3510TIP3    H110471   8.301   0.928   6.226
 3510TIP3    H210472   8.271   1.055   6.302
 3511TIP3   OH210473   5.278   6.150   5.957
 3511TIP3    H110474   5.184   6.166   5.952
 3511TIP3    H210475   5.292   6.115   6.045
 3512TIP3   OH210476   7.116   0.013   1.448
 3512TIP3    H110477   7.172  -0.065   1.443
 3512TIP3    H210478   7.178   0.086   1.453
 3513TIP3   OH210479   5.617   1.469   6.787
 3513TIP3    H110480   5.536   1.485   6.738
 3513TIP3    H210481   5.629   1.547   6.841
 3514TIP3   OH210482   6.755   3.769   4.884
 3514TIP3    H110483   6.835   3.812   4.854
 3514TIP3    H210484   6.786   3.688   4.926
 3515TIP3   OH210485   1.910   2.567   4.614
 3515TIP3    H110486   1.897   2.481   4.574
 3515TIP3    H210487   1.837   2.576   4.675
 3516TIP3   OH210488   4.125   1.036   5.351
 3516TIP3    H110489   4.119   0.983   5.272
 3516TIP3    H210490   4.204   1.004   5.395
 3517TIP3   OH210491   0.094   6.051   1.420
 3517TIP3    H110492   0.021   6.066   1.480
 3517TIP3    H210493   0.056   6.064   1.333
 3518TIP3   OH210494   7.373   0.440   0.354
 3518TIP3    H110495   7.397   0.392   0.433
 3518TIP3    H210496   7.281   0.420   0.341
 3519TIP3   OH210497   6.705   6.338   3.162
 3519TIP3    H110498   6.686   6.429   3.140
 3519TIP3    H210499   6.762   6.343   3.239
 3520TIP3   OH210500   5.128   6.948   1.615
 3520TIP3    H110501   5.214   6.983   1.639
 3520TIP3    H210502   5.077   7.025   1.589
 3521TIP3   OH210503   0.697   3.938   6.747
 3521TIP3    H110504   0.624   3.899   6.794
 3521TIP3    H210505   0.698   4.029   6.776
 3522TIP3   OH210506   7.395   7.210   0.706
 3522TIP3    H110507   7.382   7.169   0.791
 3522TIP3    H210508   7.477   7.173   0.674
 3523TIP3   OH210509   5.546   5.091   0.799
 3523TIP3    H110510   5.523   5.085   0.706
 3523TIP3    H210511   5.487   5.029   0.842
 3524TIP3   OH210512   3.477   1.961   0.095
 3524TIP3    H110513   3.416   1.889   0.079
 3524TIP3    H210514   3.522   1.938   0.176
 3525TIP3   OH210515   3.716   7.590   1.463
 3525TIP3    H110516   3.796   7.538   1.473
 3525TIP3    H210517   3.708   7.604   1.369
 3526TIP3   OH210518   1.118   1.263   1.365
 3526TIP3    H110519   1.193   1.323   1.358
 3526TIP3    H210520   1.067   1.297   1.439
 3527TIP3   OH210521   2.471   4.857   2.222
 3527TIP3    H110522   2.393   4.862   2.277
 3527TIP3    H210523   2.464   4.771   2.179
 3528TIP3   OH210524   1.616   5.848   5.382
 3528TIP3    H110525   1.575   5.842   5.296
 3528TIP3    H210526   1.542   5.866   5.441
 3529TIP3   OH210527   3.660   0.804   6.613
 3529TIP3    H110528   3.569   0.807   6.644
 3529TIP3    H210529   3.655   0.758   6.529
 3530TIP3   OH210530   4.555   3.167   0.574
 3530TIP3    H110531   4.526   3.247   0.532
 3530TIP3    H210532   4.566   3.104   0.503
 3531TIP3   OH210533   4.797   6.704   3.265
 3531TIP3    H110534   4.817   6.714   3.171
 3531TIP3    H210535   4.763   6.789   3.291
 3532TIP3   OH210536   1.199   0.709   5.135
 3532TIP3    H110537   1.119   0.663   5.110
 3532TIP3    H210538   1.172   0.801   5.142
 3533TIP3   OH210539   4.809   0.422   0.518
 3533TIP3    H110540   4.815   0.368   0.439
 3533TIP3    H210541   4.814   0.512   0.485
 3534TIP3   OH210542   4.618   0.796   5.604
 3534TIP3    H110543   4.638   0.706   5.579
 3534TIP3    H210544   4.546   0.788   5.667
 3535TIP3   OH210545   0.576   1.789   3.858
 3535TIP3    H110546   0.535   1.808   3.774
 3535TIP3    H210547   0.528   1.714   3.892
 3536TIP3   OH210548   0.569   7.533   6.381
 3536TIP3    H110549   0.565   7.439   6.402
 3536TIP3    H210550   0.635   7.539   6.312
 3537TIP3   OH210551   5.005   1.891   2.670
 3537TIP3    H110552   5.063   1.945   2.724
 3537TIP3    H210553   5.063   1.851   2.605
 3538TIP3   OH210554   1.660   3.479   5.312
 3538TIP3    H110555   1.746   3.521   5.309
 3538TIP3    H210556   1.670   3.408   5.376
 3539TIP3   OH210557   3.393   6.353   3.463
 3539TIP3    H110558   3.373   6.369   3.555
 3539TIP3    H210559   3.472   6.406   3.447
 3540TIP3   OH210560   6.803   5.371   1.263
 3540TIP3    H110561   6.842   5.283   1.270
 3540TIP3    H210562   6.783   5.395   1.354
 3541TIP3   OH210563   0.154   2.760   6.536
 3541TIP3    H110564   0.209   2.812   6.478
 3541TIP3    H210565   0.067   2.763   6.497
 3542TIP3   OH210566   4.030   6.989   5.120
 3542TIP3    H110567   3.936   6.994   5.138
 3542TIP3    H210568   4.068   6.967   5.205
 3543TIP3   OH210569   2.252   0.668   6.733
 3543TIP3    H110570   2.325   0.616   6.766
 3543TIP3    H210571   2.282   0.703   6.649
 3544TIP3   OH210572   0.573   5.993   4.563
 3544TIP3    H110573   0.568   6.016   4.470
 3544TIP3    H210574   0.602   6.074   4.606
 3545TIP3   OH210575   0.358   6.147   4.366
 3545TIP3    H110576   0.322   6.130   4.280
 3545TIP3    H210577   0.452   6.161   4.351
 3546TIP3   OH210578   4.878   6.513   6.593
 3546TIP3    H110579   4.969   6.493   6.574
 3546TIP3    H210580   4.852   6.450   6.660
 3547TIP3   OH210581   5.744   2.231   4.937
 3547TIP3    H110582   5.667   2.189   4.975
 3547TIP3    H210583   5.800   2.159   4.908
 3548TIP3   OH210584   0.099   5.328   0.293
 3548TIP3    H110585   0.108   5.280   0.375
 3548TIP3    H210586   0.165   5.397   0.297
 3549TIP3   OH210587   2.243   1.329   1.102
 3549TIP3    H110588   2.334   1.352   1.119
 3549TIP3    H210589   2.209   1.303   1.188
 3550TIP3   OH210590   4.623   1.294   2.927
 3550TIP3    H110591   4.534   1.328   2.922
 3550TIP3    H210592   4.665   1.345   2.997
 3551TIP3   OH210593   1.613   6.884   1.128
 3551TIP3    H110594   1.697   6.898   1.084
 3551TIP3    H210595   1.547   6.907   1.063
 3552TIP3   OH210596   2.779   6.815   0.877
 3552TIP3    H110597   2.740   6.740   0.831
 3552TIP3    H210598   2.806   6.874   0.807
 3553TIP3   OH210599   5.262   3.852   6.555
 3553TIP3    H110600   5.171   3.843   6.580
 3553TIP3    H210601   5.259   3.890   6.467
 3554TIP3   OH210602   6.000   1.847   3.633
 3554TIP3    H110603   6.091   1.861   3.656
 3554TIP3    H210604   5.984   1.906   3.559
 3555TIP3   OH210605   0.137   6.703   4.760
 3555TIP3    H110606   0.223   6.661   4.764
 3555TIP3    H210607   0.150   6.778   4.701
 3556TIP3   OH210608   1.987   7.139   6.051
 3556TIP3    H110609   2.008   7.215   5.996
 3556TIP3    H210610   1.937   7.176   6.124
 3557TIP3   OH210611   4.281   4.637   6.469
 3557TIP3    H110612   4.203   4.677   6.432
 3557TIP3    H210613   4.351   4.657   6.406
 3558TIP3   OH210614   0.872   6.860   4.762
 3558TIP3    H110615   0.907   6.945   4.735
 3558TIP3    H210616   0.840   6.821   4.681
 3559TIP3   OH210617   4.454   1.361   6.853
 3559TIP3    H110618   4.492   1.448   6.861
 3559TIP3    H210619   4.373   1.365   6.905
 3560TIP3   OH210620   2.847   3.180   4.902
 3560TIP3    H110621   2.816   3.147   4.818
 3560TIP3    H210622   2.932   3.139   4.915
 3561TIP3   OH210623   0.280   0.457   4.334
 3561TIP3    H110624   0.257   0.525   4.397
 3561TIP3    H210625   0.373   0.442   4.348
 3562TIP3   OH210626   7.269   0.745   1.344
 3562TIP3    H110627   7.184   0.730   1.305
 3562TIP3    H210628   7.253   0.810   1.414
 3563TIP3   OH210629   7.199   3.747   0.915
 3563TIP3    H110630   7.184   3.802   0.992
 3563TIP3    H210631   7.113   3.715   0.890
 3564TIP3   OH210632   0.787   6.707   5.515
 3564TIP3    H110633   0.866   6.660   5.541
 3564TIP3    H210634   0.716   6.657   5.554
 3565TIP3   OH210635   1.445   2.664   4.509
 3565TIP3    H110636   1.498   2.675   4.588
 3565TIP3    H210637   1.457   2.572   4.485
 3566TIP3   OH210638   4.521   2.671   1.637
 3566TIP3    H110639   4.615   2.692   1.633
 3566TIP3    H210640   4.487   2.728   1.706
 3567TIP3   OH210641   2.708   4.563   5.951
 3567TIP3    H110642   2.696   4.477   5.990
 3567TIP3    H210643   2.753   4.547   5.869
 3568TIP3   OH210644   4.684   5.648   2.388
 3568TIP3    H110645   4.648   5.560   2.384
 3568TIP3    H210646   4.615   5.705   2.353
 3569TIP3   OH210647   6.228   7.407   4.078
 3569TIP3    H110648   6.202   7.499   4.083
 3569TIP3    H210649   6.236   7.379   4.169
 3570TIP3   OH210650   6.584   5.304   3.180
 3570TIP3    H110651   6.603   5.301   3.274
 3570TIP3    H210652   6.638   5.235   3.142
 3571TIP3   OH210653   1.408   6.557   1.523
 3571TIP3    H110654   1.342   6.623   1.499
 3571TIP3    H210655   1.480   6.574   1.463
 3572TIP3   OH210656   1.303   5.284   6.066
 3572TIP3    H110657   1.279   5.268   5.975
 3572TIP3    H210658   1.399   5.282   6.066
 3573TIP3   OH210659   6.233   1.798   3.740
 3573TIP3    H110660   6.299   1.833   3.799
 3573TIP3    H210661   6.189   1.730   3.790
 3574TIP3   OH210662   6.736   0.090   0.376
 3574TIP3    H110663   6.667   0.032   0.344
 3574TIP3    H210664   6.771   0.132   0.296
 3575TIP3   OH210665   7.531   7.594   6.555
 3575TIP3    H110666   7.579   7.568   6.633
 3575TIP3    H210667   7.532   7.516   6.499
 3576TIP3   OH210668   5.914   7.011   3.177
 3576TIP3    H110669   5.960   7.072   3.120
 3576TIP3    H210670   5.835   7.058   3.204
 3577TIP3   OH210671   7.645   1.233   5.926
 3577TIP3    H110672   7.563   1.196   5.960
 3577TIP3    H210673   7.708   1.160   5.930
 3578TIP3   OH210674   3.047   1.837   3.021
 3578TIP3    H110675   3.023   1.839   3.114
 3578TIP3    H210676   3.079   1.926   3.003
 3579TIP3   OH210677   1.291   1.798   1.480
 3579TIP3    H110678   1.254   1.885   1.463
 3579TIP3    H210679   1.291   1.791   1.576
 3580TIP3   OH210680   7.877   3.276   5.280
 3580TIP3    H110681   7.948   3.328   5.242
 3580TIP3    H210682   7.880   3.298   5.373
 3581TIP3   OH210683   5.630   0.718   1.839
 3581TIP3    H110684   5.720   0.699   1.812
 3581TIP3    H210685   5.620   0.671   1.923
 3582TIP3   OH210686   4.573   5.959   1.204
 3582TIP3    H110687   4.480   5.975   1.220
 3582TIP3    H210688   4.578   5.943   1.110
 3583TIP3   OH210689   0.905   3.272   5.194
 3583TIP3    H110690   0.840   3.299   5.129
 3583TIP3    H210691   0.963   3.212   5.146
 3584TIP3   OH210692   7.576   5.343   2.062
 3584TIP3    H110693   7.487   5.375   2.047
 3584TIP3    H210694   7.589   5.350   2.157
 3585TIP3   OH210695   5.090   3.518   0.146
 3585TIP3    H110696   5.126   3.462   0.077
 3585TIP3    H210697   5.113   3.607   0.119
 3586TIP3   OH210698   1.261   7.586   4.769
 3586TIP3    H110699   1.240   7.546   4.684
 3586TIP3    H210700   1.356   7.592   4.770
 3587TIP3   OH210701   3.991   6.358   5.456
 3587TIP3    H110702   3.976   6.306   5.535
 3587TIP3    H210703   4.014   6.445   5.488
 3588TIP3   OH210704   6.343   6.485   1.573
 3588TIP3    H110705   6.356   6.455   1.663
 3588TIP3    H210706   6.258   6.528   1.575
 3589TIP3   OH210707  -0.009   1.108   4.068
 3589TIP3    H110708  -0.022   1.117   4.162
 3589TIP3    H210709   0.076   1.066   4.058
 3590TIP3   OH210710   6.078   5.831   6.590
 3590TIP3    H110711   6.076   5.919   6.551
 3590TIP3    H210712   6.077   5.847   6.684
 3591TIP3   OH210713   4.605   4.482   1.612
 3591TIP3    H110714   4.679   4.538   1.636
 3591TIP3    H210715   4.528   4.528   1.647
 3592TIP3   OH210716   6.956   7.650   5.012
 3592TIP3    H110717   6.914   7.689   5.089
 3592TIP3    H210718   6.962   7.556   5.033
 3593TIP3   OH210719   7.856   0.574   5.275
 3593TIP3    H110720   7.944   0.607   5.257
 3593TIP3    H210721   7.817   0.640   5.331
 3594TIP3   OH210722   3.860   2.234   0.991
 3594TIP3    H110723   3.928   2.278   0.940
 3594TIP3    H210724   3.807   2.188   0.926
 3595TIP3   OH210725   8.058   3.206   2.346
 3595TIP3    H110726   8.044   3.112   2.356
 3595TIP3    H210727   7.986   3.235   2.290
 3596TIP3   OH210728   7.976   3.704   2.838
 3596TIP3    H110729   7.898   3.689   2.891
 3596TIP3    H210730   7.948   3.687   2.748
 3597TIP3   OH210731   1.218   2.941   5.893
 3597TIP3    H110732   1.263   2.972   5.972
 3597TIP3    H210733   1.129   2.921   5.921
 3598TIP3   OH210734   2.901   2.905   5.961
 3598TIP3    H110735   2.854   2.987   5.977
 3598TIP3    H210736   2.970   2.929   5.899
 3599TIP3   OH210737   7.108   6.721   5.371
 3599TIP3    H110738   7.109   6.807   5.414
 3599TIP3    H210739   7.172   6.730   5.300
 3600TIP3   OH210740   3.571   5.201   3.906
 3600TIP3    H110741   3.528   5.117   3.888
 3600TIP3    H210742   3.654   5.177   3.947
 3601TIP3   OH210743   8.318   5.683   0.429
 3601TIP3    H110744   8.330   5.598   0.388
 3601TIP3    H210745   8.258   5.730   0.371
 3602TIP3   OH210746   8.221   6.288   4.878
 3602TIP3    H110747   8.229   6.274   4.784
 3602TIP3    H210748   8.274   6.366   4.895
 3603TIP3   OH210749   3.597   5.329   5.844
 3603TIP3    H110750   3.632   5.241   5.858
 3603TIP3    H210751   3.526   5.317   5.781
 3604TIP3   OH210752   6.547   6.773   1.107
 3604TIP3    H110753   6.475   6.725   1.148
 3604TIP3    H210754   6.505   6.850   1.067
 3605TIP3   OH210755   6.978   4.124   6.424
 3605TIP3    H110756   7.028   4.058   6.471
 3605TIP3    H210757   6.936   4.076   6.352
 3606TIP3   OH210758   8.157   2.420   5.402
 3606TIP3    H110759   8.172   2.389   5.491
 3606TIP3    H210760   8.062   2.416   5.390
 3607TIP3   OH210761   1.001   2.528   5.405
 3607TIP3    H110762   1.019   2.453   5.462
 3607TIP3    H210763   0.942   2.583   5.457
 3608TIP3   OH210764   3.129   7.803   3.973
 3608TIP3    H110765   3.152   7.725   3.923
 3608TIP3    H210766   3.193   7.806   4.044
 3609TIP3   OH210767   5.374   7.667   1.912
 3609TIP3    H110768   5.446   7.729   1.897
 3609TIP3    H210769   5.388   7.599   1.846
 3610TIP3   OH210770   5.563   1.408   4.024
 3610TIP3    H110771   5.648   1.384   3.987
 3610TIP3    H210772   5.583   1.483   4.081
 3611TIP3   OH210773   1.689   7.848   5.161
 3611TIP3    H110774   1.609   7.814   5.200
 3611TIP3    H210775   1.659   7.905   5.090
 3612TIP3   OH210776   4.228   5.050   4.477
 3612TIP3    H110777   4.179   5.050   4.395
 3612TIP3    H210778   4.235   5.142   4.501
 3613TIP3   OH210779   3.702   5.033   0.215
 3613TIP3    H110780   3.632   5.047   0.151
 3613TIP3    H210781   3.782   5.060   0.170
 3614TIP3   OH210782   1.200   3.940   4.102
 3614TIP3    H110783   1.221   3.988   4.022
 3614TIP3    H210784   1.194   3.849   4.075
 3615TIP3   OH210785   4.998   1.481   4.973
 3615TIP3    H110786   4.964   1.392   4.982
 3615TIP3    H210787   5.032   1.502   5.059
 3616TIP3   OH210788   3.531   4.783   6.413
 3616TIP3    H110789   3.589   4.739   6.351
 3616TIP3    H210790   3.563   4.874   6.415
 3617TIP3   OH210791   6.844   0.605   4.492
 3617TIP3    H110792   6.760   0.587   4.448
 3617TIP3    H210793   6.824   0.594   4.586
 3618TIP3   OH210794   5.821   6.190   2.222
 3618TIP3    H110795   5.779   6.261   2.173
 3618TIP3    H210796   5.892   6.161   2.164
 3619TIP3   OH210797   0.820   7.737   0.031
 3619TIP3    H110798   0.762   7.796  -0.018
 3619TIP3    H210799   0.897   7.729  -0.025
 3620TIP3   OH210800   3.565   6.666   1.842
 3620TIP3    H110801   3.513   6.588   1.826
 3620TIP3    H210802   3.506   6.726   1.887
 3621TIP3   OH210803   2.779   5.719   4.059
 3621TIP3    H110804   2.814   5.643   4.011
 3621TIP3    H210805   2.714   5.682   4.118
 3622TIP3   OH210806   1.815   5.888   6.037
 3622TIP3    H110807   1.858   5.973   6.029
 3622TIP3    H210808   1.884   5.827   6.061
 3623TIP3   OH210809   2.894   7.933   4.919
 3623TIP3    H110810   2.840   8.012   4.911
 3623TIP3    H210811   2.884   7.889   4.835
 3624TIP3   OH210812   4.189   0.941   5.042
 3624TIP3    H110813   4.149   1.015   4.996
 3624TIP3    H210814   4.124   0.871   5.035
 3625TIP3   OH210815   5.488   2.766   2.065
 3625TIP3    H110816   5.554   2.698   2.079
 3625TIP3    H210817   5.406   2.727   2.095
 3626TIP3   OH210818   2.248   7.820   6.276
 3626TIP3    H110819   2.242   7.724   6.270
 3626TIP3    H210820   2.341   7.839   6.261
 3627TIP3   OH210821   4.433   6.325   1.356
 3627TIP3    H110822   4.366   6.360   1.415
 3627TIP3    H210823   4.497   6.395   1.348
 3628TIP3   OH210824   4.863   1.352   3.087
 3628TIP3    H110825   4.930   1.358   3.155
 3628TIP3    H210826   4.912   1.362   3.005
 3629TIP3   OH210827   7.193   0.944   2.181
 3629TIP3    H110828   7.160   1.020   2.134
 3629TIP3    H210829   7.286   0.939   2.158
 3630TIP3   OH210830   0.695   2.681   2.096
 3630TIP3    H110831   0.629   2.749   2.087
 3630TIP3    H210832   0.686   2.628   2.017
 3631TIP3   OH210833   2.809   4.847   1.965
 3631TIP3    H110834   2.755   4.851   1.886
 3631TIP3    H210835   2.803   4.935   2.003
 3632TIP3   OH210836   7.671   3.791   2.674
 3632TIP3    H110837   7.661   3.696   2.665
 3632TIP3    H210838   7.642   3.809   2.763
 3633TIP3   OH210839   0.064   3.794   0.566
 3633TIP3    H110840   0.008   3.724   0.534
 3633TIP3    H210841   0.114   3.755   0.637
 3634TIP3   OH210842   7.521   1.868   3.543
 3634TIP3    H110843   7.610   1.848   3.515
 3634TIP3    H210844   7.466   1.849   3.467
 3635TIP3   OH210845   7.556   4.904   4.200
 3635TIP3    H110846   7.551   4.947   4.285
 3635TIP3    H210847   7.645   4.920   4.169
 3636TIP3   OH210848   6.490   7.613   4.666
 3636TIP3    H110849   6.494   7.531   4.617
 3636TIP3    H210850   6.580   7.628   4.695
 3637TIP3   OH210851   8.236   3.985   6.304
 3637TIP3    H110852   8.166   4.042   6.335
 3637TIP3    H210853   8.290   4.041   6.248
 3638TIP3   OH210854   2.170   2.094   5.881
 3638TIP3    H110855   2.243   2.154   5.868
 3638TIP3    H210856   2.150   2.101   5.974
 3639TIP3   OH210857   4.210   6.327   1.978
 3639TIP3    H110858   4.148   6.274   2.029
 3639TIP3    H210859   4.161   6.352   1.900
 3640TIP3   OH210860   2.384   4.431   3.117
 3640TIP3    H110861   2.357   4.456   3.205
 3640TIP3    H210862   2.469   4.388   3.129
 3641TIP3   OH210863   5.692   7.074   3.558
 3641TIP3    H110864   5.640   7.142   3.601
 3641TIP3    H210865   5.770   7.065   3.613
 3642TIP3   OH210866   6.843   3.531   0.363
 3642TIP3    H110867   6.848   3.573   0.277
 3642TIP3    H210868   6.753   3.546   0.392
 3643TIP3   OH210869   5.775   5.809   6.005
 3643TIP3    H110870   5.847   5.872   6.000
 3643TIP3    H210871   5.811   5.736   6.056
 3644TIP3   OH210872   6.809   2.425   2.485
 3644TIP3    H110873   6.874   2.388   2.426
 3644TIP3    H210874   6.725   2.397   2.449
 3645TIP3   OH210875   7.316   6.891   2.793
 3645TIP3    H110876   7.409   6.887   2.813
 3645TIP3    H210877   7.300   6.816   2.736
 3646TIP3   OH210878   1.862   5.330   2.060
 3646TIP3    H110879   1.837   5.421   2.041
 3646TIP3    H210880   1.941   5.316   2.009
 3647TIP3   OH210881   7.091   1.966   3.039
 3647TIP3    H110882   7.170   1.951   2.987
 3647TIP3    H210883   7.076   2.061   3.033
 3648TIP3   OH210884   0.958   2.373   4.041
 3648TIP3    H110885   1.026   2.428   4.002
 3648TIP3    H210886   0.947   2.301   3.978
 3649TIP3   OH210887   1.995   5.764   5.418
 3649TIP3    H110888   2.041   5.727   5.493
 3649TIP3    H210889   2.043   5.845   5.398
 3650TIP3   OH210890   0.719   4.223   2.461
 3650TIP3    H110891   0.712   4.314   2.489
 3650TIP3    H210892   0.728   4.173   2.542
 3651TIP3   OH210893   2.391   1.698   6.617
 3651TIP3    H110894   2.423   1.769   6.562
 3651TIP3    H210895   2.361   1.631   6.555
 3652TIP3   OH210896   1.976   3.629   0.196
 3652TIP3    H110897   1.933   3.577   0.264
 3652TIP3    H210898   1.910   3.693   0.170
 3653TIP3   OH210899   4.309   6.995   5.253
 3653TIP3    H110900   4.402   7.004   5.276
 3653TIP3    H210901   4.300   7.048   5.173
 3654TIP3   OH210902   7.956   5.501   2.561
 3654TIP3    H110903   8.051   5.497   2.576
 3654TIP3    H210904   7.946   5.510   2.467
 3655TIP3   OH210905   1.198   5.957   3.402
 3655TIP3    H110906   1.118   5.915   3.374
 3655TIP3    H210907   1.171   6.044   3.431
 3656TIP3   OH210908   6.985   0.817   6.411
 3656TIP3    H110909   6.907   0.810   6.465
 3656TIP3    H210910   6.977   0.748   6.345
 3657TIP3   OH210911   8.150   1.895   4.117
 3657TIP3    H110912   8.133   1.972   4.171
 3657TIP3    H210913   8.143   1.822   4.179
 3658TIP3   OH210914   1.356   5.483   3.742
 3658TIP3    H110915   1.272   5.484   3.789
 3658TIP3    H210916   1.383   5.575   3.739
 3659TIP3   OH210917   0.466   6.835   0.067
 3659TIP3    H110918   0.456   6.800  -0.022
 3659TIP3    H210919   0.380   6.871   0.088
 3660TIP3   OH210920   1.219   1.353   2.881
 3660TIP3    H110921   1.242   1.269   2.841
 3660TIP3    H210922   1.210   1.413   2.807
 3661TIP3   OH210923   5.789   1.126   1.480
 3661TIP3    H110924   5.877   1.165   1.477
 3661TIP3    H210925   5.740   1.175   1.414
 3662TIP3   OH210926   0.716   5.657   5.317
 3662TIP3    H110927   0.669   5.740   5.309
 3662TIP3    H210928   0.808   5.681   5.320
 3663TIP3   OH210929   1.788   7.531   6.770
 3663TIP3    H110930   1.883   7.531   6.763
 3663TIP3    H210931   1.764   7.624   6.769
 3664TIP3   OH210932   4.152   5.059   5.663
 3664TIP3    H110933   4.217   4.991   5.681
 3664TIP3    H210934   4.145   5.108   5.745
 3665TIP3   OH210935   2.615   7.446   0.564
 3665TIP3    H110936   2.539   7.491   0.528
 3665TIP3    H210937   2.684   7.458   0.499
 3666TIP3   OH210938   4.097   3.568   5.159
 3666TIP3    H110939   4.034   3.577   5.229
 3666TIP3    H210940   4.098   3.474   5.140
 3667TIP3   OH210941   5.176   1.655   1.470
 3667TIP3    H110942   5.162   1.704   1.551
 3667TIP3    H210943   5.268   1.629   1.473
 3668TIP3   OH210944   0.281   7.486   5.134
 3668TIP3    H110945   0.228   7.419   5.091
 3668TIP3    H210946   0.219   7.556   5.154
 3669TIP3   OH210947   6.720   5.481   4.196
 3669TIP3    H110948   6.763   5.414   4.249
 3669TIP3    H210949   6.729   5.562   4.246
 3670TIP3   OH210950   8.137   7.540   0.555
 3670TIP3    H110951   8.195   7.484   0.504
 3670TIP3    H210952   8.164   7.529   0.646
 3671TIP3   OH210953   0.838   7.011   2.177
 3671TIP3    H110954   0.884   7.073   2.120
 3671TIP3    H210955   0.890   7.010   2.257
 3672TIP3   OH210956   1.238   1.570   6.287
 3672TIP3    H110957   1.257   1.602   6.375
 3672TIP3    H210958   1.201   1.646   6.241
 3673TIP3   OH210959   4.175   3.952   4.681
 3673TIP3    H110960   4.241   3.953   4.751
 3673TIP3    H210961   4.164   4.045   4.659
 3674TIP3   OH210962   7.846   1.462   4.315
 3674TIP3    H110963   7.863   1.372   4.288
 3674TIP3    H210964   7.816   1.506   4.236
 3675TIP3   OH210965   2.251   3.987   0.652
 3675TIP3    H110966   2.213   3.968   0.566
 3675TIP3    H210967   2.280   3.901   0.684
 3676TIP3   OH210968   1.681   0.786   5.355
 3676TIP3    H110969   1.648   0.710   5.308
 3676TIP3    H210970   1.698   0.852   5.288
 3677TIP3   OH210971   3.697   5.278   4.582
 3677TIP3    H110972   3.758   5.284   4.508
 3677TIP3    H210973   3.664   5.188   4.578
 3678TIP3   OH210974   4.078  -0.008   3.383
 3678TIP3    H110975   4.061   0.066   3.440
 3678TIP3    H210976   3.993  -0.029   3.345
 3679TIP3   OH210977   4.636   0.424   4.030
 3679TIP3    H110978   4.677   0.483   3.966
 3679TIP3    H210979   4.708   0.396   4.085
 3680TIP3   OH210980   7.232   6.727   1.466
 3680TIP3    H110981   7.166   6.743   1.399
 3680TIP3    H210982   7.308   6.778   1.437
 3681TIP3   OH210983   7.677   4.825   6.116
 3681TIP3    H110984   7.659   4.892   6.182
 3681TIP3    H210985   7.627   4.854   6.039
 3682TIP3   OH210986   1.156   7.918   0.328
 3682TIP3    H110987   1.137   7.898   0.420
 3682TIP3    H210988   1.131   7.839   0.280
 3683TIP3   OH210989   5.400   4.599   6.759
 3683TIP3    H110990   5.449   4.625   6.836
 3683TIP3    H210991   5.328   4.546   6.793
 3684TIP3   OH210992   1.516   6.915   1.526
 3684TIP3    H110993   1.593   6.860   1.515
 3684TIP3    H210994   1.462   6.894   1.449
 3685TIP3   OH210995   4.201   5.318   6.817
 3685TIP3    H110996   4.268   5.269   6.866
 3685TIP3    H210997   4.189   5.399   6.867
 3686TIP3   OH210998   7.411   4.909   1.057
 3686TIP3    H110999   7.466   4.907   1.136
 3686TIP3    H211000   7.332   4.860   1.081
 3687TIP3   OH211001   7.368   2.640   5.907
 3687TIP3    H111002   7.459   2.668   5.901
 3687TIP3    H211003   7.371   2.563   5.965
 3688TIP3   OH211004   0.880   1.968   5.282
 3688TIP3    H111005   0.906   2.037   5.220
 3688TIP3    H211006   0.950   1.903   5.277
 3689TIP3   OH211007   7.892   5.658   1.519
 3689TIP3    H111008   7.824   5.713   1.480
 3689TIP3    H211009   7.925   5.605   1.447
 3690TIP3   OH211010   6.007   7.569   5.977
 3690TIP3    H111011   6.089   7.520   5.974
 3690TIP3    H211012   5.941   7.505   6.003
 3691TIP3   OH211013   7.717   7.692   3.567
 3691TIP3    H111014   7.666   7.773   3.572
 3691TIP3    H211015   7.664   7.627   3.613
 3692TIP3   OH211016   2.025   3.340   6.743
 3692TIP3    H111017   2.112   3.308   6.769
 3692TIP3    H211018   2.042   3.428   6.709
 3693TIP3   OH211019   2.892   0.603   5.121
 3693TIP3    H111020   2.898   0.622   5.215
 3693TIP3    H211021   2.818   0.542   5.114
 3694TIP3   OH211022   8.260   0.887   1.669
 3694TIP3    H111023   8.314   0.966   1.671
 3694TIP3    H211024   8.259   0.856   1.760
 3695TIP3   OH211025   6.769   6.411   2.555
 3695TIP3    H111026   6.744   6.445   2.469
 3695TIP3    H211027   6.711   6.336   2.569
 3696TIP3   OH211028   3.039   1.687   5.225
 3696TIP3    H111029   3.053   1.597   5.197
 3696TIP3    H211030   2.952   1.688   5.264
 3697TIP3   OH211031   7.902   4.899   0.555
 3697TIP3    H111032   7.869   4.982   0.519
 3697TIP3    H211033   7.986   4.885   0.511
 3698TIP3   OH211034   5.905   6.128   0.591
 3698TIP3    H111035   5.846   6.200   0.566
 3698TIP3    H211036   5.928   6.085   0.508
 3699TIP3   OH211037   2.031   0.174   2.043
 3699TIP3    H111038   1.986   0.138   2.119
 3699TIP3    H211039   2.058   0.262   2.070
 3700TIP3   OH211040   6.410   2.780   4.584
 3700TIP3    H111041   6.428   2.828   4.503
 3700TIP3    H211042   6.318   2.757   4.579
 3701TIP3   OH211043   2.579   1.676   2.042
 3701TIP3    H111044   2.661   1.661   1.995
 3701TIP3    H211045   2.601   1.742   2.107
 3702TIP3   OH211046   2.451   0.329   0.525
 3702TIP3    H111047   2.389   0.326   0.597
 3702TIP3    H211048   2.398   0.314   0.447
 3703TIP3   OH211049   7.598   5.587   4.756
 3703TIP3    H111050   7.601   5.492   4.740
 3703TIP3    H211051   7.518   5.600   4.807
 3704TIP3   OH211052   4.157   3.983   2.390
 3704TIP3    H111053   4.079   3.977   2.335
 3704TIP3    H211054   4.152   3.906   2.447
 3705TIP3   OH211055   2.224   1.238   1.800
 3705TIP3    H111056   2.241   1.324   1.840
 3705TIP3    H211057   2.200   1.259   1.710
 3706TIP3   OH211058   4.384   2.920   5.751
 3706TIP3    H111059   4.333   3.001   5.760
 3706TIP3    H211060   4.414   2.901   5.840
 3707TIP3   OH211061   1.185   4.378   3.865
 3707TIP3    H111062   1.250   4.435   3.825
 3707TIP3    H211063   1.126   4.437   3.911
 3708TIP3   OH211064   3.726   5.650   2.459
 3708TIP3    H111065   3.789   5.721   2.469
 3708TIP3    H211066   3.643   5.693   2.442
 3709TIP3   OH211067   6.183   2.159   1.988
 3709TIP3    H111068   6.206   2.174   2.079
 3709TIP3    H211069   6.232   2.225   1.939
 3710TIP3   OH211070   8.018   5.218   3.617
 3710TIP3    H111071   8.063   5.216   3.532
 3710TIP3    H211072   8.009   5.126   3.641
 3711TIP3   OH211073   7.840   3.715   5.197
 3711TIP3    H111074   7.902   3.767   5.146
 3711TIP3    H211075   7.886   3.695   5.278
 3712TIP3   OH211076   5.614   6.827   2.045
 3712TIP3    H111077   5.527   6.795   2.020
 3712TIP3    H211078   5.661   6.750   2.076
 3713TIP3   OH211079   1.906   6.673   6.345
 3713TIP3    H111080   1.860   6.756   6.349
 3713TIP3    H211081   1.954   6.668   6.428
 3714TIP3   OH211082   6.650   1.910   2.782
 3714TIP3    H111083   6.730   1.961   2.772
 3714TIP3    H211084   6.680   1.819   2.792
 3715TIP3   OH211085   8.040   1.018   6.052
 3715TIP3    H111086   8.104   0.978   5.993
 3715TIP3    H211087   8.049   1.112   6.036
 3716TIP3   OH211088   1.105   1.057   0.193
 3716TIP3    H111089   1.043   0.987   0.175
 3716TIP3    H211090   1.066   1.135   0.154
 3717TIP3   OH211091   5.077   7.302   0.714
 3717TIP3    H111092   5.161   7.303   0.669
 3717TIP3    H211093   5.091   7.244   0.789
 3718TIP3   OH211094   7.004   4.981   4.784
 3718TIP3    H111095   6.980   5.073   4.772
 3718TIP3    H211096   6.920   4.938   4.803
 3719TIP3   OH211097   6.880   0.833   3.266
 3719TIP3    H111098   6.878   0.845   3.171
 3719TIP3    H211099   6.885   0.921   3.302
 3720TIP3   OH211100   1.909   1.401   6.686
 3720TIP3    H111101   1.904   1.491   6.719
 3720TIP3    H211102   1.911   1.347   6.765
 3721TIP3   OH211103   4.566   7.449   5.671
 3721TIP3    H111104   4.586   7.356   5.661
 3721TIP3    H211105   4.629   7.481   5.735
 3722TIP3   OH211106   6.352   7.083   5.383
 3722TIP3    H111107   6.349   7.018   5.454
 3722TIP3    H211108   6.281   7.057   5.324
 3723TIP3   OH211109   1.841   7.613   0.053
 3723TIP3    H111110   1.817   7.615   0.146
 3723TIP3    H211111   1.760   7.588   0.008
 3724TIP3   OH211112   5.432   4.117   3.333
 3724TIP3    H111113   5.399   4.072   3.256
 3724TIP3    H211114   5.451   4.048   3.396
 3725TIP3   OH211115   5.758   2.279   6.029
 3725TIP3    H111116   5.739   2.187   6.012
 3725TIP3    H211117   5.723   2.326   5.953
 3726TIP3   OH211118   1.044   3.071   0.405
 3726TIP3    H111119   0.967   3.126   0.425
 3726TIP3    H211120   1.093   3.121   0.340
 3727TIP3   OH211121   4.877   5.680   4.644
 3727TIP3    H111122   4.845   5.621   4.576
 3727TIP3    H211123   4.815   5.753   4.645
 3728TIP3   OH211124   5.495   3.750   6.352
 3728TIP3    H111125   5.540   3.804   6.417
 3728TIP3    H211126   5.556   3.679   6.333
 3729TIP3   OH211127   4.727   4.866   4.060
 3729TIP3    H111128   4.659   4.928   4.084
 3729TIP3    H211129   4.683   4.781   4.058
 3730TIP3   OH211130   2.632   1.629   1.377
 3730TIP3    H111131   2.591   1.586   1.452
 3730TIP3    H211132   2.724   1.601   1.381
 3731TIP3   OH211133   5.295   0.207   6.246
 3731TIP3    H111134   5.204   0.192   6.272
 3731TIP3    H211135   5.320   0.129   6.197
 3732TIP3   OH211136   7.615   5.894   4.798
 3732TIP3    H111137   7.596   5.802   4.782
 3732TIP3    H211138   7.711   5.899   4.799
 3733TIP3   OH211139   7.357   7.483   1.252
 3733TIP3    H111140   7.357   7.410   1.314
 3733TIP3    H211141   7.396   7.446   1.172
 3734TIP3   OH211142   4.282   6.459   1.534
 3734TIP3    H111143   4.359   6.483   1.586
 3734TIP3    H211144   4.220   6.530   1.549
 3735TIP3   OH211145   1.139   2.084   5.938
 3735TIP3    H111146   1.135   2.005   5.885
 3735TIP3    H211147   1.055   2.088   5.983
 3736TIP3   OH211148   0.755   1.067   5.213
 3736TIP3    H111149   0.779   1.160   5.218
 3736TIP3    H211150   0.667   1.068   5.176
 3737TIP3   OH211151   0.420   5.757   5.184
 3737TIP3    H111152   0.497   5.808   5.157
 3737TIP3    H211153   0.346   5.805   5.148
 3738TIP3   OH211154   3.712   1.401   2.597
 3738TIP3    H111155   3.743   1.386   2.507
 3738TIP3    H211156   3.791   1.402   2.650
 3739TIP3   OH211157   1.251   0.062   6.559
 3739TIP3    H111158   1.244   0.148   6.600
 3739TIP3    H211159   1.332   0.066   6.508
 3740TIP3   OH211160   5.583   5.596   3.498
 3740TIP3    H111161   5.530   5.670   3.527
 3740TIP3    H211162   5.546   5.572   3.413
 3741TIP3   OH211163   2.780   7.130   2.731
 3741TIP3    H111164   2.801   7.037   2.736
 3741TIP3    H211165   2.693   7.138   2.770
 3742TIP3   OH211166   4.489   0.158   4.273
 3742TIP3    H111167   4.437   0.201   4.206
 3742TIP3    H211168   4.527   0.081   4.229
 3743TIP3   OH211169   6.303   6.899   4.791
 3743TIP3    H111170   6.312   6.827   4.853
 3743TIP3    H211171   6.226   6.878   4.739
 3744TIP3   OH211172   1.690   0.120   3.743
 3744TIP3    H111173   1.598   0.103   3.722
 3744TIP3    H211174   1.687   0.183   3.814
 3745TIP3   OH211175   1.151   5.868   4.806
 3745TIP3    H111176   1.153   5.899   4.715
 3745TIP3    H211177   1.220   5.919   4.849
 3746TIP3   OH211178   6.477   6.184   3.096
 3746TIP3    H111179   6.500   6.095   3.123
 3746TIP3    H211180   6.559   6.233   3.104
 3747TIP3   OH211181   4.183   0.041   5.092
 3747TIP3    H111182   4.252   0.056   5.027
 3747TIP3    H211183   4.104   0.026   5.040
 3748TIP3   OH211184   7.224   5.195   3.188
 3748TIP3    H111185   7.266   5.281   3.191
 3748TIP3    H211186   7.239   5.164   3.099
 3749TIP3   OH211187   6.417   0.352   0.797
 3749TIP3    H111188   6.476   0.344   0.872
 3749TIP3    H211189   6.446   0.282   0.738
 3750TIP3   OH211190   0.050   3.167   6.397
 3750TIP3    H111191   0.133   3.146   6.441
 3750TIP3    H211192   0.041   3.100   6.329
 3751TIP3   OH211193   0.407   1.205   0.067
 3751TIP3    H111194   0.360   1.270   0.119
 3751TIP3    H211195   0.478   1.254   0.025
 3752TIP3   OH211196   0.830   5.571   4.490
 3752TIP3    H111197   0.752   5.575   4.435
 3752TIP3    H211198   0.858   5.663   4.498
 3753TIP3   OH211199   8.078   0.394   5.051
 3753TIP3    H111200   8.142   0.372   4.983
 3753TIP3    H211201   8.027   0.314   5.064
 3754TIP3   OH211202   5.460   6.850   2.506
 3754TIP3    H111203   5.406   6.926   2.482
 3754TIP3    H211204   5.537   6.888   2.547
 3755TIP3   OH211205   3.820   7.311   1.639
 3755TIP3    H111206   3.773   7.242   1.594
 3755TIP3    H211207   3.825   7.282   1.730
 3756TIP3   OH211208   2.017   3.306   1.950
 3756TIP3    H111209   2.002   3.256   2.030
 3756TIP3    H211210   1.940   3.361   1.942
 3757TIP3   OH211211   1.281   4.847   0.388
 3757TIP3    H111212   1.321   4.818   0.306
 3757TIP3    H211213   1.196   4.883   0.361
 3758TIP3   OH211214   1.818   0.130   1.770
 3758TIP3    H111215   1.888   0.074   1.805
 3758TIP3    H211216   1.801   0.194   1.839
 3759TIP3   OH211217   3.768   5.924   1.925
 3759TIP3    H111218   3.793   5.836   1.952
 3759TIP3    H211219   3.838   5.952   1.866
 3760TIP3   OH211220   4.151   6.674   2.133
 3760TIP3    H111221   4.150   6.735   2.059
 3760TIP3    H211222   4.073   6.620   2.121
 3761TIP3   OH211223   3.831   4.774   1.100
 3761TIP3    H111224   3.753   4.828   1.089
 3761TIP3    H211225   3.835   4.757   1.195
 3762TIP3   OH211226   6.485   0.415   6.392
 3762TIP3    H111227   6.418   0.424   6.460
 3762TIP3    H211228   6.528   0.332   6.411
 3763TIP3   OH211229   5.930   1.881   0.328
 3763TIP3    H111230   5.947   1.943   0.399
 3763TIP3    H211231   5.901   1.801   0.372
 3764TIP3   OH211232   6.750   5.036   2.461
 3764TIP3    H111233   6.719   5.052   2.372
 3764TIP3    H211234   6.784   4.947   2.458
 3765TIP3   OH211235   4.262   4.094   1.318
 3765TIP3    H111236   4.315   4.086   1.239
 3765TIP3    H211237   4.325   4.103   1.389
 3766TIP3   OH211238   1.242   2.311   6.096
 3766TIP3    H111239   1.224   2.273   6.010
 3766TIP3    H211240   1.158   2.312   6.141
 3767TIP3   OH211241   3.477   7.358   2.166
 3767TIP3    H111242   3.527   7.438   2.151
 3767TIP3    H211243   3.400   7.385   2.216
 3768TIP3   OH211244   5.557   0.169   2.643
 3768TIP3    H111245   5.581   0.099   2.583
 3768TIP3    H211246   5.579   0.250   2.597
 3769TIP3   OH211247   1.797   4.574   0.256
 3769TIP3    H111248   1.702   4.564   0.268
 3769TIP3    H211249   1.812   4.668   0.264
 3770TIP3   OH211250   4.315   1.408   5.595
 3770TIP3    H111251   4.282   1.377   5.510
 3770TIP3    H211252   4.245   1.464   5.628
 3771TIP3   OH211253   1.993   6.610   0.223
 3771TIP3    H111254   2.081   6.623   0.258
 3771TIP3    H211255   1.935   6.637   0.294
 3772TIP3   OH211256   0.590   7.105   3.958
 3772TIP3    H111257   0.682   7.082   3.949
 3772TIP3    H211258   0.570   7.155   3.879
 3773TIP3   OH211259   4.726   3.133   1.031
 3773TIP3    H111260   4.708   3.072   0.960
 3773TIP3    H211261   4.725   3.219   0.990
 3774TIP3   OH211262   4.227   1.869   5.098
 3774TIP3    H111263   4.310   1.909   5.126
 3774TIP3    H211264   4.232   1.869   5.002
 3775TIP3   OH211265   5.932   0.754   4.488
 3775TIP3    H111266   6.014   0.729   4.447
 3775TIP3    H211267   5.869   0.758   4.416
 3776TIP3   OH211268   1.754   1.142   3.107
 3776TIP3    H111269   1.803   1.152   3.189
 3776TIP3    H211270   1.801   1.074   3.059
 3777TIP3   OH211271   5.450   3.213   0.941
 3777TIP3    H111272   5.419   3.129   0.908
 3777TIP3    H211273   5.401   3.226   1.022
 3778TIP3   OH211274   7.957   7.891   3.875
 3778TIP3    H111275   7.879   7.946   3.879
 3778TIP3    H211276   7.923   7.803   3.859
 3779TIP3   OH211277   5.437   1.214   1.763
 3779TIP3    H111278   5.348   1.229   1.729
 3779TIP3    H211279   5.445   1.119   1.765
 3780TIP3   OH211280   2.178   4.436   4.381
 3780TIP3    H111281   2.248   4.430   4.315
 3780TIP3    H211282   2.124   4.509   4.351
 3781TIP3   OH211283   5.229   2.897   5.312
 3781TIP3    H111284   5.311   2.941   5.290
 3781TIP3    H211285   5.162   2.965   5.306
 3782TIP3   OH211286   2.881   5.782   6.218
 3782TIP3    H111287   2.828   5.804   6.142
 3782TIP3    H211288   2.883   5.861   6.270
 3783TIP3   OH211289   6.778   6.858   4.449
 3783TIP3    H111290   6.791   6.854   4.543
 3783TIP3    H211291   6.687   6.886   4.439
 3784TIP3   OH211292   3.710   2.769   5.614
 3784TIP3    H111293   3.619   2.779   5.642
 3784TIP3    H211294   3.705   2.723   5.530
 3785TIP3   OH211295   8.219   7.714   0.345
 3785TIP3    H111296   8.183   7.802   0.338
 3785TIP3    H211297   8.181   7.678   0.425
 3786TIP3   OH211298   2.964   5.326   5.677
 3786TIP3    H111299   2.957   5.370   5.761
 3786TIP3    H211300   2.985   5.395   5.615
 3787TIP3   OH211301   0.038   3.965   3.869
 3787TIP3    H111302   0.129   3.943   3.888
 3787TIP3    H211303   0.041   4.056   3.838
 3788TIP3   OH211304   6.098   0.455   2.339
 3788TIP3    H111305   6.008   0.487   2.342
 3788TIP3    H211306   6.152   0.530   2.363
 3789TIP3   OH211307   5.084   0.534   5.906
 3789TIP3    H111308   5.100   0.515   5.813
 3789TIP3    H211309   5.163   0.505   5.951
 3790TIP3   OH211310   3.538   7.281   1.596
 3790TIP3    H111311   3.500   7.249   1.514
 3790TIP3    H211312   3.553   7.374   1.580
 3791TIP3   OH211313   0.142   4.730   5.434
 3791TIP3    H111314   0.229   4.751   5.399
 3791TIP3    H211315   0.150   4.640   5.465
 3792TIP3   OH211316   7.403   7.452   0.574
 3792TIP3    H111317   7.433   7.375   0.622
 3792TIP3    H211318   7.414   7.524   0.635
 3793TIP3   OH211319   7.268   4.988   3.384
 3793TIP3    H111320   7.235   5.063   3.334
 3793TIP3    H211321   7.342   4.956   3.332
 3794TIP3   OH211322   0.339   3.989   0.448
 3794TIP3    H111323   0.394   4.055   0.406
 3794TIP3    H211324   0.267   3.976   0.387
 3795TIP3   OH211325   3.226   0.888   3.077
 3795TIP3    H111326   3.150   0.898   3.019
 3795TIP3    H211327   3.228   0.969   3.128
 3796TIP3   OH211328   4.540   2.857   5.969
 3796TIP3    H111329   4.580   2.870   6.055
 3796TIP3    H211330   4.597   2.793   5.926
 3797TIP3   OH211331   5.950   6.954   4.952
 3797TIP3    H111332   6.040   6.966   4.984
 3797TIP3    H211333   5.931   6.862   4.968
 3798TIP3   OH211334   4.497   6.668   0.669
 3798TIP3    H111335   4.483   6.736   0.603
 3798TIP3    H211336   4.585   6.634   0.649
 3799TIP3   OH211337   5.236   6.172   4.819
 3799TIP3    H111338   5.323   6.195   4.852
 3799TIP3    H211339   5.254   6.117   4.742
 3800TIP3   OH211340   4.930   3.317   4.340
 3800TIP3    H111341   4.853   3.371   4.357
 3800TIP3    H211342   4.897   3.228   4.337
 3801TIP3   OH211343   4.291   3.390   3.203
 3801TIP3    H111344   4.325   3.301   3.212
 3801TIP3    H211345   4.270   3.416   3.293
 3802TIP3   OH211346   4.066   7.822   0.859
 3802TIP3    H111347   4.033   7.838   0.771
 3802TIP3    H211348   4.131   7.753   0.849
 3803TIP3   OH211349   1.092   5.996   1.410
 3803TIP3    H111350   1.067   6.088   1.417
 3803TIP3    H211351   1.054   5.966   1.328
 3804TIP3   OH211352   5.631   6.791   0.057
 3804TIP3    H111353   5.540   6.766   0.042
 3804TIP3    H211354   5.682   6.717   0.023
 3805TIP3   OH211355   1.780   3.528   4.589
 3805TIP3    H111356   1.704   3.564   4.636
 3805TIP3    H211357   1.810   3.600   4.534
 3806TIP3   OH211358   6.602   3.271   3.360
 3806TIP3    H111359   6.533   3.222   3.406
 3806TIP3    H211360   6.591   3.248   3.268
 3807TIP3   OH211361   1.541   1.848   4.717
 3807TIP3    H111362   1.461   1.855   4.664
 3807TIP3    H211363   1.612   1.844   4.652
 3808TIP3   OH211364   3.669   3.065   6.372
 3808TIP3    H111365   3.586   3.051   6.325
 3808TIP3    H211366   3.669   2.998   6.440
 3809TIP3   OH211367   7.662   3.200   3.522
 3809TIP3    H111368   7.628   3.288   3.536
 3809TIP3    H211369   7.752   3.204   3.553
 3810TIP3   OH211370   2.305   3.205   6.553
 3810TIP3    H111371   2.291   3.270   6.621
 3810TIP3    H211372   2.329   3.257   6.476
 3811TIP3   OH211373   7.968   4.690   4.187
 3811TIP3    H111374   7.939   4.635   4.261
 3811TIP3    H211375   7.952   4.779   4.217
 3812TIP3   OH211376   6.024   5.148   1.777
 3812TIP3    H111377   6.048   5.184   1.862
 3812TIP3    H211378   6.047   5.055   1.783
 3813TIP3   OH211379   2.282   3.914   3.322
 3813TIP3    H111380   2.205   3.926   3.378
 3813TIP3    H211381   2.249   3.928   3.233
 3814TIP3   OH211382   4.950   2.427   5.982
 3814TIP3    H111383   4.928   2.334   5.972
 3814TIP3    H211384   5.042   2.426   6.010
 3815TIP3   OH211385   3.701   6.822   3.428
 3815TIP3    H111386   3.655   6.824   3.512
 3815TIP3    H211387   3.650   6.881   3.372
 3816TIP3   OH211388   7.720   1.304   2.969
 3816TIP3    H111389   7.714   1.250   2.890
 3816TIP3    H211390   7.745   1.243   3.038
 3817TIP3   OH211391   1.316   5.093   1.769
 3817TIP3    H111392   1.340   5.025   1.832
 3817TIP3    H211393   1.247   5.052   1.716
 3818TIP3   OH211394   1.541   6.566   0.417
 3818TIP3    H111395   1.508   6.533   0.501
 3818TIP3    H211396   1.489   6.520   0.351
 3819TIP3   OH211397   0.509   7.284   6.048
 3819TIP3    H111398   0.527   7.198   6.085
 3819TIP3    H211399   0.520   7.273   5.954
 3820TIP3   OH211400   8.283   1.945   6.083
 3820TIP3    H111401   8.225   1.989   6.146
 3820TIP3    H211402   8.256   1.853   6.086
 3821TIP3   OH211403   6.306   7.656   3.669
 3821TIP3    H111404   6.362   7.593   3.714
 3821TIP3    H211405   6.219   7.615   3.669
 3822TIP3   OH211406   3.895   5.746   0.062
 3822TIP3    H111407   3.949   5.694   0.121
 3822TIP3    H211408   3.909   5.837   0.090
 3823TIP3   OH211409   3.829   0.456   5.610
 3823TIP3    H111410   3.755   0.438   5.552
 3823TIP3    H211411   3.829   0.551   5.621
 3824TIP3   OH211412   5.693   6.348   6.696
 3824TIP3    H111413   5.744   6.370   6.774
 3824TIP3    H211414   5.757   6.349   6.625
 3825TIP3   OH211415   7.873   4.369   1.739
 3825TIP3    H111416   7.872   4.353   1.645
 3825TIP3    H211417   7.783   4.397   1.759
 3826TIP3   OH211418   4.677   4.384   5.338
 3826TIP3    H111419   4.619   4.376   5.262
 3826TIP3    H211420   4.748   4.321   5.320
 3827TIP3   OH211421   3.506   6.063   4.152
 3827TIP3    H111422   3.569   5.993   4.135
 3827TIP3    H211423   3.448   6.027   4.219
 3828TIP3   OH211424   0.797   4.190   1.858
 3828TIP3    H111425   0.856   4.262   1.838
 3828TIP3    H211426   0.724   4.231   1.905
 3829TIP3   OH211427   0.850   4.551   3.273
 3829TIP3    H111428   0.926   4.549   3.215
 3829TIP3    H211429   0.791   4.615   3.233
 3830TIP3   OH211430   5.703   7.763   6.552
 3830TIP3    H111431   5.737   7.689   6.501
 3830TIP3    H211432   5.779   7.820   6.565
 3831TIP3   OH211433   2.419   1.348   2.977
 3831TIP3    H111434   2.364   1.382   2.906
 3831TIP3    H211435   2.506   1.384   2.960
 3832TIP3   OH211436   4.151   2.139   5.193
 3832TIP3    H111437   4.174   2.157   5.102
 3832TIP3    H211438   4.055   2.131   5.192
 3833TIP3   OH211439   7.786   0.489   0.039
 3833TIP3    H111440   7.811   0.566  -0.012
 3833TIP3    H211441   7.868   0.441   0.052
 3834TIP3   OH211442   3.903   7.622   3.105
 3834TIP3    H111443   3.851   7.542   3.104
 3834TIP3    H211444   3.966   7.608   3.176
 3835TIP3   OH211445   2.319   6.358   6.301
 3835TIP3    H111446   2.226   6.343   6.283
 3835TIP3    H211447   2.330   6.335   6.393
 3836TIP3   OH211448   2.083   0.072   3.891
 3836TIP3    H111449   2.052   0.054   3.802
 3836TIP3    H211450   2.034   0.011   3.946
 3837TIP3   OH211451   7.144   2.944   3.659
 3837TIP3    H111452   7.140   2.938   3.564
 3837TIP3    H211453   7.197   3.021   3.677
 3838TIP3   OH211454   3.042  -0.006   5.363
 3838TIP3    H111455   3.058   0.087   5.347
 3838TIP3    H211456   3.012  -0.010   5.454
 3839TIP3   OH211457   4.423   1.256   0.358
 3839TIP3    H111458   4.445   1.164   0.341
 3839TIP3    H211459   4.423   1.297   0.272
 3840TIP3   OH211460   5.556   1.133   5.064
 3840TIP3    H111461   5.548   1.120   5.159
 3840TIP3    H211462   5.620   1.068   5.036
 3841TIP3   OH211463   2.566   7.865   0.557
 3841TIP3    H111464   2.529   7.916   0.485
 3841TIP3    H211465   2.631   7.809   0.516
 3842TIP3   OH211466   4.375   2.081   2.969
 3842TIP3    H111467   4.340   2.155   3.019
 3842TIP3    H211468   4.339   2.004   3.012
 3843TIP3   OH211469   4.315   2.331   5.770
 3843TIP3    H111470   4.344   2.360   5.856
 3843TIP3    H211471   4.356   2.245   5.758
 3844TIP3   OH211472   8.273   3.077   5.833
 3844TIP3    H111473   8.349   3.020   5.830
 3844TIP3    H211474   8.234   3.070   5.746
 3845TIP3   OH211475   4.322   5.660   0.360
 3845TIP3    H111476   4.329   5.743   0.313
 3845TIP3    H211477   4.401   5.611   0.334
 3846TIP3   OH211478   5.206   6.132   6.615
 3846TIP3    H111479   5.245   6.155   6.699
 3846TIP3    H211480   5.254   6.185   6.551
 3847TIP3   OH211481   1.923   1.263   0.855
 3847TIP3    H111482   1.979   1.200   0.809
 3847TIP3    H211483   1.922   1.340   0.798
 3848TIP3   OH211484   2.756   0.185   1.497
 3848TIP3    H111485   2.823   0.175   1.565
 3848TIP3    H211486   2.754   0.279   1.478
 3849TIP3   OH211487   8.027   6.361   3.959
 3849TIP3    H111488   8.063   6.355   3.871
 3849TIP3    H211489   8.075   6.434   3.999
 3850TIP3   OH211490   3.576   4.416   6.015
 3850TIP3    H111491   3.661   4.400   5.974
 3850TIP3    H211492   3.524   4.460   5.947
 3851TIP3   OH211493   1.278   5.379   1.820
 3851TIP3    H111494   1.227   5.408   1.744
 3851TIP3    H211495   1.303   5.289   1.799
 3852TIP3   OH211496   1.664   3.891   3.051
 3852TIP3    H111497   1.757   3.883   3.028
 3852TIP3    H211498   1.617   3.867   2.972
 3853TIP3   OH211499   4.030   4.713   5.280
 3853TIP3    H111500   4.006   4.794   5.325
 3853TIP3    H211501   3.975   4.712   5.201
 3854TIP3   OH211502   3.279   2.706   3.152
 3854TIP3    H111503   3.326   2.644   3.208
 3854TIP3    H211504   3.254   2.777   3.210
 3855TIP3   OH211505   3.509   4.018   5.643
 3855TIP3    H111506   3.566   3.969   5.584
 3855TIP3    H211507   3.551   4.104   5.651
 3856TIP3   OH211508   6.481   7.642   3.980
 3856TIP3    H111509   6.419   7.709   3.950
 3856TIP3    H211510   6.521   7.680   4.058
 3857TIP3   OH211511   6.670   0.224   3.744
 3857TIP3    H111512   6.677   0.301   3.801
 3857TIP3    H211513   6.674   0.150   3.804
 3858TIP3   OH211514   2.880   5.204   3.703
 3858TIP3    H111515   2.921   5.289   3.718
 3858TIP3    H211516   2.872   5.196   3.608
 3859TIP3   OH211517   3.490   2.032   2.364
 3859TIP3    H111518   3.458   2.100   2.304
 3859TIP3    H211519   3.469   1.949   2.321
 3860TIP3   OH211520   1.914   5.906   3.497
 3860TIP3    H111521   2.002   5.942   3.508
 3860TIP3    H211522   1.927   5.825   3.448
 3861TIP3   OH211523   7.112   2.385   1.549
 3861TIP3    H111524   7.103   2.359   1.457
 3861TIP3    H211525   7.206   2.384   1.565
 3862TIP3   OH211526   5.831   1.545   0.175
 3862TIP3    H111527   5.831   1.464   0.124
 3862TIP3    H211528   5.911   1.590   0.149
 3863TIP3   OH211529   3.399   4.069   0.469
 3863TIP3    H111530   3.491   4.094   0.474
 3863TIP3    H211531   3.353   4.138   0.516
 3864TIP3   OH211532   5.402   3.547   4.085
 3864TIP3    H111533   5.475   3.496   4.121
 3864TIP3    H211534   5.337   3.548   4.155
 3865TIP3   OH211535   1.592   5.987   3.497
 3865TIP3    H111536   1.533   5.912   3.503
 3865TIP3    H211537   1.674   5.951   3.462
 3866TIP3   OH211538   2.373   3.656   2.709
 3866TIP3    H111539   2.453   3.634   2.661
 3866TIP3    H211540   2.330   3.572   2.722
 3867TIP3   OH211541   2.575   2.063   1.563
 3867TIP3    H111542   2.543   2.011   1.490
 3867TIP3    H211543   2.645   2.010   1.602
 3868TIP3   OH211544   0.640   3.668   4.434
 3868TIP3    H111545   0.698   3.671   4.358
 3868TIP3    H211546   0.594   3.584   4.426
 3869TIP3   OH211547   5.078   6.219   3.157
 3869TIP3    H111548   5.090   6.204   3.063
 3869TIP3    H211549   5.064   6.313   3.165
 3870TIP3   OH211550   6.127   0.181   2.361
 3870TIP3    H111551   6.130   0.276   2.349
 3870TIP3    H211552   6.192   0.147   2.300
 3871TIP3   OH211553   4.354   0.358   6.602
 3871TIP3    H111554   4.289   0.288   6.603
 3871TIP3    H211555   4.305   0.437   6.621
 3872TIP3   OH211556   7.847   7.118   1.458
 3872TIP3    H111557   7.905   7.058   1.412
 3872TIP3    H211558   7.905   7.186   1.492
 3873TIP3   OH211559   1.577   7.882   3.940
 3873TIP3    H111560   1.610   7.797   3.972
 3873TIP3    H211561   1.618   7.946   3.998
 3874TIP3   OH211562   3.194   2.083   5.393
 3874TIP3    H111563   3.263   2.031   5.433
 3874TIP3    H211564   3.118   2.072   5.450
 3875TIP3   OH211565   2.705   1.119   3.164
 3875TIP3    H111566   2.778   1.129   3.103
 3875TIP3    H211567   2.746   1.113   3.250
 3876TIP3   OH211568   7.686   0.527   5.065
 3876TIP3    H111569   7.736   0.568   5.136
 3876TIP3    H211570   7.601   0.571   5.069
 3877TIP3   OH211571   0.980   2.464   1.019
 3877TIP3    H111572   1.051   2.495   0.963
 3877TIP3    H211573   0.902   2.510   0.987
 3878TIP3   OH211574   7.133   4.378   3.417
 3878TIP3    H111575   7.226   4.397   3.411
 3878TIP3    H211576   7.120   4.300   3.363
 3879TIP3   OH211577  -0.022   5.425   1.576
 3879TIP3    H111578   0.054   5.377   1.542
 3879TIP3    H211579   0.016   5.493   1.632
 3880TIP3   OH211580   2.925   1.098   2.996
 3880TIP3    H111581   3.011   1.127   2.966
 3880TIP3    H211582   2.864   1.158   2.953
 3881TIP3   OH211583   3.859   5.555   1.319
 3881TIP3    H111584   3.903   5.575   1.401
 3881TIP3    H211585   3.930   5.540   1.256
 3882TIP3   OH211586   7.339   1.611   4.162
 3882TIP3    H111587   7.294   1.576   4.085
 3882TIP3    H211588   7.329   1.542   4.229
 3883TIP3   OH211589   5.024   5.737   5.524
 3883TIP3    H111590   5.104   5.779   5.554
 3883TIP3    H211591   5.039   5.643   5.538
 3884TIP3   OH211592   5.742   2.249   3.585
 3884TIP3    H111593   5.696   2.169   3.559
 3884TIP3    H211594   5.766   2.292   3.502
 3885TIP3   OH211595   0.075   0.364   6.573
 3885TIP3    H111596   0.100   0.434   6.513
 3885TIP3    H211597   0.005   0.402   6.626
 3886TIP3   OH211598   5.844   5.592  -0.002
 3886TIP3    H111599   5.794   5.662  -0.044
 3886TIP3    H211600   5.792   5.568   0.074
 3887TIP3   OH211601   4.585   6.617   2.389
 3887TIP3    H111602   4.501   6.641   2.350
 3887TIP3    H211603   4.610   6.537   2.343
 3888TIP3   OH211604   6.585   1.675   2.008
 3888TIP3    H111605   6.614   1.681   2.099
 3888TIP3    H211606   6.666   1.662   1.958
 3889TIP3   OH211607   0.364   5.942   6.463
 3889TIP3    H111608   0.299   5.900   6.520
 3889TIP3    H211609   0.380   6.027   6.505
 3890TIP3   OH211610   5.378   3.973   0.842
 3890TIP3    H111611   5.283   3.980   0.852
 3890TIP3    H211612   5.409   4.064   0.846
 3891TIP3   OH211613   1.739   2.258   6.258
 3891TIP3    H111614   1.671   2.309   6.302
 3891TIP3    H211615   1.719   2.167   6.281
 3892TIP3   OH211616   0.861   2.689   3.706
 3892TIP3    H111617   0.834   2.609   3.751
 3892TIP3    H211618   0.783   2.719   3.660
 3893TIP3   OH211619   7.325   2.054   1.831
 3893TIP3    H111620   7.323   2.096   1.745
 3893TIP3    H211621   7.418   2.040   1.848
 3894TIP3   OH211622   8.072   4.440   4.109
 3894TIP3    H111623   8.064   4.534   4.120
 3894TIP3    H211624   8.026   4.403   4.184
 3895TIP3   OH211625   5.532   2.371   3.718
 3895TIP3    H111626   5.537   2.430   3.643
 3895TIP3    H211627   5.612   2.319   3.712
 3896TIP3   OH211628   2.406   6.364   4.475
 3896TIP3    H111629   2.315   6.385   4.456
 3896TIP3    H211630   2.422   6.282   4.428
 3897TIP3   OH211631   1.389   0.625   4.428
 3897TIP3    H111632   1.311   0.664   4.388
 3897TIP3    H211633   1.449   0.698   4.440
 3898TIP3   OH211634   5.902   3.026   3.762
 3898TIP3    H111635   5.948   2.948   3.733
 3898TIP3    H211636   5.814   2.995   3.783
 3899TIP3   OH211637   0.372   1.948   4.602
 3899TIP3    H111638   0.296   1.991   4.564
 3899TIP3    H211639   0.335   1.885   4.664
 3900TIP3   OH211640   3.894   2.354   0.178
 3900TIP3    H111641   3.930   2.279   0.131
 3900TIP3    H211642   3.891   2.326   0.269
 3901TIP3   OH211643   5.241   6.902   0.573
 3901TIP3    H111644   5.264   6.837   0.507
 3901TIP3    H211645   5.285   6.871   0.653
 3902TIP3   OH211646   7.426   3.400   1.847
 3902TIP3    H111647   7.363   3.427   1.780
 3902TIP3    H211648   7.508   3.387   1.799
 3903TIP3   OH211649   5.085   7.736   2.224
 3903TIP3    H111650   5.003   7.706   2.264
 3903TIP3    H211651   5.110   7.813   2.275
 3904TIP3   OH211652   4.612   2.795   3.032
 3904TIP3    H111653   4.618   2.779   3.126
 3904TIP3    H211654   4.646   2.716   2.991
 3905TIP3   OH211655   0.390   0.511   5.105
 3905TIP3    H111656   0.430   0.485   5.188
 3905TIP3    H211657   0.421   0.445   5.042
 3906TIP3   OH211658   2.993   5.439   4.589
 3906TIP3    H111659   3.011   5.346   4.576
 3906TIP3    H211660   2.989   5.450   4.684
 3907TIP3   OH211661   4.374   6.292   0.672
 3907TIP3    H111662   4.290   6.338   0.669
 3907TIP3    H211663   4.353   6.207   0.711
 3908TIP3   OH211664   8.068   5.258   5.100
 3908TIP3    H111665   8.137   5.195   5.080
 3908TIP3    H211666   8.045   5.241   5.192
 3909TIP3   OH211667   1.456   2.074   6.731
 3909TIP3    H111668   1.418   2.010   6.670
 3909TIP3    H211669   1.405   2.153   6.718
 3910TIP3   OH211670   4.105   0.541   6.619
 3910TIP3    H111671   4.139   0.576   6.702
 3910TIP3    H211672   4.068   0.617   6.575
 3911TIP3   OH211673   0.636   2.230   1.296
 3911TIP3    H111674   0.603   2.164   1.235
 3911TIP3    H211675   0.570   2.299   1.295
 3912TIP3   OH211676   1.071   7.832   4.275
 3912TIP3    H111677   1.020   7.889   4.218
 3912TIP3    H211678   1.026   7.747   4.269
 3913TIP3   OH211679   5.160   2.607   4.693
 3913TIP3    H111680   5.179   2.582   4.603
 3913TIP3    H211681   5.132   2.698   4.688
 3914TIP3   OH211682   0.021   5.809   0.924
 3914TIP3    H111683   0.035   5.716   0.905
 3914TIP3    H211684  -0.072   5.815   0.945
 3915TIP3   OH211685   0.272   1.960   0.099
 3915TIP3    H111686   0.328   1.996   0.031
 3915TIP3    H211687   0.246   2.036   0.151
 3916TIP3   OH211688   8.226   7.524   3.723
 3916TIP3    H111689   8.293   7.468   3.683
 3916TIP3    H211690   8.169   7.548   3.650
 3917TIP3   OH211691   0.196   2.978   4.621
 3917TIP3    H111692   0.194   3.025   4.538
 3917TIP3    H211693   0.191   2.885   4.596
 3918TIP3   OH211694   0.314   3.367   2.589
 3918TIP3    H111695   0.255   3.302   2.552
 3918TIP3    H211696   0.395   3.319   2.607
 3919TIP3   OH211697   3.362   6.848   1.895
 3919TIP3    H111698   3.270   6.871   1.885
 3919TIP3    H211699   3.406   6.894   1.824
 3920TIP3   OH211700   1.905   6.898   5.973
 3920TIP3    H111701   1.972   6.841   6.010
 3920TIP3    H211702   1.949   6.982   5.958
 3921TIP3   OH211703   2.170   2.638   4.099
 3921TIP3    H111704   2.188   2.628   4.193
 3921TIP3    H211705   2.094   2.581   4.084
 3922TIP3   OH211706   4.368   0.123   3.482
 3922TIP3    H111707   4.328   0.180   3.416
 3922TIP3    H211708   4.444   0.085   3.438
 3923TIP3   OH211709   3.998   1.723   1.386
 3923TIP3    H111710   3.921   1.752   1.434
 3923TIP3    H211711   4.064   1.708   1.454
 3924TIP3   OH211712   2.725   0.083   2.592
 3924TIP3    H111713   2.778   0.010   2.558
 3924TIP3    H211714   2.789   0.142   2.632
 3925TIP3   OH211715   1.299   6.462   3.541
 3925TIP3    H111716   1.323   6.552   3.521
 3925TIP3    H211717   1.353   6.438   3.615
 3926TIP3   OH211718   5.931   0.625   5.288
 3926TIP3    H111719   5.949   0.585   5.373
 3926TIP3    H211720   5.954   0.717   5.299
 3927TIP3   OH211721   8.303   3.252   4.222
 3927TIP3    H111722   8.220   3.213   4.195
 3927TIP3    H211723   8.287   3.288   4.309
 3928TIP3   OH211724   7.416   1.964   3.291
 3928TIP3    H111725   7.355   2.020   3.339
 3928TIP3    H211726   7.486   2.022   3.262
 3929TIP3   OH211727   2.668   7.757   6.448
 3929TIP3    H111728   2.577   7.734   6.468
 3929TIP3    H211729   2.712   7.755   6.533
 3930TIP3   OH211730   3.842   7.102   1.097
 3930TIP3    H111731   3.837   7.187   1.141
 3930TIP3    H211732   3.789   7.114   1.018
 3931TIP3   OH211733   6.374   7.829   0.348
 3931TIP3    H111734   6.429   7.883   0.290
 3931TIP3    H211735   6.292   7.879   0.356
 3932TIP3   OH211736   0.860   3.691   4.793
 3932TIP3    H111737   0.812   3.744   4.857
 3932TIP3    H211738   0.840   3.731   4.709
 3933TIP3   OH211739   5.164   3.502   1.224
 3933TIP3    H111740   5.110   3.561   1.277
 3933TIP3    H211741   5.239   3.482   1.280
 3934TIP3   OH211742   2.115   4.004   6.033
 3934TIP3    H111743   2.036   4.033   6.079
 3934TIP3    H211744   2.165   3.956   6.099
 3935TIP3   OH211745   0.832   4.851   0.609
 3935TIP3    H111746   0.752   4.846   0.558
 3935TIP3    H211747   0.861   4.942   0.600
 3936TIP3   OH211748   0.074   1.166   1.635
 3936TIP3    H111749   0.165   1.164   1.605
 3936TIP3    H211750   0.028   1.217   1.569
 3937TIP3   OH211751   7.888   3.299   5.545
 3937TIP3    H111752   7.802   3.279   5.584
 3937TIP3    H211753   7.920   3.373   5.597
 3938TIP3   OH211754   6.269   2.037   6.101
 3938TIP3    H111755   6.173   2.027   6.106
 3938TIP3    H211756   6.282   2.130   6.080
 3939TIP3   OH211757   7.341   0.200   3.968
 3939TIP3    H111758   7.309   0.285   3.999
 3939TIP3    H211759   7.399   0.169   4.038
 3940TIP3   OH211760   5.414   4.486   5.464
 3940TIP3    H111761   5.412   4.466   5.558
 3940TIP3    H211762   5.382   4.576   5.458
 3941TIP3   OH211763   1.562   3.615   6.515
 3941TIP3    H111764   1.538   3.549   6.449
 3941TIP3    H211765   1.653   3.594   6.538
 3942TIP3   OH211766   7.900   6.490   5.876
 3942TIP3    H111767   7.949   6.416   5.841
 3942TIP3    H211768   7.884   6.467   5.967
 3943TIP3   OH211769   6.393   5.345   2.453
 3943TIP3    H111770   6.330   5.277   2.428
 3943TIP3    H211771   6.469   5.327   2.397
 3944TIP3   OH211772   5.170   7.847   6.456
 3944TIP3    H111773   5.147   7.939   6.463
 3944TIP3    H211774   5.189   7.834   6.363
 3945TIP3   OH211775   0.879   0.653   1.627
 3945TIP3    H111776   0.959   0.681   1.583
 3945TIP3    H211777   0.867   0.562   1.600
 3946TIP3   OH211778   3.506   4.572   3.549
 3946TIP3    H111779   3.453   4.620   3.486
 3946TIP3    H211780   3.597   4.589   3.522
 3947TIP3   OH211781   6.947   1.412   5.400
 3947TIP3    H111782   6.933   1.343   5.464
 3947TIP3    H211783   6.869   1.466   5.405
 3948TIP3   OH211784   2.636   3.515   0.631
 3948TIP3    H111785   2.569   3.482   0.691
 3948TIP3    H211786   2.713   3.462   0.651
 3949TIP3   OH211787   5.291   6.080   5.277
 3949TIP3    H111788   5.322   6.022   5.207
 3949TIP3    H211789   5.196   6.065   5.279
 3950TIP3   OH211790   1.399   7.158   1.478
 3950TIP3    H111791   1.426   7.233   1.530
 3950TIP3    H211792   1.441   7.083   1.519
 3951TIP3   OH211793   4.616   0.813   0.077
 3951TIP3    H111794   4.593   0.837  -0.013
 3951TIP3    H211795   4.638   0.720   0.072
 3952TIP3   OH211796   1.813   6.592   0.983
 3952TIP3    H111797   1.848   6.506   0.960
 3952TIP3    H211798   1.858   6.615   1.065
 3953TIP3   OH211799   6.481   3.173   3.114
 3953TIP3    H111800   6.396   3.203   3.146
 3953TIP3    H211801   6.482   3.080   3.133
 3954TIP3   OH211802   1.600   5.057   3.868
 3954TIP3    H111803   1.639   5.014   3.792
 3954TIP3    H211804   1.587   5.148   3.841
 3955TIP3   OH211805   6.540   2.901   3.580
 3955TIP3    H111806   6.571   2.863   3.497
 3955TIP3    H211807   6.469   2.843   3.607
 3956TIP3   OH211808   5.741   5.911   1.897
 3956TIP3    H111809   5.683   5.987   1.887
 3956TIP3    H211810   5.682   5.836   1.902
 3957TIP3   OH211811   5.595   1.717   1.944
 3957TIP3    H111812   5.534   1.702   2.017
 3957TIP3    H211813   5.629   1.805   1.958
 3958TIP3   OH211814   3.922   1.473   2.783
 3958TIP3    H111815   3.861   1.433   2.845
 3958TIP3    H211816   3.949   1.555   2.826
 3959TIP3   OH211817   4.246   0.460   3.506
 3959TIP3    H111818   4.300   0.537   3.490
 3959TIP3    H211819   4.225   0.427   3.419
 3960TIP3   OH211820   1.544   3.312   5.785
 3960TIP3    H111821   1.464   3.347   5.825
 3960TIP3    H211822   1.614   3.370   5.818
 3961TIP3   OH211823   2.711   7.176   5.080
 3961TIP3    H111824   2.709   7.093   5.033
 3961TIP3    H211825   2.657   7.235   5.027
 3962TIP3   OH211826   3.289   3.788   2.543
 3962TIP3    H111827   3.199   3.802   2.573
 3962TIP3    H211828   3.342   3.797   2.623
 3963TIP3   OH211829   6.003   7.792   1.472
 3963TIP3    H111830   6.074   7.804   1.409
 3963TIP3    H211831   6.044   7.807   1.558
 3964TIP3   OH211832   4.103   0.912   2.946
 3964TIP3    H111833   4.149   0.956   3.018
 3964TIP3    H211834   4.173   0.884   2.886
 3965TIP3   OH211835   6.588   3.747   1.433
 3965TIP3    H111836   6.501   3.757   1.396
 3965TIP3    H211837   6.574   3.716   1.522
 3966TIP3   OH211838   8.009   0.570   0.478
 3966TIP3    H111839   8.068   0.516   0.425
 3966TIP3    H211840   8.067   0.621   0.534
 3967TIP3   OH211841   2.138   7.557   4.959
 3967TIP3    H111842   2.049   7.524   4.945
 3967TIP3    H211843   2.183   7.486   5.004
 3968TIP3   OH211844   4.323   0.665   5.584
 3968TIP3    H111845   4.312   0.677   5.490
 3968TIP3    H211846   4.309   0.571   5.597
 3969TIP3   OH211847   3.996   6.525   4.701
 3969TIP3    H111848   4.077   6.544   4.654
 3969TIP3    H211849   4.005   6.571   4.784
 3970TIP3   OH211850   8.319   1.849   3.873
 3970TIP3    H111851   8.281   1.761   3.873
 3970TIP3    H211852   8.296   1.885   3.959
 3971TIP3   OH211853   7.521   5.269   0.099
 3971TIP3    H111854   7.594   5.269   0.037
 3971TIP3    H211855   7.442   5.271   0.044
 3972TIP3   OH211856   7.402   0.280   3.675
 3972TIP3    H111857   7.355   0.259   3.755
 3972TIP3    H211858   7.492   0.296   3.703
 3973TIP3   OH211859   4.725   3.206   5.599
 3973TIP3    H111860   4.734   3.253   5.516
 3973TIP3    H211861   4.814   3.176   5.619
 3974TIP3   OH211862   2.116   1.234   5.992
 3974TIP3    H111863   2.056   1.250   6.065
 3974TIP3    H211864   2.129   1.139   5.991
 3975TIP3   OH211865   0.412   5.213   2.994
 3975TIP3    H111866   0.353   5.264   2.938
 3975TIP3    H211867   0.444   5.276   3.059
 3976TIP3   OH211868   1.775   2.914   5.658
 3976TIP3    H111869   1.850   2.875   5.702
 3976TIP3    H211870   1.813   2.970   5.590
 3977TIP3   OH211871   3.111   1.712   4.583
 3977TIP3    H111872   3.067   1.627   4.590
 3977TIP3    H211873   3.047   1.775   4.616
 3978TIP3   OH211874   8.211   5.441   2.067
 3978TIP3    H111875   8.162   5.382   2.010
 3978TIP3    H211876   8.212   5.524   2.020
 3979TIP3   OH211877   1.390   2.589   1.077
 3979TIP3    H111878   1.296   2.596   1.096
 3979TIP3    H211879   1.405   2.653   1.008
 3980TIP3   OH211880   4.727   4.831   1.151
 3980TIP3    H111881   4.648   4.868   1.191
 3980TIP3    H211882   4.792   4.830   1.221
 3981TIP3   OH211883   7.982   3.833   3.824
 3981TIP3    H111884   8.073   3.809   3.808
 3981TIP3    H211885   7.980   3.858   3.917
 3982TIP3   OH211886   0.432   3.885   5.395
 3982TIP3    H111887   0.447   3.809   5.338
 3982TIP3    H211888   0.463   3.856   5.481
 3983TIP3   OH211889   0.698   3.428   2.235
 3983TIP3    H111890   0.749   3.506   2.256
 3983TIP3    H211891   0.607   3.454   2.249
 3984TIP3   OH211892   6.521   3.663   0.873
 3984TIP3    H111893   6.511   3.752   0.840
 3984TIP3    H211894   6.591   3.669   0.938
 3985TIP3   OH211895   2.616   3.583   2.209
 3985TIP3    H111896   2.709   3.564   2.213
 3985TIP3    H211897   2.610   3.664   2.159
 3986TIP3   OH211898   7.272   1.971   1.364
 3986TIP3    H111899   7.278   1.879   1.392
 3986TIP3    H211900   7.192   2.003   1.406
 3987TIP3   OH211901   1.508   4.348   3.562
 3987TIP3    H111902   1.573   4.352   3.632
 3987TIP3    H211903   1.559   4.347   3.482
 3988TIP3   OH211904   2.213   2.734   2.369
 3988TIP3    H111905   2.154   2.783   2.426
 3988TIP3    H211906   2.270   2.686   2.429
 3989TIP3   OH211907   6.467   1.884   4.785
 3989TIP3    H111908   6.472   1.789   4.801
 3989TIP3    H211909   6.494   1.924   4.867
 3990TIP3   OH211910   1.885   2.062   5.279
 3990TIP3    H111911   1.877   2.092   5.370
 3990TIP3    H211912   1.879   1.966   5.285
 3991TIP3   OH211913   5.678   6.385   1.599
 3991TIP3    H111914   5.704   6.322   1.666
 3991TIP3    H211915   5.636   6.456   1.647
 3992TIP3   OH211916   4.366   2.452   1.577
 3992TIP3    H111917   4.431   2.400   1.531
 3992TIP3    H211918   4.407   2.538   1.588
 3993TIP3   OH211919   0.461   3.055   1.318
 3993TIP3    H111920   0.442   2.989   1.250
 3993TIP3    H211921   0.553   3.076   1.305
 3994TIP3   OH211922   7.058   5.210   4.407
 3994TIP3    H111923   7.064   5.305   4.397
 3994TIP3    H211924   6.964   5.192   4.407
 3995TIP3   OH211925   1.551   3.772   1.347
 3995TIP3    H111926   1.538   3.851   1.294
 3995TIP3    H211927   1.621   3.795   1.408
 3996TIP3   OH211928   1.798   2.968   5.085
 3996TIP3    H111929   1.758   2.896   5.036
 3996TIP3    H211930   1.839   2.926   5.161
 3997TIP3   OH211931   2.239   4.461   0.563
 3997TIP3    H111932   2.328   4.484   0.590
 3997TIP3    H211933   2.244   4.367   0.542
 3998TIP3   OH211934   2.390   6.168   5.176
 3998TIP3    H111935   2.432   6.145   5.093
 3998TIP3    H211936   2.422   6.256   5.195
 3999TIP3   OH211937   5.635   2.070   3.972
 3999TIP3    H111938   5.559   2.066   3.914
 3999TIP3    H211939   5.710   2.071   3.913
 4000TIP3   OH211940   2.070   5.519   2.342
 4000TIP3    H111941   2.159   5.497   2.315
 4000TIP3    H211942   2.082   5.583   2.412
 4001TIP3   OH211943   6.636   4.452   1.745
 4001TIP3    H111944   6.655   4.484   1.833
 4001TIP3    H211945   6.575   4.380   1.758
 4002TIP3   OH211946   6.059   4.679   5.315
 4002TIP3    H111947   5.966   4.692   5.299
 4002TIP3    H211948   6.066   4.666   5.409
 4003TIP3   OH211949   3.887   1.476   1.819
 4003TIP3    H111950   3.835   1.556   1.812
 4003TIP3    H211951   3.912   1.456   1.728
 4004TIP3   OH211952   5.501   5.264   5.715
 4004TIP3    H111953   5.509   5.170   5.697
 4004TIP3    H211954   5.568   5.282   5.780
 4005TIP3   OH211955   7.029   1.693   1.631
 4005TIP3    H111956   7.061   1.736   1.552
 4005TIP3    H211957   6.940   1.724   1.641
 4006TIP3   OH211958   0.185   0.999   6.300
 4006TIP3    H111959   0.225   0.918   6.332
 4006TIP3    H211960   0.092   0.977   6.288
 4007TIP3   OH211961   8.107   1.874   6.444
 4007TIP3    H111962   8.064   1.862   6.529
 4007TIP3    H211963   8.034   1.888   6.382
 4008TIP3   OH211964   0.953   5.334   3.309
 4008TIP3    H111965   0.919   5.271   3.246
 4008TIP3    H211966   0.879   5.354   3.366
 4009TIP3   OH211967   1.225   0.287   6.720
 4009TIP3    H111968   1.189   0.374   6.737
 4009TIP3    H211969   1.295   0.278   6.785
 4010TIP3   OH211970   7.188   2.671   2.099
 4010TIP3    H111971   7.240   2.632   2.028
 4010TIP3    H211972   7.190   2.765   2.081
 4011TIP3   OH211973   4.377   0.209   0.713
 4011TIP3    H111974   4.457   0.243   0.753
 4011TIP3    H211975   4.360   0.267   0.639
 4012TIP3   OH211976   8.351   6.542   5.748
 4012TIP3    H111977   8.281   6.556   5.685
 4012TIP3    H211978   8.420   6.603   5.722
 4013TIP3   OH211979   5.626   0.609   2.382
 4013TIP3    H111980   5.589   0.569   2.304
 4013TIP3    H211981   5.572   0.687   2.398
 4014TIP3   OH211982   1.133   7.799   2.775
 4014TIP3    H111983   1.147   7.893   2.789
 4014TIP3    H211984   1.206   7.757   2.821
 4015TIP3   OH211985   4.180   3.777   2.592
 4015TIP3    H111986   4.196   3.742   2.680
 4015TIP3    H211987   4.103   3.729   2.561
 4016TIP3   OH211988   2.952   4.966   1.429
 4016TIP3    H111989   2.865   4.959   1.389
 4016TIP3    H211990   3.012   4.953   1.356
 4017TIP3   OH211991   7.850   4.616   6.323
 4017TIP3    H111992   7.821   4.606   6.414
 4017TIP3    H211993   7.782   4.670   6.282
 4018TIP3   OH211994   4.914   2.584   4.415
 4018TIP3    H111995   4.845   2.535   4.371
 4018TIP3    H211996   4.945   2.525   4.484
 4019TIP3   OH211997   3.314   2.576   2.039
 4019TIP3    H111998   3.366   2.564   1.959
 4019TIP3    H211999   3.232   2.531   2.021
 4020TIP3   OH212000   0.334   2.582   4.972
 4020TIP3    H112001   0.346   2.489   4.987
 4020TIP3    H212002   0.388   2.602   4.896
 4021TIP3   OH212003   8.120   2.002   5.021
 4021TIP3    H112004   8.179   1.927   5.019
 4021TIP3    H212005   8.105   2.023   4.929
 4022TIP3   OH212006   0.879   7.466   4.726
 4022TIP3    H112007   0.952   7.458   4.787
 4022TIP3    H212008   0.892   7.551   4.684
 4023TIP3   OH212009   3.916   1.489   4.756
 4023TIP3    H112010   3.867   1.570   4.745
 4023TIP3    H212011   3.918   1.451   4.668
 4024TIP3   OH212012   6.043   1.700   2.417
 4024TIP3    H112013   6.106   1.736   2.480
 4024TIP3    H212014   6.077   1.613   2.397
 4025TIP3   OH212015   8.178   2.719   2.178
 4025TIP3    H112016   8.190   2.770   2.259
 4025TIP3    H212017   8.261   2.673   2.167
 4026TIP3   OH212018   4.840   2.859   3.479
 4026TIP3    H112019   4.792   2.877   3.560
 4026TIP3    H212020   4.922   2.907   3.487
 4027TIP3   OH212021   3.304   6.700   3.085
 4027TIP3    H112022   3.240   6.770   3.075
 4027TIP3    H212023   3.253   6.625   3.117
 4028TIP3   OH212024   2.916   2.197   0.344
 4028TIP3    H112025   2.957   2.117   0.379
 4028TIP3    H212026   2.982   2.265   0.360
 4029TIP3   OH212027   5.239   5.773   4.990
 4029TIP3    H112028   5.282   5.815   4.915
 4029TIP3    H212029   5.169   5.721   4.950
 4030TIP3   OH212030   8.170   1.570   3.178
 4030TIP3    H112031   8.150   1.611   3.262
 4030TIP3    H212032   8.262   1.590   3.163
 4031TIP3   OH212033   1.974   0.622   2.247
 4031TIP3    H112034   2.005   0.682   2.315
 4031TIP3    H212035   2.040   0.552   2.245
 4032TIP3   OH212036   6.181   6.092   6.135
 4032TIP3    H112037   6.238   6.036   6.190
 4032TIP3    H212038   6.170   6.172   6.187
 4033TIP3   OH212039   6.027   6.960   5.382
 4033TIP3    H112040   6.063   6.978   5.294
 4033TIP3    H212041   6.048   7.039   5.432
 4034TIP3   OH212042   4.361   6.993   4.782
 4034TIP3    H112043   4.350   6.900   4.805
 4034TIP3    H212044   4.285   7.012   4.727
 4035TIP3   OH212045   1.578   4.716   4.344
 4035TIP3    H112046   1.544   4.745   4.428
 4035TIP3    H212047   1.637   4.644   4.365
 4036TIP3   OH212048   6.050   3.951   5.372
 4036TIP3    H112049   6.016   3.862   5.360
 4036TIP3    H212050   5.994   4.005   5.318
 4037TIP3   OH212051   5.637   2.310   2.399
 4037TIP3    H112052   5.696   2.360   2.455
 4037TIP3    H212053   5.693   2.278   2.328
 4038TIP3   OH212054   3.025   1.758   1.944
 4038TIP3    H112055   3.031   1.834   2.002
 4038TIP3    H212056   3.114   1.723   1.941
 4039TIP3   OH212057   6.880   7.094   2.593
 4039TIP3    H112058   6.920   7.053   2.670
 4039TIP3    H212059   6.829   7.024   2.552
 4040TIP3   OH212060   8.188   3.735   0.823
 4040TIP3    H112061   8.096   3.741   0.847
 4040TIP3    H212062   8.188   3.744   0.728
 4041TIP3   OH212063   1.761   0.288   1.426
 4041TIP3    H112064   1.708   0.221   1.468
 4041TIP3    H212065   1.849   0.276   1.461
 4042TIP3   OH212066   4.905   6.707   2.098
 4042TIP3    H112067   4.906   6.667   2.185
 4042TIP3    H212068   4.852   6.648   2.045
 4043TIP3   OH212069   7.992   7.286   6.835
 4043TIP3    H112070   8.050   7.221   6.876
 4043TIP3    H212071   7.995   7.265   6.742
 4044TIP3   OH212072   3.469   1.930   3.984
 4044TIP3    H112073   3.394   1.967   4.031
 4044TIP3    H212074   3.434   1.903   3.899
 4045TIP3   OH212075   2.602   5.249   0.511
 4045TIP3    H112076   2.573   5.341   0.515
 4045TIP3    H212077   2.605   5.221   0.603
 4046TIP3   OH212078   0.986   7.406   5.429
 4046TIP3    H112079   0.955   7.346   5.497
 4046TIP3    H212080   0.926   7.480   5.435
 4047TIP3   OH212081   2.008   3.568   6.293
 4047TIP3    H112082   2.044   3.539   6.209
 4047TIP3    H212083   2.083   3.608   6.338
 4048TIP3   OH212084   0.931   4.762   4.273
 4048TIP3    H112085   0.962   4.785   4.361
 4048TIP3    H212086   1.007   4.776   4.216
 4049TIP3   OH212087   1.320   0.606   3.945
 4049TIP3    H112088   1.414   0.610   3.964
 4049TIP3    H212089   1.282   0.567   4.024
 4050TIP3   OH212090   1.494   4.598   5.505
 4050TIP3    H112091   1.466   4.557   5.424
 4050TIP3    H212092   1.589   4.585   5.507
 4051TIP3   OH212093   3.480   2.769   1.501
 4051TIP3    H112094   3.550   2.757   1.437
 4051TIP3    H212095   3.522   2.756   1.586
 4052TIP3   OH212096   4.145   4.052   5.841
 4052TIP3    H112097   4.051   4.053   5.821
 4052TIP3    H212098   4.185   4.014   5.763
 4053TIP3   OH212099   7.440   6.018   4.990
 4053TIP3    H112100   7.398   6.067   4.918
 4053TIP3    H212101   7.517   5.978   4.950
 4054TIP3   OH212102   4.850   4.667   1.598
 4054TIP3    H112103   4.774   4.717   1.568
 4054TIP3    H212104   4.910   4.733   1.633
 4055TIP3   OH212105   2.748   0.207   1.923
 4055TIP3    H112106   2.725   0.116   1.904
 4055TIP3    H212107   2.678   0.258   1.882
 4056TIP3   OH212108   0.041   2.944   6.712
 4056TIP3    H112109   0.098   2.881   6.668
 4056TIP3    H212110   0.028   2.908   6.799
 4057TIP3   OH212111   8.297   3.785   1.626
 4057TIP3    H112112   8.353   3.710   1.642
 4057TIP3    H212113   8.259   3.806   1.711
 4058TIP3   OH212114   7.323   3.890   4.916
 4058TIP3    H112115   7.303   3.974   4.874
 4058TIP3    H212116   7.356   3.834   4.845
 4059TIP3   OH212117   2.477   6.138   4.325
 4059TIP3    H112118   2.530   6.069   4.285
 4059TIP3    H212119   2.454   6.105   4.411
 4060TIP3   OH212120   7.971   7.204   6.587
 4060TIP3    H112121   8.021   7.237   6.513
 4060TIP3    H212122   7.885   7.184   6.551
 4061TIP3   OH212123   8.325   4.556   0.189
 4061TIP3    H112124   8.356   4.470   0.217
 4061TIP3    H212125   8.404   4.601   0.157
 4062TIP3   OH212126   0.991   3.784   5.691
 4062TIP3    H112127   1.020   3.692   5.690
 4062TIP3    H212128   0.925   3.788   5.621
 4063TIP3   OH212129   7.942   1.954   1.885
 4063TIP3    H112130   7.854   1.992   1.879
 4063TIP3    H212131   7.928   1.859   1.886
 4064TIP3   OH212132   4.703   4.293   4.068
 4064TIP3    H112133   4.768   4.222   4.067
 4064TIP3    H212134   4.703   4.327   3.978
 4065TIP3   OH212135   3.260   7.232   2.529
 4065TIP3    H112136   3.296   7.251   2.443
 4065TIP3    H212137   3.187   7.293   2.538
 4066TIP3   OH212138   0.091   1.422   2.675
 4066TIP3    H112139   0.145   1.344   2.663
 4066TIP3    H212140   0.087   1.462   2.588
 4067TIP3   OH212141   6.790   3.855   4.257
 4067TIP3    H112142   6.829   3.792   4.197
 4067TIP3    H212143   6.717   3.808   4.298
 4068TIP3   OH212144   7.511   6.693   0.963
 4068TIP3    H112145   7.468   6.649   1.036
 4068TIP3    H212146   7.566   6.626   0.922
 4069TIP3   OH212147   6.842   2.767   0.525
 4069TIP3    H112148   6.803   2.724   0.449
 4069TIP3    H212149   6.769   2.776   0.588
 4070TIP3   OH212150   8.190   6.724   6.576
 4070TIP3    H112151   8.122   6.671   6.534
 4070TIP3    H212152   8.142   6.799   6.613
 4071TIP3   OH212153   7.140   2.347   3.773
 4071TIP3    H112154   7.189   2.420   3.736
 4071TIP3    H212155   7.108   2.298   3.696
 4072TIP3   OH212156   5.858   0.196   5.727
 4072TIP3    H112157   5.809   0.134   5.780
 4072TIP3    H212158   5.903   0.142   5.662
 4073TIP3   OH212159   2.550   0.996   3.948
 4073TIP3    H112160   2.575   0.974   3.858
 4073TIP3    H212161   2.526   0.912   3.987
 4074TIP3   OH212162   7.465   2.366   1.134
 4074TIP3    H112163   7.507   2.360   1.220
 4074TIP3    H212164   7.536   2.391   1.075
 4075TIP3   OH212165   1.341   2.580   6.795
 4075TIP3    H112166   1.402   2.626   6.852
 4075TIP3    H212167   1.256   2.587   6.840
 4076TIP3   OH212168   5.928   3.051   0.971
 4076TIP3    H112169   5.940   3.045   0.876
 4076TIP3    H212170   5.911   2.961   0.999
 4077TIP3   OH212171   1.040   4.085   3.159
 4077TIP3    H112172   1.125   4.079   3.116
 4077TIP3    H212173   1.036   4.009   3.216
 4078TIP3   OH212174   7.344   3.040   4.853
 4078TIP3    H112175   7.320   3.002   4.769
 4078TIP3    H212176   7.261   3.068   4.892
 4079TIP3   OH212177   6.278   2.497   3.582
 4079TIP3    H112178   6.238   2.419   3.620
 4079TIP3    H212179   6.333   2.464   3.511
 4080TIP3   OH212180   7.470   0.808   5.777
 4080TIP3    H112181   7.513   0.732   5.739
 4080TIP3    H212182   7.391   0.774   5.817
 4081TIP3   OH212183   4.586   2.060   6.133
 4081TIP3    H112184   4.492   2.043   6.124
 4081TIP3    H212185   4.590   2.148   6.170
 4082TIP3   OH212186   4.350   0.959   0.907
 4082TIP3    H112187   4.283   1.001   0.960
 4082TIP3    H212188   4.414   0.927   0.970
 4083TIP3   OH212189   7.282   7.235   4.066
 4083TIP3    H112190   7.190   7.242   4.039
 4083TIP3    H212191   7.321   7.318   4.039
 4084TIP3   OH212192   0.655   6.081   1.096
 4084TIP3    H112193   0.634   6.093   1.189
 4084TIP3    H212194   0.720   6.011   1.095
 4085TIP3   OH212195   2.619   0.667   6.330
 4085TIP3    H112196   2.709   0.661   6.296
 4085TIP3    H212197   2.564   0.668   6.251
 4086TIP3   OH212198   4.572   4.959   2.175
 4086TIP3    H112199   4.523   5.011   2.239
 4086TIP3    H212200   4.590   5.021   2.103
 4087TIP3   OH212201   7.359   1.784   6.719
 4087TIP3    H112202   7.349   1.848   6.649
 4087TIP3    H212203   7.453   1.769   6.726
 4088TIP3   OH212204   1.885   4.448   0.770
 4088TIP3    H112205   1.894   4.540   0.795
 4088TIP3    H212206   1.906   4.446   0.677
 4089TIP3   OH212207   2.736   2.793   5.234
 4089TIP3    H112208   2.788   2.840   5.168
 4089TIP3    H212209   2.662   2.758   5.184
 4090TIP3   OH212210   4.752   0.720   0.888
 4090TIP3    H112211   4.723   0.680   0.970
 4090TIP3    H212212   4.693   0.684   0.821
 4091TIP3   OH212213   1.424   5.463   6.478
 4091TIP3    H112214   1.476   5.388   6.451
 4091TIP3    H212215   1.373   5.431   6.553
 4092TIP3   OH212216   2.170   1.605   0.572
 4092TIP3    H112217   2.252   1.653   0.581
 4092TIP3    H212218   2.158   1.594   0.478
 4093TIP3   OH212219   2.829   6.521   1.079
 4093TIP3    H112220   2.865   6.477   1.003
 4093TIP3    H212221   2.898   6.582   1.107
 4094TIP3   OH212222   3.832   3.383   4.668
 4094TIP3    H112223   3.754   3.422   4.708
 4094TIP3    H212224   3.834   3.293   4.701
 4095TIP3   OH212225   3.030   5.085   4.708
 4095TIP3    H112226   3.100   5.044   4.758
 4095TIP3    H212227   3.073   5.121   4.630
 4096TIP3   OH212228   7.161   4.352   0.490
 4096TIP3    H112229   7.130   4.437   0.460
 4096TIP3    H212230   7.254   4.366   0.509
 4097TIP3   OH212231   0.501   1.809   0.149
 4097TIP3    H112232   0.540   1.892   0.177
 4097TIP3    H212233   0.407   1.826   0.148
 4098TIP3   OH212234   6.298   6.458   6.457
 4098TIP3    H112235   6.311   6.534   6.399
 4098TIP3    H212236   6.208   6.468   6.489
 4099TIP3   OH212237   4.460   5.723   5.499
 4099TIP3    H112238   4.535   5.703   5.443
 4099TIP3    H212239   4.467   5.661   5.572
 4100TIP3   OH212240   3.052   2.680   5.225
 4100TIP3    H112241   2.996   2.742   5.178
 4100TIP3    H212242   3.045   2.599   5.175
 4101TIP3   OH212243   3.996   1.803   0.426
 4101TIP3    H112244   4.022   1.766   0.510
 4101TIP3    H212245   4.064   1.868   0.406
 4102TIP3   OH212246   1.510   6.224   3.647
 4102TIP3    H112247   1.529   6.181   3.563
 4102TIP3    H212248   1.588   6.276   3.666
 4103TIP3   OH212249   2.417   6.671   4.450
 4103TIP3    H112250   2.392   6.636   4.364
 4103TIP3    H212251   2.438   6.594   4.502
 4104TIP3   OH212252   5.042   0.162   6.328
 4104TIP3    H112253   4.988   0.204   6.261
 4104TIP3    H212254   5.031   0.068   6.312
 4105TIP3   OH212255   4.740   1.926   5.570
 4105TIP3    H112256   4.727   1.831   5.569
 4105TIP3    H212257   4.729   1.950   5.662
 4106TIP3   OH212258   5.905   4.846   0.084
 4106TIP3    H112259   5.909   4.848  -0.012
 4106TIP3    H212260   5.819   4.883   0.105
 4107TIP3   OH212261   0.052   0.847   4.362
 4107TIP3    H112262   0.095   0.799   4.433
 4107TIP3    H212263   0.124   0.887   4.313
 4108TIP3   OH212264   7.983   2.720   5.103
 4108TIP3    H112265   7.911   2.760   5.055
 4108TIP3    H212266   8.055   2.783   5.094
 4109TIP3   OH212267   2.019   3.927   1.372
 4109TIP3    H112268   2.026   3.892   1.283
 4109TIP3    H212269   2.060   4.014   1.367
 4110TIP3   OH212270   4.776   4.054   2.430
 4110TIP3    H112271   4.769   4.109   2.507
 4110TIP3    H212272   4.848   4.091   2.379
 4111TIP3   OH212273   5.399   4.990   4.687
 4111TIP3    H112274   5.420   5.083   4.696
 4111TIP3    H212275   5.445   4.963   4.608
 4112TIP3   OH212276   7.029   1.792   4.539
 4112TIP3    H112277   6.986   1.823   4.459
 4112TIP3    H212278   7.012   1.861   4.603
 4113TIP3   OH212279   6.555   6.283   5.301
 4113TIP3    H112280   6.508   6.289   5.218
 4113TIP3    H212281   6.541   6.368   5.342
 4114TIP3   OH212282   1.741   3.510   4.970
 4114TIP3    H112283   1.738   3.425   5.016
 4114TIP3    H212284   1.811   3.499   4.905
 4115TIP3   OH212285   1.596   0.139   1.586
 4115TIP3    H112286   1.543   0.081   1.641
 4115TIP3    H212287   1.677   0.151   1.635
 4116TIP3   OH212288   5.435   4.154   2.636
 4116TIP3    H112289   5.475   4.080   2.683
 4116TIP3    H212290   5.398   4.209   2.704
 4117TIP3   OH212291   5.029   7.855   5.237
 4117TIP3    H112292   4.946   7.821   5.204
 4117TIP3    H212293   5.088   7.780   5.236
 4118TIP3   OH212294   0.705   6.153   4.942
 4118TIP3    H112295   0.709   6.248   4.926
 4118TIP3    H212296   0.778   6.117   4.893
 4119TIP3   OH212297   1.587   1.562   1.357
 4119TIP3    H112298   1.632   1.614   1.291
 4119TIP3    H212299   1.634   1.479   1.360
 4120TIP3   OH212300   8.038   1.127   4.691
 4120TIP3    H112301   8.106   1.195   4.687
 4120TIP3    H212302   7.986   1.150   4.768
 4121TIP3   OH212303   1.427   7.510   6.173
 4121TIP3    H112304   1.443   7.542   6.084
 4121TIP3    H212305   1.366   7.573   6.211
 4122TIP3   OH212306   4.262   0.293   3.281
 4122TIP3    H112307   4.238   0.255   3.197
 4122TIP3    H212308   4.335   0.352   3.262
 4123TIP3   OH212309   3.243   0.785   4.754
 4123TIP3    H112310   3.213   0.725   4.822
 4123TIP3    H212311   3.314   0.738   4.710
 4124TIP3   OH212312   1.905   1.275   2.481
 4124TIP3    H112313   1.942   1.333   2.415
 4124TIP3    H212314   1.831   1.325   2.518
 4125TIP3   OH212315   7.955   2.681   6.462
 4125TIP3    H112316   7.927   2.607   6.408
 4125TIP3    H212317   7.991   2.640   6.541
 4126TIP3   OH212318   2.074   0.739   0.919
 4126TIP3    H112319   2.017   0.702   0.986
 4126TIP3    H212320   2.135   0.668   0.898
 4127TIP3   OH212321   0.340   1.827   5.699
 4127TIP3    H112322   0.357   1.738   5.669
 4127TIP3    H212323   0.397   1.882   5.645
 4128TIP3   OH212324   4.621   5.964   5.349
 4128TIP3    H112325   4.700   5.937   5.396
 4128TIP3    H212326   4.550   5.918   5.393
 4129TIP3   OH212327   4.188   7.180   1.631
 4129TIP3    H112328   4.269   7.229   1.639
 4129TIP3    H212329   4.127   7.223   1.692
 4130TIP3   OH212330   8.296   6.656   4.604
 4130TIP3    H112331   8.241   6.687   4.677
 4130TIP3    H212332   8.384   6.650   4.642
 4131TIP3   OH212333   0.109   5.809   0.240
 4131TIP3    H112334   0.019   5.799   0.270
 4131TIP3    H212335   0.114   5.900   0.209
 4132TIP3   OH212336   8.114   4.463   5.151
 4132TIP3    H112337   8.140   4.376   5.181
 4132TIP3    H212338   8.162   4.524   5.208
 4133TIP3   OH212339   0.781   3.071   3.808
 4133TIP3    H112340   0.724   3.049   3.882
 4133TIP3    H212341   0.736   3.142   3.764
 4134TIP3   OH212342   1.706   5.088   2.038
 4134TIP3    H112343   1.774   5.147   2.006
 4134TIP3    H212344   1.710   5.098   2.133
 4135TIP3   OH212345   6.785   6.848   6.087
 4135TIP3    H112346   6.863   6.807   6.050
 4135TIP3    H212347   6.803   6.942   6.082
 4136TIP3   OH212348   3.526   3.947   5.161
 4136TIP3    H112349   3.613   3.910   5.149
 4136TIP3    H212350   3.467   3.881   5.125
 4137TIP3   OH212351   3.455   4.650   4.152
 4137TIP3    H112352   3.380   4.639   4.092
 4137TIP3    H212353   3.528   4.673   4.095
 4138TIP3   OH212354   1.598   4.930   1.820
 4138TIP3    H112355   1.640   4.942   1.906
 4138TIP3    H212356   1.597   4.835   1.808
 4139TIP3   OH212357   5.422   4.790   5.962
 4139TIP3    H112358   5.406   4.708   6.010
 4139TIP3    H212359   5.479   4.764   5.889
 4140TIP3   OH212360   3.183   7.191   6.421
 4140TIP3    H112361   3.116   7.246   6.381
 4140TIP3    H212362   3.181   7.109   6.371
 4141TIP3   OH212363   6.651   7.286   1.081
 4141TIP3    H112364   6.637   7.370   1.039
 4141TIP3    H212365   6.669   7.308   1.173
 4142TIP3   OH212366   5.065   1.929   5.605
 4142TIP3    H112367   4.971   1.933   5.588
 4142TIP3    H212368   5.084   2.009   5.654
 4143TIP3   OH212369   7.335   2.751   6.430
 4143TIP3    H112370   7.367   2.669   6.467
 4143TIP3    H212371   7.367   2.818   6.491
 4144TIP3   OH212372   2.796   5.144   0.721
 4144TIP3    H112373   2.806   5.154   0.627
 4144TIP3    H212374   2.823   5.229   0.758
 4145TIP3   OH212375   6.607   6.633   2.889
 4145TIP3    H112376   6.515   6.629   2.862
 4145TIP3    H212377   6.643   6.548   2.862
 4146TIP3   OH212378   8.209   1.118   3.868
 4146TIP3    H112379   8.270   1.105   3.940
 4146TIP3    H212380   8.229   1.206   3.835
 4147TIP3   OH212381   0.700   2.326   5.047
 4147TIP3    H112382   0.726   2.316   5.139
 4147TIP3    H212383   0.606   2.340   5.049
 4148TIP3   OH212384   5.735   6.146   3.419
 4148TIP3    H112385   5.775   6.062   3.398
 4148TIP3    H212386   5.797   6.211   3.387
 4149TIP3   OH212387   2.883   4.107   1.791
 4149TIP3    H112388   2.801   4.156   1.784
 4149TIP3    H212389   2.921   4.111   1.704
 4150TIP3   OH212390   5.159   6.322   0.398
 4150TIP3    H112391   5.123   6.410   0.401
 4150TIP3    H212392   5.131   6.288   0.313
 4151TIP3   OH212393   3.578   0.280   5.408
 4151TIP3    H112394   3.557   0.339   5.480
 4151TIP3    H212395   3.493   0.255   5.372
 4152TIP3   OH212396   1.156   2.288   4.299
 4152TIP3    H112397   1.094   2.236   4.247
 4152TIP3    H212398   1.102   2.355   4.341
 4153TIP3   OH212399   5.283   5.244   6.495
 4153TIP3    H112400   5.266   5.301   6.420
 4153TIP3    H212401   5.365   5.200   6.474
 4154TIP3   OH212402   1.652   5.194   5.362
 4154TIP3    H112403   1.718   5.127   5.378
 4154TIP3    H212404   1.701   5.276   5.362
 4155TIP3   OH212405   0.484   3.144   4.442
 4155TIP3    H112406   0.491   3.187   4.357
 4155TIP3    H212407   0.472   3.051   4.421
 4156TIP3   OH212408   6.724   2.831   1.948
 4156TIP3    H112409   6.709   2.867   1.861
 4156TIP3    H212410   6.636   2.820   1.985
 4157TIP3   OH212411   1.467   4.122   4.970
 4157TIP3    H112412   1.493   4.112   5.061
 4157TIP3    H212413   1.418   4.204   4.968
 4158TIP3   OH212414   4.893   0.811   4.487
 4158TIP3    H112415   4.944   0.882   4.447
 4158TIP3    H212416   4.953   0.737   4.488
 4159TIP3   OH212417   5.384   0.248   3.464
 4159TIP3    H112418   5.400   0.199   3.546
 4159TIP3    H212419   5.328   0.189   3.412
 4160TIP3   OH212420   0.168   7.127   1.255
 4160TIP3    H112421   0.201   7.113   1.344
 4160TIP3    H212422   0.082   7.085   1.254
 4161TIP3   OH212423   0.142   0.475   0.917
 4161TIP3    H112424   0.069   0.497   0.861
 4161TIP3    H212425   0.214   0.531   0.888
 4162TIP3   OH212426   0.381   0.936   1.130
 4162TIP3    H112427   0.337   0.978   1.204
 4162TIP3    H212428   0.449   0.998   1.104
 4163TIP3   OH212429   5.256   0.050   3.313
 4163TIP3    H112430   5.260  -0.038   3.351
 4163TIP3    H212431   5.272   0.036   3.220
 4164TIP3   OH212432   0.674   0.363   2.394
 4164TIP3    H112433   0.734   0.295   2.364
 4164TIP3    H212434   0.595   0.315   2.420
 4165TIP3   OH212435   8.022   5.333   1.206
 4165TIP3    H112436   8.007   5.428   1.205
 4165TIP3    H212437   8.067   5.317   1.289
 4166TIP3   OH212438   0.535   5.852   5.698
 4166TIP3    H112439   0.497   5.885   5.780
 4166TIP3    H212440   0.461   5.844   5.638
 4167TIP3   OH212441   3.839   2.624   6.486
 4167TIP3    H112442   3.882   2.584   6.562
 4167TIP3    H212443   3.763   2.567   6.470
 4168TIP3   OH212444   5.733   0.675   6.235
 4168TIP3    H112445   5.807   0.734   6.226
 4168TIP3    H212446   5.681   0.713   6.306
 4169TIP3   OH212447   4.088   7.687   6.849
 4169TIP3    H112448   4.043   7.769   6.827
 4169TIP3    H212449   4.178   7.702   6.821
 4170TIP3   OH212450   5.645   4.705   4.785
 4170TIP3    H112451   5.567   4.743   4.825
 4170TIP3    H212452   5.715   4.767   4.806
 4171TIP3   OH212453   0.106   5.397   4.407
 4171TIP3    H112454   0.145   5.313   4.381
 4171TIP3    H212455   0.120   5.401   4.502
 4172TIP3   OH212456   3.506   6.106   4.946
 4172TIP3    H112457   3.559   6.099   4.866
 4172TIP3    H212458   3.490   6.016   4.972
 4173TIP3   OH212459   8.114   3.132   5.587
 4173TIP3    H112460   8.123   3.144   5.492
 4173TIP3    H212461   8.036   3.184   5.609
 4174TIP3   OH212462   2.083   4.842   3.477
 4174TIP3    H112463   2.165   4.886   3.500
 4174TIP3    H212464   2.083   4.762   3.530
 4175TIP3   OH212465   3.276   1.439   4.789
 4175TIP3    H112466   3.302   1.381   4.861
 4175TIP3    H212467   3.355   1.488   4.768
 4176TIP3   OH212468   4.347   1.601   0.752
 4176TIP3    H112469   4.287   1.533   0.720
 4176TIP3    H212470   4.292   1.662   0.800
 4177TIP3   OH212471   7.567   7.829   0.778
 4177TIP3    H112472   7.490   7.854   0.728
 4177TIP3    H212473   7.583   7.903   0.837
 4178TIP3   OH212474   3.064   2.329   1.244
 4178TIP3    H112475   3.026   2.284   1.319
 4178TIP3    H212476   3.134   2.271   1.214
 4179TIP3   OH212477   1.217   6.383   2.392
 4179TIP3    H112478   1.264   6.339   2.463
 4179TIP3    H212479   1.200   6.471   2.425
 4180TIP3   OH212480   5.395   6.737   1.923
 4180TIP3    H112481   5.323   6.786   1.883
 4180TIP3    H212482   5.408   6.662   1.865
 4181TIP3   OH212483   5.892   6.692   1.304
 4181TIP3    H112484   5.843   6.744   1.240
 4181TIP3    H212485   5.974   6.671   1.259
 4182TIP3   OH212486   4.249   1.508   0.275
 4182TIP3    H112487   4.180   1.479   0.334
 4182TIP3    H212488   4.275   1.430   0.226
 4183TIP3   OH212489   1.628   6.510   4.920
 4183TIP3    H112490   1.570   6.470   4.984
 4183TIP3    H212491   1.716   6.493   4.954
 4184TIP3   OH212492   0.770   3.496   5.028
 4184TIP3    H112493   0.790   3.533   5.114
 4184TIP3    H212494   0.718   3.564   4.985
 4185TIP3   OH212495   8.150   7.767   6.577
 4185TIP3    H112496   8.152   7.800   6.667
 4185TIP3    H212497   8.124   7.842   6.524
 4186TIP3   OH212498   6.875   7.712   2.447
 4186TIP3    H112499   6.819   7.704   2.524
 4186TIP3    H212500   6.823   7.762   2.384
 4187TIP3   OH212501   2.593   7.175   4.699
 4187TIP3    H112502   2.685   7.159   4.720
 4187TIP3    H212503   2.584   7.146   4.608
 4188TIP3   OH212504   2.904   1.558   1.434
 4188TIP3    H112505   2.980   1.519   1.390
 4188TIP3    H212506   2.926   1.650   1.444
 4189TIP3   OH212507   5.097   7.486   0.415
 4189TIP3    H112508   5.148   7.567   0.400
 4189TIP3    H212509   5.153   7.433   0.472
 4190TIP3   OH212510   6.088   3.743   3.538
 4190TIP3    H112511   6.115   3.660   3.576
 4190TIP3    H212512   6.078   3.802   3.613
 4191TIP3   OH212513   2.068   7.161   0.339
 4191TIP3    H112514   2.002   7.163   0.270
 4191TIP3    H212515   2.037   7.093   0.400
 4192TIP3   OH212516   1.033   3.009   2.358
 4192TIP3    H112517   1.028   3.104   2.370
 4192TIP3    H212518   1.125   2.992   2.339
 4193TIP3   OH212519   1.077   0.032   5.048
 4193TIP3    H112520   1.070   0.023   5.143
 4193TIP3    H212521   0.987   0.021   5.016
 4194TIP3   OH212522   5.630   6.084   4.859
 4194TIP3    H112523   5.642   6.174   4.890
 4194TIP3    H212524   5.667   6.030   4.929
 4195TIP3   OH212525   7.501   7.440   5.663
 4195TIP3    H112526   7.511   7.492   5.583
 4195TIP3    H212527   7.579   7.461   5.714
 4196TIP3   OH212528   1.221   4.545   1.910
 4196TIP3    H112529   1.259   4.500   1.835
 4196TIP3    H212530   1.286   4.610   1.935
 4197TIP3   OH212531   2.519   5.782   1.224
 4197TIP3    H112532   2.568   5.761   1.145
 4197TIP3    H212533   2.437   5.731   1.216
 4198TIP3   OH212534   7.787   7.408   5.538
 4198TIP3    H112535   7.772   7.468   5.465
 4198TIP3    H212536   7.823   7.463   5.607
 4199TIP3   OH212537   5.885   5.843   5.570
 4199TIP3    H112538   5.842   5.893   5.501
 4199TIP3    H212539   5.870   5.752   5.546
 4200TIP3   OH212540   4.381   7.367   1.667
 4200TIP3    H112541   4.410   7.429   1.600
 4200TIP3    H212542   4.459   7.353   1.721
 4201TIP3   OH212543   8.363   2.219   0.699
 4201TIP3    H112544   8.286   2.171   0.669
 4201TIP3    H212545   8.336   2.258   0.782
 4202TIP3   OH212546   8.009   6.405   2.609
 4202TIP3    H112547   8.058   6.325   2.590
 4202TIP3    H212548   7.932   6.376   2.657
 4203TIP3   OH212549   2.055   3.420   2.332
 4203TIP3    H112550   2.095   3.343   2.374
 4203TIP3    H212551   1.965   3.420   2.364
 4204TIP3   OH212552   3.335   3.181   0.939
 4204TIP3    H112553   3.288   3.264   0.947
 4204TIP3    H212554   3.378   3.186   0.854
 4205TIP3   OH212555   6.072   0.655   1.195
 4205TIP3    H112556   6.085   0.745   1.165
 4205TIP3    H212557   6.145   0.606   1.156
 4206TIP3   OH212558   1.965   5.326   5.357
 4206TIP3    H112559   2.018   5.406   5.362
 4206TIP3    H212560   1.953   5.311   5.264
 4207TIP3   OH212561   6.116   4.941   2.179
 4207TIP3    H112562   6.118   4.950   2.083
 4207TIP3    H212563   6.080   4.853   2.193
 4208TIP3   OH212564   0.492   4.186   2.792
 4208TIP3    H112565   0.444   4.194   2.875
 4208TIP3    H212566   0.556   4.118   2.808
 4209TIP3   OH212567   7.594   4.289   2.032
 4209TIP3    H112568   7.594   4.385   2.032
 4209TIP3    H212569   7.525   4.265   2.093
 4210TIP3   OH212570   7.819   5.981   5.407
 4210TIP3    H112571   7.757   6.054   5.409
 4210TIP3    H212572   7.791   5.923   5.478
 4211TIP3   OH212573   4.858   5.126   5.339
 4211TIP3    H112574   4.796   5.072   5.291
 4211TIP3    H212575   4.826   5.124   5.430
 4212TIP3   OH212576   5.767   2.590   1.521
 4212TIP3    H112577   5.757   2.608   1.427
 4212TIP3    H212578   5.842   2.644   1.548
 4213TIP3   OH212579   0.554   0.123   5.881
 4213TIP3    H112580   0.563   0.032   5.850
 4213TIP3    H212581   0.478   0.120   5.940
 4214TIP3   OH212582   1.196   3.562   5.964
 4214TIP3    H112583   1.243   3.628   6.015
 4214TIP3    H212584   1.106   3.567   5.994
 4215TIP3   OH212585   0.153   5.364   6.821
 4215TIP3    H112586   0.218   5.312   6.775
 4215TIP3    H212587   0.070   5.339   6.781
 4216TIP3   OH212588   1.606   2.476   0.735
 4216TIP3    H112589   1.681   2.486   0.794
 4216TIP3    H212590   1.644   2.452   0.651
 4217TIP3   OH212591   6.750   0.527   6.505
 4217TIP3    H112592   6.772   0.620   6.512
 4217TIP3    H212593   6.682   0.513   6.571
 4218TIP3   OH212594   6.005   3.053   2.160
 4218TIP3    H112595   6.003   3.018   2.071
 4218TIP3    H212596   6.041   2.983   2.214
 4219TIP3   OH212597   5.062   4.163   4.036
 4219TIP3    H112598   5.135   4.200   4.085
 4219TIP3    H212599   5.018   4.239   3.998
 4220TIP3   OH212600   1.310   1.752   5.886
 4220TIP3    H112601   1.295   1.676   5.831
 4220TIP3    H212602   1.405   1.760   5.891
 4221TIP3   OH212603   3.390   7.524   4.920
 4221TIP3    H112604   3.295   7.513   4.920
 4221TIP3    H212605   3.408   7.574   4.840
 4222TIP3   OH212606   1.965   5.672   1.038
 4222TIP3    H112607   1.898   5.613   1.070
 4222TIP3    H212608   1.945   5.756   1.080
 4223TIP3   OH212609   5.997   7.872   3.076
 4223TIP3    H112610   5.993   7.803   3.009
 4223TIP3    H212611   5.993   7.825   3.159
 4224TIP3   OH212612   3.026   1.737   2.777
 4224TIP3    H112613   3.056   1.774   2.860
 4224TIP3    H212614   3.048   1.804   2.712
 4225TIP3   OH212615   3.063   5.382   3.294
 4225TIP3    H112616   3.103   5.363   3.379
 4225TIP3    H212617   3.033   5.473   3.302
 4226TIP3   OH212618   6.902   5.201   2.623
 4226TIP3    H112619   6.838   5.162   2.564
 4226TIP3    H212620   6.909   5.139   2.695
 4227TIP3   OH212621   5.766   0.764   6.611
 4227TIP3    H112622   5.831   0.702   6.578
 4227TIP3    H212623   5.706   0.776   6.537
 4228TIP3   OH212624   5.599   4.640   6.229
 4228TIP3    H112625   5.518   4.593   6.206
 4228TIP3    H212626   5.621   4.606   6.316
 4229TIP3   OH212627   7.279   3.705   2.724
 4229TIP3    H112628   7.217   3.648   2.678
 4229TIP3    H212629   7.304   3.655   2.802
 4230TIP3   OH212630   0.306   1.874   2.284
 4230TIP3    H112631   0.232   1.926   2.254
 4230TIP3    H212632   0.361   1.935   2.332
 4231TIP3   OH212633   3.863   4.476   4.429
 4231TIP3    H112634   3.816   4.538   4.483
 4231TIP3    H212635   3.917   4.426   4.490
 4232TIP3   OH212636   3.183   3.207   0.170
 4232TIP3    H112637   3.135   3.279   0.209
 4232TIP3    H212638   3.256   3.191   0.229
 4233TIP3   OH212639   4.523   3.504   5.243
 4233TIP3    H112640   4.516   3.509   5.148
 4233TIP3    H212641   4.458   3.438   5.269
 4234TIP3   OH212642   1.306   2.550   4.154
 4234TIP3    H112643   1.218   2.577   4.182
 4234TIP3    H212644   1.314   2.460   4.187
 4235TIP3   OH212645   3.948   4.383   2.152
 4235TIP3    H112646   3.926   4.291   2.141
 4235TIP3    H212647   3.868   4.430   2.129
 4236TIP3   OH212648   2.584   6.696   1.109
 4236TIP3    H112649   2.606   6.605   1.087
 4236TIP3    H212650   2.601   6.745   1.029
 4237TIP3   OH212651   5.297   1.826   4.386
 4237TIP3    H112652   5.370   1.807   4.445
 4237TIP3    H212653   5.299   1.754   4.322
 4238TIP3   OH212654   5.957   1.433   1.824
 4238TIP3    H112655   5.946   1.517   1.778
 4238TIP3    H212656   5.888   1.377   1.788
 4239TIP3   OH212657   6.572   4.256   3.294
 4239TIP3    H112658   6.549   4.164   3.280
 4239TIP3    H212659   6.661   4.264   3.258
 4240TIP3   OH212660   5.022   4.001   5.508
 4240TIP3    H112661   5.103   4.046   5.485
 4240TIP3    H212662   4.985   4.052   5.580
 4241TIP3   OH212663   1.747   6.194   4.937
 4241TIP3    H112664   1.784   6.153   5.015
 4241TIP3    H212665   1.787   6.280   4.933
 4242TIP3   OH212666   0.928   0.478   3.323
 4242TIP3    H112667   0.898   0.531   3.249
 4242TIP3    H212668   0.967   0.541   3.383
 4243TIP3   OH212669   1.315   0.258   4.606
 4243TIP3    H112670   1.358   0.312   4.673
 4243TIP3    H212671   1.388   0.218   4.558
 4244TIP3   OH212672   6.320   1.689   0.964
 4244TIP3    H112673   6.263   1.612   0.954
 4244TIP3    H212674   6.332   1.721   0.875
 4245TIP3   OH212675   0.271   2.334   0.912
 4245TIP3    H112676   0.305   2.245   0.899
 4245TIP3    H212677   0.193   2.322   0.966
 4246TIP3   OH212678   3.274   2.705   2.687
 4246TIP3    H112679   3.238   2.733   2.603
 4246TIP3    H212680   3.365   2.684   2.668
 4247TIP3   OH212681   0.929   0.782   0.185
 4247TIP3    H112682   0.887   0.781   0.099
 4247TIP3    H212683   1.003   0.722   0.177
 4248TIP3   OH212684   5.649   2.046   1.075
 4248TIP3    H112685   5.572   2.055   1.020
 4248TIP3    H212686   5.722   2.040   1.014
 4249TIP3   OH212687   1.360   4.484   0.618
 4249TIP3    H112688   1.428   4.418   0.602
 4249TIP3    H212689   1.408   4.567   0.621
 4250TIP3   OH212690   1.208   0.816   4.373
 4250TIP3    H112691   1.139   0.791   4.312
 4250TIP3    H212692   1.247   0.895   4.335
 4251TIP3   OH212693   6.502   2.223   4.260
 4251TIP3    H112694   6.502   2.318   4.268
 4251TIP3    H212695   6.416   2.202   4.223
 4252TIP3   OH212696   2.134   0.627   6.011
 4252TIP3    H112697   2.225   0.654   6.021
 4252TIP3    H212698   2.123   0.559   6.078
 4253TIP3   OH212699   7.351   2.865   5.730
 4253TIP3    H112700   7.438   2.842   5.764
 4253TIP3    H212701   7.290   2.820   5.789
 4254TIP3   OH212702   8.268   4.974   5.889
 4254TIP3    H112703   8.290   5.064   5.866
 4254TIP3    H212704   8.202   4.948   5.824
 4255TIP3   OH212705   4.354   0.837   6.772
 4255TIP3    H112706   4.264   0.805   6.763
 4255TIP3    H212707   4.347   0.909   6.834
 4256TIP3   OH212708   6.010   6.976   0.825
 4256TIP3    H112709   5.965   6.904   0.781
 4256TIP3    H212710   6.057   7.022   0.755
 4257TIP3   OH212711   1.977   5.228   1.776
 4257TIP3    H112712   2.039   5.231   1.703
 4257TIP3    H212713   1.928   5.147   1.762
 4258TIP3   OH212714   2.928   6.924   3.884
 4258TIP3    H112715   2.991   6.884   3.945
 4258TIP3    H212716   2.850   6.938   3.937
 4259TIP3   OH212717   3.703   3.520   4.257
 4259TIP3    H112718   3.714   3.468   4.177
 4259TIP3    H212719   3.747   3.603   4.237
 4260TIP3   OH212720   1.137   2.724   1.133
 4260TIP3    H112721   1.156   2.802   1.082
 4260TIP3    H212722   1.055   2.744   1.178
 4261TIP3   OH212723   5.817  -0.006   3.070
 4261TIP3    H112724   5.749   0.002   3.004
 4261TIP3    H212725   5.817   0.077   3.117
 4262TIP3   OH212726   6.598   4.216   2.483
 4262TIP3    H112727   6.621   4.147   2.544
 4262TIP3    H212728   6.674   4.274   2.482
 4263TIP3   OH212729   3.873   5.283   4.339
 4263TIP3    H112730   3.840   5.365   4.303
 4263TIP3    H212731   3.954   5.308   4.384
 4264TIP3   OH212732   3.590   1.663   2.764
 4264TIP3    H112733   3.571   1.621   2.681
 4264TIP3    H212734   3.653   1.604   2.807
 4265TIP3   OH212735   1.239   5.500   0.333
 4265TIP3    H112736   1.163   5.445   0.313
 4265TIP3    H212737   1.260   5.543   0.251
 4266TIP3   OH212738   6.803   7.859   0.812
 4266TIP3    H112739   6.827   7.889   0.725
 4266TIP3    H212740   6.773   7.769   0.799
 4267TIP3   OH212741   5.465   3.049   5.760
 4267TIP3    H112742   5.424   3.090   5.836
 4267TIP3    H212743   5.556   3.032   5.787
 4268TIP3   OH212744   1.289   7.019   4.427
 4268TIP3    H112745   1.206   7.003   4.471
 4268TIP3    H212746   1.266   7.057   4.342
 4269TIP3   OH212747   4.271   5.209   3.038
 4269TIP3    H112748   4.346   5.257   3.003
 4269TIP3    H212749   4.290   5.198   3.131
 4270TIP3   OH212750   3.362   6.602   0.833
 4270TIP3    H112751   3.428   6.539   0.864
 4270TIP3    H212752   3.369   6.598   0.738
 4271TIP3   OH212753   7.699   5.798   1.400
 4271TIP3    H112754   7.716   5.795   1.306
 4271TIP3    H212755   7.628   5.734   1.413
 4272TIP3   OH212756   1.800   2.501   6.796
 4272TIP3    H112757   1.878   2.446   6.793
 4272TIP3    H212758   1.727   2.439   6.805
 4273TIP3   OH212759   7.709   5.916   1.956
 4273TIP3    H112760   7.698   6.010   1.971
 4273TIP3    H212761   7.709   5.907   1.861
 4274TIP3   OH212762   0.691   4.707   3.111
 4274TIP3    H112763   0.704   4.731   3.019
 4274TIP3    H212764   0.601   4.674   3.114
 4275TIP3   OH212765   4.428   1.873   0.732
 4275TIP3    H112766   4.478   1.832   0.661
 4275TIP3    H212767   4.454   1.965   0.730
 4276TIP3   OH212768   1.371   2.093   6.256
 4276TIP3    H112769   1.367   2.008   6.212
 4276TIP3    H212770   1.359   2.157   6.186
 4277TIP3   OH212771   6.384   6.713   6.384
 4277TIP3    H112772   6.467   6.760   6.383
 4277TIP3    H212773   6.327   6.763   6.325
 4278TIP3   OH212774   5.110   1.257   5.814
 4278TIP3    H112775   5.127   1.182   5.871
 4278TIP3    H212776   5.148   1.232   5.730
 4279TIP3   OH212777   0.135   6.105   6.143
 4279TIP3    H112778   0.148   6.022   6.189
 4279TIP3    H212779   0.052   6.138   6.177
 4280TIP3   OH212780   1.314   6.183   2.101
 4280TIP3    H112781   1.344   6.093   2.110
 4280TIP3    H212782   1.394   6.234   2.087
 4281TIP3   OH212783   6.995   4.396   0.257
 4281TIP3    H112784   6.930   4.326   0.270
 4281TIP3    H212785   7.069   4.370   0.312
 4282TIP3   OH212786   3.679   5.065   5.825
 4282TIP3    H112787   3.649   4.997   5.765
 4282TIP3    H212788   3.698   5.018   5.906
 4283TIP3   OH212789   4.345   7.057   4.109
 4283TIP3    H112790   4.259   7.034   4.073
 4283TIP3    H212791   4.377   7.128   4.054
 4284TIP3   OH212792   5.482   6.697   6.448
 4284TIP3    H112793   5.391   6.715   6.429
 4284TIP3    H212794   5.518   6.780   6.478
 4285TIP3   OH212795   5.254   3.922   3.934
 4285TIP3    H112796   5.225   3.905   4.023
 4285TIP3    H212797   5.247   4.018   3.924
 4286TIP3   OH212798   5.945   1.109   0.124
 4286TIP3    H112799   5.863   1.145   0.158
 4286TIP3    H212800   5.965   1.036   0.184
 4287TIP3   OH212801   6.909   3.994   6.149
 4287TIP3    H112802   6.823   4.034   6.134
 4287TIP3    H212803   6.918   3.928   6.080
 4288TIP3   OH212804   1.879   0.743   2.700
 4288TIP3    H112805   1.877   0.734   2.604
 4288TIP3    H212806   1.831   0.667   2.732
 4289TIP3   OH212807   6.339   1.461   5.462
 4289TIP3    H112808   6.412   1.519   5.483
 4289TIP3    H212809   6.378   1.374   5.461
 4290TIP3   OH212810   1.994   5.277   0.509
 4290TIP3    H112811   1.948   5.207   0.554
 4290TIP3    H212812   1.925   5.332   0.472
 4291TIP3   OH212813   8.277   7.417   0.331
 4291TIP3    H112814   8.310   7.506   0.336
 4291TIP3    H212815   8.343   7.364   0.375
 4292TIP3   OH212816   1.984   3.353   5.795
 4292TIP3    H112817   1.964   3.359   5.701
 4292TIP3    H212818   2.003   3.260   5.810
 4293TIP3   OH212819   4.510   4.567   0.034
 4293TIP3    H112820   4.543   4.636  -0.024
 4293TIP3    H212821   4.494   4.611   0.117
 4294TIP3   OH212822   4.626   4.917   5.436
 4294TIP3    H112823   4.543   4.958   5.410
 4294TIP3    H212824   4.604   4.862   5.511
 4295TIP3   OH212825   4.493   4.457   2.344
 4295TIP3    H112826   4.477   4.549   2.366
 4295TIP3    H212827   4.549   4.424   2.415
 4296TIP3   OH212828   0.745   4.925   5.214
 4296TIP3    H112829   0.778   4.847   5.259
 4296TIP3    H212830   0.718   4.893   5.128
 4297TIP3   OH212831   1.770   5.662   4.686
 4297TIP3    H112832   1.724   5.712   4.617
 4297TIP3    H212833   1.700   5.613   4.729
 4298TIP3   OH212834   5.349   5.779   2.339
 4298TIP3    H112835   5.263   5.739   2.330
 4298TIP3    H212836   5.364   5.783   2.434
 4299TIP3   OH212837   1.778   6.035   6.593
 4299TIP3    H112838   1.781   5.946   6.557
 4299TIP3    H212839   1.685   6.057   6.593
 4300TIP3   OH212840   2.352   2.880   3.842
 4300TIP3    H112841   2.345   2.789   3.814
 4300TIP3    H212842   2.444   2.903   3.828
 4301TIP3   OH212843   6.177   2.177   3.466
 4301TIP3    H112844   6.242   2.112   3.438
 4301TIP3    H212845   6.164   2.160   3.559
 4302TIP3   OH212846   3.750   1.705   5.735
 4302TIP3    H112847   3.658   1.682   5.731
 4302TIP3    H212848   3.767   1.723   5.828
 4303TIP3   OH212849   2.577   5.060   6.639
 4303TIP3    H112850   2.548   4.976   6.604
 4303TIP3    H212851   2.497   5.102   6.672
 4304TIP3   OH212852   4.557   5.099   4.148
 4304TIP3    H112853   4.462   5.110   4.139
 4304TIP3    H212854   4.595   5.166   4.093
 4305TIP3   OH212855   3.896   3.833   1.917
 4305TIP3    H112856   3.831   3.859   1.852
 4305TIP3    H212857   3.849   3.835   2.000
 4306TIP3   OH212858   3.100   5.194   1.481
 4306TIP3    H112859   3.030   5.258   1.494
 4306TIP3    H212860   3.054   5.112   1.463
 4307TIP3   OH212861   4.676   1.663   2.181
 4307TIP3    H112862   4.722   1.743   2.204
 4307TIP3    H212863   4.585   1.691   2.167
 4308TIP3   OH212864   1.126   6.372   5.894
 4308TIP3    H112865   1.130   6.315   5.818
 4308TIP3    H212866   1.152   6.317   5.968
 4309TIP3   OH212867   7.090   4.634   0.826
 4309TIP3    H112868   7.157   4.682   0.778
 4309TIP3    H212869   7.008   4.655   0.781
 4310TIP3   OH212870   7.369   4.475   0.039
 4310TIP3    H112871   7.352   4.395  -0.010
 4310TIP3    H212872   7.410   4.445   0.120
 4311TIP3   OH212873   6.055   3.773   1.785
 4311TIP3    H112874   5.987   3.784   1.719
 4311TIP3    H212875   6.015   3.807   1.866
 4312TIP3   OH212876   5.296   4.529   0.529
 4312TIP3    H112877   5.327   4.560   0.614
 4312TIP3    H212878   5.352   4.454   0.509
 4313TIP3   OH212879   4.720   7.628   5.852
 4313TIP3    H112880   4.759   7.714   5.862
 4313TIP3    H212881   4.711   7.595   5.942
 4314TIP3   OH212882   3.520   4.347   2.089
 4314TIP3    H112883   3.460   4.420   2.072
 4314TIP3    H212884   3.483   4.274   2.039
 4315TIP3   OH212885   5.049   6.041   2.324
 4315TIP3    H112886   5.125   6.035   2.382
 4315TIP3    H212887   5.083   6.014   2.238
 4316TIP3   OH212888   4.078   1.900   1.183
 4316TIP3    H112889   4.164   1.859   1.179
 4316TIP3    H212890   4.040   1.870   1.265
 4317TIP3   OH212891   0.700   3.197   4.680
 4317TIP3    H112892   0.692   3.292   4.668
 4317TIP3    H212893   0.777   3.173   4.628
 4318TIP3   OH212894   2.562   7.328   3.752
 4318TIP3    H112895   2.582   7.313   3.660
 4318TIP3    H212896   2.475   7.290   3.765
 4319TIP3   OH212897   0.898   2.447   5.741
 4319TIP3    H112898   0.973   2.391   5.717
 4319TIP3    H212899   0.823   2.387   5.743
 4320TIP3   OH212900   0.369   6.205   6.568
 4320TIP3    H112901   0.417   6.245   6.640
 4320TIP3    H212902   0.288   6.256   6.563
 4321TIP3   OH212903   2.117   0.504   3.942
 4321TIP3    H112904   2.027   0.512   3.975
 4321TIP3    H212905   2.153   0.430   3.989
 4322TIP3   OH212906   2.978   1.059   4.529
 4322TIP3    H112907   2.990   1.138   4.581
 4322TIP3    H212908   2.931   1.088   4.451
 4323TIP3   OH212909   4.817   7.654   1.184
 4323TIP3    H112910   4.786   7.576   1.230
 4323TIP3    H212911   4.910   7.660   1.207
 4324TIP3   OH212912   7.837   7.522   3.397
 4324TIP3    H112913   7.787   7.586   3.448
 4324TIP3    H212914   7.841   7.445   3.453
 4325TIP3   OH212915   3.470   2.813   5.743
 4325TIP3    H112916   3.387   2.847   5.709
 4325TIP3    H212917   3.459   2.718   5.745
 4326TIP3   OH212918   2.888   3.387   4.338
 4326TIP3    H112919   2.926   3.315   4.388
 4326TIP3    H212920   2.819   3.346   4.285
 4327TIP3   OH212921   8.214   4.069   0.091
 4327TIP3    H112922   8.302   4.070   0.130
 4327TIP3    H212923   8.228   4.093  -0.001
 4328TIP3   OH212924   4.694   1.570   5.838
 4328TIP3    H112925   4.663   1.481   5.857
 4328TIP3    H212926   4.615   1.624   5.843
 4329TIP3   OH212927   2.037   4.252   1.702
 4329TIP3    H112928   1.982   4.187   1.744
 4329TIP3    H212929   2.102   4.201   1.654
 4330TIP3   OH212930   3.822   4.010   3.104
 4330TIP3    H112931   3.838   4.105   3.097
 4330TIP3    H212932   3.905   3.970   3.076
 4331TIP3   OH212933   2.189   3.522   5.922
 4331TIP3    H112934   2.120   3.584   5.945
 4331TIP3    H212935   2.144   3.440   5.902
 4332TIP3   OH212936   6.425   2.672   6.243
 4332TIP3    H112937   6.501   2.615   6.251
 4332TIP3    H212938   6.411   2.706   6.332
 4333TIP3   OH212939   7.852   7.498   3.112
 4333TIP3    H112940   7.791   7.433   3.076
 4333TIP3    H212941   7.849   7.483   3.206
 4334TIP3   OH212942   4.551   3.843   5.009
 4334TIP3    H112943   4.557   3.752   4.977
 4334TIP3    H212944   4.620   3.889   4.961
 4335TIP3   OH212945   6.033   5.775   0.071
 4335TIP3    H112946   6.108   5.722   0.095
 4335TIP3    H212947   5.967   5.713   0.041
 4336TIP3   OH212948   0.199   3.769   2.801
 4336TIP3    H112949   0.172   3.712   2.730
 4336TIP3    H212950   0.182   3.858   2.769
 4337TIP3   OH212951   4.809   0.174   1.643
 4337TIP3    H112952   4.750   0.106   1.676
 4337TIP3    H212953   4.830   0.147   1.554
 4338TIP3   OH212954   7.040   2.831   0.861
 4338TIP3    H112955   6.977   2.778   0.812
 4338TIP3    H212956   7.042   2.793   0.948
 4339TIP3   OH212957   8.306   7.317   6.148
 4339TIP3    H112958   8.328   7.296   6.057
 4339TIP3    H212959   8.350   7.250   6.200
 4340TIP3   OH212960   2.039   0.422   2.937
 4340TIP3    H112961   2.098   0.457   2.869
 4340TIP3    H212962   2.044   0.327   2.926
 4341TIP3   OH212963   5.458   4.393   4.273
 4341TIP3    H112964   5.504   4.439   4.203
 4341TIP3    H212965   5.466   4.450   4.349
 4342TIP3   OH212966   2.373   3.378   3.316
 4342TIP3    H112967   2.374   3.283   3.303
 4342TIP3    H212968   2.463   3.399   3.341
 4343TIP3   OH212969   2.869   6.875   0.333
 4343TIP3    H112970   2.928   6.863   0.258
 4343TIP3    H212971   2.810   6.799   0.328
 4344TIP3   OH212972   4.232   2.090   6.809
 4344TIP3    H112973   4.145   2.107   6.773
 4344TIP3    H212974   4.256   2.172   6.853
 4345TIP3   OH212975   3.995   1.516   3.746
 4345TIP3    H112976   3.986   1.610   3.764
 4345TIP3    H212977   4.026   1.512   3.656
 4346TIP3   OH212978   7.268   1.952   2.082
 4346TIP3    H112979   7.339   2.014   2.099
 4346TIP3    H212980   7.243   1.968   1.991
 4347TIP3   OH212981   2.527   1.200   0.865
 4347TIP3    H112982   2.595   1.151   0.911
 4347TIP3    H212983   2.446   1.177   0.909
 4348TIP3   OH212984   0.130   5.989   0.729
 4348TIP3    H112985   0.195   6.024   0.789
 4348TIP3    H212986   0.077   5.929   0.783
 4349TIP3   OH212987   0.961   2.127   0.329
 4349TIP3    H112988   1.008   2.097   0.251
 4349TIP3    H212989   0.962   2.223   0.322
 4350TIP3   OH212990   5.745   7.456   1.688
 4350TIP3    H112991   5.687   7.476   1.614
 4350TIP3    H212992   5.687   7.449   1.763
 4351TIP3   OH212993   6.987   7.121   0.149
 4351TIP3    H112994   7.037   7.107   0.229
 4351TIP3    H212995   6.896   7.128   0.178
 4352TIP3   OH212996   3.957   0.832   2.684
 4352TIP3    H112997   3.986   0.884   2.609
 4352TIP3    H212998   4.039   0.801   2.724
 4353TIP3   OH212999   1.080   5.416   5.144
 4353TIP3    H113000   1.071   5.332   5.190
 4353TIP3    H213001   1.135   5.469   5.202
 4354TIP3   OH213002   6.086   6.355   6.207
 4354TIP3    H113003   6.049   6.434   6.248
 4354TIP3    H213004   6.028   6.337   6.133
 4355TIP3   OH213005   2.328   2.040   2.388
 4355TIP3    H113006   2.294   2.090   2.463
 4355TIP3    H213007   2.274   2.068   2.314
 4356TIP3   OH213008   4.417   4.071   3.320
 4356TIP3    H113009   4.456   4.011   3.383
 4356TIP3    H213010   4.462   4.155   3.334
 4357TIP3   OH213011   5.696   0.911   5.919
 4357TIP3    H113012   5.692   0.957   6.003
 4357TIP3    H213013   5.737   0.827   5.940
 4358TIP3   OH213014   1.608   2.091   0.330
 4358TIP3    H113015   1.625   2.129   0.416
 4358TIP3    H213016   1.513   2.078   0.327
 4359TIP3   OH213017   6.911   2.033   2.780
 4359TIP3    H113018   6.953   2.115   2.752
 4359TIP3    H213019   6.979   1.966   2.770
 4360TIP3   OH213020   6.957   4.361   5.424
 4360TIP3    H113021   6.879   4.406   5.393
 4360TIP3    H213022   6.930   4.270   5.438
 4361TIP3   OH213023   0.016   1.922   5.217
 4361TIP3    H113024   0.005   1.908   5.311
 4361TIP3    H213025   0.084   1.989   5.211
 4362TIP3   OH213026   5.642   3.775   4.371
 4362TIP3    H113027   5.559   3.780   4.418
 4362TIP3    H213028   5.655   3.681   4.355
 4363TIP3   OH213029   1.232   4.017   2.968
 4363TIP3    H113030   1.306   4.057   2.921
 4363TIP3    H213031   1.222   3.930   2.929
 4364TIP3   OH213032   7.818   1.449   5.381
 4364TIP3    H113033   7.765   1.523   5.411
 4364TIP3    H213034   7.896   1.451   5.435
 4365TIP3   OH213035   0.001   0.370   0.368
 4365TIP3    H113036   0.072   0.307   0.355
 4365TIP3    H213037   0.032   0.425   0.440
 4366TIP3   OH213038   3.578   4.006   2.059
 4366TIP3    H113039   3.517   3.939   2.029
 4366TIP3    H213040   3.559   4.083   2.005
 4367TIP3   OH213041   7.967   3.622   5.424
 4367TIP3    H113042   8.045   3.567   5.417
 4367TIP3    H213043   7.950   3.628   5.518
 4368TIP3   OH213044   1.065   6.425   6.675
 4368TIP3    H113045   0.985   6.419   6.624
 4368TIP3    H213046   1.036   6.424   6.766
 4369TIP3   OH213047   6.827   5.305   6.820
 4369TIP3    H113048   6.744   5.341   6.852
 4369TIP3    H213049   6.804   5.219   6.785
 4370TIP3   OH213050   2.574   5.195   1.934
 4370TIP3    H113051   2.642   5.156   1.988
 4370TIP3    H213052   2.496   5.142   1.953
 4371TIP3   OH213053   4.970   4.767   1.312
 4371TIP3    H113054   4.942   4.710   1.384
 4371TIP3    H213055   5.064   4.779   1.326
 4372TIP3   OH213056   0.802   1.430   6.430
 4372TIP3    H113057   0.732   1.493   6.448
 4372TIP3    H213058   0.811   1.430   6.335
 4373TIP3   OH213059   4.413   4.683   1.657
 4373TIP3    H113060   4.420   4.773   1.688
 4373TIP3    H213061   4.426   4.690   1.562
 4374TIP3   OH213062   1.681   5.386   1.800
 4374TIP3    H113063   1.712   5.418   1.715
 4374TIP3    H213064   1.691   5.460   1.859
 4375TIP3   OH213065   1.753   6.369   0.620
 4375TIP3    H113066   1.737   6.413   0.536
 4375TIP3    H213067   1.807   6.431   0.669
 4376TIP3   OH213068   3.435   2.168   4.984
 4376TIP3    H113069   3.391   2.251   5.001
 4376TIP3    H213070   3.515   2.172   5.036
 4377TIP3   OH213071   5.820   6.738   5.696
 4377TIP3    H113072   5.752   6.716   5.634
 4377TIP3    H213073   5.773   6.772   5.773
 4378TIP3   OH213074   4.216   4.437   3.107
 4378TIP3    H113075   4.143   4.383   3.076
 4378TIP3    H213076   4.221   4.420   3.200
 4379TIP3   OH213077   5.987   6.966   1.812
 4379TIP3    H113078   6.021   6.885   1.849
 4379TIP3    H213079   5.893   6.954   1.809
 4380TIP3   OH213080   2.616   5.812   0.589
 4380TIP3    H113081   2.640   5.844   0.502
 4380TIP3    H213082   2.676   5.857   0.649
 4381TIP3   OH213083   6.056   0.365   6.138
 4381TIP3    H113084   6.143   0.329   6.120
 4381TIP3    H213085   6.039   0.424   6.065
 4382TIP3   OH213086   5.249   5.128   1.268
 4382TIP3    H113087   5.294   5.143   1.185
 4382TIP3    H213088   5.176   5.190   1.267
 4383TIP3   OH213089   0.656   0.154   0.756
 4383TIP3    H113090   0.585   0.090   0.761
 4383TIP3    H213091   0.698   0.136   0.672
 4384TIP3   OH213092   4.954   2.940   4.425
 4384TIP3    H113093   4.986   2.865   4.374
 4384TIP3    H213094   4.962   2.912   4.516
 4385TIP3   OH213095   0.849   7.282   2.350
 4385TIP3    H113096   0.810   7.203   2.387
 4385TIP3    H213097   0.790   7.306   2.279
 4386TIP3   OH213098   3.177   2.675   0.135
 4386TIP3    H113099   3.166   2.770   0.127
 4386TIP3    H213100   3.258   2.665   0.185
 4387TIP3   OH213101   4.622   2.369   1.484
 4387TIP3    H113102   4.641   2.278   1.464
 4387TIP3    H213103   4.651   2.417   1.406
 4388TIP3   OH213104   3.785   3.286   1.009
 4388TIP3    H113105   3.814   3.371   0.976
 4388TIP3    H213106   3.713   3.307   1.068
 4389TIP3   OH213107   4.067   3.761   0.658
 4389TIP3    H113108   4.040   3.771   0.749
 4389TIP3    H213109   4.162   3.747   0.662
 4390TIP3   OH213110   7.554   4.584   6.207
 4390TIP3    H113111   7.532   4.544   6.123
 4390TIP3    H213112   7.611   4.658   6.183
 4391TIP3   OH213113   3.917   0.687   6.423
 4391TIP3    H113114   3.938   0.647   6.338
 4391TIP3    H213115   3.823   0.672   6.434
 4392TIP3   OH213116   6.797   2.281   6.309
 4392TIP3    H113117   6.847   2.324   6.378
 4392TIP3    H213118   6.843   2.199   6.293
 4393TIP3   OH213119   6.697   6.683   0.905
 4393TIP3    H113120   6.643   6.614   0.867
 4393TIP3    H213121   6.656   6.702   0.989
 4394TIP3   OH213122   0.584   0.319   3.150
 4394TIP3    H113123   0.664   0.335   3.200
 4394TIP3    H213124   0.603   0.353   3.062
 4395TIP3   OH213125   4.878   2.241   2.631
 4395TIP3    H113126   4.965   2.216   2.665
 4395TIP3    H213127   4.847   2.307   2.693
 4396TIP3   OH213128   3.003   6.589   4.302
 4396TIP3    H113129   3.023   6.525   4.234
 4396TIP3    H213130   3.076   6.582   4.364
 4397TIP3   OH213131   4.463   2.332   1.800
 4397TIP3    H113132   4.550   2.373   1.804
 4397TIP3    H213133   4.419   2.374   1.727
 4398TIP3   OH213134   8.111   6.542   6.376
 4398TIP3    H113135   8.103   6.454   6.412
 4398TIP3    H213136   8.167   6.531   6.299
 4399TIP3   OH213137   2.126   3.978   4.208
 4399TIP3    H113138   2.046   3.928   4.194
 4399TIP3    H213139   2.096   4.063   4.239
 4400TIP3   OH213140   7.867   1.556   3.896
 4400TIP3    H113141   7.812   1.576   3.821
 4400TIP3    H213142   7.856   1.461   3.909
 4401TIP3   OH213143   1.948   4.703   0.914
 4401TIP3    H113144   1.940   4.797   0.928
 4401TIP3    H213145   1.941   4.665   1.002
 4402TIP3   OH213146   4.723   6.890   0.624
 4402TIP3    H113147   4.659   6.921   0.688
 4402TIP3    H213148   4.805   6.883   0.673
 4403TIP3   OH213149   7.334   4.163   1.469
 4403TIP3    H113150   7.419   4.191   1.437
 4403TIP3    H213151   7.282   4.147   1.390
 4404TIP3   OH213152   5.546   4.922   3.492
 4404TIP3    H113153   5.488   4.861   3.447
 4404TIP3    H213154   5.627   4.872   3.506
 4405TIP3   OH213155   2.335   6.614   1.785
 4405TIP3    H113156   2.337   6.644   1.876
 4405TIP3    H213157   2.424   6.631   1.753
 4406TIP3   OH213158   6.274   1.230   2.448
 4406TIP3    H113159   6.183   1.259   2.440
 4406TIP3    H213160   6.283   1.160   2.383
 4407TIP3   OH213161   7.980   2.095   1.648
 4407TIP3    H113162   7.909   2.035   1.625
 4407TIP3    H213163   8.031   2.046   1.713
 4408TIP3   OH213164   4.188   2.940   4.267
 4408TIP3    H113165   4.171   3.017   4.322
 4408TIP3    H213166   4.268   2.903   4.304
 4409TIP3   OH213167   1.992   2.788   6.723
 4409TIP3    H113168   2.045   2.867   6.715
 4409TIP3    H213169   1.950   2.779   6.637
 4410TIP3   OH213170   6.717   2.605   0.344
 4410TIP3    H113171   6.623   2.618   0.346
 4410TIP3    H213172   6.740   2.608   0.251
 4411TIP3   OH213173   4.441   3.212   1.005
 4411TIP3    H113174   4.484   3.133   0.972
 4411TIP3    H213175   4.464   3.214   1.098
 4412TIP3   OH213176   7.975   1.757   3.098
 4412TIP3    H113177   8.025   1.733   3.176
 4412TIP3    H213178   7.910   1.686   3.090
 4413TIP3   OH213179   6.509   3.140   6.624
 4413TIP3    H113180   6.539   3.090   6.700
 4413TIP3    H213181   6.420   3.108   6.608
 4414TIP3   OH213182   3.509   7.705   5.091
 4414TIP3    H113183   3.484   7.660   5.010
 4414TIP3    H213184   3.598   7.674   5.109
 4415TIP3   OH213185   0.355   6.026   4.850
 4415TIP3    H113186   0.442   5.987   4.842
 4415TIP3    H213187   0.371   6.119   4.867
 4416TIP3   OH213188   3.026   2.803   6.303
 4416TIP3    H113189   3.035   2.748   6.225
 4416TIP3    H213190   2.931   2.816   6.312
 4417TIP3   OH213191   6.789   6.245   5.101
 4417TIP3    H113192   6.729   6.213   5.168
 4417TIP3    H213193   6.760   6.203   5.021
 4418TIP3   OH213194   5.786   4.412   6.435
 4418TIP3    H113195   5.835   4.447   6.361
 4418TIP3    H213196   5.712   4.471   6.445
 4419TIP3   OH213197   6.142   4.887   1.857
 4419TIP3    H113198   6.064   4.838   1.883
 4419TIP3    H213199   6.192   4.824   1.804
 4420TIP3   OH213200   6.984   5.350   0.109
 4420TIP3    H113201   6.932   5.342   0.189
 4420TIP3    H213202   6.944   5.288   0.048
 4421TIP3   OH213203   3.531   1.617   6.355
 4421TIP3    H113204   3.493   1.644   6.272
 4421TIP3    H213205   3.463   1.635   6.420
 4422TIP3   OH213206   7.614   2.344   1.777
 4422TIP3    H113207   7.689   2.398   1.752
 4422TIP3    H213208   7.543   2.407   1.789
 4423TIP3   OH213209   6.047   2.143   6.719
 4423TIP3    H113210   6.023   2.211   6.782
 4423TIP3    H213211   6.126   2.177   6.676
 4424TIP3   OH213212   3.519   1.257   4.192
 4424TIP3    H113213   3.442   1.219   4.234
 4424TIP3    H213214   3.568   1.298   4.263
 4425TIP3   OH213215   7.521   5.688   6.280
 4425TIP3    H113216   7.454   5.755   6.268
 4425TIP3    H213217   7.474   5.605   6.265
 4426TIP3   OH213218   4.799   7.068   5.651
 4426TIP3    H113219   4.873   7.086   5.709
 4426TIP3    H213220   4.785   6.974   5.657
 4427TIP3   OH213221   0.259   5.153   5.759
 4427TIP3    H113222   0.343   5.108   5.766
 4427TIP3    H213223   0.231   5.140   5.669
 4428TIP3   OH213224   2.175   2.588   4.634
 4428TIP3    H113225   2.079   2.585   4.627
 4428TIP3    H213226   2.194   2.553   4.721
 4429TIP3   OH213227   8.209   1.685   6.102
 4429TIP3    H113228   8.175   1.632   6.030
 4429TIP3    H213229   8.147   1.672   6.173
 4430TIP3   OH213230   3.130   3.984   3.722
 4430TIP3    H113231   3.166   3.907   3.678
 4430TIP3    H213232   3.200   4.014   3.780
 4431TIP3   OH213233   2.421   6.365   2.153
 4431TIP3    H113234   2.436   6.457   2.129
 4431TIP3    H213235   2.465   6.315   2.084
 4432TIP3   OH213236   6.005   7.358   3.907
 4432TIP3    H113237   6.079   7.377   3.964
 4432TIP3    H213238   5.928   7.373   3.962
 4433TIP3   OH213239   7.655   5.210   1.828
 4433TIP3    H113240   7.614   5.245   1.908
 4433TIP3    H213241   7.737   5.172   1.859
 4434TIP3   OH213242   6.528   3.902   2.065
 4434TIP3    H113243   6.556   3.947   2.145
 4434TIP3    H213244   6.438   3.875   2.083
 4435TIP3   OH213245   4.364   4.461   5.509
 4435TIP3    H113246   4.381   4.367   5.495
 4435TIP3    H213247   4.441   4.492   5.556
 4436TIP3   OH213248   4.054   5.845   4.215
 4436TIP3    H113249   4.137   5.805   4.242
 4436TIP3    H213250   4.017   5.880   4.297
 4437TIP3   OH213251   6.608   4.128   6.390
 4437TIP3    H113252   6.573   4.197   6.445
 4437TIP3    H213253   6.621   4.169   6.304
 4438TIP3   OH213254   7.297   6.515   1.866
 4438TIP3    H113255   7.222   6.480   1.914
 4438TIP3    H213256   7.266   6.597   1.829
 4439TIP3   OH213257   1.356   0.032   3.416
 4439TIP3    H113258   1.401  -0.053   3.419
 4439TIP3    H213259   1.394   0.077   3.341
 4440TIP3   OH213260   4.300   3.023   0.111
 4440TIP3    H113261   4.313   2.932   0.085
 4440TIP3    H213262   4.338   3.074   0.039
 4441TIP3   OH213263   6.451   2.382   3.962
 4441TIP3    H113264   6.446   2.467   3.919
 4441TIP3    H213265   6.360   2.361   3.983
 4442TIP3   OH213266   6.200   3.009   4.977
 4442TIP3    H113267   6.137   3.072   5.010
 4442TIP3    H213268   6.185   3.007   4.882
 4443TIP3   OH213269   1.576   7.249   5.160
 4443TIP3    H113270   1.545   7.288   5.242
 4443TIP3    H213271   1.662   7.212   5.182
 4444TIP3   OH213272   7.313   7.319   2.187
 4444TIP3    H113273   7.323   7.228   2.213
 4444TIP3    H213274   7.246   7.354   2.247
 4445TIP3   OH213275   6.336   2.363   2.120
 4445TIP3    H113276   6.389   2.344   2.042
 4445TIP3    H213277   6.298   2.449   2.103
 4446TIP3   OH213278   5.749   3.108   3.378
 4446TIP3    H113279   5.732   3.103   3.472
 4446TIP3    H213280   5.778   3.198   3.363
 4447TIP3   OH213281   3.022   6.783   2.025
 4447TIP3    H113282   3.050   6.773   1.935
 4447TIP3    H213283   2.929   6.761   2.024
 4448TIP3   OH213284   2.362   5.165   3.027
 4448TIP3    H113285   2.319   5.248   3.044
 4448TIP3    H213286   2.309   5.123   2.960
 4449TIP3   OH213287   1.320   1.993   2.556
 4449TIP3    H113288   1.310   1.977   2.650
 4449TIP3    H213289   1.370   1.917   2.524
 4450TIP3   OH213290   0.560   4.203   2.217
 4450TIP3    H113291   0.625   4.181   2.283
 4450TIP3    H213292   0.566   4.298   2.207
 4451TIP3   OH213293   1.672   0.648   5.707
 4451TIP3    H113294   1.604   0.695   5.659
 4451TIP3    H213295   1.624   0.580   5.755
 4452TIP3   OH213296   3.804   6.949   4.472
 4452TIP3    H113297   3.880   6.945   4.529
 4452TIP3    H213298   3.787   6.857   4.449
 4453TIP3   OH213299   3.549   0.217   4.555
 4453TIP3    H113300   3.604   0.271   4.499
 4453TIP3    H213301   3.460   0.244   4.534
 4454TIP3   OH213302   3.430   3.580   4.324
 4454TIP3    H113303   3.520   3.559   4.303
 4454TIP3    H213304   3.414   3.664   4.281
 4455TIP3   OH213305   3.684   3.916   1.757
 4455TIP3    H113306   3.740   3.927   1.680
 4455TIP3    H213307   3.632   3.997   1.760
 4456TIP3   OH213308   2.181   7.503   3.138
 4456TIP3    H113309   2.166   7.587   3.182
 4456TIP3    H213310   2.145   7.438   3.199
 4457TIP3   OH213311   5.684   3.225   3.626
 4457TIP3    H113312   5.620   3.204   3.558
 4457TIP3    H213313   5.634   3.224   3.708
 4458TIP3   OH213314   0.491   1.898   6.255
 4458TIP3    H113315   0.520   1.824   6.202
 4458TIP3    H213316   0.396   1.895   6.252
 4459TIP3   OH213317   2.129   7.113   2.173
 4459TIP3    H113318   2.173   7.189   2.135
 4459TIP3    H213319   2.169   7.102   2.259
 4460TIP3   OH213320   4.792   1.785   3.759
 4460TIP3    H113321   4.807   1.691   3.754
 4460TIP3    H213322   4.836   1.821   3.682
 4461TIP3   OH213323   4.357   5.316   3.764
 4461TIP3    H113324   4.308   5.250   3.814
 4461TIP3    H213325   4.290   5.368   3.720
 4462TIP3   OH213326   3.195   3.904   5.209
 4462TIP3    H113327   3.187   3.817   5.171
 4462TIP3    H213328   3.193   3.964   5.134
 4463TIP3   OH213329   6.291   0.586   0.715
 4463TIP3    H113330   6.203   0.561   0.745
 4463TIP3    H213331   6.342   0.505   0.722
 4464TIP3   OH213332   5.741   4.193   1.087
 4464TIP3    H113333   5.693   4.240   1.155
 4464TIP3    H213334   5.709   4.103   1.094
 4465TIP3   OH213335   2.942   2.361   6.557
 4465TIP3    H113336   2.931   2.431   6.621
 4465TIP3    H213337   2.947   2.407   6.473
 4466TIP3   OH213338   2.057   2.363   5.259
 4466TIP3    H113339   2.134   2.308   5.277
 4466TIP3    H213340   2.002   2.353   5.336
 4467TIP3   OH213341   0.336   2.817   6.828
 4467TIP3    H113342   0.377   2.895   6.865
 4467TIP3    H213343   0.404   2.777   6.775
 4468TIP3   OH213344   2.650   1.326   3.530
 4468TIP3    H113345   2.560   1.293   3.525
 4468TIP3    H213346   2.677   1.308   3.620
 4469TIP3   OH213347   6.583   7.570   3.740
 4469TIP3    H113348   6.549   7.597   3.826
 4469TIP3    H213349   6.606   7.652   3.697
 4470TIP3   OH213350   5.479   3.523   3.329
 4470TIP3    H113351   5.521   3.578   3.395
 4470TIP3    H213352   5.433   3.584   3.271
 4471TIP3   OH213353   5.743   4.656   4.075
 4471TIP3    H113354   5.834   4.628   4.062
 4471TIP3    H213355   5.741   4.745   4.039
 4472TIP3   OH213356   2.402   0.279   0.838
 4472TIP3    H113357   2.470   0.214   0.820
 4472TIP3    H213358   2.346   0.238   0.903
 4473TIP3   OH213359   7.966   6.953   1.871
 4473TIP3    H113360   7.967   6.878   1.931
 4473TIP3    H213361   8.011   7.022   1.920
 4474TIP3   OH213362   3.861   1.485   2.126
 4474TIP3    H113363   3.855   1.489   2.031
 4474TIP3    H213364   3.955   1.479   2.144
 4475TIP3   OH213365   3.305   6.340   5.770
 4475TIP3    H113366   3.353   6.273   5.721
 4475TIP3    H213367   3.261   6.392   5.703
 4476TIP3   OH213368   2.792   0.208   4.031
 4476TIP3    H113369   2.701   0.201   4.001
 4476TIP3    H213370   2.825   0.118   4.029
 4477TIP3   OH213371   5.047   6.456   3.636
 4477TIP3    H113372   5.043   6.413   3.721
 4477TIP3    H213373   5.130   6.504   3.637
 4478TIP3   OH213374   7.499   6.105   3.480
 4478TIP3    H113375   7.541   6.189   3.497
 4478TIP3    H213376   7.465   6.077   3.565
 4479TIP3   OH213377   2.192   6.143   0.922
 4479TIP3    H113378   2.112   6.106   0.883
 4479TIP3    H213379   2.261   6.082   0.897
 4480TIP3   OH213380   7.873   2.242   4.053
 4480TIP3    H113381   7.809   2.189   4.007
 4480TIP3    H213382   7.825   2.278   4.128
 4481TIP3   OH213383   3.385   4.941   1.608
 4481TIP3    H113384   3.390   4.941   1.513
 4481TIP3    H213385   3.385   5.033   1.633
 4482TIP3   OH213386   4.100   5.996   5.800
 4482TIP3    H113387   4.073   5.965   5.887
 4482TIP3    H213388   4.179   5.947   5.780
 4483TIP3   OH213389   4.140   5.375   2.854
 4483TIP3    H113390   4.048   5.391   2.872
 4483TIP3    H213391   4.168   5.314   2.922
 4484TIP3   OH213392   3.942   2.097   4.131
 4484TIP3    H113393   4.026   2.100   4.086
 4484TIP3    H213394   3.887   2.043   4.073
 4485TIP3   OH213395   4.293   5.586   0.620
 4485TIP3    H113396   4.335   5.500   0.621
 4485TIP3    H213397   4.314   5.622   0.534
 4486TIP3   OH213398   0.656   2.248   6.785
 4486TIP3    H113399   0.664   2.199   6.703
 4486TIP3    H213400   0.694   2.334   6.765
 4487TIP3   OH213401   3.524   5.756   2.680
 4487TIP3    H113402   3.509   5.850   2.683
 4487TIP3    H213403   3.497   5.731   2.591
 4488TIP3   OH213404   7.116   1.094   4.742
 4488TIP3    H113405   7.044   1.128   4.688
 4488TIP3    H213406   7.176   1.168   4.752
 4489TIP3   OH213407   0.668   4.226   0.574
 4489TIP3    H113408   0.604   4.265   0.633
 4489TIP3    H213409   0.753   4.254   0.608
 4490TIP3   OH213410   5.232   3.638   3.143
 4490TIP3    H113411   5.218   3.551   3.104
 4490TIP3    H213412   5.146   3.680   3.139
 4491TIP3   OH213413   0.426   2.872   6.453
 4491TIP3    H113414   0.470   2.791   6.478
 4491TIP3    H213415   0.399   2.912   6.535
 4492TIP3   OH213416   0.555   1.053   6.300
 4492TIP3    H113417   0.486   1.057   6.366
 4492TIP3    H213418   0.581   0.961   6.299
 4493TIP3   OH213419   0.467   0.621   2.853
 4493TIP3    H113420   0.548   0.604   2.900
 4493TIP3    H213421   0.424   0.536   2.845
 4494TIP3   OH213422   4.330   7.133   5.627
 4494TIP3    H113423   4.410   7.133   5.574
 4494TIP3    H213424   4.288   7.217   5.606
 4495TIP3   OH213425   5.481   0.534   6.739
 4495TIP3    H113426   5.531   0.613   6.716
 4495TIP3    H213427   5.546   0.475   6.777
 4496TIP3   OH213428   4.810   0.790   2.349
 4496TIP3    H113429   4.884   0.827   2.300
 4496TIP3    H213430   4.838   0.700   2.369
 4497TIP3   OH213431   5.372   4.117   6.620
 4497TIP3    H113432   5.396   4.025   6.634
 4497TIP3    H213433   5.448   4.167   6.648
 4498TIP3   OH213434   6.448   3.101   5.812
 4498TIP3    H113435   6.487   3.086   5.898
 4498TIP3    H213436   6.364   3.144   5.831
 4499TIP3   OH213437   4.775   0.215   2.227
 4499TIP3    H113438   4.768   0.309   2.209
 4499TIP3    H213439   4.764   0.173   2.142
 4500TIP3   OH213440   3.603   5.217   1.876
 4500TIP3    H113441   3.600   5.313   1.883
 4500TIP3    H213442   3.514   5.193   1.850
 4501TIP3   OH213443   5.050   1.323   3.305
 4501TIP3    H113444   5.045   1.368   3.389
 4501TIP3    H213445   5.068   1.232   3.327
 4502TIP3   OH213446   2.826   7.549   1.347
 4502TIP3    H113447   2.801   7.539   1.255
 4502TIP3    H213448   2.842   7.460   1.377
 4503TIP3   OH213449   3.380   5.113   4.212
 4503TIP3    H113450   3.369   5.199   4.251
 4503TIP3    H213451   3.293   5.072   4.218
 4504TIP3   OH213452   7.248   7.751   5.049
 4504TIP3    H113453   7.268   7.665   5.087
 4504TIP3    H213454   7.154   7.762   5.064
 4505TIP3   OH213455   8.144   1.715   5.390
 4505TIP3    H113456   8.083   1.772   5.436
 4505TIP3    H213457   8.226   1.764   5.388
 4506TIP3   OH213458   0.915   6.819   4.287
 4506TIP3    H113459   0.961   6.881   4.343
 4506TIP3    H213460   0.850   6.872   4.240
 4507TIP3   OH213461   6.230   1.072   4.162
 4507TIP3    H113462   6.138   1.092   4.144
 4507TIP3    H213463   6.231   1.038   4.251
 4508TIP3   OH213464   1.408   6.882   0.546
 4508TIP3    H113465   1.428   6.852   0.458
 4508TIP3    H213466   1.331   6.831   0.573
 4509TIP3   OH213467   0.657   0.375   4.000
 4509TIP3    H113468   0.608   0.384   3.919
 4509TIP3    H213469   0.728   0.315   3.979
 4510TIP3   OH213470   7.949   6.049   2.771
 4510TIP3    H113471   8.006   6.082   2.702
 4510TIP3    H213472   8.003   6.047   2.849
 4511TIP3   OH213473   1.084   5.079   0.824
 4511TIP3    H113474   1.137   5.078   0.745
 4511TIP3    H213475   1.146   5.096   0.895
 4512TIP3   OH213476   1.053   5.337   0.214
 4512TIP3    H113477   1.118   5.266   0.212
 4512TIP3    H213478   1.019   5.341   0.125
 4513TIP3   OH213479   3.671   2.141   6.646
 4513TIP3    H113480   3.602   2.199   6.677
 4513TIP3    H213481   3.632   2.094   6.572
 4514TIP3   OH213482   6.430   0.357   3.705
 4514TIP3    H113483   6.417   0.396   3.791
 4514TIP3    H213484   6.506   0.300   3.715
 4515TIP3   OH213485   3.591   0.763   5.341
 4515TIP3    H113486   3.501   0.737   5.321
 4515TIP3    H213487   3.601   0.748   5.435
 4516TIP3   OH213488   0.471   7.426   1.985
 4516TIP3    H113489   0.488   7.475   1.904
 4516TIP3    H213490   0.457   7.494   2.051
 4517TIP3   OH213491   7.862   0.063   0.756
 4517TIP3    H113492   7.810   0.024   0.826
 4517TIP3    H213493   7.851   0.158   0.768
 4518TIP3   OH213494   2.111   4.657   2.510
 4518TIP3    H113495   2.169   4.589   2.545
 4518TIP3    H213496   2.098   4.717   2.583
 4519TIP3   OH213497   7.955   6.293   1.868
 4519TIP3    H113498   7.973   6.367   1.809
 4519TIP3    H213499   8.027   6.294   1.930
 4520TIP3   OH213500   2.587   7.413   4.501
 4520TIP3    H113501   2.533   7.433   4.577
 4520TIP3    H213502   2.677   7.415   4.535
 4521TIP3   OH213503   7.881   7.663   6.025
 4521TIP3    H113504   7.933   7.585   6.003
 4521TIP3    H213505   7.803   7.656   5.970
 4522TIP3   OH213506   0.994   2.011   2.659
 4522TIP3    H113507   0.968   2.052   2.576
 4522TIP3    H213508   0.989   1.917   2.642
 4523TIP3   OH213509   7.116   6.892   4.410
 4523TIP3    H113510   7.192   6.950   4.417
 4523TIP3    H213511   7.123   6.835   4.487
 4524TIP3   OH213512   6.847   2.471   4.865
 4524TIP3    H113513   6.780   2.515   4.813
 4524TIP3    H213514   6.901   2.425   4.801
 4525TIP3   OH213515   1.855   1.474   5.967
 4525TIP3    H113516   1.928   1.455   5.908
 4525TIP3    H213517   1.816   1.554   5.931
 4526TIP3   OH213518   8.029   5.340   0.037
 4526TIP3    H113519   7.985   5.256   0.046
 4526TIP3    H213520   8.121   5.321   0.057
 4527TIP3   OH213521   6.215   5.986   0.764
 4527TIP3    H113522   6.236   5.928   0.837
 4527TIP3    H213523   6.287   6.050   0.762
 4528TIP3   OH213524   6.652   1.096   5.737
 4528TIP3    H113525   6.733   1.064   5.697
 4528TIP3    H213526   6.681   1.158   5.804
 4529TIP3   OH213527   3.804   3.567   0.011
 4529TIP3    H113528   3.781   3.525   0.094
 4529TIP3    H213529   3.898   3.583   0.018
 4530TIP3   OH213530   7.275   3.669   3.913
 4530TIP3    H113531   7.327   3.598   3.873
 4530TIP3    H213532   7.335   3.743   3.916
 4531TIP3   OH213533   2.286   3.054   5.647
 4531TIP3    H113534   2.360   3.061   5.708
 4531TIP3    H213535   2.307   2.978   5.592
 4532TIP3   OH213536   1.048   4.921   2.056
 4532TIP3    H113537   1.006   4.960   2.132
 4532TIP3    H213538   1.141   4.941   2.067
 4533TIP3   OH213539   5.933   3.532   1.991
 4533TIP3    H113540   5.842   3.519   1.965
 4533TIP3    H213541   5.943   3.627   2.000
 4534TIP3   OH213542   0.090   6.721   5.336
 4534TIP3    H113543   0.167   6.760   5.294
 4534TIP3    H213544   0.017   6.750   5.282
 4535TIP3   OH213545   6.188   2.692   5.002
 4535TIP3    H113546   6.232   2.650   4.928
 4535TIP3    H213547   6.172   2.782   4.973
 4536TIP3   OH213548   4.553   2.985   0.371
 4536TIP3    H113549   4.637   2.968   0.413
 4536TIP3    H213550   4.575   3.003   0.279
 4537TIP3   OH213551   6.644   4.887   2.670
 4537TIP3    H113552   6.725   4.848   2.702
 4537TIP3    H213553   6.673   4.951   2.605
 4538TIP3   OH213554   3.343   7.879   6.356
 4538TIP3    H113555   3.424   7.928   6.338
 4538TIP3    H213556   3.349   7.802   6.298
 4539TIP3   OH213557   6.173   4.691   6.236
 4539TIP3    H113558   6.082   4.722   6.236
 4539TIP3    H213559   6.219   4.754   6.180
 4540TIP3   OH213560   2.914   5.695   0.375
 4540TIP3    H113561   2.829   5.725   0.406
 4540TIP3    H213562   2.969   5.695   0.453
 4541TIP3   OH213563   6.413   4.390   3.001
 4541TIP3    H113564   6.406   4.296   3.015
 4541TIP3    H213565   6.506   4.405   2.983
 4542TIP3   OH213566   6.970   4.741   2.087
 4542TIP3    H113567   6.952   4.716   2.177
 4542TIP3    H213568   6.910   4.814   2.070
 4543TIP3   OH213569   1.144   7.245   6.061
 4543TIP3    H113570   1.167   7.222   5.971
 4543TIP3    H213571   1.057   7.206   6.074
 4544TIP3   OH213572   1.910   0.285   3.231
 4544TIP3    H113573   1.878   0.206   3.186
 4544TIP3    H213574   1.954   0.252   3.309
 4545TIP3   OH213575   3.029   6.680   6.727
 4545TIP3    H113576   2.950   6.734   6.729
 4545TIP3    H213577   3.100   6.740   6.751
 4546TIP3   OH213578   7.293   0.351   3.195
 4546TIP3    H113579   7.212   0.397   3.175
 4546TIP3    H213580   7.272   0.296   3.271
 4547TIP3   OH213581   4.324   4.340   0.473
 4547TIP3    H113582   4.370   4.256   0.479
 4547TIP3    H213583   4.394   4.405   0.468
 4548TIP3   OH213584   5.259   2.597   5.182
 4548TIP3    H113585   5.228   2.655   5.112
 4548TIP3    H213586   5.271   2.655   5.257
 4549TIP3   OH213587   8.111   1.459   5.442
 4549TIP3    H113588   8.089   1.459   5.536
 4549TIP3    H213589   8.122   1.552   5.421
 4550TIP3   OH213590   5.562   5.903   3.253
 4550TIP3    H113591   5.477   5.943   3.237
 4550TIP3    H213592   5.557   5.868   3.342
 4551TIP3   OH213593   6.860   0.568   5.377
 4551TIP3    H113594   6.819   0.485   5.355
 4551TIP3    H213595   6.950   0.561   5.345
 4552TIP3   OH213596   2.657   1.322   2.366
 4552TIP3    H113597   2.711   1.396   2.340
 4552TIP3    H213598   2.713   1.246   2.351
 4553TIP3   OH213599   0.719   3.043   3.303
 4553TIP3    H113600   0.721   3.066   3.210
 4553TIP3    H213601   0.761   3.116   3.347
 4554TIP3   OH213602   7.250   1.158   3.523
 4554TIP3    H113603   7.271   1.210   3.601
 4554TIP3    H213604   7.239   1.069   3.556
 4555TIP3   OH213605   1.180   3.136   6.821
 4555TIP3    H113606   1.162   3.048   6.853
 4555TIP3    H213607   1.243   3.123   6.750
 4556TIP3   OH213608   3.543   7.881   2.863
 4556TIP3    H113609   3.546   7.786   2.873
 4556TIP3    H213610   3.531   7.895   2.769
 4557TIP3   OH213611   7.925   2.092   4.420
 4557TIP3    H113612   7.863   2.143   4.473
 4557TIP3    H213613   7.870   2.032   4.371
 4558TIP3   OH213614   3.460   6.404   1.846
 4558TIP3    H113615   3.438   6.356   1.926
 4558TIP3    H213616   3.485   6.336   1.784
 4559TIP3   OH213617   4.045   5.635   3.001
 4559TIP3    H113618   3.985   5.707   3.023
 4559TIP3    H213619   3.987   5.559   2.989
 4560TIP3   OH213620   7.216   6.632   2.326
 4560TIP3    H113621   7.223   6.560   2.388
 4560TIP3    H213622   7.125   6.659   2.330
 4561TIP3   OH213623   4.900   3.746   4.885
 4561TIP3    H113624   4.820   3.790   4.858
 4561TIP3    H213625   4.962   3.816   4.904
 4562TIP3   OH213626   3.477   1.458   5.616
 4562TIP3    H113627   3.414   1.445   5.545
 4562TIP3    H213628   3.440   1.529   5.668
 4563TIP3   OH213629   6.835   0.788   1.646
 4563TIP3    H113630   6.866   0.838   1.571
 4563TIP3    H213631   6.762   0.840   1.681
 4564TIP3   OH213632   4.547   3.876   5.553
 4564TIP3    H113633   4.510   3.827   5.480
 4564TIP3    H213634   4.641   3.878   5.536
 4565TIP3   OH213635   2.048   2.328   3.473
 4565TIP3    H113636   2.096   2.337   3.555
 4565TIP3    H213637   2.113   2.297   3.410
 4566TIP3   OH213638   4.800   7.202   2.506
 4566TIP3    H113639   4.709   7.172   2.504
 4566TIP3    H213640   4.843   7.153   2.435
 4567TIP3   OH213641   6.250   1.226   0.362
 4567TIP3    H113642   6.321   1.280   0.327
 4567TIP3    H213643   6.226   1.169   0.289
 4568TIP3   OH213644   7.103   5.010   2.424
 4568TIP3    H113645   7.039   4.945   2.454
 4568TIP3    H213646   7.168   4.959   2.376
 4569TIP3   OH213647   5.989   1.510   2.099
 4569TIP3    H113648   5.998   1.476   2.009
 4569TIP3    H213649   5.901   1.547   2.102
 4570TIP3   OH213650   1.651   3.313   6.787
 4570TIP3    H113651   1.656   3.375   6.860
 4570TIP3    H213652   1.572   3.339   6.739
 4571TIP3   OH213653   5.082   4.862   5.670
 4571TIP3    H113654   5.072   4.885   5.577
 4571TIP3    H213655   5.129   4.779   5.669
 4572TIP3   OH213656   0.486   5.055   2.591
 4572TIP3    H113657   0.401   5.076   2.551
 4572TIP3    H213658   0.540   5.026   2.518
 4573TIP3   OH213659   3.168   7.431   3.806
 4573TIP3    H113660   3.090   7.479   3.834
 4573TIP3    H213661   3.190   7.375   3.881
 4574TIP3   OH213662   3.301   4.126   3.873
 4574TIP3    H113663   3.394   4.147   3.862
 4574TIP3    H213664   3.276   4.173   3.952
 4575TIP3   OH213665   7.408   3.168   5.873
 4575TIP3    H113666   7.364   3.196   5.954
 4575TIP3    H213667   7.371   3.082   5.855
 4576TIP3   OH213668   6.581   1.600   3.458
 4576TIP3    H113669   6.611   1.679   3.411
 4576TIP3    H213670   6.595   1.621   3.551
 4577TIP3   OH213671   6.248   1.849   5.487
 4577TIP3    H113672   6.211   1.895   5.563
 4577TIP3    H213673   6.190   1.773   5.475
 4578TIP3   OH213674   5.506   1.591   2.635
 4578TIP3    H113675   5.497   1.577   2.541
 4578TIP3    H213676   5.586   1.644   2.644
 4579TIP3   OH213677   5.467   6.129   6.207
 4579TIP3    H113678   5.550   6.146   6.163
 4579TIP3    H213679   5.454   6.034   6.200
 4580TIP3   OH213680   7.219   5.689   5.657
 4580TIP3    H113681   7.176   5.609   5.687
 4580TIP3    H213682   7.202   5.692   5.562
 4581TIP3   OH213683   4.968   3.894   0.351
 4581TIP3    H113684   5.056   3.885   0.388
 4581TIP3    H213685   4.951   3.812   0.306
 4582TIP3   OH213686   2.260   4.699   6.806
 4582TIP3    H113687   2.288   4.669   6.720
 4582TIP3    H213688   2.336   4.746   6.841
 4583TIP3   OH213689   1.896   0.322   0.429
 4583TIP3    H113690   1.870   0.295   0.517
 4583TIP3    H213691   1.890   0.417   0.429
 4584TIP3   OH213692   2.173   2.910   0.817
 4584TIP3    H113693   2.130   2.854   0.752
 4584TIP3    H213694   2.253   2.863   0.841
 4585TIP3   OH213695   8.337   1.793   2.047
 4585TIP3    H113696   8.361   1.819   1.958
 4585TIP3    H213697   8.242   1.804   2.050
 4586TIP3   OH213698   1.071   4.593   2.345
 4586TIP3    H113699   1.119   4.540   2.281
 4586TIP3    H213700   1.031   4.530   2.404
 4587TIP3   OH213701   2.788   1.522   4.987
 4587TIP3    H113702   2.805   1.485   5.074
 4587TIP3    H213703   2.735   1.600   5.005
 4588TIP3   OH213704   0.286   6.237   1.508
 4588TIP3    H113705   0.233   6.160   1.489
 4588TIP3    H213706   0.263   6.300   1.439
 4589TIP3   OH213707   0.176   2.607   0.324
 4589TIP3    H113708   0.124   2.672   0.276
 4589TIP3    H213709   0.112   2.543   0.355
 4590TIP3   OH213710   5.151   5.258   0.765
 4590TIP3    H113711   5.142   5.172   0.723
 4590TIP3    H213712   5.174   5.317   0.693
 4591TIP3   OH213713   5.947   3.232   4.055
 4591TIP3    H113714   5.880   3.214   4.121
 4591TIP3    H213715   5.938   3.325   4.036
 4592TIP3   OH213716   8.043   7.393   2.482
 4592TIP3    H113717   8.032   7.451   2.558
 4592TIP3    H213718   8.054   7.453   2.408
 4593TIP3   OH213719   3.684   2.610   2.369
 4593TIP3    H113720   3.654   2.548   2.302
 4593TIP3    H213721   3.701   2.691   2.321
 4594TIP3   OH213722   4.811   2.926   0.577
 4594TIP3    H113723   4.835   3.006   0.624
 4594TIP3    H213724   4.888   2.905   0.525
 4595TIP3   OH213725   5.313   7.024   4.068
 4595TIP3    H113726   5.250   6.971   4.020
 4595TIP3    H213727   5.295   7.005   4.160
 4596TIP3   OH213728   3.680   5.005   6.395
 4596TIP3    H113729   3.664   5.090   6.436
 4596TIP3    H213730   3.761   5.017   6.346
 4597TIP3   OH213731   3.140   1.176   1.952
 4597TIP3    H113732   3.109   1.134   1.872
 4597TIP3    H213733   3.126   1.111   2.020
 4598TIP3   OH213734   6.534   4.363   3.530
 4598TIP3    H113735   6.551   4.310   3.452
 4598TIP3    H213736   6.441   4.352   3.548
 4599TIP3   OH213737   4.336   3.965   4.892
 4599TIP3    H113738   4.407   3.925   4.942
 4599TIP3    H213739   4.284   4.012   4.957
 4600TIP3   OH213740   3.087   3.574   4.311
 4600TIP3    H113741   3.049   3.636   4.248
 4600TIP3    H213742   3.017   3.510   4.327
 4601TIP3   OH213743   4.651   4.946   6.086
 4601TIP3    H113744   4.617   4.866   6.125
 4601TIP3    H213745   4.734   4.962   6.131
 4602TIP3   OH213746   2.031   6.483   4.620
 4602TIP3    H113747   2.024   6.575   4.594
 4602TIP3    H213748   2.050   6.436   4.539
 4603TIP3   OH213749   5.782   3.594   1.161
 4603TIP3    H113750   5.732   3.513   1.149
 4603TIP3    H213751   5.874   3.566   1.164
 4604TIP3   OH213752   1.221   7.674   5.557
 4604TIP3    H113753   1.154   7.736   5.586
 4604TIP3    H213754   1.244   7.625   5.636
 4605TIP3   OH213755   0.313   1.010   5.001
 4605TIP3    H113756   0.377   1.065   4.956
 4605TIP3    H213757   0.362   0.933   5.028
 4606TIP3   OH213758   7.436   4.850   0.451
 4606TIP3    H113759   7.486   4.819   0.375
 4606TIP3    H213760   7.397   4.932   0.423
 4607TIP3   OH213761   8.290   5.267   6.145
 4607TIP3    H113762   8.247   5.251   6.061
 4607TIP3    H213763   8.312   5.179   6.177
 4608TIP3   OH213764   0.654   4.529   1.777
 4608TIP3    H113765   0.661   4.466   1.848
 4608TIP3    H213766   0.641   4.613   1.821
 4609TIP3   OH213767   4.497   7.779   0.183
 4609TIP3    H113768   4.458   7.698   0.150
 4609TIP3    H213769   4.591   7.760   0.189
 4610TIP3   OH213770   2.021   7.891   6.823
 4610TIP3    H113771   2.051   7.981   6.810
 4610TIP3    H213772   2.101   7.841   6.838
 4611TIP3   OH213773   3.360   7.300   6.230
 4611TIP3    H113774   3.324   7.245   6.300
 4611TIP3    H213775   3.398   7.238   6.168
 4612TIP3   OH213776   7.489   7.721   1.314
 4612TIP3    H113777   7.462   7.771   1.237
 4612TIP3    H213778   7.438   7.640   1.310
 4613TIP3   OH213779   3.999   3.543   1.163
 4613TIP3    H113780   4.020   3.602   1.091
 4613TIP3    H213781   3.905   3.554   1.177
 4614TIP3   OH213782   5.316   3.616   1.744
 4614TIP3    H113783   5.310   3.521   1.740
 4614TIP3    H213784   5.249   3.642   1.806
 4615TIP3   OH213785   2.624   0.993   4.411
 4615TIP3    H113786   2.627   0.944   4.493
 4615TIP3    H213787   2.709   1.036   4.405
 4616TIP3   OH213788   3.236   7.086   4.492
 4616TIP3    H113789   3.199   7.072   4.579
 4616TIP3    H213790   3.232   7.181   4.479
 4617TIP3   OH213791   0.969   6.562   0.561
 4617TIP3    H113792   0.875   6.561   0.581
 4617TIP3    H213793   1.000   6.475   0.586
 4618TIP3   OH213794   1.816   2.091   4.724
 4618TIP3    H113795   1.783   2.001   4.716
 4618TIP3    H213796   1.852   2.111   4.638
 4619TIP3   OH213797   4.091   1.031   6.194
 4619TIP3    H113798   4.124   1.120   6.176
 4619TIP3    H213799   4.048   1.039   6.279
 4620TIP3   OH213800   7.113   3.423   1.257
 4620TIP3    H113801   7.051   3.359   1.291
 4620TIP3    H213802   7.064   3.505   1.253
 4621TIP3   OH213803   5.317   7.091   1.128
 4621TIP3    H113804   5.406   7.115   1.104
 4621TIP3    H213805   5.303   7.131   1.214
 4622TIP3   OH213806   3.054   6.576   4.813
 4622TIP3    H113807   3.014   6.537   4.734
 4622TIP3    H213808   3.135   6.617   4.781
 4623TIP3   OH213809   2.415   1.879   4.357
 4623TIP3    H113810   2.458   1.962   4.337
 4623TIP3    H213811   2.392   1.886   4.450
 4624TIP3   OH213812   3.533   7.583   5.350
 4624TIP3    H113813   3.464   7.649   5.353
 4624TIP3    H213814   3.503   7.515   5.411
 4625TIP3   OH213815   7.796   6.248   3.807
 4625TIP3    H113816   7.857   6.290   3.868
 4625TIP3    H213817   7.811   6.292   3.723
 4626TIP3   OH213818   6.288   4.300   1.331
 4626TIP3    H113819   6.269   4.390   1.358
 4626TIP3    H213820   6.379   4.285   1.359
 4627TIP3   OH213821   3.814   2.818   4.265
 4627TIP3    H113822   3.893   2.791   4.312
 4627TIP3    H213823   3.742   2.781   4.317
 4628TIP3   OH213824   7.486   7.807   4.682
 4628TIP3    H113825   7.457   7.733   4.628
 4628TIP3    H213826   7.581   7.797   4.688
 4629TIP3   OH213827   1.533   3.029   4.366
 4629TIP3    H113828   1.476   2.954   4.349
 4629TIP3    H213829   1.560   3.058   4.279
 4630TIP3   OH213830   4.869   5.288   3.596
 4630TIP3    H113831   4.802   5.305   3.662
 4630TIP3    H213832   4.823   5.239   3.527
 4631TIP3   OH213833   2.431   6.060   3.584
 4631TIP3    H113834   2.502   6.119   3.562
 4631TIP3    H213835   2.457   6.021   3.668
 4632TIP3   OH213836   5.962   4.745   5.855
 4632TIP3    H113837   5.926   4.689   5.924
 4632TIP3    H213838   6.004   4.684   5.794
 4633TIP3   OH213839   4.057   0.668   4.503
 4633TIP3    H113840   4.112   0.612   4.448
 4633TIP3    H213841   4.095   0.660   4.590
 4634TIP3   OH213842   0.318   5.401   6.405
 4634TIP3    H113843   0.257   5.453   6.353
 4634TIP3    H213844   0.298   5.310   6.383
 4635TIP3   OH213845   4.534   2.055   0.082
 4635TIP3    H113846   4.544   1.973   0.034
 4635TIP3    H213847   4.621   2.073   0.118
 4636TIP3   OH213848   7.766   7.089   6.826
 4636TIP3    H113849   7.820   7.016   6.855
 4636TIP3    H213850   7.819   7.167   6.846
 4637TIP3   OH213851   0.814   1.594   5.529
 4637TIP3    H113852   0.822   1.586   5.434
 4637TIP3    H213853   0.826   1.505   5.561
 4638TIP3   OH213854   7.225   1.640   3.907
 4638TIP3    H113855   7.239   1.662   3.815
 4638TIP3    H213856   7.159   1.702   3.937
 4639TIP3   OH213857   7.796   4.835   2.583
 4639TIP3    H113858   7.870   4.790   2.624
 4639TIP3    H213859   7.734   4.851   2.655
 4640TIP3   OH213860   6.856   6.564   4.523
 4640TIP3    H113861   6.871   6.596   4.434
 4640TIP3    H213862   6.924   6.606   4.576
 4641TIP3   OH213863   0.944   6.720   6.103
 4641TIP3    H113864   0.948   6.627   6.125
 4641TIP3    H213865   0.904   6.723   6.017
 4642TIP3   OH213866   4.026   5.802   3.940
 4642TIP3    H113867   4.090   5.733   3.957
 4642TIP3    H213868   4.022   5.852   4.022
 4643TIP3   OH213869   0.237   3.774   4.460
 4643TIP3    H113870   0.229   3.708   4.530
 4643TIP3    H213871   0.161   3.830   4.471
 4644TIP3   OH213872   7.206   1.494   5.647
 4644TIP3    H113873   7.207   1.497   5.743
 4644TIP3    H213874   7.218   1.402   5.625
 4645TIP3   OH213875   2.903   5.199   0.441
 4645TIP3    H113876   2.901   5.146   0.362
 4645TIP3    H213877   2.866   5.284   0.415
 4646TIP3   OH213878   5.615   4.367   2.577
 4646TIP3    H113879   5.543   4.307   2.591
 4646TIP3    H213880   5.692   4.322   2.613
 4647TIP3   OH213881   4.195   4.994   0.622
 4647TIP3    H113882   4.158   4.906   0.612
 4647TIP3    H213883   4.262   4.999   0.554
 4648TIP3   OH213884   5.639   3.461   5.544
 4648TIP3    H113885   5.712   3.504   5.589
 4648TIP3    H213886   5.659   3.368   5.549
 4649TIP3   OH213887   3.892   1.230   3.649
 4649TIP3    H113888   3.876   1.170   3.721
 4649TIP3    H213889   3.979   1.265   3.666
 4650TIP3   OH213890   4.590   6.105   5.076
 4650TIP3    H113891   4.568   6.106   5.169
 4650TIP3    H213892   4.560   6.019   5.045
 4651TIP3   OH213893   6.716   5.930   5.204
 4651TIP3    H113894   6.666   5.861   5.248
 4651TIP3    H213895   6.802   5.930   5.247
 4652TIP3   OH213896   0.948   1.641   5.833
 4652TIP3    H113897   1.026   1.695   5.846
 4652TIP3    H213898   0.982   1.551   5.828
 4653TIP3   OH213899   0.778   4.663   3.709
 4653TIP3    H113900   0.795   4.707   3.792
 4653TIP3    H213901   0.698   4.704   3.677
 4654TIP3   OH213902   4.459   2.077   1.847
 4654TIP3    H113903   4.424   2.152   1.801
 4654TIP3    H213904   4.553   2.080   1.831
 4655TIP3   OH213905   2.323   1.524   6.399
 4655TIP3    H113906   2.369   1.498   6.320
 4655TIP3    H213907   2.237   1.552   6.368
 4656TIP3   OH213908   2.401   0.061   6.237
 4656TIP3    H113909   2.427   0.079   6.327
 4656TIP3    H213910   2.389   0.147   6.197
 4657TIP3   OH213911   5.738   5.793   1.406
 4657TIP3    H113912   5.770   5.857   1.470
 4657TIP3    H213913   5.812   5.780   1.347
 4658TIP3   OH213914   1.543   1.421   5.801
 4658TIP3    H113915   1.456   1.389   5.779
 4658TIP3    H213916   1.581   1.353   5.857
 4659TIP3   OH213917   1.490   3.410   4.601
 4659TIP3    H113918   1.552   3.337   4.589
 4659TIP3    H213919   1.537   3.471   4.658
 4660TIP3   OH213920   1.745   2.836   0.151
 4660TIP3    H113921   1.762   2.743   0.166
 4660TIP3    H213922   1.816   2.881   0.197
 4661TIP3   OH213923   8.181   2.206   1.980
 4661TIP3    H113924   8.156   2.296   1.958
 4661TIP3    H213925   8.209   2.168   1.897
 4662TIP3   OH213926   3.647   0.078   3.725
 4662TIP3    H113927   3.698   0.146   3.769
 4662TIP3    H213928   3.604   0.124   3.653
 4663TIP3   OH213929   5.692   2.970   6.653
 4663TIP3    H113930   5.663   3.062   6.652
 4663TIP3    H213931   5.666   2.936   6.568
 4664TIP3   OH213932   6.240  -0.020   0.882
 4664TIP3    H113933   6.333  -0.019   0.861
 4664TIP3    H213934   6.219   0.072   0.900
 4665TIP3   OH213935   4.877   4.509   6.302
 4665TIP3    H113936   4.878   4.413   6.300
 4665TIP3    H213937   4.787   4.532   6.279
 4666TIP3   OH213938   1.153   2.664   3.004
 4666TIP3    H113939   1.232   2.649   3.056
 4666TIP3    H213940   1.122   2.576   2.982
 4667TIP3   OH213941   4.827   6.637   3.599
 4667TIP3    H113942   4.887   6.571   3.633
 4667TIP3    H213943   4.882   6.693   3.544
 4668TIP3   OH213944   0.022   2.803   3.076
 4668TIP3    H113945   0.106   2.773   3.042
 4668TIP3    H213946  -0.043   2.764   3.019
 4669TIP3   OH213947   3.888   2.137   5.847
 4669TIP3    H113948   3.943   2.175   5.779
 4669TIP3    H213949   3.948   2.114   5.918
 4670TIP3   OH213950   2.535   0.136   1.330
 4670TIP3    H113951   2.594   0.185   1.388
 4670TIP3    H213952   2.497   0.069   1.386
 4671TIP3   OH213953   4.391   2.280   6.628
 4671TIP3    H113954   4.393   2.277   6.724
 4671TIP3    H213955   4.305   2.246   6.605
 4672TIP3   OH213956   4.513   5.965   2.491
 4672TIP3    H113957   4.421   5.976   2.513
 4672TIP3    H213958   4.514   5.903   2.419
 4673TIP3   OH213959   2.553   2.983   4.096
 4673TIP3    H113960   2.461   2.958   4.095
 4673TIP3    H213961   2.561   3.045   4.168
 4674TIP3   OH213962   7.569   5.908   2.477
 4674TIP3    H113963   7.628   5.951   2.539
 4674TIP3    H213964   7.627   5.853   2.423
 4675TIP3   OH213965   6.890   0.020   1.167
 4675TIP3    H113966   6.968   0.075   1.174
 4675TIP3    H213967   6.820   0.080   1.143
 4676TIP3   OH213968   3.796   3.828   2.180
 4676TIP3    H113969   3.781   3.772   2.257
 4676TIP3    H213970   3.710   3.863   2.159
 4677TIP3   OH213971   6.532   7.523   1.003
 4677TIP3    H113972   6.444   7.556   1.022
 4677TIP3    H213973   6.538   7.521   0.908
 4678TIP3   OH213974   3.897   7.672   5.894
 4678TIP3    H113975   3.809   7.696   5.924
 4678TIP3    H213976   3.956   7.724   5.948
 4679TIP3   OH213977   7.301   4.239   4.537
 4679TIP3    H113978   7.225   4.296   4.544
 4679TIP3    H213979   7.345   4.267   4.457
 4680TIP3   OH213980   8.111   0.544   3.498
 4680TIP3    H113981   8.200   0.578   3.511
 4680TIP3    H213982   8.080   0.588   3.419
 4681TIP3   OH213983   8.373   7.156   6.590
 4681TIP3    H113984   8.403   7.075   6.631
 4681TIP3    H213985   8.334   7.128   6.508
 4682TIP3   OH213986   8.204   0.343   4.041
 4682TIP3    H113987   8.230   0.354   3.949
 4682TIP3    H213988   8.260   0.273   4.074
 4683TIP3   OH213989   5.986   4.664   4.996
 4683TIP3    H113990   5.924   4.736   5.009
 4683TIP3    H213991   6.072   4.705   5.006
 4684TIP3   OH213992   4.444   0.436   2.937
 4684TIP3    H113993   4.389   0.361   2.962
 4684TIP3    H213994   4.410   0.509   2.989
 4685TIP3   OH213995   3.179   1.535   4.017
 4685TIP3    H113996   3.132   1.605   3.971
 4685TIP3    H213997   3.169   1.557   4.110
 4686TIP3   OH213998   4.138   1.291   6.100
 4686TIP3    H113999   4.206   1.326   6.043
 4686TIP3    H214000   4.134   1.354   6.173
 4687TIP3   OH214001   2.248   2.985   1.601
 4687TIP3    H114002   2.199   3.004   1.681
 4687TIP3    H214003   2.332   2.952   1.632
 4688TIP3   OH214004   1.659   7.285   5.751
 4688TIP3    H114005   1.626   7.254   5.836
 4688TIP3    H214006   1.645   7.210   5.693
 4689TIP3   OH214007   7.871   1.016   1.775
 4689TIP3    H114008   7.919   0.950   1.726
 4689TIP3    H214009   7.850   0.974   1.859
 4690TIP3   OH214010   2.419   1.856   4.894
 4690TIP3    H114011   2.394   1.835   4.985
 4690TIP3    H214012   2.386   1.782   4.843
 4691TIP3   OH214013   5.817   1.322   4.187
 4691TIP3    H114014   5.902   1.312   4.229
 4691TIP3    H214015   5.836   1.324   4.093
 4692TIP3   OH214016   8.028   6.306   6.131
 4692TIP3    H114017   8.000   6.219   6.102
 4692TIP3    H214018   7.947   6.356   6.139
 4693TIP3   OH214019   0.956   3.004   5.978
 4693TIP3    H114020   0.891   2.948   6.021
 4693TIP3    H214021   0.989   3.060   6.049
 4694TIP3   OH214022   2.998   5.418   2.992
 4694TIP3    H114023   2.994   5.468   3.073
 4694TIP3    H214024   3.091   5.403   2.977
 4695TIP3   OH214025   2.457   0.994   5.354
 4695TIP3    H114026   2.493   0.933   5.419
 4695TIP3    H214027   2.489   0.961   5.270
 4696TIP3   OH214028   0.304   6.805   5.183
 4696TIP3    H114029   0.394   6.777   5.202
 4696TIP3    H214030   0.313   6.869   5.113
 4697TIP3   OH214031   6.149   1.247   3.891
 4697TIP3    H114032   6.122   1.156   3.872
 4697TIP3    H214033   6.067   1.292   3.909
 4698TIP3   OH214034   0.566   5.465   2.532
 4698TIP3    H114035   0.577   5.513   2.450
 4698TIP3    H214036   0.538   5.378   2.504
 4699TIP3   OH214037   5.022   2.170   6.890
 4699TIP3    H114038   4.952   2.184   6.826
 4699TIP3    H214039   5.096   2.140   6.838
 4700TIP3   OH214040   1.817   7.504   5.799
 4700TIP3    H114041   1.907   7.477   5.815
 4700TIP3    H214042   1.774   7.424   5.766
 4701TIP3   OH214043   3.015   4.929   5.575
 4701TIP3    H114044   2.941   4.946   5.633
 4701TIP3    H214045   2.987   4.857   5.520
 4702TIP3   OH214046   0.422   7.829   2.941
 4702TIP3    H114047   0.332   7.797   2.928
 4702TIP3    H214048   0.474   7.749   2.952
 4703TIP3   OH214049   5.957   5.053   6.352
 4703TIP3    H114050   5.893   5.088   6.414
 4703TIP3    H214051   6.042   5.065   6.395
 4704TIP3   OH214052   0.715   2.282   6.183
 4704TIP3    H114053   0.638   2.228   6.164
 4704TIP3    H214054   0.679   2.367   6.206
 4705TIP3   OH214055   8.136   3.351   1.221
 4705TIP3    H114056   8.191   3.394   1.155
 4705TIP3    H214057   8.150   3.404   1.300
 4706TIP3   OH214058   7.948   3.166   3.535
 4706TIP3    H114059   8.013   3.139   3.600
 4706TIP3    H214060   7.920   3.084   3.494
 4707TIP3   OH214061   6.106   5.678   2.562
 4707TIP3    H114062   6.189   5.630   2.565
 4707TIP3    H214063   6.039   5.610   2.550
 4708TIP3   OH214064   6.129   6.633   1.707
 4708TIP3    H114065   6.184   6.680   1.769
 4708TIP3    H214066   6.041   6.634   1.747
 4709TIP3   OH214067   1.802   0.137   4.135
 4709TIP3    H114068   1.861   0.074   4.093
 4709TIP3    H214069   1.718   0.092   4.140
 4710TIP3   OH214070   6.837   5.191   0.855
 4710TIP3    H114071   6.750   5.152   0.847
 4710TIP3    H214072   6.829   5.275   0.808
 4711TIP3   OH214073   4.005   0.477   0.980
 4711TIP3    H114074   3.944   0.439   1.043
 4711TIP3    H214075   4.080   0.507   1.032
 4712TIP3   OH214076   0.179   1.676   5.388
 4712TIP3    H114077   0.209   1.763   5.364
 4712TIP3    H214078   0.158   1.634   5.304
 4713TIP3   OH214079   4.716   5.786   0.729
 4713TIP3    H114080   4.720   5.701   0.685
 4713TIP3    H214081   4.802   5.797   0.769
 4714TIP3   OH214082   3.348   1.850   2.700
 4714TIP3    H114083   3.427   1.800   2.720
 4714TIP3    H214084   3.380   1.934   2.668
 4715TIP3   OH214085   0.827   6.661   2.059
 4715TIP3    H114086   0.782   6.591   2.011
 4715TIP3    H214087   0.758   6.724   2.079
 4716TIP3   OH214088   3.011   5.759   5.753
 4716TIP3    H114089   2.998   5.831   5.815
 4716TIP3    H214090   3.105   5.741   5.757
 4717TIP3   OH214091   4.809   7.578   6.768
 4717TIP3    H114092   4.841   7.625   6.845
 4717TIP3    H214093   4.776   7.495   6.802
 4718TIP3   OH214094   1.717   2.849   3.375
 4718TIP3    H114095   1.755   2.821   3.458
 4718TIP3    H214096   1.642   2.903   3.400
 4719TIP3   OH214097   1.066   6.233   5.342
 4719TIP3    H114098   1.082   6.190   5.258
 4719TIP3    H214099   1.131   6.196   5.401
 4720TIP3   OH214100   1.795   4.363   2.908
 4720TIP3    H114101   1.785   4.452   2.941
 4720TIP3    H214102   1.862   4.369   2.840
 4721TIP3   OH214103   2.394   1.273   4.951
 4721TIP3    H114104   2.363   1.280   5.041
 4721TIP3    H214105   2.403   1.179   4.936
 4722TIP3   OH214106   1.040   1.762   5.272
 4722TIP3    H114107   1.079   1.700   5.210
 4722TIP3    H214108   0.970   1.712   5.314
 4723TIP3   OH214109   6.026   7.423   5.693
 4723TIP3    H114110   6.095   7.423   5.759
 4723TIP3    H214111   6.021   7.514   5.664
 4724TIP3   OH214112   4.505   2.338   4.319
 4724TIP3    H114113   4.513   2.254   4.275
 4724TIP3    H214114   4.422   2.333   4.365
 4725TIP3   OH214115   5.582   5.178   6.265
 4725TIP3    H114116   5.526   5.215   6.197
 4725TIP3    H214117   5.569   5.083   6.257
 4726TIP3   OH214118   3.463   5.668   2.428
 4726TIP3    H114119   3.369   5.652   2.426
 4726TIP3    H214120   3.495   5.636   2.344
 4727TIP3   OH214121   5.725   6.428   0.333
 4727TIP3    H114122   5.633   6.453   0.340
 4727TIP3    H214123   5.743   6.430   0.239
 4728TIP3   OH214124   7.471   0.563   1.175
 4728TIP3    H114125   7.392   0.510   1.188
 4728TIP3    H214126   7.470   0.625   1.247
 4729TIP3   OH214127   6.783   1.008   0.530
 4729TIP3    H114128   6.833   1.084   0.559
 4729TIP3    H214129   6.845   0.935   0.536
 4730TIP3   OH214130   2.886   4.612   3.440
 4730TIP3    H114131   2.954   4.575   3.496
 4730TIP3    H214132   2.808   4.560   3.458
 4731TIP3   OH214133   2.546   0.736   4.153
 4731TIP3    H114134   2.473   0.721   4.094
 4731TIP3    H214135   2.506   0.766   4.235
 4732TIP3   OH214136   6.083   7.104   1.555
 4732TIP3    H114137   6.043   7.048   1.622
 4732TIP3    H214138   6.021   7.103   1.482
 4733TIP3   OH214139   3.124   0.408   5.525
 4733TIP3    H114140   3.172   0.484   5.556
 4733TIP3    H214141   3.050   0.399   5.585
 4734TIP3   OH214142   8.346   2.686   1.551
 4734TIP3    H114143   8.364   2.745   1.623
 4734TIP3    H214144   8.336   2.600   1.592
 4735TIP3   OH214145   7.732   5.841   2.220
 4735TIP3    H114146   7.701   5.868   2.134
 4735TIP3    H214147   7.764   5.751   2.206
 4736TIP3   OH214148   4.031   5.067   6.556
 4736TIP3    H114149   3.977   4.996   6.521
 4736TIP3    H214150   4.120   5.031   6.556
 4737TIP3   OH214151   4.344   0.518   0.849
 4737TIP3    H114152   4.374   0.594   0.899
 4737TIP3    H214153   4.392   0.444   0.886
 4738TIP3   OH214154   3.872   6.064   3.456
 4738TIP3    H114155   3.798   6.122   3.436
 4738TIP3    H214156   3.949   6.111   3.426
 4739TIP3   OH214157   2.387   5.627   0.722
 4739TIP3    H114158   2.343   5.639   0.806
 4739TIP3    H214159   2.450   5.700   0.718
 4740TIP3   OH214160   1.270   3.818   1.133
 4740TIP3    H114161   1.269   3.779   1.045
 4740TIP3    H214162   1.186   3.863   1.140
 4741TIP3   OH214163   3.774   6.036   5.696
 4741TIP3    H114164   3.710   5.986   5.645
 4741TIP3    H214165   3.793   5.980   5.772
 4742TIP3   OH214166   4.629   6.575   6.168
 4742TIP3    H114167   4.667   6.499   6.211
 4742TIP3    H214168   4.563   6.607   6.230
 4743TIP3   OH214169   3.638   2.189   5.792
 4743TIP3    H114170   3.723   2.169   5.830
 4743TIP3    H214171   3.625   2.282   5.810
 4744TIP3   OH214172   5.547   4.543   6.494
 4744TIP3    H114173   5.572   4.555   6.586
 4744TIP3    H214174   5.463   4.497   6.498
 4745TIP3   OH214175   4.724   5.633   4.963
 4745TIP3    H114176   4.682   5.694   5.025
 4745TIP3    H214177   4.712   5.547   5.003
 4746TIP3   OH214178   7.184   5.574   2.625
 4746TIP3    H114179   7.260   5.632   2.616
 4746TIP3    H214180   7.219   5.486   2.607
 4747TIP3   OH214181   8.069   6.122   2.524
 4747TIP3    H114182   8.032   6.040   2.492
 4747TIP3    H214183   8.126   6.152   2.453
 4748TIP3   OH214184   3.070   5.537   1.757
 4748TIP3    H114185   3.029   5.450   1.754
 4748TIP3    H214186   3.133   5.530   1.828
 4749TIP3   OH214187   4.009   5.669   0.308
 4749TIP3    H114188   3.960   5.618   0.373
 4749TIP3    H214189   4.101   5.652   0.330
 4750TIP3   OH214190   7.084   3.733   1.837
 4750TIP3    H114191   7.138   3.743   1.759
 4750TIP3    H214192   7.041   3.818   1.848
 4751TIP3   OH214193   1.815   7.674   1.988
 4751TIP3    H114194   1.880   7.726   1.940
 4751TIP3    H214195   1.821   7.587   1.950
 4752TIP3   OH214196   5.297   3.573   6.101
 4752TIP3    H114197   5.376   3.529   6.070
 4752TIP3    H214198   5.301   3.563   6.196
 4753TIP3   OH214199   5.800   5.286   1.689
 4753TIP3    H114200   5.867   5.224   1.718
 4753TIP3    H214201   5.717   5.244   1.712
 4754TIP3   OH214202   4.232   0.797   6.165
 4754TIP3    H114203   4.182   0.877   6.178
 4754TIP3    H214204   4.231   0.753   6.250
 4755TIP3   OH214205   3.396   2.605   0.504
 4755TIP3    H114206   3.383   2.512   0.521
 4755TIP3    H214207   3.375   2.616   0.412
 4756TIP3   OH214208   2.322   6.099   1.519
 4756TIP3    H114209   2.370   6.134   1.444
 4756TIP3    H214210   2.350   6.007   1.524
 4757TIP3   OH214211   5.530   4.295   3.768
 4757TIP3    H114212   5.469   4.245   3.714
 4757TIP3    H214213   5.520   4.258   3.856
 4758TIP3   OH214214   7.856   5.571   5.203
 4758TIP3    H114215   7.832   5.658   5.173
 4758TIP3    H214216   7.803   5.511   5.150
 4759TIP3   OH214217   4.808   5.535   5.756
 4759TIP3    H114218   4.885   5.590   5.772
 4759TIP3    H214219   4.828   5.453   5.799
 4760TIP3   OH214220   1.733   7.763   0.482
 4760TIP3    H114221   1.640   7.780   0.462
 4760TIP3    H214222   1.748   7.810   0.563
 4761TIP3   OH214223   1.485   5.228   1.173
 4761TIP3    H114224   1.537   5.305   1.148
 4761TIP3    H214225   1.426   5.260   1.242
 4762TIP3   OH214226   1.808   6.455   5.318
 4762TIP3    H114227   1.735   6.508   5.351
 4762TIP3    H214228   1.872   6.519   5.287
 4763TIP3   OH214229   3.019   0.318   4.831
 4763TIP3    H114230   3.005   0.404   4.791
 4763TIP3    H214231   3.114   0.306   4.827
 4764TIP3   OH214232   6.082   6.436   3.617
 4764TIP3    H114233   6.176   6.449   3.612
 4764TIP3    H214234   6.049   6.513   3.663
 4765TIP3   OH214235   3.833   3.120   1.459
 4765TIP3    H114236   3.871   3.049   1.408
 4765TIP3    H214237   3.780   3.075   1.526
 4766TIP3   OH214238   7.087   0.235   0.904
 4766TIP3    H114239   7.016   0.224   0.841
 4766TIP3    H214240   7.043   0.249   0.988
 4767TIP3   OH214241   5.383   7.559   5.997
 4767TIP3    H114242   5.353   7.612   6.071
 4767TIP3    H214243   5.307   7.552   5.939
 4768TIP3   OH214244   0.583   7.265   6.427
 4768TIP3    H114245   0.526   7.214   6.485
 4768TIP3    H214246   0.581   7.217   6.344
 4769TIP3   OH214247   1.728   2.239   6.677
 4769TIP3    H114248   1.653   2.252   6.735
 4769TIP3    H214249   1.710   2.157   6.632
 4770TIP3   OH214250   4.273   2.384   4.469
 4770TIP3    H114251   4.247   2.336   4.548
 4770TIP3    H214252   4.195   2.386   4.415
 4771TIP3   OH214253   1.655   5.962   2.001
 4771TIP3    H114254   1.644   6.046   1.955
 4771TIP3    H214255   1.740   5.929   1.970
 4772TIP3   OH214256   5.784   1.480   5.277
 4772TIP3    H114257   5.718   1.540   5.312
 4772TIP3    H214258   5.857   1.536   5.252
 4773TIP3   OH214259   7.862   4.870   2.333
 4773TIP3    H114260   7.945   4.824   2.327
 4773TIP3    H214261   7.834   4.857   2.424
 4774TIP3   OH214262   8.038   6.638   2.943
 4774TIP3    H114263   8.007   6.663   2.856
 4774TIP3    H214264   8.075   6.718   2.980
 4775TIP3   OH214265   0.601   3.941   2.820
 4775TIP3    H114266   0.590   3.854   2.782
 4775TIP3    H214267   0.691   3.942   2.853
 4776TIP3   OH214268   0.633   7.356   0.432
 4776TIP3    H114269   0.692   7.283   0.411
 4776TIP3    H214270   0.610   7.393   0.347
 4777TIP3   OH214271   4.787   7.699   6.446
 4777TIP3    H114272   4.840   7.744   6.380
 4777TIP3    H214273   4.769   7.766   6.512
 4778TIP3   OH214274   2.087   3.972   3.534
 4778TIP3    H114275   2.037   3.927   3.602
 4778TIP3    H214276   2.058   4.063   3.539
 4779TIP3   OH214277   5.353   5.479   1.333
 4779TIP3    H114278   5.354   5.488   1.238
 4779TIP3    H214279   5.290   5.409   1.350
 4780TIP3   OH214280   7.617   3.237   1.981
 4780TIP3    H114281   7.582   3.180   1.913
 4780TIP3    H214282   7.551   3.305   1.992
 4781TIP3   OH214283   2.524   7.337   5.457
 4781TIP3    H114284   2.534   7.432   5.457
 4781TIP3    H214285   2.510   7.314   5.548
 4782TIP3   OH214286   1.122   3.298   2.928
 4782TIP3    H114287   1.047   3.255   2.888
 4782TIP3    H214288   1.165   3.343   2.855
 4783TIP3   OH214289   7.347   4.656   3.269
 4783TIP3    H114290   7.333   4.706   3.349
 4783TIP3    H214291   7.361   4.566   3.298
 4784TIP3   OH214292   2.398   2.402   2.365
 4784TIP3    H114293   2.325   2.443   2.319
 4784TIP3    H214294   2.376   2.411   2.458
 4785TIP3   OH214295   2.654   6.778   4.933
 4785TIP3    H114296   2.711   6.845   4.895
 4785TIP3    H214297   2.595   6.826   4.991
 4786TIP3   OH214298   3.361   7.496   0.911
 4786TIP3    H114299   3.438   7.505   0.854
 4786TIP3    H214300   3.327   7.585   0.921
 4787TIP3   OH214301   4.497   2.919   1.079
 4787TIP3    H114302   4.572   2.976   1.094
 4787TIP3    H214303   4.535   2.835   1.053
 4788TIP3   OH214304   3.059   3.650   6.335
 4788TIP3    H114305   3.139   3.666   6.285
 4788TIP3    H214306   3.052   3.725   6.394
 4789TIP3   OH214307   3.185   2.189   5.802
 4789TIP3    H114308   3.271   2.151   5.786
 4789TIP3    H214309   3.189   2.221   5.892
 4790TIP3   OH214310   4.558   2.492   0.812
 4790TIP3    H114311   4.586   2.409   0.850
 4790TIP3    H214312   4.629   2.517   0.753
 4791TIP3   OH214313   5.258   6.515   3.869
 4791TIP3    H114314   5.309   6.522   3.950
 4791TIP3    H214315   5.288   6.434   3.829
 4792TIP3   OH214316   5.698   5.828   4.971
 4792TIP3    H114317   5.681   5.766   5.042
 4792TIP3    H214318   5.691   5.776   4.891
 4793TIP3   OH214319   6.058   2.910   5.229
 4793TIP3    H114320   6.075   2.817   5.247
 4793TIP3    H214321   6.118   2.932   5.158
 4794TIP3   OH214322   5.364   7.063   6.823
 4794TIP3    H114323   5.271   7.050   6.840
 4794TIP3    H214324   5.389   7.135   6.880
 4795TIP3   OH214325   0.114   2.326   3.612
 4795TIP3    H114326   0.101   2.311   3.519
 4795TIP3    H214327   0.203   2.296   3.630
 4796TIP3   OH214328   4.286   7.486   1.400
 4796TIP3    H114329   4.286   7.397   1.434
 4796TIP3    H214330   4.375   7.517   1.412
 4797TIP3   OH214331   1.804   6.452   6.239
 4797TIP3    H114332   1.759   6.481   6.159
 4797TIP3    H214333   1.847   6.531   6.272
 4798TIP3   OH214334   3.329   5.229   1.773
 4798TIP3    H114335   3.260   5.166   1.795
 4798TIP3    H214336   3.316   5.301   1.835
 4799TIP3   OH214337   4.703   6.483   1.091
 4799TIP3    H114338   4.632   6.444   1.039
 4799TIP3    H214339   4.780   6.476   1.036
 4800TIP3   OH214340   3.680   0.718   3.907
 4800TIP3    H114341   3.671   0.676   3.993
 4800TIP3    H214342   3.644   0.806   3.919
 4801TIP3   OH214343   4.901   4.786   4.304
 4801TIP3    H114344   4.843   4.848   4.261
 4801TIP3    H214345   4.854   4.759   4.383
 4802TIP3   OH214346   1.630   5.589   5.846
 4802TIP3    H114347   1.545   5.606   5.887
 4802TIP3    H214348   1.645   5.664   5.790
 4803TIP3   OH214349   7.222   5.937   0.093
 4803TIP3    H114350   7.180   5.853   0.110
 4803TIP3    H214351   7.159   5.985   0.038
 4804TIP3   OH214352   2.113   6.949   0.036
 4804TIP3    H114353   2.131   7.037   0.002
 4804TIP3    H214354   2.018   6.943   0.039
 4805TIP3   OH214355   8.195   6.299   4.573
 4805TIP3    H114356   8.256   6.280   4.502
 4805TIP3    H214357   8.125   6.235   4.563
 4806TIP3   OH214358   6.784   5.388   2.393
 4806TIP3    H114359   6.726   5.362   2.464
 4806TIP3    H214360   6.852   5.320   2.393
 4807TIP3   OH214361   7.095   1.350   0.404
 4807TIP3    H114362   7.030   1.332   0.336
 4807TIP3    H214363   7.174   1.374   0.356
 4808TIP3   OH214364   0.388   7.316   3.206
 4808TIP3    H114365   0.402   7.288   3.297
 4808TIP3    H214366   0.296   7.339   3.202
 4809TIP3   OH214367   1.787   0.993   3.703
 4809TIP3    H114368   1.701   0.955   3.691
 4809TIP3    H214369   1.801   0.993   3.798
 4810TIP3   OH214370   0.283   2.724   5.192
 4810TIP3    H114371   0.295   2.698   5.101
 4810TIP3    H214372   0.293   2.819   5.192
 4811TIP3   OH214373   6.100   2.281   5.412
 4811TIP3    H114374   6.095   2.273   5.507
 4811TIP3    H214375   6.181   2.234   5.389
 4812TIP3   OH214376   0.072   1.839   1.812
 4812TIP3    H114377   0.162   1.827   1.843
 4812TIP3    H214378   0.067   1.786   1.732
 4813TIP3   OH214379   3.056   4.195   4.588
 4813TIP3    H114380   3.133   4.206   4.643
 4813TIP3    H214381   3.065   4.261   4.520
 4814TIP3   OH214382   6.044   2.118   6.377
 4814TIP3    H114383   6.075   2.098   6.288
 4814TIP3    H214384   5.949   2.107   6.372
 4815TIP3   OH214385   6.847   5.233   5.449
 4815TIP3    H114386   6.860   5.178   5.525
 4815TIP3    H214387   6.798   5.178   5.387
 4816TIP3   OH214388   2.421   0.567   2.731
 4816TIP3    H114389   2.510   0.532   2.729
 4816TIP3    H214390   2.423   0.641   2.671
 4817TIP3   OH214391  -0.012   1.705   3.112
 4817TIP3    H114392   0.036   1.635   3.068
 4817TIP3    H214393   0.044   1.782   3.103
 4818TIP3   OH214394   3.205   6.213   5.988
 4818TIP3    H114395   3.241   6.267   5.918
 4818TIP3    H214396   3.240   6.253   6.068
 4819TIP3   OH214397   7.942   1.211   2.266
 4819TIP3    H114398   7.977   1.156   2.337
 4819TIP3    H214399   7.848   1.195   2.268
 4820TIP3   OH214400   2.472   3.423   1.079
 4820TIP3    H114401   2.436   3.500   1.122
 4820TIP3    H214402   2.434   3.349   1.126
 4821TIP3   OH214403   5.596   2.790   6.449
 4821TIP3    H114404   5.650   2.711   6.453
 4821TIP3    H214405   5.509   2.760   6.473
 4822TIP3   OH214406   1.129   2.616   5.829
 4822TIP3    H114407   1.096   2.617   5.919
 4822TIP3    H214408   1.050   2.609   5.775
 4823TIP3   OH214409   6.680   7.696   2.654
 4823TIP3    H114410   6.687   7.667   2.745
 4823TIP3    H214411   6.653   7.788   2.661
 4824TIP3   OH214412   0.144   0.995   2.931
 4824TIP3    H114413   0.222   0.993   2.876
 4824TIP3    H214414   0.155   0.921   2.991
 4825TIP3   OH214415   4.726   3.123   3.380
 4825TIP3    H114416   4.789   3.194   3.397
 4825TIP3    H214417   4.781   3.050   3.351
 4826TIP3   OH214418   4.315   7.249   4.462
 4826TIP3    H114419   4.276   7.223   4.378
 4826TIP3    H214420   4.395   7.295   4.438
 4827TIP3   OH214421   3.204   6.954   1.054
 4827TIP3    H114422   3.110   6.938   1.060
 4827TIP3    H214423   3.229   6.914   0.970
 4828TIP3   OH214424   3.843   0.888   4.635
 4828TIP3    H114425   3.882   0.944   4.702
 4828TIP3    H214426   3.917   0.839   4.598
 4829TIP3   OH214427   4.096   4.345   0.329
 4829TIP3    H114428   4.121   4.258   0.299
 4829TIP3    H214429   4.160   4.367   0.397
 4830TIP3   OH214430   2.734   7.663   6.186
 4830TIP3    H114431   2.719   7.635   6.276
 4830TIP3    H214432   2.829   7.661   6.175
 4831TIP3   OH214433   7.989   1.877   4.613
 4831TIP3    H114434   7.938   1.797   4.601
 4831TIP3    H214435   7.968   1.931   4.537
 4832TIP3   OH214436   6.649   3.916   0.369
 4832TIP3    H114437   6.685   3.942   0.284
 4832TIP3    H214438   6.726   3.912   0.426
 4833TIP3   OH214439   7.608   0.284   1.212
 4833TIP3    H114440   7.643   0.329   1.289
 4833TIP3    H214441   7.680   0.229   1.181
 4834TIP3   OH214442   7.944   1.494   4.738
 4834TIP3    H114443   7.958   1.550   4.662
 4834TIP3    H214444   7.968   1.548   4.814
 4835TIP3   OH214445   0.394   3.244   0.414
 4835TIP3    H114446   0.372   3.234   0.322
 4835TIP3    H214447   0.379   3.158   0.452
 4836TIP3   OH214448   4.355   6.970   0.268
 4836TIP3    H114449   4.408   7.033   0.317
 4836TIP3    H214450   4.346   7.010   0.181
 4837TIP3   OH214451   1.074   0.525   0.172
 4837TIP3    H114452   0.999   0.487   0.218
 4837TIP3    H214453   1.146   0.519   0.235
 4838TIP3   OH214454   5.320   4.451   5.185
 4838TIP3    H114455   5.391   4.418   5.129
 4838TIP3    H214456   5.351   4.434   5.274
 4839TIP3   OH214457   0.927   0.616   5.082
 4839TIP3    H114458   0.960   0.645   4.997
 4839TIP3    H214459   0.921   0.521   5.074
 4840TIP3   OH214460   6.612   3.498   0.111
 4840TIP3    H114461   6.588   3.538   0.195
 4840TIP3    H214462   6.537   3.516   0.054
 4841TIP3   OH214463   1.454   7.708   3.336
 4841TIP3    H114464   1.405   7.666   3.265
 4841TIP3    H214465   1.394   7.772   3.371
 4842TIP3   OH214466   6.071   6.549   0.636
 4842TIP3    H114467   6.047   6.482   0.572
 4842TIP3    H214468   6.125   6.503   0.700
 4843TIP3   OH214469   8.238   3.949   4.612
 4843TIP3    H114470   8.290   3.888   4.665
 4843TIP3    H214471   8.147   3.930   4.637
 4844TIP3   OH214472   4.581   0.034   5.779
 4844TIP3    H114473   4.491   0.017   5.752
 4844TIP3    H214474   4.576   0.112   5.834
 4845TIP3   OH214475   3.632   3.716   2.598
 4845TIP3    H114476   3.625   3.811   2.589
 4845TIP3    H214477   3.667   3.704   2.687
 4846TIP3   OH214478   2.385   6.702   3.878
 4846TIP3    H114479   2.474   6.683   3.910
 4846TIP3    H214480   2.344   6.751   3.948
 4847TIP3   OH214481   2.730   6.274   0.622
 4847TIP3    H114482   2.654   6.234   0.664
 4847TIP3    H214483   2.717   6.257   0.528
 4848TIP3   OH214484   5.176   0.221   1.305
 4848TIP3    H114485   5.233   0.189   1.375
 4848TIP3    H214486   5.220   0.196   1.224
 4849TIP3   OH214487   4.491   0.080   1.035
 4849TIP3    H114488   4.415   0.089   1.092
 4849TIP3    H214489   4.535   0.002   1.067
 4850TIP3   OH214490   6.600   7.738   0.493
 4850TIP3    H114491   6.597   7.816   0.549
 4850TIP3    H214492   6.535   7.755   0.425
 4851TIP3   OH214493   4.476   5.174   5.981
 4851TIP3    H114494   4.552   5.124   6.012
 4851TIP3    H214495   4.493   5.263   6.010
 4852TIP3   OH214496   4.303   5.903   4.559
 4852TIP3    H114497   4.352   5.851   4.495
 4852TIP3    H214498   4.307   5.992   4.526
 4853TIP3   OH214499   7.323   3.124   4.275
 4853TIP3    H114500   7.387   3.192   4.254
 4853TIP3    H214501   7.330   3.061   4.203
 4854TIP3   OH214502   3.638   4.990   1.103
 4854TIP3    H114503   3.635   5.078   1.066
 4854TIP3    H214504   3.593   4.998   1.187
 4855TIP3   OH214505   7.206   3.266   2.753
 4855TIP3    H114506   7.229   3.263   2.846
 4855TIP3    H214507   7.121   3.308   2.751
 4856TIP3   OH214508   5.231   1.375   4.029
 4856TIP3    H114509   5.270   1.312   4.090
 4856TIP3    H214510   5.138   1.351   4.026
 4857TIP3   OH214511   1.774   7.116   1.521
 4857TIP3    H114512   1.793   7.192   1.466
 4857TIP3    H214513   1.847   7.056   1.507
 4858TIP3   OH214514   6.880   5.789   2.907
 4858TIP3    H114515   6.944   5.745   2.851
 4858TIP3    H214516   6.846   5.861   2.853
 4859TIP3   OH214517   5.123   3.931   5.760
 4859TIP3    H114518   5.181   3.931   5.684
 4859TIP3    H214519   5.065   3.856   5.746
 4860TIP3   OH214520   1.915   0.398   4.167
 4860TIP3    H114521   1.957   0.324   4.212
 4860TIP3    H214522   1.842   0.359   4.121
 4861TIP3   OH214523   4.686   2.244   6.500
 4861TIP3    H114524   4.603   2.258   6.547
 4861TIP3    H214525   4.679   2.300   6.423
 4862TIP3   OH214526   5.832   3.070   1.718
 4862TIP3    H114527   5.791   3.121   1.788
 4862TIP3    H214528   5.770   2.999   1.701
 4863TIP3   OH214529   2.231   3.516   3.140
 4863TIP3    H114530   2.292   3.471   3.198
 4863TIP3    H214531   2.152   3.461   3.142
 4864TIP3   OH214532   8.258   6.693   5.185
 4864TIP3    H114533   8.263   6.699   5.090
 4864TIP3    H214534   8.181   6.638   5.202
 4865TIP3   OH214535   3.683   7.302   0.108
 4865TIP3    H114536   3.776   7.300   0.131
 4865TIP3    H214537   3.668   7.218   0.063
 4866TIP3   OH214538   6.399   6.017   2.337
 4866TIP3    H114539   6.398   6.040   2.244
 4866TIP3    H214540   6.309   5.989   2.355
 4867TIP3   OH214541   0.081   1.808   5.781
 4867TIP3    H114542   0.172   1.831   5.764
 4867TIP3    H214543   0.061   1.740   5.717
 4868TIP3   OH214544   7.606   6.323   4.450
 4868TIP3    H114545   7.577   6.232   4.444
 4868TIP3    H214546   7.557   6.360   4.523
 4869TIP3   OH214547   3.922   5.513   3.669
 4869TIP3    H114548   3.886   5.578   3.610
 4869TIP3    H214549   3.856   5.504   3.738
 4870TIP3   OH214550   3.595   5.629   6.345
 4870TIP3    H114551   3.519   5.676   6.379
 4870TIP3    H214552   3.638   5.691   6.286
 4871TIP3   OH214553   2.909   5.663   3.743
 4871TIP3    H114554   2.817   5.673   3.720
 4871TIP3    H214555   2.935   5.749   3.777
 4872TIP3   OH214556   2.415   0.608   2.118
 4872TIP3    H114557   2.395   0.668   2.190
 4872TIP3    H214558   2.495   0.563   2.145
 4873TIP3   OH214559   8.438   5.669   5.547
 4873TIP3    H114560   8.409   5.715   5.468
 4873TIP3    H214561   8.369   5.685   5.611
 4874TIP3   OH214562   2.266   0.518   0.868
 4874TIP3    H114563   2.317   0.436   0.864
 4874TIP3    H214564   2.264   0.549   0.777
 4875TIP3   OH214565   2.929   0.712   6.179
 4875TIP3    H114566   2.969   0.796   6.203
 4875TIP3    H214567   2.878   0.732   6.100
 4876TIP3   OH214568   3.637   3.127   3.601
 4876TIP3    H114569   3.649   3.064   3.673
 4876TIP3    H214570   3.565   3.183   3.631
 4877TIP3   OH214571   3.119   5.687   3.548
 4877TIP3    H114572   3.164   5.606   3.571
 4877TIP3    H214573   3.038   5.684   3.599
 4878TIP3   OH214574   1.265   3.154   1.815
 4878TIP3    H114575   1.212   3.104   1.754
 4878TIP3    H214576   1.287   3.234   1.767
 4879TIP3   OH214577   6.017   3.318   1.044
 4879TIP3    H114578   6.032   3.305   1.137
 4879TIP3    H214579   6.013   3.230   1.007
 4880TIP3   OH214580   8.142   0.282   3.318
 4880TIP3    H114581   8.193   0.273   3.398
 4880TIP3    H214582   8.064   0.330   3.345
 4881TIP3   OH214583   5.072   1.484   3.509
 4881TIP3    H114584   5.087   1.577   3.527
 4881TIP3    H214585   5.097   1.440   3.590
 4882TIP3   OH214586   7.998   6.682   0.044
 4882TIP3    H114587   7.967   6.674  -0.047
 4882TIP3    H214588   7.950   6.757   0.079
 4883TIP3   OH214589   0.169   5.107   0.486
 4883TIP3    H114590   0.132   5.089   0.572
 4883TIP3    H214591   0.264   5.108   0.501
 4884TIP3   OH214592   1.900   2.374   6.488
 4884TIP3    H114593   1.902   2.325   6.406
 4884TIP3    H214594   1.823   2.340   6.534
 4885TIP3   OH214595   2.172   7.872   4.644
 4885TIP3    H114596   2.241   7.937   4.658
 4885TIP3    H214597   2.132   7.861   4.731
 4886TIP3   OH214598   4.927   2.740   2.694
 4886TIP3    H114599   4.940   2.656   2.738
 4886TIP3    H214600   4.910   2.716   2.603
 4887TIP3   OH214601   2.536   6.482   3.542
 4887TIP3    H114602   2.544   6.523   3.456
 4887TIP3    H214603   2.442   6.473   3.556
 4888TIP3   OH214604   6.359   7.297   0.457
 4888TIP3    H114605   6.366   7.353   0.379
 4888TIP3    H214606   6.450   7.281   0.483
 4889TIP3   OH214607   3.911   2.175   1.982
 4889TIP3    H114608   3.901   2.080   1.974
 4889TIP3    H214609   3.829   2.210   1.947
 4890TIP3   OH214610   4.105   2.358   2.031
 4890TIP3    H114611   4.062   2.379   2.114
 4890TIP3    H214612   4.059   2.280   2.000
 4891TIP3   OH214613   6.984   1.926   1.116
 4891TIP3    H114614   7.026   2.004   1.078
 4891TIP3    H214615   6.892   1.933   1.090
 4892TIP3   OH214616   0.596   3.357   6.053
 4892TIP3    H114617   0.614   3.368   6.146
 4892TIP3    H214618   0.675   3.317   6.018
 4893TIP3   OH214619   1.548   0.226   4.025
 4893TIP3    H114620   1.626   0.270   3.992
 4893TIP3    H214621   1.528   0.270   4.107
 4894TIP3   OH214622   6.103   1.086   6.198
 4894TIP3    H114623   6.176   1.062   6.141
 4894TIP3    H214624   6.042   1.132   6.141
 4895TIP3   OH214625   1.461   2.120   0.609
 4895TIP3    H114626   1.370   2.090   0.615
 4895TIP3    H214627   1.501   2.091   0.691
 4896TIP3   OH214628   4.492   7.238   6.483
 4896TIP3    H114629   4.503   7.333   6.478
 4896TIP3    H214630   4.408   7.221   6.441
 4897TIP3   OH214631   3.575   7.248   3.272
 4897TIP3    H114632   3.508   7.192   3.234
 4897TIP3    H214633   3.531   7.296   3.342
 4898TIP3   OH214634   3.664   4.423   2.848
 4898TIP3    H114635   3.578   4.383   2.862
 4898TIP3    H214636   3.651   4.516   2.863
 4899TIP3   OH214637   4.811   6.371   6.000
 4899TIP3    H114638   4.768   6.441   5.950
 4899TIP3    H214639   4.872   6.416   6.057
 4900TIP3   OH214640   1.282   0.616   6.234
 4900TIP3    H114641   1.322   0.652   6.313
 4900TIP3    H214642   1.222   0.549   6.266
 4901TIP3   OH214643   4.294   5.636   5.315
 4901TIP3    H114644   4.200   5.656   5.324
 4901TIP3    H214645   4.336   5.690   5.382
 4902TIP3   OH214646   0.161   5.017   6.070
 4902TIP3    H114647   0.156   4.922   6.055
 4902TIP3    H214648   0.191   5.053   5.987
 4903TIP3   OH214649   0.202   1.874   6.158
 4903TIP3    H114650   0.182   1.870   6.064
 4903TIP3    H214651   0.147   1.806   6.197
 4904TIP3   OH214652   4.969   3.376   5.172
 4904TIP3    H114653   5.017   3.434   5.232
 4904TIP3    H214654   4.910   3.434   5.124
 4905TIP3   OH214655   3.014   6.437   0.122
 4905TIP3    H114656   3.092   6.462   0.172
 4905TIP3    H214657   3.038   6.450   0.031
 4906TIP3   OH214658   7.924   5.156   2.645
 4906TIP3    H114659   7.881   5.148   2.560
 4906TIP3    H214660   7.961   5.069   2.661
 4907TIP3   OH214661   4.522   1.268   2.410
 4907TIP3    H114662   4.596   1.231   2.361
 4907TIP3    H214663   4.541   1.362   2.415
 4908TIP3   OH214664   6.485   2.875   2.332
 4908TIP3    H114665   6.541   2.801   2.354
 4908TIP3    H214666   6.527   2.950   2.375
 4909TIP3   OH214667   3.722   6.484   5.615
 4909TIP3    H114668   3.741   6.418   5.549
 4909TIP3    H214669   3.627   6.498   5.609
 4910TIP3   OH214670   5.992   0.243   4.227
 4910TIP3    H114671   6.039   0.170   4.187
 4910TIP3    H214672   5.899   0.222   4.215
 4911TIP3   OH214673   6.073   6.904   0.242
 4911TIP3    H114674   6.095   6.811   0.255
 4911TIP3    H214675   5.981   6.910   0.269
 4912TIP3   OH214676   5.695   2.371   0.453
 4912TIP3    H114677   5.625   2.377   0.518
 4912TIP3    H214678   5.677   2.444   0.393
 4913TIP3   OH214679   0.769   0.244   0.484
 4913TIP3    H114680   0.707   0.216   0.417
 4913TIP3    H214681   0.724   0.313   0.532
 4914TIP3   OH214682   1.747   1.110   2.011
 4914TIP3    H114683   1.754   1.199   1.976
 4914TIP3    H214684   1.831   1.096   2.056
 4915TIP3   OH214685   5.456   6.447   6.603
 4915TIP3    H114686   5.468   6.530   6.558
 4915TIP3    H214687   5.541   6.428   6.642
 4916TIP3   OH214688   3.693   3.491   3.646
 4916TIP3    H114689   3.643   3.427   3.697
 4916TIP3    H214690   3.639   3.508   3.569
 4917TIP3   OH214691   7.180   5.615   4.346
 4917TIP3    H114692   7.141   5.554   4.284
 4917TIP3    H214693   7.181   5.569   4.429
 4918TIP3   OH214694   1.109   6.359   0.950
 4918TIP3    H114695   1.105   6.454   0.959
 4918TIP3    H214696   1.140   6.327   1.034
 4919TIP3   OH214697   0.383   6.611   4.751
 4919TIP3    H114698   0.461   6.574   4.793
 4919TIP3    H214699   0.358   6.545   4.687
 4920TIP3   OH214700   1.595   6.342   6.397
 4920TIP3    H114701   1.678   6.371   6.358
 4920TIP3    H214702   1.608   6.354   6.491
 4921TIP3   OH214703   3.507   3.351   6.853
 4921TIP3    H114704   3.514   3.427   6.796
 4921TIP3    H214705   3.437   3.298   6.815
 4922TIP3   OH214706   2.398   1.256   2.195
 4922TIP3    H114707   2.486   1.220   2.203
 4922TIP3    H214708   2.408   1.332   2.138
 4923TIP3   OH214709   0.615   1.771   3.527
 4923TIP3    H114710   0.570   1.700   3.572
 4923TIP3    H214711   0.556   1.797   3.456
 4924TIP3   OH214712   2.671   2.848   2.796
 4924TIP3    H114713   2.740   2.799   2.841
 4924TIP3    H214714   2.610   2.781   2.765
 4925TIP3   OH214715   8.425   4.703   3.084
 4925TIP3    H114716   8.433   4.699   3.179
 4925TIP3    H214717   8.331   4.712   3.068
 4926TIP3   OH214718   4.737   1.310   4.791
 4926TIP3    H114719   4.783   1.254   4.853
 4926TIP3    H214720   4.675   1.360   4.844
 4927TIP3   OH214721   6.505   6.311   0.079
 4927TIP3    H114722   6.515   6.406   0.085
 4927TIP3    H214723   6.430   6.299   0.021
 4928TIP3   OH214724   1.256   5.121   1.051
 4928TIP3    H114725   1.347   5.147   1.070
 4928TIP3    H214726   1.241   5.044   1.105
 4929TIP3   OH214727   1.619   4.679   1.703
 4929TIP3    H114728   1.706   4.651   1.730
 4929TIP3    H214729   1.591   4.613   1.639
 4930TIP3   OH214730   1.286   5.047   5.478
 4930TIP3    H114731   1.264   5.136   5.505
 4930TIP3    H214732   1.319   5.005   5.557
 4931TIP3   OH214733   6.866   7.621   3.089
 4931TIP3    H114734   6.870   7.586   3.178
 4931TIP3    H214735   6.952   7.662   3.075
 4932TIP3   OH214736   5.413   4.889   0.391
 4932TIP3    H114737   5.422   4.947   0.315
 4932TIP3    H214738   5.332   4.840   0.374
 4933TIP3   OH214739   6.456   0.540   0.256
 4933TIP3    H114740   6.508   0.480   0.309
 4933TIP3    H214741   6.520   0.602   0.220
 4934TIP3   OH214742   3.339   3.359   4.437
 4934TIP3    H114743   3.429   3.329   4.432
 4934TIP3    H214744   3.343   3.451   4.413
 4935TIP3   OH214745   6.113   7.583   1.728
 4935TIP3    H114746   6.044   7.528   1.764
 4935TIP3    H214747   6.081   7.672   1.739
 4936TIP3   OH214748   8.358   0.860   5.475
 4936TIP3    H114749   8.295   0.904   5.417
 4936TIP3    H214750   8.406   0.801   5.418
 4937TIP3   OH214751   5.994   5.222   2.757
 4937TIP3    H114752   5.928   5.199   2.692
 4937TIP3    H214753   6.048   5.144   2.766
 4938TIP3   OH214754   0.626   4.578   6.667
 4938TIP3    H114755   0.572   4.547   6.740
 4938TIP3    H214756   0.604   4.671   6.659
 4939TIP3   OH214757   3.250   4.479   4.489
 4939TIP3    H114758   3.301   4.558   4.471
 4939TIP3    H214759   3.317   4.412   4.507
 4940TIP3   OH214760   5.790   3.031   4.332
 4940TIP3    H114761   5.754   2.942   4.328
 4940TIP3    H214762   5.778   3.065   4.243
 4941TIP3   OH214763   2.751   7.727   4.107
 4941TIP3    H114764   2.780   7.712   4.197
 4941TIP3    H214765   2.680   7.663   4.093
 4942TIP3   OH214766   6.444   5.635   2.089
 4942TIP3    H114767   6.435   5.595   2.002
 4942TIP3    H214768   6.538   5.636   2.106
 4943TIP3   OH214769   0.362   0.555   0.436
 4943TIP3    H114770   0.344   0.465   0.409
 4943TIP3    H214771   0.421   0.546   0.512
 4944TIP3   OH214772   8.021   5.827   1.161
 4944TIP3    H114773   8.029   5.922   1.160
 4944TIP3    H214774   7.938   5.809   1.116
 4945TIP3   OH214775   1.192   2.070   1.352
 4945TIP3    H114776   1.202   2.136   1.283
 4945TIP3    H214777   1.154   1.994   1.308
 4946TIP3   OH214778   1.654   5.130   0.877
 4946TIP3    H114779   1.632   5.223   0.866
 4946TIP3    H214780   1.575   5.090   0.912
 4947TIP3   OH214781   6.641   4.719   3.242
 4947TIP3    H114782   6.546   4.721   3.231
 4947TIP3    H214783   6.657   4.770   3.322
 4948TIP3   OH214784   8.361   5.117   5.336
 4948TIP3    H114785   8.270   5.095   5.359
 4948TIP3    H214786   8.400   5.146   5.419
 4949TIP3   OH214787   3.399   2.916   0.028
 4949TIP3    H114788   3.304   2.907   0.022
 4949TIP3    H214789   3.428   2.923  -0.063
 4950TIP3   OH214790   7.577   3.210   3.054
 4950TIP3    H114791   7.606   3.296   3.023
 4950TIP3    H214792   7.618   3.148   2.993
 4951TIP3   OH214793   5.786   2.688   1.246
 4951TIP3    H114794   5.796   2.708   1.153
 4951TIP3    H214795   5.872   2.705   1.284
 4952TIP3   OH214796   1.389   4.724   2.036
 4952TIP3    H114797   1.484   4.722   2.039
 4952TIP3    H214798   1.367   4.817   2.046
 4953TIP3   OH214799   2.563   5.437   1.074
 4953TIP3    H114800   2.473   5.404   1.087
 4953TIP3    H214801   2.609   5.413   1.154
 4954TIP3   OH214802   3.410   4.321   2.868
 4954TIP3    H114803   3.369   4.399   2.906
 4954TIP3    H214804   3.357   4.303   2.790
 4955TIP3   OH214805   7.787   0.222   0.330
 4955TIP3    H114806   7.868   0.272   0.320
 4955TIP3    H214807   7.759   0.203   0.240
 4956TIP3   OH214808   2.439   7.838   1.559
 4956TIP3    H114809   2.514   7.896   1.571
 4956TIP3    H214810   2.448   7.805   1.470
 4957TIP3   OH214811   6.367   6.194   1.827
 4957TIP3    H114812   6.349   6.163   1.738
 4957TIP3    H214813   6.462   6.200   1.831
 4958TIP3   OH214814   4.090   0.388   3.912
 4958TIP3    H114815   4.046   0.426   3.836
 4958TIP3    H214816   4.169   0.347   3.876
 4959TIP3   OH214817   3.352   7.900   3.054
 4959TIP3    H114818   3.416   7.908   2.982
 4959TIP3    H214819   3.270   7.877   3.010
 4960TIP3   OH214820   5.961   5.725   5.308
 4960TIP3    H114821   5.927   5.653   5.361
 4960TIP3    H214822   5.884   5.778   5.287
 4961TIP3   OH214823   0.404   2.405   2.907
 4961TIP3    H114824   0.406   2.408   2.811
 4961TIP3    H214825   0.424   2.494   2.934
 4962TIP3   OH214826   5.718   6.793   1.712
 4962TIP3    H114827   5.669   6.861   1.757
 4962TIP3    H214828   5.718   6.821   1.620
 4963TIP3   OH214829   1.070   6.708   1.823
 4963TIP3    H114830   0.994   6.762   1.843
 4963TIP3    H214831   1.112   6.752   1.749
 4964TIP3   OH214832   8.049   2.694   2.510
 4964TIP3    H114833   8.053   2.660   2.600
 4964TIP3    H214834   7.981   2.643   2.467
 4965TIP3   OH214835   3.081   7.488   5.449
 4965TIP3    H114836   3.061   7.523   5.536
 4965TIP3    H214837   3.076   7.565   5.392
 4966TIP3   OH214838   6.222   0.659   3.304
 4966TIP3    H114839   6.174   0.579   3.323
 4966TIP3    H214840   6.257   0.647   3.216
 4967TIP3   OH214841   3.778   0.756   1.790
 4967TIP3    H114842   3.694   0.763   1.743
 4967TIP3    H214843   3.819   0.677   1.754
 4968TIP3   OH214844   3.520   3.062   5.624
 4968TIP3    H114845   3.564   3.001   5.683
 4968TIP3    H214846   3.428   3.036   5.627
 4969TIP3   OH214847   7.896   0.221   4.479
 4969TIP3    H114848   7.945   0.151   4.522
 4969TIP3    H214849   7.877   0.283   4.549
 4970TIP3   OH214850   5.306   5.465   4.556
 4970TIP3    H114851   5.394   5.439   4.528
 4970TIP3    H214852   5.284   5.404   4.627
 4971TIP3   OH214853   4.842   1.944   3.973
 4971TIP3    H114854   4.820   1.908   4.058
 4971TIP3    H214855   4.827   1.873   3.911
 4972TIP3   OH214856   7.083   4.062   0.484
 4972TIP3    H114857   7.138   4.134   0.517
 4972TIP3    H214858   7.138   4.019   0.419
 4973TIP3   OH214859   6.934   3.257   3.261
 4973TIP3    H114860   6.925   3.323   3.330
 4973TIP3    H214861   7.028   3.238   3.260
 4974TIP3   OH214862   6.440   5.054   2.466
 4974TIP3    H114863   6.385   5.100   2.529
 4974TIP3    H214864   6.528   5.088   2.481
 4975TIP3   OH214865   4.887   3.389   2.866
 4975TIP3    H114866   4.887   3.424   2.777
 4975TIP3    H214867   4.958   3.325   2.867
 4976TIP3   OH214868   6.419   0.526   1.698
 4976TIP3    H114869   6.472   0.534   1.619
 4976TIP3    H214870   6.407   0.615   1.729
 4977TIP3   OH214871   4.024   2.500   4.384
 4977TIP3    H114872   3.962   2.444   4.431
 4977TIP3    H214873   4.025   2.582   4.433
 4978TIP3   OH214874   1.353   5.031   6.342
 4978TIP3    H114875   1.325   5.026   6.434
 4978TIP3    H214876   1.418   4.962   6.332
 4979TIP3   OH214877   4.542   6.916   2.676
 4979TIP3    H114878   4.504   6.833   2.647
 4979TIP3    H214879   4.637   6.900   2.674
 4980TIP3   OH214880   5.854   0.118   2.310
 4980TIP3    H114881   5.834   0.070   2.230
 4980TIP3    H214882   5.947   0.139   2.303
 4981TIP3   OH214883   4.706   1.088   3.173
 4981TIP3    H114884   4.627   1.142   3.185
 4981TIP3    H214885   4.772   1.150   3.144
 4982TIP3   OH214886   3.249   6.272   2.030
 4982TIP3    H114887   3.242   6.367   2.015
 4982TIP3    H214888   3.248   6.262   2.125
 4983TIP3   OH214889   2.246   0.656   0.382
 4983TIP3    H114890   2.315   0.714   0.350
 4983TIP3    H214891   2.221   0.693   0.467
 4984TIP3   OH214892   0.813   4.405   1.026
 4984TIP3    H114893   0.899   4.446   1.037
 4984TIP3    H214894   0.774   4.409   1.113
 4985TIP3   OH214895   6.617   0.466   6.748
 4985TIP3    H114896   6.680   0.393   6.750
 4985TIP3    H214897   6.538   0.430   6.788
 4986TIP3   OH214898   6.395   0.624   2.500
 4986TIP3    H114899   6.345   0.655   2.424
 4986TIP3    H214900   6.463   0.568   2.462
 4987TIP3   OH214901   1.500   0.380   1.353
 4987TIP3    H114902   1.573   0.344   1.404
 4987TIP3    H214903   1.432   0.313   1.358
 4988TIP3   OH214904   3.158   6.787   5.716
 4988TIP3    H114905   3.199   6.781   5.802
 4988TIP3    H214906   3.120   6.700   5.701
 4989TIP3   OH214907   7.052   0.970   2.399
 4989TIP3    H114908   6.974   0.936   2.355
 4989TIP3    H214909   7.117   0.979   2.330
 4990TIP3   OH214910   1.042   4.879   1.790
 4990TIP3    H114911   1.037   4.895   1.884
 4990TIP3    H214912   0.952   4.886   1.759
 4991TIP3   OH214913   3.556   7.295   5.781
 4991TIP3    H114914   3.608   7.367   5.745
 4991TIP3    H214915   3.578   7.219   5.727
 4992TIP3   OH214916   7.528   1.517   0.443
 4992TIP3    H114917   7.447   1.515   0.494
 4992TIP3    H214918   7.570   1.599   0.468
 4993TIP3   OH214919   3.758   1.294   0.703
 4993TIP3    H114920   3.759   1.210   0.749
 4993TIP3    H214921   3.701   1.278   0.627
 4994TIP3   OH214922   6.916   6.215   1.327
 4994TIP3    H114923   6.918   6.310   1.344
 4994TIP3    H214924   6.947   6.175   1.408
 4995TIP3   OH214925   4.693   1.458   3.285
 4995TIP3    H114926   4.746   1.536   3.301
 4995TIP3    H214927   4.723   1.424   3.201
 4996TIP3   OH214928   5.072   3.116   4.774
 4996TIP3    H114929   5.144   3.167   4.812
 4996TIP3    H214930   5.029   3.177   4.714
 4997TIP3   OH214931   4.772   4.137   3.016
 4997TIP3    H114932   4.771   4.148   3.111
 4997TIP3    H214933   4.727   4.054   3.001
 4998TIP3   OH214934   4.309   4.655   6.028
 4998TIP3    H114935   4.281   4.585   5.969
 4998TIP3    H214936   4.402   4.637   6.045
 4999TIP3   OH214937   2.054   1.557   6.312
 4999TIP3    H114938   2.017   1.474   6.343
 4999TIP3    H214939   1.985   1.621   6.328
 5000TIP3   OH214940   0.318   6.319   3.051
 5000TIP3    H114941   0.334   6.294   3.142
 5000TIP3    H214942   0.381   6.389   3.034
 5001TIP3   OH214943   4.615   5.194   4.884
 5001TIP3    H114944   4.554   5.262   4.855
 5001TIP3    H214945   4.569   5.149   4.956
 5002TIP3   OH214946   4.758   4.839   4.567
 5002TIP3    H114947   4.813   4.879   4.634
 5002TIP3    H214948   4.681   4.896   4.562
 5003TIP3   OH214949   0.471   5.867   3.370
 5003TIP3    H114950   0.503   5.937   3.427
 5003TIP3    H214951   0.375   5.871   3.379
 5004TIP3   OH214952   1.790   7.579   2.901
 5004TIP3    H114953   1.711   7.632   2.897
 5004TIP3    H214954   1.765   7.494   2.865
 5005TIP3   OH214955   8.278   6.217   0.264
 5005TIP3    H114956   8.217   6.260   0.204
 5005TIP3    H214957   8.359   6.269   0.256
 5006TIP3   OH214958   2.329   5.322   6.362
 5006TIP3    H114959   2.348   5.232   6.335
 5006TIP3    H214960   2.257   5.314   6.425
 5007TIP3   OH214961   7.572  -0.001   6.608
 5007TIP3    H114962   7.652   0.012   6.659
 5007TIP3    H214963   7.501   0.006   6.671
 5008TIP3   OH214964   0.602   4.217   5.894
 5008TIP3    H114965   0.661   4.233   5.967
 5008TIP3    H214966   0.659   4.192   5.821
 5009TIP3   OH214967   7.651   6.675   1.268
 5009TIP3    H114968   7.707   6.693   1.193
 5009TIP3    H214969   7.641   6.580   1.268
 5010TIP3   OH214970   6.983   3.234   3.682
 5010TIP3    H114971   6.918   3.193   3.626
 5010TIP3    H214972   6.971   3.192   3.768
 5011TIP3   OH214973   8.385   0.766   2.099
 5011TIP3    H114974   8.455   0.791   2.039
 5011TIP3    H214975   8.406   0.810   2.181
 5012TIP3   OH214976   7.027   0.749   0.880
 5012TIP3    H114977   6.934   0.773   0.880
 5012TIP3    H214978   7.054   0.760   0.971
 5013TIP3   OH214979   1.577   4.616   5.967
 5013TIP3    H114980   1.538   4.703   5.981
 5013TIP3    H214981   1.506   4.565   5.928
 5014TIP3   OH214982   6.665   5.913   2.040
 5014TIP3    H114983   6.656   5.836   2.096
 5014TIP3    H214984   6.759   5.932   2.041
 5015TIP3   OH214985   0.025   4.305   2.002
 5015TIP3    H114986   0.001   4.215   1.978
 5015TIP3    H214987   0.120   4.301   2.016
 5016TIP3   OH214988   0.942   0.542   5.890
 5016TIP3    H114989   0.871   0.543   5.954
 5016TIP3    H214990   0.915   0.479   5.824
 5017TIP3   OH214991   0.659   5.711   3.034
 5017TIP3    H114992   0.712   5.655   2.978
 5017TIP3    H214993   0.713   5.787   3.050
 5018TIP3   OH214994   5.980   3.934   5.957
 5018TIP3    H114995   5.887   3.943   5.975
 5018TIP3    H214996   5.987   3.937   5.862
 5019TIP3   OH214997   1.457   7.118   2.376
 5019TIP3    H114998   1.447   7.193   2.317
 5019TIP3    H214999   1.500   7.154   2.453
 5020TIP3   OH215000   4.544   2.522   2.502
 5020TIP3    H115001   4.513   2.579   2.432
 5020TIP3    H215002   4.501   2.438   2.485
 5021TIP3   OH215003   7.628   5.086   3.102
 5021TIP3    H115004   7.583   5.025   3.160
 5021TIP3    H215005   7.721   5.065   3.113
 5022TIP3   OH215006   2.855   1.390   0.511
 5022TIP3    H115007   2.900   1.404   0.427
 5022TIP3    H215008   2.905   1.321   0.554
 5023TIP3   OH215009   1.544   0.468   2.913
 5023TIP3    H115010   1.628   0.509   2.932
 5023TIP3    H215011   1.543   0.456   2.818
 5024TIP3   OH215012   3.547   1.318   4.693
 5024TIP3    H115013   3.532   1.412   4.687
 5024TIP3    H215014   3.530   1.296   4.784
 5025TIP3   OH215015   7.109   0.331   1.701
 5025TIP3    H115016   7.048   0.404   1.707
 5025TIP3    H215017   7.153   0.328   1.786
 5026TIP3   OH215018   3.191   0.198   2.246
 5026TIP3    H115019   3.199   0.293   2.243
 5026TIP3    H215020   3.277   0.168   2.276
 5027TIP3   OH215021   4.645   7.591   2.872
 5027TIP3    H115022   4.624   7.515   2.818
 5027TIP3    H215023   4.569   7.649   2.864
 5028TIP3   OH215024   6.679   5.901   3.391
 5028TIP3    H115025   6.749   5.869   3.448
 5028TIP3    H215026   6.598   5.884   3.439
 5029TIP3   OH215027   5.184   6.566   1.808
 5029TIP3    H115028   5.092   6.593   1.813
 5029TIP3    H215029   5.182   6.476   1.777
 5030TIP3   OH215030   1.063   4.594   1.405
 5030TIP3    H115031   1.121   4.619   1.477
 5030TIP3    H215032   0.982   4.567   1.447
 5031TIP3   OH215033   5.221   4.623   4.998
 5031TIP3    H115034   5.241   4.560   5.067
 5031TIP3    H215035   5.135   4.658   5.022
 5032TIP3   OH215036   3.231   5.943   3.593
 5032TIP3    H115037   3.211   5.979   3.680
 5032TIP3    H215038   3.212   5.849   3.601
 5033TIP3   OH215039   5.099   5.449   3.585
 5033TIP3    H115040   5.039   5.385   3.548
 5033TIP3    H215041   5.165   5.462   3.517
 5034TIP3   OH215042   7.665   3.481   6.825
 5034TIP3    H115043   7.608   3.461   6.900
 5034TIP3    H215044   7.615   3.545   6.774
 5035TIP3   OH215045   2.606   5.403   0.801
 5035TIP3    H115046   2.595   5.426   0.893
 5035TIP3    H215047   2.565   5.317   0.793
 5036TIP3   OH215048   0.506   5.366   3.198
 5036TIP3    H115049   0.586   5.315   3.211
 5036TIP3    H215050   0.531   5.456   3.220
 5037TIP3   OH215051   3.488   2.679   4.987
 5037TIP3    H115052   3.417   2.725   5.032
 5037TIP3    H215053   3.480   2.588   5.015
 5038TIP3   OH215054   1.700   6.588   6.777
 5038TIP3    H115055   1.679   6.626   6.862
 5038TIP3    H215056   1.783   6.542   6.791
 5039TIP3   OH215057   8.302   2.730   2.844
 5039TIP3    H115058   8.226   2.684   2.809
 5039TIP3    H215059   8.350   2.761   2.767
 5040TIP3   OH215060   7.077   3.484   3.797
 5040TIP3    H115061   7.164   3.499   3.834
 5040TIP3    H215062   7.059   3.392   3.818
 5041TIP3   OH215063   1.364   2.837   0.681
 5041TIP3    H115064   1.363   2.766   0.616
 5041TIP3    H215065   1.277   2.876   0.674
 5042TIP3   OH215066   2.885   0.372   2.142
 5042TIP3    H115067   2.828   0.407   2.073
 5042TIP3    H215068   2.972   0.369   2.102
 5043TIP3   OH215069   0.796   3.807   5.518
 5043TIP3    H115070   0.771   3.890   5.477
 5043TIP3    H215071   0.724   3.786   5.576
 5044TIP3   OH215072   1.997   4.321   1.164
 5044TIP3    H115073   2.032   4.290   1.080
 5044TIP3    H215074   1.902   4.314   1.155
 5045TIP3   OH215075   6.068   6.129   0.378
 5045TIP3    H115076   6.038   6.214   0.409
 5045TIP3    H215077   6.158   6.143   0.350
 5046TIP3   OH215078   4.376   5.825   3.903
 5046TIP3    H115079   4.396   5.812   3.810
 5046TIP3    H215080   4.321   5.903   3.905
 5047TIP3   OH215081   2.763   0.554   2.763
 5047TIP3    H115082   2.757   0.621   2.831
 5047TIP3    H215083   2.770   0.472   2.811
 5048TIP3   OH215084   6.899   7.363   5.078
 5048TIP3    H115085   6.814   7.354   5.035
 5048TIP3    H215086   6.910   7.282   5.128
 5049TIP3   OH215087   1.557   4.440   4.698
 5049TIP3    H115088   1.593   4.354   4.722
 5049TIP3    H215089   1.463   4.427   4.698
 5050TIP3   OH215090   5.450   5.779   1.241
 5050TIP3    H115091   5.446   5.874   1.252
 5050TIP3    H215092   5.396   5.762   1.164
 5051TIP3   OH215093   7.253   1.222   1.680
 5051TIP3    H115094   7.331   1.272   1.703
 5051TIP3    H215095   7.192   1.237   1.752
 5052TIP3   OH215096   0.695   6.424   4.309
 5052TIP3    H115097   0.749   6.395   4.236
 5052TIP3    H215098   0.757   6.451   4.376
 5053TIP3   OH215099   0.466   2.159   6.143
 5053TIP3    H115100   0.475   2.076   6.189
 5053TIP3    H215101   0.373   2.180   6.148
 5054TIP3   OH215102   2.604   3.291   5.310
 5054TIP3    H115103   2.653   3.286   5.228
 5054TIP3    H215104   2.527   3.237   5.295
 5055TIP3   OH215105   2.956   2.482   3.982
 5055TIP3    H115106   2.964   2.441   3.895
 5055TIP3    H215107   3.040   2.526   3.995
 5056TIP3   OH215108   0.201   6.131   4.137
 5056TIP3    H115109   0.116   6.090   4.122
 5056TIP3    H215110   0.180   6.214   4.180
 5057TIP3   OH215111   2.480   2.242   0.002
 5057TIP3    H115112   2.436   2.208   0.080
 5057TIP3    H215113   2.557   2.287   0.035
 5058TIP3   OH215114   7.638  -0.016   5.883
 5058TIP3    H115115   7.695  -0.050   5.813
 5058TIP3    H215116   7.657   0.078   5.885
 5059TIP3   OH215117   1.366   3.270   4.863
 5059TIP3    H115118   1.372   3.328   4.787
 5059TIP3    H215119   1.440   3.210   4.854
 5060TIP3   OH215120   6.023   6.807   2.021
 5060TIP3    H115121   6.110   6.833   2.052
 5060TIP3    H215122   5.969   6.886   2.032
 5061TIP3   OH215123   7.994   1.894   5.580
 5061TIP3    H115124   7.966   1.980   5.549
 5061TIP3    H215125   8.072   1.912   5.632
 5062TIP3   OH215126   6.973   2.996   0.448
 5062TIP3    H115127   7.068   2.997   0.446
 5062TIP3    H215128   6.950   2.910   0.484
 5063TIP3   OH215129   3.911   5.063   4.721
 5063TIP3    H115130   3.986   5.005   4.729
 5063TIP3    H215131   3.948   5.151   4.715
 5064TIP3   OH215132   2.196   6.982   1.812
 5064TIP3    H115133   2.109   7.006   1.844
 5064TIP3    H215134   2.187   6.980   1.717
 5065TIP3   OH215135   1.576   2.857   6.227
 5065TIP3    H115136   1.482   2.839   6.233
 5065TIP3    H215137   1.591   2.930   6.287
 5066TIP3   OH215138   3.506   1.602   4.759
 5066TIP3    H115139   3.547   1.591   4.845
 5066TIP3    H215140   3.563   1.663   4.713
 5067TIP3   OH215141   2.506   7.045   0.660
 5067TIP3    H115142   2.582   7.099   0.643
 5067TIP3    H215143   2.437   7.106   0.684
 5068TIP3   OH215144   3.276   7.673   6.520
 5068TIP3    H115145   3.329   7.736   6.471
 5068TIP3    H215146   3.326   7.592   6.518
 5069TIP3   OH215147   4.328   6.909   6.546
 5069TIP3    H115148   4.286   6.993   6.529
 5069TIP3    H215149   4.421   6.929   6.553
 5070TIP3   OH215150   3.228   4.885   3.144
 5070TIP3    H115151   3.146   4.855   3.182
 5070TIP3    H215152   3.222   4.981   3.145
 5071TIP3   OH215153   4.721   0.113   3.719
 5071TIP3    H115154   4.645   0.147   3.765
 5071TIP3    H215155   4.794   0.126   3.780
 5072TIP3   OH215156   6.493   3.418   5.675
 5072TIP3    H115157   6.504   3.513   5.671
 5072TIP3    H215158   6.512   3.396   5.766
 5073TIP3   OH215159   6.293   0.105   1.762
 5073TIP3    H115160   6.374   0.150   1.786
 5073TIP3    H215161   6.321   0.039   1.698
 5074TIP3   OH215162   4.006   6.969   6.858
 5074TIP3    H115163   3.992   6.910   6.785
 5074TIP3    H215164   3.921   6.973   6.903
 5075TIP3   OH215165   2.130   2.688   3.498
 5075TIP3    H115166   2.214   2.696   3.453
 5075TIP3    H215167   2.145   2.724   3.585
 5076TIP3   OH215168   4.595   6.920   6.598
 5076TIP3    H115169   4.651   6.902   6.673
 5076TIP3    H215170   4.622   6.855   6.532
 5077TIP3   OH215171   4.191   5.628   0.007
 5077TIP3    H115172   4.221   5.582   0.085
 5077TIP3    H215173   4.116   5.576  -0.023
 5078TIP3   OH215174   4.956   1.606   5.343
 5078TIP3    H115175   4.981   1.696   5.322
 5078TIP3    H215176   5.026   1.553   5.305
 5079TIP3   OH215177   5.163   4.048   0.549
 5079TIP3    H115178   5.233   4.065   0.486
 5079TIP3    H215179   5.102   4.121   0.538
 5080TIP3   OH215180   2.692   7.665   1.563
 5080TIP3    H115181   2.740   7.622   1.492
 5080TIP3    H215182   2.682   7.755   1.533
 5081TIP3   OH215183   4.762   4.574   5.913
 5081TIP3    H115184   4.821   4.511   5.871
 5081TIP3    H215185   4.789   4.659   5.879
 5082TIP3   OH215186   2.185   1.533   0.315
 5082TIP3    H115187   2.196   1.564   0.225
 5082TIP3    H215188   2.121   1.462   0.308
 5083TIP3   OH215189   3.001   6.164   3.179
 5083TIP3    H115190   2.979   6.074   3.204
 5083TIP3    H215191   3.090   6.177   3.211
 5084TIP3   OH215192   4.038   3.080   6.723
 5084TIP3    H115193   4.107   3.106   6.785
 5084TIP3    H215194   3.957   3.113   6.761
 5085TIP3   OH215195   3.293   1.109   4.300
 5085TIP3    H115196   3.242   1.065   4.232
 5085TIP3    H215197   3.297   1.047   4.372
 5086TIP3   OH215198   5.563   4.901   4.194
 5086TIP3    H115199   5.501   4.892   4.121
 5086TIP3    H215200   5.647   4.916   4.152
 5087TIP3   OH215201   5.227   3.755   5.553
 5087TIP3    H115202   5.253   3.664   5.542
 5087TIP3    H215203   5.141   3.751   5.595
 5088TIP3   OH215204   0.999   2.769   2.728
 5088TIP3    H115205   1.029   2.717   2.803
 5088TIP3    H215206   0.907   2.747   2.719
 5089TIP3   OH215207   6.531   0.013   0.202
 5089TIP3    H115208   6.593   0.032   0.132
 5089TIP3    H215209   6.463   0.081   0.193
 5090TIP3   OH215210   0.172   3.571   3.773
 5090TIP3    H115211   0.080   3.563   3.797
 5090TIP3    H215212   0.190   3.493   3.721
 5091TIP3   OH215213   5.921   4.786   6.291
 5091TIP3    H115214   5.945   4.740   6.372
 5091TIP3    H215215   5.921   4.879   6.315
 5092TIP3   OH215216   5.588   1.662   6.343
 5092TIP3    H115217   5.663   1.620   6.386
 5092TIP3    H215218   5.615   1.671   6.252
 5093TIP3   OH215219   8.356   0.110   6.567
 5093TIP3    H115220   8.337   0.113   6.473
 5093TIP3    H215221   8.407   0.190   6.584
 5094TIP3   OH215222   3.129   2.011   3.443
 5094TIP3    H115223   3.193   1.988   3.511
 5094TIP3    H215224   3.159   2.095   3.408
 5095TIP3   OH215225   0.105   7.481   3.754
 5095TIP3    H115226   0.126   7.433   3.835
 5095TIP3    H215227   0.131   7.422   3.684
 5096TIP3   OH215228   6.759   6.843   3.265
 5096TIP3    H115229   6.812   6.844   3.185
 5096TIP3    H215230   6.818   6.808   3.332
 5097TIP3   OH215231   0.245   1.133   3.553
 5097TIP3    H115232   0.160   1.150   3.594
 5097TIP3    H215233   0.231   1.153   3.460
 5098TIP3   OH215234   3.464   3.690   1.352
 5098TIP3    H115235   3.404   3.665   1.422
 5098TIP3    H215236   3.479   3.608   1.304
 5099TIP3   OH215237   6.810   2.854   4.868
 5099TIP3    H115238   6.744   2.796   4.830
 5099TIP3    H215239   6.763   2.935   4.886
 5100TIP3   OH215240   4.235   7.152   6.419
 5100TIP3    H115241   4.240   7.098   6.340
 5100TIP3    H215242   4.197   7.235   6.389
 5101TIP3   OH215243   1.202   2.333   3.701
 5101TIP3    H115244   1.286   2.360   3.664
 5101TIP3    H215245   1.144   2.408   3.685
 5102TIP3   OH215246   7.669   6.225   5.722
 5102TIP3    H115247   7.664   6.133   5.748
 5102TIP3    H215248   7.681   6.272   5.804
 5103TIP3   OH215249   3.336   1.932   0.441
 5103TIP3    H115250   3.255   1.953   0.394
 5103TIP3    H215251   3.335   1.836   0.449
 5104TIP3   OH215252   8.316   2.566   3.641
 5104TIP3    H115253   8.365   2.636   3.597
 5104TIP3    H215254   8.338   2.487   3.591
 5105TIP3   OH215255   4.995   1.049   5.608
 5105TIP3    H115256   4.939   1.002   5.545
 5105TIP3    H215257   4.943   1.125   5.634
 5106TIP3   OH215258   1.338   2.013   5.209
 5106TIP3    H115259   1.379   1.946   5.263
 5106TIP3    H215260   1.264   2.045   5.262
 5107TIP3   OH215261   5.343   0.551   1.983
 5107TIP3    H115262   5.250   0.528   1.981
 5107TIP3    H215263   5.351   0.614   2.055
 5108TIP3   OH215264   7.224   0.888   0.403
 5108TIP3    H115265   7.306   0.883   0.451
 5108TIP3    H215266   7.228   0.972   0.357
 5109TIP3   OH215267   3.917   2.854   5.984
 5109TIP3    H115268   3.895   2.832   6.074
 5109TIP3    H215269   4.008   2.825   5.974
 5110TIP3   OH215270   7.567   4.396   4.588
 5110TIP3    H115271   7.621   4.428   4.660
 5110TIP3    H215272   7.491   4.357   4.631
 5111TIP3   OH215273   2.820   0.470   0.430
 5111TIP3    H115274   2.848   0.425   0.510
 5111TIP3    H215275   2.823   0.403   0.362
 5112TIP3   OH215276   4.566   3.831   1.423
 5112TIP3    H115277   4.510   3.875   1.359
 5112TIP3    H215278   4.508   3.813   1.498
 5113TIP3   OH215279   1.590   0.429   5.855
 5113TIP3    H115280   1.652   0.394   5.919
 5113TIP3    H215281   1.504   0.399   5.887
 5114TIP3   OH215282   0.990   5.957   0.629
 5114TIP3    H115283   1.055   6.014   0.670
 5114TIP3    H215284   1.023   5.868   0.644
 5115TIP3   OH215285   0.398   3.849   1.987
 5115TIP3    H115286   0.453   3.798   1.927
 5115TIP3    H215287   0.452   3.860   2.065
 5116TIP3   OH215288   6.618   2.418   3.723
 5116TIP3    H115289   6.610   2.401   3.630
 5116TIP3    H215290   6.569   2.346   3.765
 5117TIP3   OH215291   4.813   0.396   1.872
 5117TIP3    H115292   4.806   0.392   1.777
 5117TIP3    H215293   4.762   0.473   1.896
 5118TIP3   OH215294   5.079   2.708   5.844
 5118TIP3    H115295   5.110   2.794   5.872
 5118TIP3    H215296   5.016   2.683   5.912
 5119TIP3   OH215297   2.223   7.322   3.557
 5119TIP3    H115298   2.151   7.354   3.503
 5119TIP3    H215299   2.286   7.287   3.494
 5120TIP3   OH215300   7.421   0.579   6.280
 5120TIP3    H115301   7.387   0.492   6.261
 5120TIP3    H215302   7.503   0.563   6.328
 5121TIP3   OH215303   5.184   4.684   4.240
 5121TIP3    H115304   5.254   4.651   4.183
 5121TIP3    H215305   5.110   4.698   4.181
 5122TIP3   OH215306   2.407   2.901   5.889
 5122TIP3    H115307   2.368   2.942   5.966
 5122TIP3    H215308   2.492   2.944   5.879
 5123TIP3   OH215309   1.424   1.269   4.950
 5123TIP3    H115310   1.505   1.273   4.898
 5123TIP3    H215311   1.359   1.232   4.891
 5124TIP3   OH215312   1.516   1.057   5.187
 5124TIP3    H115313   1.552   1.045   5.275
 5124TIP3    H215314   1.572   1.124   5.147
 5125TIP3   OH215315   2.892   2.928   0.324
 5125TIP3    H115316   2.953   2.872   0.277
 5125TIP3    H215317   2.819   2.870   0.348
 5126TIP3   OH215318   7.010   3.755   3.884
 5126TIP3    H115319   7.072   3.699   3.931
 5126TIP3    H215320   7.033   3.746   3.792
 5127TIP3   OH215321   2.369   7.617   5.791
 5127TIP3    H115322   2.421   7.634   5.870
 5127TIP3    H215323   2.278   7.625   5.821
 5128TIP3   OH215324   7.621   4.760   2.292
 5128TIP3    H115325   7.568   4.791   2.365
 5128TIP3    H215326   7.701   4.812   2.297
 5129TIP3   OH215327   6.323   5.723   2.846
 5129TIP3    H115328   6.399   5.694   2.898
 5129TIP3    H215329   6.313   5.656   2.779
 5130TIP3   OH215330   3.490   4.368   1.457
 5130TIP3    H115331   3.443   4.449   1.477
 5130TIP3    H215332   3.454   4.340   1.372
 5131TIP3   OH215333   4.895   6.620   0.076
 5131TIP3    H115334   4.818   6.574   0.109
 5131TIP3    H215335   4.860   6.676   0.007
 5132TIP3   OH215336   4.928   2.977   6.663
 5132TIP3    H115337   5.004   3.022   6.699
 5132TIP3    H215338   4.893   3.036   6.596
 5133TIP3   OH215339   3.002   7.081   6.846
 5133TIP3    H115340   2.952   7.035   6.779
 5133TIP3    H215341   3.044   7.154   6.800
 5134TIP3   OH215342   0.540   1.681   2.025
 5134TIP3    H115343   0.632   1.707   2.030
 5134TIP3    H215344   0.504   1.703   2.112
 5135TIP3   OH215345   2.234   2.230   6.425
 5135TIP3    H115346   2.215   2.179   6.347
 5135TIP3    H215347   2.193   2.180   6.496
 5136TIP3   OH215348   5.349   7.122   1.720
 5136TIP3    H115349   5.425   7.093   1.770
 5136TIP3    H215350   5.288   7.156   1.786
 5137TIP3   OH215351   5.992   3.517   4.031
 5137TIP3    H115352   5.917   3.574   4.020
 5137TIP3    H215353   6.054   3.545   3.964
 5138TIP3   OH215354   7.243   3.726   5.824
 5138TIP3    H115355   7.277   3.711   5.913
 5138TIP3    H215356   7.297   3.670   5.768
 5139TIP3   OH215357   4.288   7.255   2.966
 5139TIP3    H115358   4.203   7.250   2.923
 5139TIP3    H215359   4.313   7.347   2.961
 5140TIP3   OH215360   2.605   6.901   5.397
 5140TIP3    H115361   2.668   6.839   5.360
 5140TIP3    H215362   2.649   6.986   5.393
 5141TIP3   OH215363   0.883   6.495   5.788
 5141TIP3    H115364   0.879   6.454   5.702
 5141TIP3    H215365   0.955   6.450   5.833
 5142TIP3   OH215366   0.381   3.841   6.581
 5142TIP3    H115367   0.296   3.797   6.589
 5142TIP3    H215368   0.431   3.811   6.656
 5143TIP3   OH215369   3.728   2.999   2.480
 5143TIP3    H115370   3.700   2.954   2.560
 5143TIP3    H215371   3.656   2.985   2.419
 5144TIP3   OH215372   1.503   5.392   0.121
 5144TIP3    H115373   1.571   5.458   0.106
 5144TIP3    H215374   1.552   5.314   0.146
 5145TIP3   OH215375   0.042   5.220   5.080
 5145TIP3    H115376   0.120   5.259   5.119
 5145TIP3    H215377   0.027   5.140   5.130
 5146TIP3   OH215378   2.080   7.316   3.318
 5146TIP3    H115379   2.005   7.289   3.371
 5146TIP3    H215380   2.079   7.257   3.243
 5147TIP3   OH215381   6.701   2.465   4.612
 5147TIP3    H115382   6.686   2.375   4.642
 5147TIP3    H215383   6.694   2.461   4.517
 5148TIP3   OH215384   0.241   6.353   2.134
 5148TIP3    H115385   0.311   6.289   2.146
 5148TIP3    H215386   0.180   6.310   2.073
 5149TIP3   OH215387   6.380   2.443   0.127
 5149TIP3    H115388   6.456   2.444   0.185
 5149TIP3    H215389   6.304   2.440   0.186
 5150TIP3   OH215390   0.138   5.372   6.090
 5150TIP3    H115391   0.100   5.412   6.012
 5150TIP3    H215392   0.070   5.312   6.121
 5151TIP3   OH215393   4.938   6.730   5.924
 5151TIP3    H115394   4.925   6.783   5.845
 5151TIP3    H215395   4.867   6.757   5.983
 5152TIP3   OH215396   3.614   0.391   4.035
 5152TIP3    H115397   3.707   0.413   4.032
 5152TIP3    H215398   3.571   0.458   3.981
 5153TIP3   OH215399   4.268   4.431   3.379
 5153TIP3    H115400   4.361   4.409   3.371
 5153TIP3    H215401   4.226   4.350   3.408
 5154TIP3   OH215402   1.235   6.772   6.331
 5154TIP3    H115403   1.250   6.699   6.270
 5154TIP3    H215404   1.313   6.827   6.322
 5155TIP3   OH215405   0.675   7.815   3.813
 5155TIP3    H115406   0.735   7.889   3.802
 5155TIP3    H215407   0.719   7.758   3.876
 5156TIP3   OH215408   4.102   6.868   4.875
 5156TIP3    H115409   4.023   6.882   4.824
 5156TIP3    H215410   4.079   6.898   4.963
 5157TIP3   OH215411   5.415   6.893   1.404
 5157TIP3    H115412   5.385   6.983   1.420
 5157TIP3    H215413   5.510   6.898   1.406
 5158TIP3   OH215414   6.679   5.053   3.569
 5158TIP3    H115415   6.667   5.055   3.663
 5158TIP3    H215416   6.644   5.136   3.538
 5159TIP3   OH215417   2.954   2.170   5.002
 5159TIP3    H115418   2.868   2.147   4.967
 5159TIP3    H215419   2.983   2.091   5.048
 5160TIP3   OH215420   0.804   6.142   2.337
 5160TIP3    H115421   0.731   6.081   2.330
 5160TIP3    H215422   0.788   6.191   2.417
 5161TIP3   OH215423   2.883   4.406   0.827
 5161TIP3    H115424   2.967   4.438   0.796
 5161TIP3    H215425   2.855   4.343   0.760
 5162TIP3   OH215426   2.273   0.296   5.435
 5162TIP3    H115427   2.214   0.255   5.499
 5162TIP3    H215428   2.263   0.390   5.449
 5163TIP3   OH215429   1.425   5.321   4.514
 5163TIP3    H115430   1.470   5.348   4.434
 5163TIP3    H215431   1.490   5.266   4.559
 5164TIP3   OH215432   6.505   5.598   4.032
 5164TIP3    H115433   6.563   5.547   4.088
 5164TIP3    H215434   6.457   5.655   4.092
 5165TIP3   OH215435   7.035   6.707   4.653
 5165TIP3    H115436   7.090   6.653   4.710
 5165TIP3    H215437   7.006   6.778   4.709
 5166TIP3   OH215438   1.416   5.918   2.113
 5166TIP3    H115439   1.364   5.852   2.067
 5166TIP3    H215440   1.502   5.914   2.070
 5167TIP3   OH215441   4.423   4.857   0.916
 5167TIP3    H115442   4.428   4.888   1.007
 5167TIP3    H215443   4.513   4.832   0.894
 5168TIP3   OH215444   7.070   4.437   4.612
 5168TIP3    H115445   7.099   4.528   4.620
 5168TIP3    H215446   6.975   4.442   4.623
 5169TIP3   OH215447   1.337   6.842   0.013
 5169TIP3    H115448   1.388   6.826   0.093
 5169TIP3    H215449   1.403   6.864  -0.053
 5170TIP3   OH215450   6.508   5.049   5.919
 5170TIP3    H115451   6.601   5.045   5.941
 5170TIP3    H215452   6.466   5.078   6.000
 5171TIP3   OH215453   7.151   3.989  -0.007
 5171TIP3    H115454   7.096   3.998   0.071
 5171TIP3    H215455   7.114   3.914  -0.054
 5172TIP3   OH215456   7.871   5.429   6.730
 5172TIP3    H115457   7.819   5.464   6.658
 5172TIP3    H215458   7.925   5.360   6.690
 5173TIP3   OH215459   7.630   7.310   3.298
 5173TIP3    H115460   7.587   7.245   3.243
 5173TIP3    H215461   7.642   7.267   3.383
 5174TIP3   OH215462   0.637   2.337   0.922
 5174TIP3    H115463   0.574   2.385   0.976
 5174TIP3    H215464   0.713   2.395   0.916
 5175TIP3   OH215465   0.506   2.476   5.957
 5175TIP3    H115466   0.419   2.447   5.928
 5175TIP3    H215467   0.512   2.446   6.048
 5176TIP3   OH215468   6.110   2.893   2.833
 5176TIP3    H115469   6.070   2.980   2.829
 5176TIP3    H215470   6.036   2.833   2.837
 5177TIP3   OH215471   4.873   1.202   0.396
 5177TIP3    H115472   4.797   1.147   0.380
 5177TIP3    H215473   4.922   1.200   0.314
 5178TIP3   OH215474   7.996   1.100   2.530
 5178TIP3    H115475   7.927   1.061   2.476
 5178TIP3    H215476   7.981   1.064   2.618
 5179TIP3   OH215477   1.541   0.422   6.596
 5179TIP3    H115478   1.539   0.515   6.618
 5179TIP3    H215479   1.634   0.403   6.582
 5180TIP3   OH215480   6.895   4.145   4.593
 5180TIP3    H115481   6.822   4.202   4.570
 5180TIP3    H215482   6.938   4.126   4.510
 5181TIP3   OH215483   1.509   0.302   6.832
 5181TIP3    H115484   1.537   0.340   6.748
 5181TIP3    H215485   1.591   0.287   6.880
 5182TIP3   OH215486   5.079   7.049   5.930
 5182TIP3    H115487   5.171   7.072   5.922
 5182TIP3    H215488   5.065   7.036   6.024
 5183TIP3   OH215489   0.896   3.905   5.137
 5183TIP3    H115490   0.925   3.873   5.223
 5183TIP3    H215491   0.919   3.998   5.138
 5184TIP3   OH215492   2.009   2.045   0.912
 5184TIP3    H115493   1.965   2.071   0.994
 5184TIP3    H215494   2.062   1.969   0.937
 5185TIP3   OH215495   7.318   1.944   0.585
 5185TIP3    H115496   7.267   1.871   0.620
 5185TIP3    H215497   7.372   1.904   0.516
 5186TIP3   OH215498   2.138   3.910   3.080
 5186TIP3    H115499   2.067   3.878   3.025
 5186TIP3    H215500   2.208   3.846   3.069
 5187TIP3   OH215501   2.692   5.681   3.493
 5187TIP3    H115502   2.655   5.756   3.446
 5187TIP3    H215503   2.706   5.615   3.425
 5188TIP3   OH215504   3.769   7.606   4.202
 5188TIP3    H115505   3.779   7.670   4.273
 5188TIP3    H215506   3.800   7.652   4.124
 5189TIP3   OH215507   4.999   6.077   2.695
 5189TIP3    H115508   5.006   5.983   2.713
 5189TIP3    H215509   5.063   6.092   2.625
 5190TIP3   OH215510   0.185   6.143   5.882
 5190TIP3    H115511   0.114   6.201   5.851
 5190TIP3    H215512   0.172   6.139   5.977
 5191TIP3   OH215513   7.871   1.160   3.424
 5191TIP3    H115514   7.857   1.095   3.493
 5191TIP3    H215515   7.884   1.243   3.470
 5192TIP3   OH215516   3.448   5.264   3.186
 5192TIP3    H115517   3.506   5.206   3.235
 5192TIP3    H215518   3.484   5.351   3.200
 5193TIP3   OH215519   0.940   3.765   6.317
 5193TIP3    H115520   0.901   3.752   6.231
 5193TIP3    H215521   0.872   3.810   6.368
 5194TIP3   OH215522   5.147   4.594   6.313
 5194TIP3    H115523   5.055   4.573   6.329
 5194TIP3    H215524   5.175   4.529   6.248
 5195TIP3   OH215525   6.246   2.218   6.531
 5195TIP3    H115526   6.272   2.303   6.495
 5195TIP3    H215527   6.182   2.183   6.469
 5196TIP3   OH215528   0.762   2.483   2.272
 5196TIP3    H115529   0.841   2.475   2.218
 5196TIP3    H215530   0.700   2.530   2.217
 5197TIP3   OH215531   4.089   6.446   6.678
 5197TIP3    H115532   4.178   6.413   6.685
 5197TIP3    H215533   4.098   6.533   6.639
 5198TIP3   OH215534   4.109   4.637   1.378
 5198TIP3    H115535   4.186   4.597   1.337
 5198TIP3    H215536   4.075   4.569   1.436
 5199TIP3   OH215537   6.211   6.366   0.809
 5199TIP3    H115538   6.238   6.299   0.746
 5199TIP3    H215539   6.140   6.325   0.858
 5200TIP3   OH215540   4.548   3.375   2.170
 5200TIP3    H115541   4.595   3.295   2.147
 5200TIP3    H215542   4.476   3.380   2.106
 5201TIP3   OH215543   1.210   4.355   1.376
 5201TIP3    H115544   1.152   4.432   1.376
 5201TIP3    H215545   1.181   4.303   1.301
 5202TIP3   OH215546   5.955   1.780   2.764
 5202TIP3    H115547   6.008   1.789   2.843
 5202TIP3    H215548   5.974   1.691   2.733
 5203TIP3   OH215549   2.275   6.524   5.289
 5203TIP3    H115550   2.293   6.595   5.228
 5203TIP3    H215551   2.359   6.480   5.300
 5204TIP3   OH215552   7.662   1.637   1.124
 5204TIP3    H115553   7.598   1.676   1.064
 5204TIP3    H215554   7.722   1.708   1.145
 5205TIP3   OH215555   6.285   4.576   2.028
 5205TIP3    H115556   6.309   4.598   1.938
 5205TIP3    H215557   6.203   4.528   2.021
 5206TIP3   OH215558   3.455   7.052   1.132
 5206TIP3    H115559   3.363   7.038   1.107
 5206TIP3    H215560   3.500   7.066   1.049
 5207TIP3   OH215561   5.384   5.422   5.523
 5207TIP3    H115562   5.409   5.354   5.586
 5207TIP3    H215563   5.468   5.458   5.493
 5208TIP3   OH215564  -0.010   5.655   4.414
 5208TIP3    H115565   0.065   5.712   4.396
 5208TIP3    H215566   0.020   5.567   4.389
 5209TIP3   OH215567   6.721   1.734   1.458
 5209TIP3    H115568   6.772   1.704   1.383
 5209TIP3    H215569   6.634   1.695   1.446
 5210TIP3   OH215570   1.465   1.528   2.906
 5210TIP3    H115571   1.421   1.515   2.822
 5210TIP3    H215572   1.473   1.440   2.943
 5211TIP3   OH215573   7.702   6.770   6.482
 5211TIP3    H115574   7.730   6.853   6.443
 5211TIP3    H215575   7.733   6.775   6.573
 5212TIP3   OH215576   4.154   6.709   6.598
 5212TIP3    H115577   4.202   6.791   6.585
 5212TIP3    H215578   4.164   6.662   6.516
 5213TIP3   OH215579   3.210   7.058   5.691
 5213TIP3    H115580   3.287   7.037   5.638
 5213TIP3    H215581   3.169   6.973   5.707
 5214TIP3   OH215582   7.903   0.477   3.696
 5214TIP3    H115583   7.939   0.439   3.776
 5214TIP3    H215584   7.978   0.516   3.652
 5215TIP3   OH215585   6.018   1.688   0.762
 5215TIP3    H115586   5.941   1.713   0.710
 5215TIP3    H215587   6.053   1.772   0.793
 5216TIP3   OH215588   4.442   0.881   3.279
 5216TIP3    H115589   4.425   0.879   3.185
 5216TIP3    H215590   4.496   0.959   3.292
 5217TIP3   OH215591   2.731   0.027   0.015
 5217TIP3    H115592   2.775  -0.026   0.082
 5217TIP3    H215593   2.681   0.092   0.066
 5218TIP3   OH215594   5.033   6.245   2.024
 5218TIP3    H115595   4.964   6.204   2.076
 5218TIP3    H215596   5.077   6.173   1.980
 5219TIP3   OH215597   1.712   1.582   2.289
 5219TIP3    H115598   1.733   1.575   2.196
 5219TIP3    H215599   1.793   1.613   2.330
 5220TIP3   OH215600   6.687   1.376   3.770
 5220TIP3    H115601   6.614   1.314   3.761
 5220TIP3    H215602   6.737   1.365   3.689
 5221TIP3   OH215603   8.250   6.867   5.540
 5221TIP3    H115604   8.232   6.773   5.549
 5221TIP3    H215605   8.217   6.906   5.620
 5222TIP3   OH215606   3.081   6.305   0.788
 5222TIP3    H115607   3.105   6.367   0.719
 5222TIP3    H215608   3.001   6.342   0.827
 5223TIP3   OH215609   6.995   2.032   3.678
 5223TIP3    H115610   6.947   1.952   3.700
 5223TIP3    H215611   7.073   2.028   3.732
 5224TIP3   OH215612   2.647   0.497   4.483
 5224TIP3    H115613   2.680   0.449   4.407
 5224TIP3    H215614   2.555   0.516   4.461
 5225TIP3   OH215615   7.507   7.515   3.642
 5225TIP3    H115616   7.428   7.558   3.673
 5225TIP3    H215617   7.525   7.448   3.707
 5226TIP3   OH215618   3.881   4.724   2.994
 5226TIP3    H115619   3.913   4.754   2.909
 5226TIP3    H215620   3.873   4.629   2.984
 5227TIP3   OH215621   3.861   6.727   1.322
 5227TIP3    H115622   3.808   6.665   1.273
 5227TIP3    H215623   3.803   6.802   1.336
 5228TIP3   OH215624   1.804   7.086   6.699
 5228TIP3    H115625   1.882   7.071   6.646
 5228TIP3    H215626   1.734   7.039   6.653
 5229TIP3   OH215627   7.132   2.445   3.078
 5229TIP3    H115628   7.088   2.527   3.057
 5229TIP3    H215629   7.210   2.472   3.127
 5230TIP3   OH215630   6.045   0.479   4.115
 5230TIP3    H115631   6.031   0.397   4.162
 5230TIP3    H215632   6.085   0.453   4.032
 5231TIP3   OH215633   6.677   4.554   6.674
 5231TIP3    H115634   6.612   4.536   6.741
 5231TIP3    H215635   6.711   4.468   6.650
 5232TIP3   OH215636   4.306   6.284   0.075
 5232TIP3    H115637   4.353   6.254   0.153
 5232TIP3    H215638   4.218   6.304   0.107
 5233TIP3   OH215639   2.332   7.213   3.782
 5233TIP3    H115640   2.298   7.245   3.699
 5233TIP3    H215641   2.267   7.242   3.847
 5234TIP3   OH215642   3.264   3.806   3.566
 5234TIP3    H115643   3.331   3.776   3.505
 5234TIP3    H215644   3.196   3.739   3.562
 5235TIP3   OH215645   2.779   1.773   5.334
 5235TIP3    H115646   2.743   1.736   5.414
 5235TIP3    H215647   2.713   1.834   5.302
 5236TIP3   OH215648   3.149   3.906   2.746
 5236TIP3    H115649   3.078   3.852   2.779
 5236TIP3    H215650   3.229   3.864   2.777
 5237TIP3   OH215651   4.272   6.916   0.775
 5237TIP3    H115652   4.210   6.902   0.847
 5237TIP3    H215653   4.292   6.827   0.744
 5238TIP3   OH215654   1.943   0.760   3.650
 5238TIP3    H115655   1.882   0.834   3.647
 5238TIP3    H215656   1.949   0.731   3.559
 5239TIP3   OH215657   6.743   4.291   1.032
 5239TIP3    H115658   6.668   4.270   0.977
 5239TIP3    H215659   6.817   4.296   0.972
 5240TIP3   OH215660   3.062   4.825   3.618
 5240TIP3    H115661   3.102   4.871   3.544
 5240TIP3    H215662   2.990   4.775   3.580
 5241TIP3   OH215663   5.088   1.744   2.216
 5241TIP3    H115664   4.995   1.742   2.193
 5241TIP3    H215665   5.128   1.801   2.150
 5242TIP3   OH215666   3.278   3.769   3.994
 5242TIP3    H115667   3.325   3.839   3.949
 5242TIP3    H215668   3.275   3.797   4.085
 5243TIP3   OH215669   2.487   1.755   1.102
 5243TIP3    H115670   2.545   1.831   1.104
 5243TIP3    H215671   2.482   1.731   1.009
 5244TIP3   OH215672   1.036   6.728   4.001
 5244TIP3    H115673   0.979   6.747   3.926
 5244TIP3    H215674   0.976   6.727   4.076
 5245TIP3   OH215675   0.123   7.039   0.537
 5245TIP3    H115676   0.178   7.114   0.559
 5245TIP3    H215677   0.085   7.011   0.620
 5246TIP3   OH215678   7.483   4.499   3.642
 5246TIP3    H115679   7.396   4.460   3.652
 5246TIP3    H215680   7.477   4.583   3.686
 5247TIP3   OH215681   6.598   6.016   1.517
 5247TIP3    H115682   6.605   6.109   1.541
 5247TIP3    H215683   6.506   5.994   1.532
 5248TIP3   OH215684   1.055   5.869   3.693
 5248TIP3    H115685   1.009   5.785   3.694
 5248TIP3    H215686   1.047   5.900   3.603
 5249TIP3   OH215687   7.082   2.949   0.114
 5249TIP3    H115688   7.045   3.037   0.117
 5249TIP3    H215689   7.098   2.926   0.206
 5250TIP3   OH215690   5.218   6.150   1.358
 5250TIP3    H115691   5.279   6.211   1.400
 5250TIP3    H215692   5.182   6.098   1.430
 5251TIP3   OH215693   7.073   7.749   4.771
 5251TIP3    H115694   7.127   7.670   4.764
 5251TIP3    H215695   7.018   7.735   4.848
 5252TIP3   OH215696   6.275   0.938   2.547
 5252TIP3    H115697   6.304   0.970   2.462
 5252TIP3    H215698   6.321   0.993   2.611
 5253TIP3   OH215699   8.132   0.684   6.117
 5253TIP3    H115700   8.060   0.689   6.180
 5253TIP3    H215701   8.106   0.615   6.056
 5254TIP3   OH215702   3.851   0.744   0.510
 5254TIP3    H115703   3.830   0.832   0.540
 5254TIP3    H215704   3.774   0.692   0.532
 5255TIP3   OH215705   7.313   5.913   6.275
 5255TIP3    H115706   7.387   5.971   6.290
 5255TIP3    H215707   7.241   5.971   6.252
 5256TIP3   OH215708   5.163   7.415   5.454
 5256TIP3    H115709   5.223   7.352   5.495
 5256TIP3    H215710   5.216   7.492   5.438
 5257TIP3   OH215711   3.248   2.531   6.181
 5257TIP3    H115712   3.214   2.511   6.094
 5257TIP3    H215713   3.343   2.541   6.168
 5258TIP3   OH215714   3.988   7.452   5.176
 5258TIP3    H115715   4.077   7.426   5.153
 5258TIP3    H215716   3.948   7.477   5.092
 5259TIP3   OH215717   5.642   2.010   0.520
 5259TIP3    H115718   5.566   1.962   0.554
 5259TIP3    H215719   5.689   2.040   0.598
 5260TIP3   OH215720   1.661   3.884   5.192
 5260TIP3    H115721   1.603   3.819   5.151
 5260TIP3    H215722   1.687   3.941   5.120
 5261TIP3   OH215723   0.148   0.549   1.765
 5261TIP3    H115724   0.120   0.495   1.691
 5261TIP3    H215725   0.092   0.520   1.838
 5262TIP3   OH215726   6.006   5.248   5.592
 5262TIP3    H115727   5.966   5.334   5.600
 5262TIP3    H215728   5.976   5.200   5.670
 5263TIP3   OH215729   5.729   2.871   0.752
 5263TIP3    H115730   5.766   2.791   0.715
 5263TIP3    H215731   5.754   2.939   0.689
 5264TIP3   OH215732   8.132   1.373   2.565
 5264TIP3    H115733   8.084   1.291   2.549
 5264TIP3    H215734   8.149   1.372   2.659
 5265TIP3   OH215735   4.760   7.215   4.840
 5265TIP3    H115736   4.839   7.202   4.788
 5265TIP3    H215737   4.691   7.233   4.775
 5266TIP3   OH215738   1.068   7.843   0.593
 5266TIP3    H115739   1.139   7.832   0.656
 5266TIP3    H215740   1.035   7.931   0.610
 5267TIP3   OH215741   0.651   2.954   5.185
 5267TIP3    H115742   0.675   3.044   5.205
 5267TIP3    H215743   0.691   2.938   5.099
 5268TIP3   OH215744   0.811   3.912   1.729
 5268TIP3    H115745   0.784   3.965   1.804
 5268TIP3    H215746   0.891   3.955   1.697
 5269TIP3   OH215747   5.997   4.482   0.429
 5269TIP3    H115748   5.965   4.573   0.430
 5269TIP3    H215749   6.053   4.476   0.506
 5270TIP3   OH215750   8.303   5.378   6.484
 5270TIP3    H115751   8.350   5.450   6.442
 5270TIP3    H215752   8.216   5.379   6.444
 5271TIP3   OH215753   1.977   6.573   3.776
 5271TIP3    H115754   1.965   6.605   3.866
 5271TIP3    H215755   2.072   6.572   3.763
 5272TIP3   OH215756   7.500   5.728   1.962
 5272TIP3    H115757   7.573   5.787   1.941
 5272TIP3    H215758   7.459   5.710   1.877
 5273TIP3   OH215759   7.581   5.217   3.656
 5273TIP3    H115760   7.659   5.256   3.693
 5273TIP3    H215761   7.527   5.193   3.731
 5274TIP3   OH215762   2.681   5.905   4.947
 5274TIP3    H115763   2.604   5.953   4.979
 5274TIP3    H215764   2.687   5.929   4.855
 5275TIP3   OH215765   4.749   3.049   6.438
 5275TIP3    H115766   4.714   3.114   6.499
 5275TIP3    H215767   4.819   3.096   6.391
 5276TIP3   OH215768   0.739   3.800   5.833
 5276TIP3    H115769   0.742   3.704   5.841
 5276TIP3    H215770   0.705   3.830   5.918
 5277TIP3   OH215771   6.088   2.488   5.946
 5277TIP3    H115772   6.157   2.421   5.944
 5277TIP3    H215773   6.135   2.570   5.963
 5278TIP3   OH215774   7.696   1.995   2.318
 5278TIP3    H115775   7.742   1.912   2.333
 5278TIP3    H215776   7.742   2.034   2.244
 5279TIP3   OH215777   5.272   4.654   0.881
 5279TIP3    H115778   5.271   4.602   0.962
 5279TIP3    H215779   5.339   4.611   0.826
 5280TIP3   OH215780   7.596   6.989   6.211
 5280TIP3    H115781   7.530   6.971   6.277
 5280TIP3    H215782   7.549   7.036   6.141
 5281TIP3   OH215783   6.484   5.444   6.332
 5281TIP3    H115784   6.540   5.474   6.261
 5281TIP3    H215785   6.440   5.366   6.297
 5282TIP3   OH215786   4.851   4.813   5.815
 5282TIP3    H115787   4.867   4.866   5.892
 5282TIP3    H215788   4.929   4.826   5.760
 5283TIP3   OH215789   6.065   7.157   6.088
 5283TIP3    H115790   6.155   7.128   6.099
 5283TIP3    H215791   6.026   7.092   6.030
 5284TIP3   OH215792   7.754   2.774   6.049
 5284TIP3    H115793   7.670   2.781   6.096
 5284TIP3    H215794   7.818   2.811   6.110
 5285TIP3   OH215795   2.516   1.947   2.568
 5285TIP3    H115796   2.441   1.991   2.527
 5285TIP3    H215797   2.498   1.951   2.662
 5286TIP3   OH215798   0.421   1.948   3.002
 5286TIP3    H115799   0.372   2.030   3.010
 5286TIP3    H215800   0.487   1.966   2.936
 5287TIP3   OH215801   7.193   2.012   3.843
 5287TIP3    H115802   7.283   2.042   3.830
 5287TIP3    H215803   7.176   2.029   3.936
 5288TIP3   OH215804   4.924   2.710   1.994
 5288TIP3    H115805   4.957   2.677   1.910
 5288TIP3    H215806   4.946   2.642   2.057
 5289TIP3   OH215807   6.096   4.515   5.767
 5289TIP3    H115808   6.142   4.494   5.848
 5289TIP3    H215809   6.158   4.568   5.717
 5290TIP3   OH215810   3.004   2.673   6.063
 5290TIP3    H115811   3.083   2.664   6.009
 5290TIP3    H215812   2.966   2.757   6.037
 5291TIP3   OH215813   7.958   3.585   1.805
 5291TIP3    H115814   8.024   3.525   1.771
 5291TIP3    H215815   7.981   3.597   1.897
 5292TIP3   OH215816   7.217   4.688   2.008
 5292TIP3    H115817   7.131   4.707   2.045
 5292TIP3    H215818   7.274   4.676   2.084
 5293TIP3   OH215819   0.601   2.956   2.955
 5293TIP3    H115820   0.686   2.995   2.974
 5293TIP3    H215821   0.574   2.917   3.038
 5294TIP3   OH215822   0.523   7.838   4.491
 5294TIP3    H115823   0.617   7.835   4.505
 5294TIP3    H215824   0.500   7.931   4.502
 5295TIP3   OH215825   3.280   5.394   0.308
 5295TIP3    H115826   3.273   5.351   0.223
 5295TIP3    H215827   3.232   5.477   0.297
 5296TIP3   OH215828   5.908   1.247   6.515
 5296TIP3    H115829   5.986   1.193   6.516
 5296TIP3    H215830   5.839   1.191   6.552
 5297TIP3   OH215831   6.087   1.994   5.255
 5297TIP3    H115832   6.017   2.021   5.314
 5297TIP3    H215833   6.103   1.903   5.277
 5298TIP3   OH215834   3.262   1.051   5.432
 5298TIP3    H115835   3.256   1.141   5.400
 5298TIP3    H215836   3.173   1.018   5.428
 5299TIP3   OH215837   3.685   0.607   1.299
 5299TIP3    H115838   3.618   0.549   1.335
 5299TIP3    H215839   3.671   0.604   1.204
 5300TIP3   OH215840   5.618   5.925   2.532
 5300TIP3    H115841   5.579   6.013   2.531
 5300TIP3    H215842   5.663   5.918   2.448
 5301TIP3   OH215843   1.023   1.383   0.499
 5301TIP3    H115844   0.958   1.432   0.549
 5301TIP3    H215845   1.106   1.426   0.519
 5302TIP3   OH215846   4.364   5.149   3.287
 5302TIP3    H115847   4.401   5.196   3.362
 5302TIP3    H215848   4.433   5.088   3.260
 5303TIP3   OH215849   7.494   5.993   3.188
 5303TIP3    H115850   7.525   6.019   3.274
 5303TIP3    H215851   7.570   6.003   3.131
 5304TIP3   OH215852   2.515   6.949   5.140
 5304TIP3    H115853   2.554   6.943   5.228
 5304TIP3    H215854   2.443   7.011   5.150
 5305TIP3   OH215855   7.865   4.635   5.590
 5305TIP3    H115856   7.848   4.650   5.497
 5305TIP3    H215857   7.949   4.589   5.592
 5306TIP3   OH215858   4.337   6.282   5.568
 5306TIP3    H115859   4.308   6.223   5.498
 5306TIP3    H215860   4.298   6.366   5.546
 5307TIP3   OH215861   1.882   7.645   1.034
 5307TIP3    H115862   1.967   7.655   1.078
 5307TIP3    H215863   1.819   7.687   1.093
 5308TIP3   OH215864   0.459   4.777   0.864
 5308TIP3    H115865   0.404   4.736   0.930
 5308TIP3    H215866   0.533   4.717   0.854
 5309TIP3   OH215867   4.450   1.013   1.460
 5309TIP3    H115868   4.388   1.085   1.473
 5309TIP3    H215869   4.403   0.936   1.492
 5310TIP3   OH215870   0.043   2.473   5.976
 5310TIP3    H115871  -0.007   2.549   6.005
 5310TIP3    H215872   0.023   2.405   6.040
 5311TIP3   OH215873   5.553   4.929   6.175
 5311TIP3    H115874   5.514   4.898   6.093
 5311TIP3    H215875   5.604   4.855   6.207
 5312TIP3   OH215876   1.086   5.275   1.308
 5312TIP3    H115877   1.085   5.204   1.243
 5312TIP3    H215878   1.178   5.280   1.335
 5313TIP3   OH215879   6.764   3.193   6.027
 5313TIP3    H115880   6.782   3.225   6.116
 5313TIP3    H215881   6.834   3.231   5.974
 5314TIP3   OH215882   3.339   4.942   6.766
 5314TIP3    H115883   3.389   5.010   6.812
 5314TIP3    H215884   3.261   4.930   6.820
 5315TIP3   OH215885   0.361   0.280   0.647
 5315TIP3    H115886   0.283   0.327   0.618
 5315TIP3    H215887   0.426   0.349   0.662
 5316TIP3   OH215888   2.881   2.221   4.104
 5316TIP3    H115889   2.791   2.241   4.127
 5316TIP3    H215890   2.918   2.304   4.074
 5317TIP3   OH215891   3.449   0.065   6.315
 5317TIP3    H115892   3.371   0.020   6.348
 5317TIP3    H215893   3.417   0.148   6.282
 5318TIP3   OH215894   5.303   2.654   0.155
 5318TIP3    H115895   5.260   2.596   0.092
 5318TIP3    H215896   5.342   2.723   0.102
 5319TIP3   OH215897   7.354   3.676   6.102
 5319TIP3    H115898   7.424   3.722   6.148
 5319TIP3    H215899   7.274   3.705   6.145
 5320TIP3   OH215900   3.911   0.027   1.141
 5320TIP3    H115901   3.995  -0.019   1.137
 5320TIP3    H215902   3.882   0.016   1.232
 5321TIP3   OH215903   5.816   1.536   6.487
 5321TIP3    H115904   5.882   1.534   6.556
 5321TIP3    H215905   5.798   1.444   6.468
 5322TIP3   OH215906   7.523   3.554   4.006
 5322TIP3    H115907   7.535   3.645   4.031
 5322TIP3    H215908   7.575   3.545   3.926
 5323TIP3   OH215909   8.046   2.450   0.113
 5323TIP3    H115910   7.974   2.430   0.174
 5323TIP3    H215911   8.118   2.395   0.142
 5324TIP3   OH215912   4.467   7.669   6.015
 5324TIP3    H115913   4.509   7.597   6.061
 5324TIP3    H215914   4.513   7.673   5.931
 5325TIP3   OH215915   4.188   0.907   3.859
 5325TIP3    H115916   4.103   0.862   3.859
 5325TIP3    H215917   4.174   0.984   3.915
 5326TIP3   OH215918   8.029   7.809   5.747
 5326TIP3    H115919   8.096   7.798   5.814
 5326TIP3    H215920   8.064   7.765   5.670
 5327TIP3   OH215921   0.404   5.583   6.614
 5327TIP3    H115922   0.364   5.516   6.559
 5327TIP3    H215923   0.345   5.591   6.689
 5328TIP3   OH215924   5.870   6.905   3.692
 5328TIP3    H115925   5.904   6.877   3.607
 5328TIP3    H215926   5.914   6.988   3.709
 5329TIP3   OH215927   1.282   4.452   1.615
 5329TIP3    H115928   1.268   4.400   1.535
 5329TIP3    H215929   1.236   4.534   1.599
 5330TIP3   OH215930   0.086   1.641   1.633
 5330TIP3    H115931   0.021   1.571   1.639
 5330TIP3    H215932   0.157   1.612   1.690
 5331TIP3   OH215933   0.664   4.193   1.015
 5331TIP3    H115934   0.727   4.137   1.061
 5331TIP3    H215935   0.710   4.276   1.002
 5332TIP3   OH215936   7.049   4.779   5.516
 5332TIP3    H115937   7.127   4.724   5.505
 5332TIP3    H215938   7.045   4.832   5.437
 5333TIP3   OH215939   2.153   1.503   4.276
 5333TIP3    H115940   2.121   1.580   4.227
 5333TIP3    H215941   2.164   1.535   4.365
 5334TIP3   OH215942   1.591   1.069   1.258
 5334TIP3    H115943   1.519   1.036   1.311
 5334TIP3    H215944   1.657   1.000   1.261
 5335TIP3   OH215945   7.433   1.037   0.025
 5335TIP3    H115946   7.360   0.991  -0.015
 5335TIP3    H215947   7.484   1.070  -0.049
 5336TIP3   OH215948   1.560   7.214   2.870
 5336TIP3    H115949   1.546   7.299   2.911
 5336TIP3    H215950   1.649   7.190   2.895
 5337TIP3   OH215951   5.448   6.785   5.097
 5337TIP3    H115952   5.441   6.733   5.177
 5337TIP3    H215953   5.455   6.876   5.127
 5338TIP3   OH215954   0.151   7.778   1.509
 5338TIP3    H115955   0.179   7.689   1.492
 5338TIP3    H215956   0.062   7.769   1.543
 5339TIP3   OH215957   8.338   0.450   3.779
 5339TIP3    H115958   8.405   0.504   3.736
 5339TIP3    H215959   8.267   0.511   3.798
 5340TIP3   OH215960   3.950   3.031   1.918
 5340TIP3    H115961   3.867   2.990   1.942
 5340TIP3    H215962   3.934   3.125   1.929
 5341TIP3   OH215963   7.493   2.686   5.254
 5341TIP3    H115964   7.445   2.738   5.318
 5341TIP3    H215965   7.482   2.734   5.171
 5342TIP3   OH215966   6.266   6.080   2.958
 5342TIP3    H115967   6.294   5.988   2.955
 5342TIP3    H215968   6.343   6.127   2.991
 5343TIP3   OH215969   4.950   1.268   4.365
 5343TIP3    H115970   5.027   1.309   4.327
 5343TIP3    H215971   4.916   1.333   4.427
 5344TIP3   OH215972   6.046   3.369   3.127
 5344TIP3    H115973   6.124   3.317   3.147
 5344TIP3    H215974   5.973   3.309   3.139
 5345TIP3   OH215975   0.180   1.733   3.611
 5345TIP3    H115976   0.141   1.786   3.542
 5345TIP3    H215977   0.105   1.697   3.658
 5346TIP3   OH215978   5.602   7.104   2.781
 5346TIP3    H115979   5.619   7.010   2.789
 5346TIP3    H215980   5.579   7.132   2.869
 5347TIP3   OH215981   0.515   4.533   5.094
 5347TIP3    H115982   0.557   4.477   5.028
 5347TIP3    H215983   0.488   4.473   5.162
 5348TIP3   OH215984   8.265   1.487   6.668
 5348TIP3    H115985   8.170   1.483   6.663
 5348TIP3    H215986   8.284   1.492   6.762
 5349TIP3   OH215987   6.447   5.740   3.804
 5349TIP3    H115988   6.492   5.824   3.811
 5349TIP3    H215989   6.485   5.685   3.872
 5350TIP3   OH215990   5.094   3.784   6.253
 5350TIP3    H115991   5.110   3.721   6.323
 5350TIP3    H215992   5.174   3.783   6.200
 5351TIP3   OH215993   3.917   2.762   2.717
 5351TIP3    H115994   3.991   2.808   2.757
 5351TIP3    H215995   3.848   2.828   2.713
 5352TIP3   OH215996   6.196   4.327   6.735
 5352TIP3    H115997   6.121   4.269   6.729
 5352TIP3    H215998   6.272   4.269   6.735
 5353TIP3   OH215999   2.631   2.693   1.965
 5353TIP3    H116000   2.622   2.605   2.001
 5353TIP3    H216001   2.577   2.749   2.022
 5354TIP3   OH216002   7.689   6.361   2.496
 5354TIP3    H116003   7.630   6.426   2.458
 5354TIP3    H216004   7.726   6.405   2.572
 5355TIP3   OH216005   6.108   3.015   6.200
 5355TIP3    H116006   6.132   3.107   6.194
 5355TIP3    H216007   6.121   2.981   6.111
 5356TIP3   OH216008   3.132   3.463   1.343
 5356TIP3    H116009   3.206   3.465   1.282
 5356TIP3    H216010   3.141   3.379   1.388
 5357TIP3   OH216011   7.576   7.894   5.359
 5357TIP3    H116012   7.494   7.928   5.395
 5357TIP3    H216013   7.575   7.801   5.382
 5358TIP3   OH216014   4.840   1.638   2.478
 5358TIP3    H116015   4.872   1.681   2.558
 5358TIP3    H216016   4.851   1.545   2.495
 5359TIP3   OH216017   2.757   3.710   0.313
 5359TIP3    H116018   2.716   3.674   0.235
 5359TIP3    H216019   2.685   3.749   0.363
 5360TIP3   OH216020   3.450   4.822   1.019
 5360TIP3    H116021   3.523   4.881   1.037
 5360TIP3    H216022   3.377   4.880   0.998
 5361TIP3   OH216023   3.634   1.096   2.221
 5361TIP3    H116024   3.539   1.098   2.215
 5361TIP3    H216025   3.654   1.022   2.277
 5362TIP3   OH216026   3.993   5.253   3.771
 5362TIP3    H116027   3.991   5.332   3.824
 5362TIP3    H216028   4.072   5.207   3.798
 5363TIP3   OH216029   7.739   7.852   4.997
 5363TIP3    H116030   7.651   7.818   4.982
 5363TIP3    H216031   7.726   7.933   5.046
 5364TIP3   OH216032   2.451   0.371   1.526
 5364TIP3    H116033   2.395   0.410   1.459
 5364TIP3    H216034   2.536   0.414   1.515
 5365TIP3   OH216035   4.198   4.424   5.912
 5365TIP3    H116036   4.153   4.355   5.962
 5365TIP3    H216037   4.146   4.434   5.833
 5366TIP3   OH216038   3.808   4.435   1.332
 5366TIP3    H116039   3.771   4.358   1.287
 5366TIP3    H216040   3.888   4.403   1.372
 5367TIP3   OH216041   4.556   7.836   2.285
 5367TIP3    H116042   4.557   7.832   2.380
 5367TIP3    H216043   4.578   7.927   2.264
 5368TIP3   OH216044   5.347   4.276   2.858
 5368TIP3    H116045   5.333   4.210   2.926
 5368TIP3    H216046   5.417   4.331   2.893
 5369TIP3   OH216047   1.611   5.870   4.577
 5369TIP3    H116048   1.527   5.917   4.581
 5369TIP3    H216049   1.666   5.923   4.520
 5370TIP3   OH216050   4.966   0.705   3.581
 5370TIP3    H116051   4.913   0.733   3.507
 5370TIP3    H216052   5.045   0.668   3.542
 5371TIP3   OH216053   4.921   4.576   0.488
 5371TIP3    H116054   4.856   4.535   0.431
 5371TIP3    H216055   4.996   4.517   0.483
 5372TIP3   OH216056   5.331   4.503   2.439
 5372TIP3    H116057   5.425   4.518   2.452
 5372TIP3    H216058   5.293   4.591   2.438
 5373TIP3   OH216059   0.567   5.571   3.569
 5373TIP3    H116060   0.630   5.640   3.590
 5373TIP3    H216061   0.526   5.551   3.653
 5374TIP3   OH216062   1.128   4.007   5.749
 5374TIP3    H116063   1.218   3.987   5.724
 5374TIP3    H216064   1.077   3.933   5.718
 5375TIP3   OH216065   3.991   2.041   0.575
 5375TIP3    H116066   4.011   2.134   0.568
 5375TIP3    H216067   4.002   2.008   0.485
 5376TIP3   OH216068   2.094   1.438   5.779
 5376TIP3    H116069   2.155   1.407   5.846
 5376TIP3    H216070   2.099   1.374   5.709
 5377TIP3   OH216071   4.906   6.147   5.211
 5377TIP3    H116072   4.913   6.111   5.300
 5377TIP3    H216073   4.900   6.241   5.224
 5378TIP3   OH216074   4.543   0.369   4.913
 5378TIP3    H116075   4.449   0.352   4.924
 5378TIP3    H216076   4.577   0.288   4.875
 5379TIP3   OH216077   4.721   1.582   4.043
 5379TIP3    H116078   4.687   1.537   4.120
 5379TIP3    H216079   4.763   1.661   4.077
 5380TIP3   OH216080   3.085   7.932   5.129
 5380TIP3    H116081   3.018   7.941   5.061
 5380TIP3    H216082   3.163   7.905   5.082
 5381TIP3   OH216083   6.304   6.713   6.643
 5381TIP3    H116084   6.373   6.696   6.578
 5381TIP3    H216085   6.246   6.776   6.600
 5382TIP3   OH216086   4.106   0.494   2.795
 5382TIP3    H116087   4.104   0.399   2.807
 5382TIP3    H216088   4.119   0.507   2.701
 5383TIP3   OH216089   5.809   2.866   5.329
 5383TIP3    H116090   5.868   2.870   5.253
 5383TIP3    H216091   5.854   2.809   5.391
 5384TIP3   OH216092   5.600   3.338   1.230
 5384TIP3    H116093   5.586   3.331   1.324
 5384TIP3    H216094   5.526   3.292   1.191
 5385TIP3   OH216095   1.847   4.961   3.506
 5385TIP3    H116096   1.861   5.050   3.474
 5385TIP3    H216097   1.935   4.922   3.504
 5386TIP3   OH216098   2.517   1.427   1.527
 5386TIP3    H116099   2.526   1.335   1.501
 5386TIP3    H216100   2.424   1.438   1.547
 5387TIP3   OH216101   3.698   4.271   2.613
 5387TIP3    H116102   3.692   4.335   2.683
 5387TIP3    H216103   3.715   4.322   2.534
 5388TIP3   OH216104   5.925   7.055   4.711
 5388TIP3    H116105   5.909   7.019   4.798
 5388TIP3    H216106   6.017   7.084   4.713
 5389TIP3   OH216107   5.770   1.026   0.841
 5389TIP3    H116108   5.750   1.010   0.933
 5389TIP3    H216109   5.811   1.112   0.840
 5390TIP3   OH216110   6.159   0.248   0.500
 5390TIP3    H116111   6.063   0.243   0.498
 5390TIP3    H216112   6.179   0.332   0.459
 5391TIP3   OH216113   2.769   5.327   5.226
 5391TIP3    H116114   2.724   5.339   5.142
 5391TIP3    H216115   2.733   5.395   5.282
 5392TIP3   OH216116   6.485   7.299   5.511
 5392TIP3    H116117   6.563   7.297   5.454
 5392TIP3    H216118   6.419   7.250   5.462
 5393TIP3   OH216119   4.506   0.275   6.815
 5393TIP3    H116120   4.449   0.307   6.745
 5393TIP3    H216121   4.466   0.192   6.843
 5394TIP3   OH216122   5.532   4.074   3.967
 5394TIP3    H116123   5.517   3.982   3.987
 5394TIP3    H216124   5.592   4.105   4.035
 5395TIP3   OH216125   0.740   3.758   2.041
 5395TIP3    H116126   0.826   3.716   2.037
 5395TIP3    H216127   0.690   3.717   1.971
 5396TIP3   OH216128   2.164   1.839   0.992
 5396TIP3    H116129   2.254   1.871   0.989
 5396TIP3    H216130   2.172   1.744   1.004
 5397TIP3   OH216131   3.084   1.320   1.387
 5397TIP3    H116132   3.128   1.256   1.330
 5397TIP3    H216133   3.145   1.332   1.460
 5398TIP3   OH216134   2.293   7.014   0.272
 5398TIP3    H116135   2.228   7.083   0.288
 5398TIP3    H216136   2.252   6.957   0.208
 5399TIP3   OH216137   6.379   5.928   2.624
 5399TIP3    H116138   6.340   5.902   2.707
 5399TIP3    H216139   6.309   5.973   2.578
 5400TIP3   OH216140   1.301   5.023   2.972
 5400TIP3    H116141   1.301   5.086   3.044
 5400TIP3    H216142   1.212   4.987   2.971
 5401TIP3   OH216143   0.397   7.401   0.564
 5401TIP3    H116144   0.379   7.364   0.651
 5401TIP3    H216145   0.481   7.363   0.539
 5402TIP3   OH216146   6.131   2.270   1.673
 5402TIP3    H116147   6.043   2.307   1.676
 5402TIP3    H216148   6.144   2.244   1.581
 5403TIP3   OH216149   5.435   1.539   2.107
 5403TIP3    H116150   5.435   1.449   2.075
 5403TIP3    H216151   5.453   1.530   2.201
 5404TIP3   OH216152   2.220   2.994   2.703
 5404TIP3    H116153   2.175   2.919   2.741
 5404TIP3    H216154   2.304   2.997   2.749
 5405TIP3   OH216155   0.393   0.815   5.501
 5405TIP3    H116156   0.414   0.735   5.548
 5405TIP3    H216157   0.442   0.808   5.419
 5406TIP3   OH216158   8.142   0.519   5.546
 5406TIP3    H116159   8.154   0.558   5.459
 5406TIP3    H216160   8.050   0.492   5.548
 5407TIP3   OH216161   4.685   0.945   4.665
 5407TIP3    H116162   4.669   0.897   4.746
 5407TIP3    H216163   4.758   0.899   4.623
 5408TIP3   OH216164   2.754   0.500   2.364
 5408TIP3    H116165   2.753   0.456   2.279
 5408TIP3    H216166   2.702   0.443   2.421
 5409TIP3   OH216167   6.550   1.983   0.773
 5409TIP3    H116168   6.504   1.900   0.761
 5409TIP3    H216169   6.577   2.009   0.685
 5410TIP3   OH216170   3.819   5.179   2.843
 5410TIP3    H116171   3.880   5.105   2.841
 5410TIP3    H216172   3.732   5.138   2.847
 5411TIP3   OH216173   4.560   1.735   5.228
 5411TIP3    H116174   4.575   1.746   5.134
 5411TIP3    H216175   4.613   1.659   5.252
 5412TIP3   OH216176   2.329   3.633   1.161
 5412TIP3    H116177   2.258   3.571   1.176
 5412TIP3    H216178   2.285   3.717   1.146
 5413TIP3   OH216179   5.221   7.594   5.100
 5413TIP3    H116180   5.316   7.608   5.099
 5413TIP3    H216181   5.211   7.507   5.137
 5414TIP3   OH216182   3.708   2.725   5.897
 5414TIP3    H116183   3.777   2.778   5.937
 5414TIP3    H216184   3.726   2.729   5.803
 5415TIP3   OH216185   2.522   2.284   0.405
 5415TIP3    H116186   2.485   2.336   0.476
 5415TIP3    H216187   2.617   2.284   0.423
 5416TIP3   OH216188   2.024   6.437   0.003
 5416TIP3    H116189   2.043   6.515  -0.049
 5416TIP3    H216190   1.989   6.471   0.085
 5417TIP3   OH216191   2.864   2.395   4.505
 5417TIP3    H116192   2.804   2.321   4.513
 5417TIP3    H216193   2.816   2.460   4.453
 5418TIP3   OH216194   1.554   6.774   4.870
 5418TIP3    H116195   1.548   6.777   4.775
 5418TIP3    H216196   1.564   6.682   4.891
 5419TIP3   OH216197   0.980   1.478   1.914
 5419TIP3    H116198   0.896   1.486   1.868
 5419TIP3    H216199   1.018   1.566   1.910
 5420TIP3   OH216200   6.378   4.831   2.717
 5420TIP3    H116201   6.463   4.867   2.692
 5420TIP3    H216202   6.331   4.819   2.635
 5421TIP3   OH216203   1.684   4.804   5.753
 5421TIP3    H116204   1.686   4.753   5.671
 5421TIP3    H216205   1.663   4.739   5.820
 5422TIP3   OH216206   1.360   1.036   0.348
 5422TIP3    H116207   1.390   1.127   0.340
 5422TIP3    H216208   1.280   1.033   0.297
 5423TIP3   OH216209   3.710   7.110   5.546
 5423TIP3    H116210   3.747   7.184   5.499
 5423TIP3    H216211   3.650   7.069   5.484
 5424TIP3   OH216212   7.576   7.702   3.000
 5424TIP3    H116213   7.567   7.779   2.943
 5424TIP3    H216214   7.490   7.694   3.042
 5425TIP3   OH216215   1.586   5.328   3.794
 5425TIP3    H116216   1.522   5.395   3.770
 5425TIP3    H216217   1.602   5.279   3.714
 5426TIP3   OH216218   2.645   3.664   6.036
 5426TIP3    H116219   2.640   3.611   6.116
 5426TIP3    H216220   2.726   3.635   5.994
 5427TIP3   OH216221   4.863   0.977   6.304
 5427TIP3    H116222   4.862   1.027   6.222
 5427TIP3    H216223   4.803   0.904   6.288
 5428TIP3   OH216224   0.132   3.326   3.645
 5428TIP3    H116225   0.164   3.321   3.555
 5428TIP3    H216226   0.046   3.283   3.643
 5429TIP3   OH216227   5.632   7.072   4.874
 5429TIP3    H116228   5.637   7.060   4.779
 5429TIP3    H216229   5.711   7.031   4.908
 5430TIP3   OH216230   0.135   5.471   2.616
 5430TIP3    H116231   0.146   5.565   2.601
 5430TIP3    H216232   0.044   5.454   2.593
 5431TIP3   OH216233   7.169   0.096   0.207
 5431TIP3    H116234   7.217   0.014   0.198
 5431TIP3    H216235   7.152   0.123   0.116
 5432TIP3   OH216236   3.723   2.178   2.328
 5432TIP3    H116237   3.660   2.109   2.349
 5432TIP3    H216238   3.808   2.133   2.327
 5433TIP3   OH216239   5.581   7.431   1.899
 5433TIP3    H116240   5.599   7.464   1.987
 5433TIP3    H216241   5.528   7.352   1.913
 5434TIP3   OH216242   5.867   4.397   4.988
 5434TIP3    H116243   5.908   4.472   4.946
 5434TIP3    H216244   5.886   4.408   5.081
 5435TIP3   OH216245   2.673   4.114   5.038
 5435TIP3    H116246   2.680   4.064   4.957
 5435TIP3    H216247   2.726   4.066   5.101
 5436TIP3   OH216248   8.127   0.362   2.943
 5436TIP3    H116249   8.095   0.331   3.028
 5436TIP3    H216250   8.065   0.325   2.880
 5437TIP3   OH216251   5.125   3.993   0.902
 5437TIP3    H116252   5.123   3.949   0.987
 5437TIP3    H216253   5.053   3.954   0.853
 5438TIP3   OH216254   6.776   7.361   3.703
 5438TIP3    H116255   6.723   7.439   3.720
 5438TIP3    H216256   6.726   7.289   3.741
 5439TIP3   OH216257   4.558   4.015   6.422
 5439TIP3    H116258   4.481   3.966   6.391
 5439TIP3    H216259   4.604   4.039   6.342
 5440TIP3   OH216260   5.713   7.807   5.928
 5440TIP3    H116261   5.738   7.858   5.852
 5440TIP3    H216262   5.684   7.723   5.892
 5441TIP3   OH216263   0.709   1.462   0.388
 5441TIP3    H116264   0.663   1.405   0.450
 5441TIP3    H216265   0.648   1.470   0.314
 5442TIP3   OH216266   0.937   5.620   1.372
 5442TIP3    H116267   0.916   5.527   1.378
 5442TIP3    H216268   0.985   5.628   1.290
 5443TIP3   OH216269   0.456   6.532   6.669
 5443TIP3    H116270   0.466   6.496   6.581
 5443TIP3    H216271   0.488   6.622   6.662
 5444TIP3   OH216272   7.032   7.628   0.993
 5444TIP3    H116273   7.031   7.537   1.024
 5444TIP3    H216274   6.956   7.635   0.936
 5445TIP3   OH216275   7.669  -0.033   4.460
 5445TIP3    H116276   7.661   0.053   4.502
 5445TIP3    H216277   7.740  -0.077   4.507
 5446TIP3   OH216278   5.458   0.773   3.006
 5446TIP3    H116279   5.367   0.796   3.026
 5446TIP3    H216280   5.496   0.752   3.091
 5447TIP3   OH216281   0.160   6.535   4.337
 5447TIP3    H116282   0.154   6.457   4.393
 5447TIP3    H216283   0.252   6.539   4.311
 5448TIP3   OH216284   4.753   6.098   0.353
 5448TIP3    H116285   4.792   6.157   0.418
 5448TIP3    H216286   4.675   6.063   0.396
 5449TIP3   OH216287   5.500   4.302   0.573
 5449TIP3    H116288   5.471   4.227   0.520
 5449TIP3    H216289   5.570   4.267   0.628
 5450TIP3   OH216290   1.678   6.932   2.389
 5450TIP3    H116291   1.748   6.938   2.325
 5450TIP3    H216292   1.616   7.000   2.362
 5451TIP3   OH216293   3.366   0.775   1.904
 5451TIP3    H116294   3.419   0.772   1.984
 5451TIP3    H216295   3.291   0.830   1.927
 5452TIP3   OH216296   1.833   6.869   1.326
 5452TIP3    H116297   1.751   6.878   1.277
 5452TIP3    H216298   1.854   6.776   1.323
 5453TIP3   OH216299   4.952   4.710   2.968
 5453TIP3    H116300   4.995   4.789   2.937
 5453TIP3    H216301   4.923   4.666   2.888
 5454TIP3   OH216302   6.565   5.103   1.274
 5454TIP3    H116303   6.543   5.041   1.205
 5454TIP3    H216304   6.578   5.186   1.228
 5455TIP3   OH216305   2.584   1.498   2.804
 5455TIP3    H116306   2.516   1.499   2.736
 5455TIP3    H216307   2.661   1.537   2.761
 5456TIP3   OH216308   7.230   6.839   1.151
 5456TIP3    H116309   7.308   6.861   1.200
 5456TIP3    H216310   7.220   6.911   1.087
 5457TIP3   OH216311   5.682   4.660   0.701
 5457TIP3    H116312   5.743   4.586   0.702
 5457TIP3    H216313   5.605   4.628   0.749
 5458TIP3   OH216314   5.212   1.227   2.481
 5458TIP3    H116315   5.166   1.144   2.492
 5458TIP3    H216316   5.287   1.207   2.425
 5459TIP3   OH216317   4.604   6.030   2.731
 5459TIP3    H116318   4.581   5.989   2.647
 5459TIP3    H216319   4.533   6.005   2.790
 5460TIP3   OH216320   2.375   0.244   3.687
 5460TIP3    H116321   2.349   0.204   3.604
 5460TIP3    H216322   2.413   0.328   3.662
 5461TIP3   OH216323   6.414   7.175   3.986
 5461TIP3    H116324   6.412   7.176   4.082
 5461TIP3    H216325   6.328   7.141   3.960
 5462TIP3   OH216326   4.493   2.253   5.394
 5462TIP3    H116327   4.532   2.334   5.428
 5462TIP3    H216328   4.555   2.223   5.327
 5463TIP3   OH216329   0.765   5.282   2.040
 5463TIP3    H116330   0.829   5.244   1.979
 5463TIP3    H216331   0.727   5.206   2.084
 5464TIP3   OH216332   0.420   5.801   2.122
 5464TIP3    H116333   0.435   5.741   2.049
 5464TIP3    H216334   0.391   5.882   2.081
 5465TIP3   OH216335   7.858   4.985   2.923
 5465TIP3    H116336   7.935   4.981   2.866
 5465TIP3    H216337   7.893   5.003   3.010
 5466TIP3   OH216338   1.124   0.351   4.397
 5466TIP3    H116339   1.105   0.443   4.417
 5466TIP3    H216340   1.200   0.331   4.452
 5467TIP3   OH216341   7.753   7.262   2.963
 5467TIP3    H116342   7.706   7.316   2.899
 5467TIP3    H216343   7.683   7.219   3.013
 5468TIP3   OH216344   7.502   5.638   3.467
 5468TIP3    H116345   7.440   5.676   3.405
 5468TIP3    H216346   7.492   5.543   3.455
 5469TIP3   OH216347   4.442   2.136   3.387
 5469TIP3    H116348   4.507   2.104   3.323
 5469TIP3    H216349   4.493   2.188   3.449
 5470TIP3   OH216350   5.931   0.459   0.518
 5470TIP3    H116351   5.952   0.519   0.448
 5470TIP3    H216352   5.858   0.501   0.565
 5471TIP3   OH216353   3.229   5.835   6.228
 5471TIP3    H116354   3.240   5.913   6.282
 5471TIP3    H216355   3.232   5.867   6.138
 5472TIP3   OH216356   2.565   1.340   4.490
 5472TIP3    H116357   2.526   1.253   4.477
 5472TIP3    H216358   2.583   1.345   4.584
 5473TIP3   OH216359   4.118   0.231   2.767
 5473TIP3    H116360   4.190   0.181   2.727
 5473TIP3    H216361   4.039   0.197   2.724
 5474TIP3   OH216362   4.709   2.466   1.203
 5474TIP3    H116363   4.625   2.510   1.205
 5474TIP3    H216364   4.773   2.537   1.196
 5475TIP3   OH216365   2.288   4.364   2.432
 5475TIP3    H116366   2.268   4.420   2.357
 5475TIP3    H216367   2.381   4.381   2.451
 5476TIP3   OH216368   6.617   2.352   6.043
 5476TIP3    H116369   6.617   2.257   6.060
 5476TIP3    H216370   6.667   2.389   6.116
 5477TIP3   OH216371   2.701   4.030   1.467
 5477TIP3    H116372   2.636   4.089   1.506
 5477TIP3    H216373   2.784   4.078   1.474
 5478TIP3   OH216374   1.503   4.767   2.976
 5478TIP3    H116375   1.428   4.728   2.930
 5478TIP3    H216376   1.479   4.762   3.068
 5479TIP3   OH216377   1.861   5.003   5.747
 5479TIP3    H116378   1.873   4.998   5.842
 5479TIP3    H216379   1.796   4.936   5.727
 5480TIP3   OH216380   4.590   1.532   2.399
 5480TIP3    H116381   4.663   1.572   2.445
 5480TIP3    H216382   4.596   1.568   2.310
 5481TIP3   OH216383   7.672   1.369   5.661
 5481TIP3    H116384   7.766   1.382   5.672
 5481TIP3    H216385   7.639   1.348   5.748
 5482TIP3   OH216386   0.041   0.046   0.916
 5482TIP3    H116387  -0.018  -0.015   0.960
 5482TIP3    H216388   0.079   0.099   0.986
 5483TIP3   OH216389   3.244   7.092   5.962
 5483TIP3    H116390   3.317   7.030   5.965
 5483TIP3    H216391   3.201   7.075   5.879
 5484TIP3   OH216392   1.648   6.582   1.919
 5484TIP3    H116393   1.571   6.633   1.944
 5484TIP3    H216394   1.614   6.513   1.862
 5485TIP3   OH216395   5.430   5.412   1.822
 5485TIP3    H116396   5.514   5.420   1.867
 5485TIP3    H216397   5.447   5.354   1.747
 5486TIP3   OH216398   2.684   1.075   1.074
 5486TIP3    H116399   2.655   1.155   1.120
 5486TIP3    H216400   2.636   1.004   1.117
 5487TIP3   OH216401   3.532   0.034   5.958
 5487TIP3    H116402   3.577   0.074   6.032
 5487TIP3    H216403   3.461  -0.017   5.998
 5488TIP3   OH216404   7.538   2.203   0.867
 5488TIP3    H116405   7.594   2.135   0.905
 5488TIP3    H216406   7.462   2.207   0.926
 5489TIP3   OH216407   1.046   7.416   1.848
 5489TIP3    H116408   0.959   7.455   1.861
 5489TIP3    H216409   1.106   7.489   1.862
 5490TIP3   OH216410   7.379   3.676   0.706
 5490TIP3    H116411   7.418   3.757   0.674
 5490TIP3    H216412   7.323   3.704   0.779
 5491TIP3   OH216413   7.609   0.354   2.880
 5491TIP3    H116414   7.594   0.448   2.869
 5491TIP3    H216415   7.521   0.316   2.882
 5492TIP3   OH216416   4.871   1.784   0.617
 5492TIP3    H116417   4.947   1.821   0.663
 5492TIP3    H216418   4.909   1.725   0.552
 5493TIP3   OH216419   4.305   1.856   1.876
 5493TIP3    H116420   4.349   1.940   1.863
 5493TIP3    H216421   4.376   1.795   1.897
 5494TIP3   OH216422   2.327   7.889   2.187
 5494TIP3    H116423   2.386   7.853   2.121
 5494TIP3    H216424   2.245   7.841   2.176
 5495TIP3   OH216425   0.562   6.209   0.316
 5495TIP3    H116426   0.650   6.213   0.352
 5495TIP3    H216427   0.576   6.195   0.222
 5496TIP3   OH216428   1.758   0.945   4.004
 5496TIP3    H116429   1.810   0.865   4.003
 5496TIP3    H216430   1.718   0.946   4.091
 5497TIP3   OH216431   5.155   2.327   4.755
 5497TIP3    H116432   5.083   2.316   4.693
 5497TIP3    H216433   5.178   2.420   4.749
 5498TIP3   OH216434   4.614   0.476   5.573
 5498TIP3    H116435   4.537   0.483   5.516
 5498TIP3    H216436   4.637   0.383   5.571
 5499TIP3   OH216437   2.920   1.377   6.088
 5499TIP3    H116438   2.929   1.466   6.055
 5499TIP3    H216439   2.994   1.365   6.147
 5500TIP3   OH216440   0.158   7.316   5.763
 5500TIP3    H116441   0.196   7.320   5.851
 5500TIP3    H216442   0.209   7.378   5.711
 5501TIP3   OH216443   5.731   3.298   4.214
 5501TIP3    H116444   5.642   3.262   4.220
 5501TIP3    H216445   5.733   3.366   4.282
 5502TIP3   OH216446   6.155   1.045   1.782
 5502TIP3    H116447   6.151   1.006   1.695
 5502TIP3    H216448   6.188   1.133   1.768
 5503TIP3   OH216449   1.825   5.510   4.952
 5503TIP3    H116450   1.871   5.591   4.932
 5503TIP3    H216451   1.787   5.525   5.039
 5504TIP3   OH216452   0.418   1.846   3.353
 5504TIP3    H116453   0.390   1.936   3.372
 5504TIP3    H216454   0.353   1.813   3.292
 5505TIP3   OH216455   3.351   5.149   2.053
 5505TIP3    H116456   3.350   5.244   2.055
 5505TIP3    H216457   3.437   5.125   2.088
 5506TIP3   OH216458   5.360   2.477   1.817
 5506TIP3    H116459   5.403   2.393   1.834
 5506TIP3    H216460   5.370   2.525   1.899
 5507TIP3   OH216461   5.840   7.221   1.139
 5507TIP3    H116462   5.794   7.271   1.206
 5507TIP3    H216463   5.773   7.197   1.075
 5508TIP3   OH216464   7.367   2.496   6.726
 5508TIP3    H116465   7.446   2.466   6.773
 5508TIP3    H216466   7.331   2.417   6.687
 5509TIP3   OH216467   8.286   2.778   5.762
 5509TIP3    H116468   8.195   2.751   5.777
 5509TIP3    H216469   8.302   2.757   5.670
 5510TIP3   OH216470   2.048   3.795   2.167
 5510TIP3    H116471   2.071   3.705   2.144
 5510TIP3    H216472   2.055   3.844   2.085
 5511TIP3   OH216473   7.836   5.145   2.383
 5511TIP3    H116474   7.865   5.062   2.346
 5511TIP3    H216475   7.840   5.207   2.309
 5512TIP3   OH216476   2.617   0.973   0.140
 5512TIP3    H116477   2.667   0.891   0.144
 5512TIP3    H216478   2.644   1.022   0.218
 5513TIP3   OH216479   0.876   1.703   0.373
 5513TIP3    H116480   0.798   1.654   0.401
 5513TIP3    H216481   0.936   1.695   0.447
 5514TIP3   OH216482   6.494   6.457   4.378
 5514TIP3    H116483   6.415   6.433   4.328
 5514TIP3    H216484   6.566   6.424   4.325
 5515TIP3   OH216485   7.749   4.743   0.243
 5515TIP3    H116486   7.815   4.734   0.175
 5515TIP3    H216487   7.742   4.837   0.258
 5516TIP3   OH216488   3.428   3.490   6.081
 5516TIP3    H116489   3.469   3.573   6.103
 5516TIP3    H216490   3.334   3.506   6.091
 5517TIP3   OH216491   2.776   2.531   4.191
 5517TIP3    H116492   2.813   2.512   4.105
 5517TIP3    H216493   2.745   2.621   4.185
 5518TIP3   OH216494   3.286   6.233   2.999
 5518TIP3    H116495   3.291   6.297   2.928
 5518TIP3    H216496   3.214   6.175   2.973
 5519TIP3   OH216497   6.863   4.778   4.479
 5519TIP3    H116498   6.786   4.760   4.425
 5519TIP3    H216499   6.937   4.751   4.426
 5520TIP3   OH216500   5.307   7.095   4.799
 5520TIP3    H116501   5.320   7.188   4.783
 5520TIP3    H216502   5.239   7.092   4.866
 5521TIP3   OH216503   3.173   3.122   6.034
 5521TIP3    H116504   3.201   3.039   6.071
 5521TIP3    H216505   3.242   3.145   5.972
 5522TIP3   OH216506   4.924   0.941   2.915
 5522TIP3    H116507   4.917   1.016   2.974
 5522TIP3    H216508   5.016   0.916   2.919
 5523TIP3   OH216509   1.150   2.814   5.120
 5523TIP3    H116510   1.174   2.743   5.179
 5523TIP3    H216511   1.055   2.822   5.129
 5524TIP3   OH216512   3.036   0.343   4.046
 5524TIP3    H116513   2.947   0.308   4.040
 5524TIP3    H216514   3.077   0.293   4.116
 5525TIP3   OH216515   0.870   4.113   6.572
 5525TIP3    H116516   0.909   4.130   6.486
 5525TIP3    H216517   0.777   4.133   6.560
 5526TIP3   OH216518   3.078   3.223   5.363
 5526TIP3    H116519   2.996   3.271   5.348
 5526TIP3    H216520   3.112   3.261   5.444
 5527TIP3   OH216521   3.919   0.972   6.399
 5527TIP3    H116522   3.939   0.879   6.405
 5527TIP3    H216523   3.873   0.992   6.480
 5528TIP3   OH216524   4.647   2.088   3.005
 5528TIP3    H116525   4.688   2.020   2.952
 5528TIP3    H216526   4.553   2.082   2.984
 5529TIP3   OH216527   7.820   6.731   6.750
 5529TIP3    H116528   7.862   6.651   6.720
 5529TIP3    H216529   7.770   6.704   6.827
 5530TIP3   OH216530   8.286   1.375   3.777
 5530TIP3    H116531   8.261   1.440   3.843
 5530TIP3    H216532   8.268   1.417   3.693
 5531TIP3   OH216533   0.507   1.303   2.859
 5531TIP3    H116534   0.564   1.324   2.932
 5531TIP3    H216535   0.518   1.376   2.798
 5532TIP3   OH216536   5.362   2.172   3.034
 5532TIP3    H116537   5.291   2.193   3.095
 5532TIP3    H216538   5.374   2.252   2.983
 5533TIP3   OH216539   0.132   0.490   5.508
 5533TIP3    H116540   0.161   0.508   5.418
 5533TIP3    H216541   0.140   0.573   5.554
 5534TIP3   OH216542   4.824   1.943   2.013
 5534TIP3    H116543   4.887   1.871   2.011
 5534TIP3    H216544   4.796   1.948   2.104
 5535TIP3   OH216545   7.819   4.305   2.717
 5535TIP3    H116546   7.868   4.223   2.728
 5535TIP3    H216547   7.767   4.292   2.638
 5536TIP3   OH216548   2.905   6.605   3.403
 5536TIP3    H116549   2.970   6.625   3.335
 5536TIP3    H216550   2.955   6.555   3.468
 5537TIP3   OH216551   2.232   0.169   2.288
 5537TIP3    H116552   2.317   0.127   2.277
 5537TIP3    H216553   2.183   0.108   2.344
 5538TIP3   OH216554   5.383   7.734   5.692
 5538TIP3    H116555   5.419   7.797   5.630
 5538TIP3    H216556   5.443   7.737   5.767
 5539TIP3   OH216557   1.189   7.354   2.685
 5539TIP3    H116558   1.118   7.297   2.654
 5539TIP3    H216559   1.179   7.356   2.780
 5540TIP3   OH216560   3.551   0.542   1.042
 5540TIP3    H116561   3.471   0.544   1.094
 5540TIP3    H216562   3.520   0.549   0.951
 5541TIP3   OH216563   6.308   5.631   4.219
 5541TIP3    H116564   6.218   5.658   4.198
 5541TIP3    H216565   6.306   5.536   4.218
 5542TIP3   OH216566   6.879   3.351   1.740
 5542TIP3    H116567   6.837   3.353   1.653
 5542TIP3    H216568   6.813   3.387   1.799
 5543TIP3   OH216569   5.260   3.719   1.464
 5543TIP3    H116570   5.299   3.661   1.399
 5543TIP3    H216571   5.305   3.697   1.545
 5544TIP3   OH216572   7.440   0.483   5.393
 5544TIP3    H116573   7.465   0.568   5.359
 5544TIP3    H216574   7.433   0.427   5.316
 5545TIP3   OH216575   8.335   4.022   4.141
 5545TIP3    H116576   8.331   4.116   4.121
 5545TIP3    H216577   8.378   3.983   4.065
 5546TIP3   OH216578   0.998   3.746   0.742
 5546TIP3    H116579   0.964   3.735   0.653
 5546TIP3    H216580   0.968   3.832   0.769
 5547TIP3   OH216581   6.070   0.197   4.832
 5547TIP3    H116582   6.081   0.242   4.916
 5547TIP3    H216583   6.064   0.104   4.856
 5548TIP3   OH216584   0.772   4.456   2.092
 5548TIP3    H116585   0.717   4.486   2.164
 5548TIP3    H216586   0.841   4.522   2.085
 5549TIP3   OH216587   5.081   5.671   0.459
 5549TIP3    H116588   5.063   5.757   0.420
 5549TIP3    H216589   5.176   5.668   0.469
 5550TIP3   OH216590   4.388   0.619   4.478
 5550TIP3    H116591   4.444   0.607   4.401
 5550TIP3    H216592   4.447   0.609   4.552
 5551TIP3   OH216593   6.723   1.579   6.177
 5551TIP3    H116594   6.741   1.499   6.226
 5551TIP3    H216595   6.636   1.607   6.205
 5552TIP3   OH216596   5.969   4.266   5.732
 5552TIP3    H116597   6.029   4.340   5.742
 5552TIP3    H216598   6.024   4.189   5.742
 5553TIP3   OH216599   3.042   5.772   4.218
 5553TIP3    H116600   3.081   5.847   4.261
 5553TIP3    H216601   2.947   5.786   4.225
 5554TIP3   OH216602   7.363   6.954   6.379
 5554TIP3    H116603   7.321   6.925   6.298
 5554TIP3    H216604   7.291   6.960   6.442
 5555TIP3   OH216605   1.050   1.854   3.590
 5555TIP3    H116606   0.983   1.919   3.568
 5555TIP3    H216607   1.005   1.770   3.583
 5556TIP3   OH216608   2.916   3.650   1.904
 5556TIP3    H116609   2.888   3.742   1.910
 5556TIP3    H216610   2.839   3.599   1.929
 5557TIP3   OH216611   1.040   0.676   4.831
 5557TIP3    H116612   1.012   0.584   4.824
 5557TIP3    H216613   1.083   0.694   4.747
 5558TIP3   OH216614   4.653   1.260   0.953
 5558TIP3    H116615   4.619   1.195   1.015
 5558TIP3    H216616   4.652   1.215   0.868
 5559TIP3   OH216617   1.832   6.773   3.642
 5559TIP3    H116618   1.761   6.771   3.706
 5559TIP3    H216619   1.882   6.693   3.658
 5560TIP3   OH216620   1.221   2.473   1.433
 5560TIP3    H116621   1.304   2.469   1.481
 5560TIP3    H216622   1.186   2.559   1.452
 5561TIP3   OH216623   7.180   5.036   6.074
 5561TIP3    H116624   7.238   4.963   6.050
 5561TIP3    H216625   7.234   5.114   6.065
 5562TIP3   OH216626   5.788   4.722   3.152
 5562TIP3    H116627   5.837   4.650   3.192
 5562TIP3    H216628   5.772   4.693   3.062
 5563TIP3   OH216629   6.987   4.573   2.380
 5563TIP3    H116630   7.064   4.549   2.329
 5563TIP3    H216631   6.982   4.506   2.449
 5564TIP3   OH216632   5.116   3.852   3.414
 5564TIP3    H116633   5.104   3.882   3.504
 5564TIP3    H216634   5.032   3.871   3.371
 5565TIP3   OH216635   1.690   2.630   6.563
 5565TIP3    H116636   1.747   2.592   6.630
 5565TIP3    H216637   1.749   2.681   6.508
 5566TIP3   OH216638   8.099   4.612   5.883
 5566TIP3    H116639   8.126   4.566   5.962
 5566TIP3    H216640   8.011   4.579   5.866
 5567TIP3   OH216641   6.235   6.497   6.826
 5567TIP3    H116642   6.270   6.569   6.775
 5567TIP3    H216643   6.276   6.419   6.790
 5568TIP3   OH216644   6.923   5.684   5.363
 5568TIP3    H116645   6.932   5.773   5.328
 5568TIP3    H216646   6.836   5.682   5.401
 5569TIP3   OH216647   8.368   0.793   3.494
 5569TIP3    H116648   8.455   0.765   3.465
 5569TIP3    H216649   8.381   0.820   3.585
 5570TIP3   OH216650   7.356   1.416   5.927
 5570TIP3    H116651   7.296   1.370   5.985
 5570TIP3    H216652   7.426   1.352   5.909
 5571TIP3   OH216653   7.391   6.988   3.264
 5571TIP3    H116654   7.297   7.002   3.253
 5571TIP3    H216655   7.398   6.901   3.304
 5572TIP3   OH216656   3.447   5.073   0.796
 5572TIP3    H116657   3.515   5.038   0.739
 5572TIP3    H216658   3.422   5.156   0.755
 5573TIP3   OH216659   5.784   3.720   5.864
 5573TIP3    H116660   5.737   3.723   5.781
 5573TIP3    H216661   5.869   3.682   5.842
 5574TIP3   OH216662   1.582   0.486   6.234
 5574TIP3    H116663   1.500   0.474   6.186
 5574TIP3    H216664   1.598   0.580   6.231
 5575TIP3   OH216665   4.247   4.875   4.876
 5575TIP3    H116666   4.272   4.959   4.838
 5575TIP3    H216667   4.305   4.864   4.951
 5576TIP3   OH216668   3.257   0.343   1.368
 5576TIP3    H116669   3.242   0.344   1.463
 5576TIP3    H216670   3.219   0.260   1.339
 5577TIP3   OH216671   3.167   2.466   2.811
 5577TIP3    H116672   3.196   2.548   2.771
 5577TIP3    H216673   3.118   2.421   2.743
 5578TIP3   OH216674   0.502   3.783   5.637
 5578TIP3    H116675   0.575   3.773   5.698
 5578TIP3    H216676   0.467   3.694   5.628
 5579TIP3   OH216677   8.359   5.484   4.084
 5579TIP3    H116678   8.293   5.546   4.054
 5579TIP3    H216679   8.437   5.538   4.100
 5580TIP3   OH216680   2.746   0.077   5.631
 5580TIP3    H116681   2.686   0.014   5.592
 5580TIP3    H216682   2.694   0.121   5.699
 5581TIP3   OH216683   7.330   3.648   4.744
 5581TIP3    H116684   7.334   3.613   4.833
 5581TIP3    H216685   7.397   3.600   4.696
 5582TIP3   OH216686   6.664   2.170   1.656
 5582TIP3    H116687   6.709   2.108   1.599
 5582TIP3    H216688   6.626   2.115   1.725
 5583TIP3   OH216689   4.632   0.858   3.036
 5583TIP3    H116690   4.640   0.938   3.089
 5583TIP3    H216691   4.692   0.796   3.076
 5584TIP3   OH216692   5.392   3.167   6.009
 5584TIP3    H116693   5.310   3.155   6.058
 5584TIP3    H216694   5.452   3.102   6.047
 5585TIP3   OH216695   1.875   1.181   5.065
 5585TIP3    H116696   1.802   1.221   5.111
 5585TIP3    H216697   1.905   1.248   5.004
 5586TIP3   OH216698   4.308   7.300   0.327
 5586TIP3    H116699   4.249   7.357   0.376
 5586TIP3    H216700   4.386   7.293   0.381
 5587TIP3   OH216701   2.718   5.323   2.298
 5587TIP3    H116702   2.708   5.236   2.337
 5587TIP3    H216703   2.650   5.376   2.339
 5588TIP3   OH216704   7.991   0.711   6.781
 5588TIP3    H116705   7.968   0.724   6.874
 5588TIP3    H216706   8.063   0.773   6.766
 5589TIP3   OH216707   3.062   5.701   5.080
 5589TIP3    H116708   3.105   5.711   4.995
 5589TIP3    H216709   3.081   5.610   5.105
 5590TIP3   OH216710   7.314   3.822   2.239
 5590TIP3    H116711   7.259   3.758   2.194
 5590TIP3    H216712   7.288   3.906   2.203
 5591TIP3   OH216713   6.254   2.648   5.609
 5591TIP3    H116714   6.269   2.582   5.677
 5591TIP3    H216715   6.300   2.726   5.641
 5592TIP3   OH216716   7.929   2.305   0.615
 5592TIP3    H116717   7.922   2.221   0.661
 5592TIP3    H216718   7.910   2.371   0.682
 5593TIP3   OH216719   2.110   3.322   4.489
 5593TIP3    H116720   2.023   3.358   4.473
 5593TIP3    H216721   2.170   3.386   4.452
 5594TIP3   OH216722   5.891   1.107   2.346
 5594TIP3    H116723   5.925   1.125   2.258
 5594TIP3    H216724   5.959   1.054   2.388
 5595TIP3   OH216725   4.130   5.678   1.768
 5595TIP3    H116726   4.097   5.718   1.687
 5595TIP3    H216727   4.134   5.750   1.831
 5596TIP3   OH216728   3.918   1.245   3.380
 5596TIP3    H116729   3.882   1.159   3.360
 5596TIP3    H216730   3.930   1.244   3.475
 5597TIP3   OH216731   5.381   0.488   2.869
 5597TIP3    H116732   5.379   0.557   2.804
 5597TIP3    H216733   5.325   0.419   2.833
 5598TIP3   OH216734   2.399   3.720   3.724
 5598TIP3    H116735   2.480   3.671   3.738
 5598TIP3    H216736   2.417   3.775   3.648
 5599TIP3   OH216737   6.466   6.691   5.715
 5599TIP3    H116738   6.489   6.695   5.808
 5599TIP3    H216739   6.419   6.608   5.705
 5600TIP3   OH216740   5.609   6.266   3.102
 5600TIP3    H116741   5.614   6.355   3.137
 5600TIP3    H216742   5.653   6.272   3.017
 5601TIP3   OH216743   8.284   6.771   6.848
 5601TIP3    H116744   8.363   6.814   6.813
 5601TIP3    H216745   8.239   6.737   6.770
 5602TIP3   OH216746   3.401   4.757   5.319
 5602TIP3    H116747   3.491   4.732   5.341
 5602TIP3    H216748   3.396   4.747   5.224
 5603TIP3   OH216749   0.124   4.966   0.159
 5603TIP3    H116750   0.047   4.917   0.130
 5603TIP3    H216751   0.128   5.041   0.099
 5604TIP3   OH216752   6.165   0.710   3.853
 5604TIP3    H116753   6.129   0.797   3.834
 5604TIP3    H216754   6.151   0.661   3.773
 5605TIP3   OH216755   1.105   5.302   4.528
 5605TIP3    H116756   1.124   5.242   4.456
 5605TIP3    H216757   1.187   5.310   4.576
 5606TIP3   OH216758   6.918   4.748   6.122
 5606TIP3    H116759   6.850   4.709   6.065
 5606TIP3    H216760   6.948   4.675   6.176
 5607TIP3   OH216761   4.117   5.102   2.109
 5607TIP3    H116762   4.030   5.099   2.070
 5607TIP3    H216763   4.177   5.111   2.035
 5608TIP3   OH216764   8.151   1.397   6.231
 5608TIP3    H116765   8.103   1.479   6.243
 5608TIP3    H216766   8.129   1.345   6.308
 5609TIP3   OH216767   0.833   1.345   3.469
 5609TIP3    H116768   0.846   1.284   3.541
 5609TIP3    H216769   0.832   1.289   3.390
 5610TIP3   OH216770   8.361   1.530   2.003
 5610TIP3    H116771   8.342   1.615   2.041
 5610TIP3    H216772   8.359   1.469   2.077
 5611TIP3   OH216773   2.096   0.224   6.626
 5611TIP3    H116774   2.042   0.292   6.585
 5611TIP3    H216775   2.054   0.142   6.602
 5612TIP3   OH216776   4.384   2.357   2.812
 5612TIP3    H116777   4.427   2.288   2.762
 5612TIP3    H216778   4.450   2.385   2.876
 5613TIP3   OH216779   1.145   1.537   5.155
 5613TIP3    H116780   1.175   1.483   5.228
 5613TIP3    H216781   1.134   1.475   5.083
 5614TIP3   OH216782   0.984   1.249   2.957
 5614TIP3    H116783   0.950   1.312   2.894
 5614TIP3    H216784   1.076   1.274   2.970
 5615TIP3   OH216785   3.759   4.354   3.720
 5615TIP3    H116786   3.817   4.389   3.788
 5615TIP3    H216787   3.742   4.429   3.663
 5616TIP3   OH216788   8.109   3.957   5.604
 5616TIP3    H116789   8.052   3.880   5.605
 5616TIP3    H216790   8.083   4.007   5.682
 5617TIP3   OH216791   4.120   1.413   0.687
 5617TIP3    H116792   4.072   1.379   0.762
 5617TIP3    H216793   4.152   1.335   0.641
 5618TIP3   OH216794   0.559   0.727   3.272
 5618TIP3    H116795   0.592   0.810   3.307
 5618TIP3    H216796   0.636   0.685   3.234
 5619TIP3   OH216797   1.956   0.605   1.323
 5619TIP3    H116798   1.918   0.573   1.406
 5619TIP3    H216799   2.039   0.559   1.316
 5620TIP3   OH216800   7.590   7.113   1.356
 5620TIP3    H116801   7.628   7.135   1.271
 5620TIP3    H216802   7.665   7.097   1.413
 5621TIP3   OH216803   6.972   2.566   5.857
 5621TIP3    H116804   7.012   2.512   5.788
 5621TIP3    H216805   6.943   2.503   5.923
 5622TIP3   OH216806   0.396   1.522   4.294
 5622TIP3    H116807   0.332   1.499   4.361
 5622TIP3    H216808   0.446   1.593   4.332
 5623TIP3   OH216809   7.970   7.561   1.961
 5623TIP3    H116810   8.040   7.519   2.011
 5623TIP3    H216811   7.905   7.586   2.026
 5624TIP3   OH216812   1.754   1.880   2.617
 5624TIP3    H116813   1.719   1.907   2.701
 5624TIP3    H216814   1.847   1.867   2.632
 5625TIP3   OH216815   0.649   2.538   4.409
 5625TIP3    H116816   0.695   2.510   4.330
 5625TIP3    H216817   0.613   2.624   4.386
 5626TIP3   OH216818   5.490   2.864   2.883
 5626TIP3    H116819   5.405   2.830   2.856
 5626TIP3    H216820   5.538   2.877   2.800
 5627TIP3   OH216821   2.833   5.185   6.636
 5627TIP3    H116822   2.894   5.145   6.574
 5627TIP3    H216823   2.752   5.135   6.625
 5628TIP3   OH216824   7.533   1.780   3.123
 5628TIP3    H116825   7.598   1.851   3.120
 5628TIP3    H216826   7.464   1.813   3.180
 5629TIP3   OH216827   3.863   0.891   5.310
 5629TIP3    H116828   3.769   0.879   5.317
 5629TIP3    H216829   3.873   0.976   5.266
 5630TIP3   OH216830   2.393   3.256   2.626
 5630TIP3    H116831   2.469   3.315   2.621
 5630TIP3    H216832   2.424   3.181   2.675
 5631TIP3   OH216833   1.079   0.894   2.364
 5631TIP3    H116834   1.055   0.958   2.297
 5631TIP3    H216835   1.058   0.809   2.325
 5632TIP3   OH216836   7.364   6.774   4.168
 5632TIP3    H116837   7.382   6.718   4.244
 5632TIP3    H216838   7.307   6.842   4.201
 5633TIP3   OH216839   6.708   6.402   4.757
 5633TIP3    H116840   6.701   6.470   4.824
 5633TIP3    H216841   6.710   6.451   4.674
 5634TIP3   OH216842   8.336   0.075   2.080
 5634TIP3    H116843   8.422   0.117   2.083
 5634TIP3    H216844   8.352  -0.009   2.038
 5635TIP3   OH216845   7.350   4.921   6.400
 5635TIP3    H116846   7.402   4.950   6.325
 5635TIP3    H216847   7.346   4.997   6.458
 5636TIP3   OH216848   0.374   5.030   0.731
 5636TIP3    H116849   0.428   4.967   0.780
 5636TIP3    H216850   0.426   5.050   0.653
 5637TIP3   OH216851   0.170   6.660   2.229
 5637TIP3    H116852   0.104   6.591   2.232
 5637TIP3    H216853   0.234   6.635   2.296
 5638TIP3   OH216854   7.803   2.798   2.246
 5638TIP3    H116855   7.856   2.727   2.211
 5638TIP3    H216856   7.866   2.857   2.286
 5639TIP3   OH216857   6.614   6.663   4.864
 5639TIP3    H116858   6.619   6.662   4.768
 5639TIP3    H216859   6.530   6.623   4.885
 5640TIP3   OH216860   0.443   4.817   1.710
 5640TIP3    H116861   0.392   4.751   1.758
 5640TIP3    H216862   0.531   4.811   1.747
 5641TIP3   OH216863   2.515   4.633   6.162
 5641TIP3    H116864   2.552   4.589   6.086
 5641TIP3    H216865   2.496   4.562   6.224
 5642TIP3   OH216866   0.301   5.775   2.833
 5642TIP3    H116867   0.346   5.839   2.888
 5642TIP3    H216868   0.255   5.718   2.895
 5643TIP3   OH216869   0.244   4.221   5.443
 5643TIP3    H116870   0.159   4.182   5.466
 5643TIP3    H216871   0.293   4.222   5.525
 5644TIP3   OH216872   1.987   4.409   2.690
 5644TIP3    H116873   2.017   4.321   2.665
 5644TIP3    H216874   2.067   4.460   2.698
 5645TIP3   OH216875   5.650   6.749   6.799
 5645TIP3    H116876   5.556   6.732   6.798
 5645TIP3    H216877   5.689   6.669   6.763
 5646TIP3   OH216878   6.478   3.933   2.586
 5646TIP3    H116879   6.526   3.982   2.652
 5646TIP3    H216880   6.546   3.894   2.530
 5647TIP3   OH216881   0.530   1.242   1.652
 5647TIP3    H116882   0.561   1.275   1.736
 5647TIP3    H216883   0.527   1.319   1.595
 5648TIP3   OH216884   5.422   1.869   1.779
 5648TIP3    H116885   5.485   1.804   1.811
 5648TIP3    H216886   5.475   1.931   1.729
 5649TIP3   OH216887   5.855   6.747   2.504
 5649TIP3    H116888   5.899   6.716   2.425
 5649TIP3    H216889   5.804   6.672   2.534
 5650TIP3   OH216890   4.815   7.573   5.021
 5650TIP3    H116891   4.771   7.497   5.059
 5650TIP3    H216892   4.904   7.543   5.003
 5651TIP3   OH216893   2.043   3.539   0.540
 5651TIP3    H116894   1.996   3.467   0.499
 5651TIP3    H216895   2.021   3.532   0.633
 5652TIP3   OH216896   6.445   3.241   1.086
 5652TIP3    H116897   6.501   3.269   1.159
 5652TIP3    H216898   6.380   3.183   1.126
 5653TIP3   OH216899   5.164   7.683   0.953
 5653TIP3    H116900   5.104   7.749   0.989
 5653TIP3    H216901   5.117   7.600   0.964
 5654TIP3   OH216902   1.909   0.618   3.416
 5654TIP3    H116903   1.832   0.567   3.392
 5654TIP3    H216904   1.966   0.612   3.339
 5655TIP3   OH216905   8.165   4.668   3.568
 5655TIP3    H116906   8.216   4.720   3.630
 5655TIP3    H216907   8.153   4.584   3.611
 5656TIP3   OH216908   6.066   4.093   6.691
 5656TIP3    H116909   6.034   4.119   6.604
 5656TIP3    H216910   5.991   4.051   6.733
 5657TIP3   OH216911   0.886   6.493   2.305
 5657TIP3    H116912   0.791   6.490   2.311
 5657TIP3    H216913   0.904   6.536   2.221
 5658TIP3   OH216914   4.334   2.314   0.410
 5658TIP3    H116915   4.344   2.285   0.320
 5658TIP3    H216916   4.369   2.403   0.411
 5659TIP3   OH216917   8.067   2.445   3.373
 5659TIP3    H116918   8.099   2.534   3.385
 5659TIP3    H216919   8.050   2.438   3.279
 5660TIP3   OH216920   3.144   0.885   2.102
 5660TIP3    H116921   3.169   0.801   2.139
 5660TIP3    H216922   3.053   0.874   2.075
 5661TIP3   OH216923   1.943   3.761   2.944
 5661TIP3    H116924   1.892   3.715   2.877
 5661TIP3    H216925   1.920   3.717   3.026
 5662TIP3   OH216926   4.300   0.083   1.226
 5662TIP3    H116927   4.207   0.058   1.227
 5662TIP3    H216928   4.302   0.170   1.266
 5663TIP3   OH216929   1.323   7.807   1.231
 5663TIP3    H116930   1.417   7.814   1.248
 5663TIP3    H216931   1.294   7.734   1.286
 5664TIP3   OH216932   8.383   2.776   0.225
 5664TIP3    H116933   8.432   2.858   0.228
 5664TIP3    H216934   8.300   2.798   0.183
 5665TIP3   OH216935   3.352   1.699   6.602
 5665TIP3    H116936   3.316   1.628   6.656
 5665TIP3    H216937   3.283   1.765   6.600
 5666TIP3   OH216938   7.530   6.610   5.020
 5666TIP3    H116939   7.530   6.518   4.995
 5666TIP3    H216940   7.529   6.609   5.116
 5667TIP3   OH216941   2.144   0.502   3.663
 5667TIP3    H116942   2.150   0.513   3.758
 5667TIP3    H216943   2.235   0.488   3.634
 5668TIP3   OH216944   4.474   5.814   2.259
 5668TIP3    H116945   4.428   5.871   2.198
 5668TIP3    H216946   4.405   5.763   2.300
 5669TIP3   OH216947   4.886   0.200   3.970
 5669TIP3    H116948   4.938   0.235   4.043
 5669TIP3    H216949   4.950   0.157   3.914
 5670TIP3   OH216950   2.123   0.570   2.709
 5670TIP3    H116951   2.070   0.640   2.670
 5670TIP3    H216952   2.209   0.580   2.669
 5671TIP3   OH216953   6.660   0.073   4.767
 5671TIP3    H116954   6.605   0.029   4.832
 5671TIP3    H216955   6.601   0.091   4.694
 5672TIP3   OH216956   3.576   1.564   1.739
 5672TIP3    H116957   3.609   1.635   1.685
 5672TIP3    H216958   3.569   1.489   1.680
 5673TIP3   OH216959   5.627   4.114   5.469
 5673TIP3    H116960   5.549   4.058   5.472
 5673TIP3    H216961   5.700   4.053   5.464
 5674TIP3   OH216962   0.298   1.722   2.708
 5674TIP3    H116963   0.226   1.677   2.664
 5674TIP3    H216964   0.287   1.814   2.683
 5675TIP3   OH216965   3.741   2.540   6.126
 5675TIP3    H116966   3.755   2.572   6.215
 5675TIP3    H216967   3.701   2.614   6.080
 5676TIP3   OH216968   5.711   2.489   4.017
 5676TIP3    H116969   5.770   2.422   3.981
 5676TIP3    H216970   5.687   2.543   3.942
 5677TIP3   OH216971   0.899   1.652   1.580
 5677TIP3    H116972   0.883   1.568   1.624
 5677TIP3    H216973   0.940   1.627   1.497
 5678TIP3   OH216974   0.438   6.422   5.979
 5678TIP3    H116975   0.456   6.466   5.896
 5678TIP3    H216976   0.343   6.429   5.990
 5679TIP3   OH216977   0.334   0.397   2.146
 5679TIP3    H116978   0.392   0.329   2.112
 5679TIP3    H216979   0.323   0.458   2.073
 5680TIP3   OH216980   4.107   4.116   0.168
 5680TIP3    H116981   4.165   4.056   0.214
 5680TIP3    H216982   4.143   4.121   0.080
 5681TIP3   OH216983   3.067   5.949   0.081
 5681TIP3    H116984   3.161   5.965   0.091
 5681TIP3    H216985   3.025   6.019   0.130
 5682TIP3   OH216986   3.938   0.428   4.835
 5682TIP3    H116987   3.878   0.494   4.799
 5682TIP3    H216988   3.917   0.348   4.786
 5683TIP3   OH216989   2.183   7.472   4.693
 5683TIP3    H116990   2.162   7.479   4.786
 5683TIP3    H216991   2.136   7.545   4.652
 5684TIP3   OH216992   0.174   0.352   5.953
 5684TIP3    H116993   0.256   0.357   6.002
 5684TIP3    H216994   0.198   0.311   5.870
 5685TIP3   OH216995   4.411   7.251   3.712
 5685TIP3    H116996   4.353   7.212   3.646
 5685TIP3    H216997   4.404   7.345   3.697
 5686TIP3   OH216998   6.585   7.452   2.548
 5686TIP3    H116999   6.514   7.447   2.612
 5686TIP3    H217000   6.606   7.545   2.543
 5687TIP3   OH217001   2.770   5.467   0.339
 5687TIP3    H117002   2.817   5.547   0.318
 5687TIP3    H217003   2.722   5.488   0.419
 5688TIP3   OH217004   2.095   6.341   4.848
 5688TIP3    H117005   2.055   6.377   4.769
 5688TIP3    H217006   2.189   6.338   4.829
 5689TIP3   OH217007   8.231   4.544   2.639
 5689TIP3    H117008   8.265   4.541   2.729
 5689TIP3    H217009   8.204   4.454   2.621
 5690TIP3   OH217010   3.300   6.885   3.877
 5690TIP3    H117011   3.223   6.870   3.932
 5690TIP3    H217012   3.319   6.800   3.838
 5691TIP3   OH217013   7.001   0.281   1.168
 5691TIP3    H117014   6.926   0.339   1.153
 5691TIP3    H217015   7.025   0.297   1.259
 5692TIP3   OH217016   6.145   5.417   0.460
 5692TIP3    H117017   6.171   5.355   0.528
 5692TIP3    H217018   6.172   5.502   0.493
 5693TIP3   OH217019   8.173   1.368   4.700
 5693TIP3    H117020   8.086   1.405   4.681
 5693TIP3    H217021   8.208   1.425   4.768
 5694TIP3   OH217022   3.359   5.374   6.793
 5694TIP3    H117023   3.445   5.393   6.754
 5694TIP3    H217024   3.302   5.442   6.758
 5695TIP3   OH217025   4.473   1.228   3.193
 5695TIP3    H117026   4.404   1.195   3.251
 5695TIP3    H217027   4.427   1.274   3.124
 5696TIP3   OH217028   0.418   6.092   0.980
 5696TIP3    H117029   0.502   6.087   1.026
 5696TIP3    H217030   0.430   6.036   0.903
 5697TIP3   OH217031   7.092   3.550   5.295
 5697TIP3    H117032   7.147   3.557   5.373
 5697TIP3    H217033   7.055   3.638   5.284
 5698TIP3   OH217034   3.275   6.475   0.220
 5698TIP3    H117035   3.328   6.531   0.164
 5698TIP3    H217036   3.338   6.416   0.262
 5699TIP3   OH217037   0.401   0.267   2.381
 5699TIP3    H117038   0.342   0.294   2.451
 5699TIP3    H217039   0.364   0.304   2.302
 5700TIP3   OH217040   5.242   1.028   5.238
 5700TIP3    H117041   5.313   1.065   5.290
 5700TIP3    H217042   5.283   0.962   5.183
 5701TIP3   OH217043   0.433   0.466   6.424
 5701TIP3    H117044   0.341   0.464   6.396
 5701TIP3    H217045   0.434   0.526   6.499
 5702TIP3   OH217046   3.133   4.888   1.249
 5702TIP3    H117047   3.203   4.829   1.276
 5702TIP3    H217048   3.167   4.933   1.172
 5703TIP3   OH217049   7.548   1.231   2.282
 5703TIP3    H117050   7.532   1.182   2.363
 5703TIP3    H217051   7.568   1.164   2.217
 5704TIP3   OH217052   6.813   7.459   5.344
 5704TIP3    H117053   6.828   7.531   5.283
 5704TIP3    H217054   6.784   7.387   5.289
 5705TIP3   OH217055   2.870   4.846   6.284
 5705TIP3    H117056   2.921   4.875   6.359
 5705TIP3    H217057   2.897   4.755   6.271
 5706TIP3   OH217058   2.699   5.258   1.644
 5706TIP3    H117059   2.681   5.335   1.698
 5706TIP3    H217060   2.773   5.215   1.687
 5707TIP3   OH217061   5.693   7.560   4.529
 5707TIP3    H117062   5.695   7.567   4.433
 5707TIP3    H217063   5.601   7.545   4.549
 5708TIP3   OH217064   7.054   6.315   0.337
 5708TIP3    H117065   7.132   6.304   0.391
 5708TIP3    H217066   7.014   6.397   0.369
 5709TIP3   OH217067   8.004   7.886   0.556
 5709TIP3    H117068   7.912   7.871   0.535
 5709TIP3    H217069   8.012   7.865   0.649
 5710TIP3   OH217070   2.668   0.164   2.293
 5710TIP3    H117071   2.647   0.243   2.243
 5710TIP3    H217072   2.683   0.197   2.382
 5711TIP3   OH217073   7.317   2.252   5.390
 5711TIP3    H117074   7.378   2.177   5.391
 5711TIP3    H217075   7.237   2.217   5.350
 5712TIP3   OH217076   2.058   5.803   6.029
 5712TIP3    H117077   2.088   5.731   5.974
 5712TIP3    H217078   2.124   5.871   6.019
 5713TIP3   OH217079   5.007   2.962   2.895
 5713TIP3    H117080   4.938   2.898   2.877
 5713TIP3    H217081   5.025   2.951   2.989
 5714TIP3   OH217082   5.257   1.945   3.436
 5714TIP3    H117083   5.322   1.994   3.386
 5714TIP3    H217084   5.183   2.005   3.443
 5715TIP3   OH217085   5.709   4.228   5.706
 5715TIP3    H117086   5.699   4.172   5.629
 5715TIP3    H217087   5.803   4.234   5.719
 5716TIP3   OH217088   6.064   0.125   6.552
 5716TIP3    H117089   6.094   0.049   6.502
 5716TIP3    H217090   6.136   0.143   6.613
 5717TIP3   OH217091   2.188   5.243   1.556
 5717TIP3    H117092   2.154   5.186   1.487
 5717TIP3    H217093   2.282   5.223   1.559
 5718TIP3   OH217094   3.805   1.843   3.721
 5718TIP3    H117095   3.747   1.880   3.788
 5718TIP3    H217096   3.892   1.874   3.745
 5719TIP3   OH217097   4.278   3.417   1.942
 5719TIP3    H117098   4.350   3.366   1.904
 5719TIP3    H217099   4.318   3.500   1.965
 5720TIP3   OH217100   6.475   4.255   0.945
 5720TIP3    H117101   6.453   4.257   0.851
 5720TIP3    H217102   6.396   4.222   0.987
 5721TIP3   OH217103   3.140   7.131   4.742
 5721TIP3    H117104   3.189   7.160   4.819
 5721TIP3    H217105   3.050   7.159   4.759
 5722TIP3   OH217106   4.425   6.817   3.205
 5722TIP3    H117107   4.475   6.891   3.238
 5722TIP3    H217108   4.334   6.839   3.223
 5723TIP3   OH217109   3.513   5.349   5.092
 5723TIP3    H117110   3.597   5.395   5.081
 5723TIP3    H217111   3.538   5.257   5.102
 5724TIP3   OH217112   4.873   3.234   3.101
 5724TIP3    H117113   4.789   3.266   3.133
 5724TIP3    H217114   4.879   3.268   3.012
 5725TIP3   OH217115   3.898   5.073   1.229
 5725TIP3    H117116   3.816   5.096   1.185
 5725TIP3    H217117   3.962   5.137   1.196
 5726TIP3   OH217118   1.155   4.878   0.026
 5726TIP3    H117119   1.110   4.913   0.104
 5726TIP3    H217120   1.179   4.956  -0.024
 5727TIP3   OH217121   2.462   5.819   3.245
 5727TIP3    H117122   2.533   5.761   3.271
 5727TIP3    H217123   2.493   5.859   3.163
 5728TIP3   OH217124   2.724   0.270   3.545
 5728TIP3    H117125   2.712   0.363   3.566
 5728TIP3    H217126   2.668   0.257   3.468
 5729TIP3   OH217127   2.598   6.941   6.624
 5729TIP3    H117128   2.637   6.918   6.539
 5729TIP3    H217129   2.608   7.036   6.630
 5730TIP3   OH217130   7.562   3.943   5.732
 5730TIP3    H117131   7.501   3.997   5.682
 5730TIP3    H217132   7.630   3.919   5.669
 5731TIP3   OH217133   5.574   0.793   6.422
 5731TIP3    H117134   5.512   0.723   6.443
 5731TIP3    H217135   5.522   0.873   6.425
 5732TIP3   OH217136   8.339   2.246   2.237
 5732TIP3    H117137   8.293   2.244   2.153
 5732TIP3    H217138   8.431   2.260   2.215
 5733TIP3   OH217139   2.591   2.516   0.249
 5733TIP3    H117140   2.533   2.453   0.292
 5733TIP3    H217141   2.640   2.464   0.185
 5734TIP3   OH217142   2.746   6.233   2.437
 5734TIP3    H117143   2.750   6.161   2.499
 5734TIP3    H217144   2.654   6.260   2.435
 5735TIP3   OH217145   5.507   4.980   4.449
 5735TIP3    H117146   5.593   5.004   4.483
 5735TIP3    H217147   5.521   4.967   4.355
 5736TIP3   OH217148   5.364   0.238   1.521
 5736TIP3    H117149   5.430   0.171   1.502
 5736TIP3    H217150   5.379   0.262   1.612
 5737TIP3   OH217151   2.855   6.066   1.355
 5737TIP3    H117152   2.784   6.019   1.398
 5737TIP3    H217153   2.934   6.017   1.378
 5738TIP3   OH217154   1.824   3.205   2.180
 5738TIP3    H117155   1.825   3.170   2.270
 5738TIP3    H217156   1.770   3.284   2.186
 5739TIP3   OH217157   6.577   0.402   2.269
 5739TIP3    H117158   6.543   0.324   2.313
 5739TIP3    H217159   6.632   0.445   2.334
 5740TIP3   OH217160   7.151   3.424   1.744
 5740TIP3    H117161   7.058   3.405   1.729
 5740TIP3    H217162   7.164   3.510   1.705
 5741TIP3   OH217163   0.196   1.996   3.214
 5741TIP3    H117164   0.153   1.950   3.142
 5741TIP3    H217165   0.244   2.067   3.172
 5742TIP3   OH217166   0.434   5.283   0.036
 5742TIP3    H117167   0.468   5.214  -0.020
 5742TIP3    H217168   0.348   5.251   0.063
 5743TIP3   OH217169   0.619   2.585   6.199
 5743TIP3    H117170   0.647   2.588   6.290
 5743TIP3    H217171   0.543   2.644   6.196
 5744TIP3   OH217172   7.340   3.049   3.863
 5744TIP3    H117173   7.332   3.136   3.901
 5744TIP3    H217174   7.415   3.056   3.803
 5745TIP3   OH217175   2.297   4.965   5.500
 5745TIP3    H117176   2.211   4.983   5.538
 5745TIP3    H217177   2.358   5.016   5.553
 5746TIP3   OH217178   2.854   3.551  -0.006
 5746TIP3    H117179   2.923   3.607   0.029
 5746TIP3    H217180   2.777   3.609  -0.011
 5747TIP3   OH217181   7.182   4.421   2.874
 5747TIP3    H117182   7.161   4.511   2.899
 5747TIP3    H217183   7.115   4.398   2.810
 5748TIP3   OH217184   7.830   2.228   1.214
 5748TIP3    H117185   7.835   2.151   1.269
 5748TIP3    H217186   7.782   2.292   1.266
 5749TIP3   OH217187   8.179   4.340   3.463
 5749TIP3    H117188   8.187   4.388   3.380
 5749TIP3    H217189   8.224   4.257   3.446
 5750TIP3   OH217190   1.658   3.745   3.949
 5750TIP3    H117191   1.588   3.699   3.905
 5750TIP3    H217192   1.714   3.676   3.985
 5751TIP3   OH217193   0.456   7.587   2.202
 5751TIP3    H117194   0.400   7.657   2.234
 5751TIP3    H217195   0.445   7.516   2.266
 5752TIP3   OH217196   6.757   1.459   1.651
 5752TIP3    H117197   6.849   1.479   1.672
 5752TIP3    H217198   6.720   1.426   1.733
 5753TIP3   OH217199   5.383   3.128   2.860
 5753TIP3    H117200   5.419   3.206   2.819
 5753TIP3    H217201   5.449   3.060   2.846
 5754TIP3   OH217202   3.181   0.299   1.625
 5754TIP3    H117203   3.215   0.275   1.711
 5754TIP3    H217204   3.087   0.278   1.631
 5755TIP3   OH217205   5.473   3.008   3.546
 5755TIP3    H117206   5.450   3.098   3.526
 5755TIP3    H217207   5.389   2.964   3.557
 5756TIP3   OH217208   5.839   6.994   2.104
 5756TIP3    H117209   5.760   6.941   2.114
 5756TIP3    H217210   5.863   7.018   2.193
 5757TIP3   OH217211   6.602   6.352   3.536
 5757TIP3    H117212   6.688   6.327   3.503
 5757TIP3    H217213   6.574   6.277   3.589
 5758TIP3   OH217214   1.347   2.820   5.635
 5758TIP3    H117215   1.418   2.761   5.661
 5758TIP3    H217216   1.295   2.831   5.714
 5759TIP3   OH217217   4.166   1.128   4.040
 5759TIP3    H117218   4.137   1.214   4.071
 5759TIP3    H217219   4.221   1.095   4.112
 5760TIP3   OH217220   3.090   2.387   0.855
 5760TIP3    H117221   3.167   2.389   0.798
 5760TIP3    H217222   3.016   2.384   0.794
 5761TIP3   OH217223   4.883   0.896   3.289
 5761TIP3    H117224   4.972   0.929   3.290
 5761TIP3    H217225   4.830   0.969   3.255
 5762TIP3   OH217226   4.575   6.818   5.908
 5762TIP3    H117227   4.503   6.759   5.929
 5762TIP3    H217228   4.604   6.852   5.993
 5763TIP3   OH217229   3.041   0.373   0.002
 5763TIP3    H117230   3.109   0.436  -0.022
 5763TIP3    H217231   3.078   0.324   0.075
 5764TIP3   OH217232   0.758   6.981   0.960
 5764TIP3    H117233   0.791   6.901   0.920
 5764TIP3    H217234   0.821   7.048   0.934
 5765TIP3   OH217235   1.663   3.140   4.561
 5765TIP3    H117236   1.615   3.098   4.490
 5765TIP3    H217237   1.748   3.097   4.561
 5766TIP3   OH217238   6.000   7.672   5.554
 5766TIP3    H117239   5.906   7.692   5.551
 5766TIP3    H217240   6.016   7.625   5.472
 5767TIP3   OH217241   0.992   6.216   3.853
 5767TIP3    H117242   1.061   6.225   3.787
 5767TIP3    H217243   1.001   6.294   3.908
 5768TIP3   OH217244   7.255   7.541   2.536
 5768TIP3    H117245   7.219   7.481   2.471
 5768TIP3    H217246   7.181   7.562   2.594
 5769TIP3   OH217247   0.859   1.879   3.866
 5769TIP3    H117248   0.915   1.803   3.860
 5769TIP3    H217249   0.773   1.844   3.888
 5770TIP3   OH217250   6.889   1.137   6.792
 5770TIP3    H117251   6.953   1.081   6.748
 5770TIP3    H217252   6.893   1.220   6.746
 5771TIP3   OH217253   8.146   6.666   2.604
 5771TIP3    H117254   8.186   6.676   2.518
 5771TIP3    H217255   8.097   6.584   2.599
 5772TIP3   OH217256   1.239   7.311   3.948
 5772TIP3    H117257   1.274   7.234   3.904
 5772TIP3    H217258   1.312   7.345   3.999
 5773TIP3   OH217259   0.937   0.941   6.653
 5773TIP3    H117260   0.980   0.863   6.619
 5773TIP3    H217261   0.921   0.921   6.746
 5774TIP3   OH217262   7.145   2.515   4.819
 5774TIP3    H117263   7.133   2.434   4.867
 5774TIP3    H217264   7.240   2.524   4.809
 5775TIP3   OH217265   2.783   0.791   3.375
 5775TIP3    H117266   2.801   0.795   3.281
 5775TIP3    H217267   2.858   0.745   3.412
 5776TIP3   OH217268   3.840   2.331   4.513
 5776TIP3    H117269   3.745   2.328   4.505
 5776TIP3    H217270   3.856   2.311   4.606
 5777TIP3   OH217271   4.210   7.570   2.353
 5777TIP3    H117272   4.125   7.527   2.361
 5777TIP3    H217273   4.194   7.660   2.381
 5778TIP3   OH217274   2.281   3.795   4.041
 5778TIP3    H117275   2.266   3.818   4.133
 5778TIP3    H217276   2.262   3.876   3.993
 5779TIP3   OH217277   1.590   0.808   4.443
 5779TIP3    H117278   1.560   0.889   4.485
 5779TIP3    H217279   1.668   0.783   4.493
 5780TIP3   OH217280   1.455   3.693   6.782
 5780TIP3    H117281   1.497   3.675   6.698
 5780TIP3    H217282   1.503   3.639   6.845
 5781TIP3   OH217283   0.105   1.600   1.232
 5781TIP3    H117284   0.189   1.645   1.228
 5781TIP3    H217285   0.056   1.648   1.299
 5782TIP3   OH217286   3.085   2.961   6.713
 5782TIP3    H117287   2.992   2.975   6.691
 5782TIP3    H217288   3.102   3.021   6.785
 5783TIP3   OH217289   4.602   4.770   5.684
 5783TIP3    H117290   4.622   4.678   5.701
 5783TIP3    H217291   4.679   4.817   5.717
 5784TIP3   OH217292   8.104   0.685   1.408
 5784TIP3    H117293   8.108   0.646   1.320
 5784TIP3    H217294   8.163   0.759   1.404
 5785TIP3   OH217295   0.712   1.574   5.031
 5785TIP3    H117296   0.623   1.570   5.068
 5785TIP3    H217297   0.699   1.609   4.943
 5786TIP3   OH217298   7.747   5.946   3.517
 5786TIP3    H117299   7.744   5.865   3.467
 5786TIP3    H217300   7.661   5.986   3.501
 5787TIP3   OH217301   5.724   0.083   1.708
 5787TIP3    H117302   5.790   0.024   1.745
 5787TIP3    H217303   5.774   0.158   1.677
 5788TIP3   OH217304   7.713   4.156   3.284
 5788TIP3    H117305   7.773   4.216   3.241
 5788TIP3    H217306   7.733   4.070   3.245
 5789TIP3   OH217307   5.528   1.041   1.520
 5789TIP3    H117308   5.517   1.115   1.460
 5789TIP3    H217309   5.622   1.023   1.518
 5790TIP3   OH217310   1.610   7.553   2.388
 5790TIP3    H117311   1.635   7.603   2.311
 5790TIP3    H217312   1.578   7.470   2.353
 5791TIP3   OH217313   8.134   4.241   3.143
 5791TIP3    H117314   8.073   4.305   3.179
 5791TIP3    H217315   8.106   4.157   3.180
 5792TIP3   OH217316   1.077   6.662   1.025
 5792TIP3    H117317   0.986   6.670   0.998
 5792TIP3    H217318   1.122   6.733   0.979
 5793TIP3   OH217319   3.360   0.999   1.002
 5793TIP3    H117320   3.382   0.936   1.070
 5793TIP3    H217321   3.435   1.059   0.999
 5794TIP3   OH217322   3.972   7.018   2.988
 5794TIP3    H117323   4.019   7.084   2.937
 5794TIP3    H217324   3.882   7.022   2.955
 5795TIP3   OH217325   3.932   4.457   6.218
 5795TIP3    H117326   3.995   4.402   6.171
 5795TIP3    H217327   3.974   4.542   6.223
 5796TIP3   OH217328   5.319   2.005   6.415
 5796TIP3    H117329   5.284   1.973   6.498
 5796TIP3    H217330   5.264   1.963   6.348
 5797TIP3   OH217331   2.644   6.362   1.251
 5797TIP3    H117332   2.734   6.375   1.221
 5797TIP3    H217333   2.651   6.355   1.346
 5798TIP3   OH217334   7.432   2.074   3.718
 5798TIP3    H117335   7.475   1.999   3.675
 5798TIP3    H217336   7.463   2.150   3.670
 5799TIP3   OH217337   6.442   4.950   3.336
 5799TIP3    H117338   6.432   4.856   3.347
 5799TIP3    H217339   6.389   4.988   3.407
 5800TIP3   OH217340   2.552   0.539   0.394
 5800TIP3    H117341   2.517   0.483   0.463
 5800TIP3    H217342   2.647   0.524   0.397
 5801TIP3   OH217343   3.676   5.356   6.810
 5801TIP3    H117344   3.702   5.414   6.882
 5801TIP3    H217345   3.757   5.312   6.784
 5802TIP3   OH217346   2.640   1.619   3.592
 5802TIP3    H117347   2.625   1.566   3.671
 5802TIP3    H217348   2.584   1.578   3.525
 5803TIP3   OH217349   5.801   6.595   4.499
 5803TIP3    H117350   5.804   6.686   4.530
 5803TIP3    H217351   5.756   6.548   4.570
 5804TIP3   OH217352   2.813   4.034   6.621
 5804TIP3    H117353   2.734   3.985   6.642
 5804TIP3    H217354   2.782   4.120   6.594
 5805TIP3   OH217355   1.048   2.743   6.380
 5805TIP3    H117356   0.973   2.798   6.357
 5805TIP3    H217357   1.009   2.658   6.399
 5806TIP3   OH217358   6.670   2.556   6.259
 5806TIP3    H117359   6.716   2.489   6.309
 5806TIP3    H217360   6.734   2.625   6.246
 5807TIP3   OH217361   2.242   6.646   0.394
 5807TIP3    H117362   2.299   6.711   0.435
 5807TIP3    H217363   2.286   6.624   0.312
 5808TIP3   OH217364   4.653   0.152   4.811
 5808TIP3    H117365   4.682   0.073   4.856
 5808TIP3    H217366   4.702   0.153   4.729
 5809TIP3   OH217367   7.819   4.510   2.905
 5809TIP3    H117368   7.837   4.466   2.989
 5809TIP3    H217369   7.819   4.439   2.841
 5810TIP3   OH217370   8.011   4.113   1.861
 5810TIP3    H117371   7.951   4.180   1.894
 5810TIP3    H217372   8.037   4.144   1.775
 5811TIP3   OH217373   1.531   4.040   1.273
 5811TIP3    H117374   1.524   4.128   1.309
 5811TIP3    H217375   1.552   4.053   1.181
 5812TIP3   OH217376   2.084   0.324   2.585
 5812TIP3    H117377   2.035   0.260   2.637
 5812TIP3    H217378   2.055   0.409   2.619
 5813TIP3   OH217379   6.095   4.423   5.455
 5813TIP3    H117380   6.184   4.403   5.427
 5813TIP3    H217381   6.080   4.366   5.531
 5814TIP3   OH217382   2.434   1.085   1.749
 5814TIP3    H117383   2.371   1.151   1.778
 5814TIP3    H217384   2.381   1.009   1.727
 5815TIP3   OH217385   0.072   6.026   2.933
 5815TIP3    H117386   0.152   5.974   2.938
 5815TIP3    H217387   0.030   6.013   3.017
 5816TIP3   OH217388   1.990   1.765   5.381
 5816TIP3    H117389   2.019   1.677   5.404
 5816TIP3    H217390   1.924   1.787   5.448
 5817TIP3   OH217391   5.441   7.467   4.153
 5817TIP3    H117392   5.351   7.460   4.184
 5817TIP3    H217393   5.432   7.497   4.063
 5818TIP3   OH217394   6.267   4.636   5.135
 5818TIP3    H117395   6.204   4.638   5.208
 5818TIP3    H217396   6.316   4.718   5.144
 5819TIP3   OH217397   7.989   2.045   5.248
 5819TIP3    H117398   8.049   2.048   5.174
 5819TIP3    H217399   7.908   2.082   5.215
 5820TIP3   OH217400   3.871   6.627   3.308
 5820TIP3    H117401   3.813   6.692   3.347
 5820TIP3    H217402   3.924   6.676   3.245
 5821TIP3   OH217403   3.356   2.232   3.134
 5821TIP3    H117404   3.273   2.249   3.090
 5821TIP3    H217405   3.422   2.269   3.075
 5822TIP3   OH217406   1.355   1.673   3.503
 5822TIP3    H117407   1.317   1.741   3.557
 5822TIP3    H217408   1.405   1.619   3.564
 5823TIP3   OH217409   6.931   5.597   3.945
 5823TIP3    H117410   6.932   5.548   3.863
 5823TIP3    H217411   6.869   5.668   3.929
 5824TIP3   OH217412   1.193   2.625   0.043
 5824TIP3    H117413   1.275   2.673   0.056
 5824TIP3    H217414   1.210   2.568  -0.032
 5825TIP3   OH217415   6.146   4.674   2.250
 5825TIP3    H117416   6.215   4.649   2.189
 5825TIP3    H217417   6.192   4.709   2.326
 5826TIP3   OH217418   1.066   1.883   5.770
 5826TIP3    H117419   1.060   1.897   5.676
 5826TIP3    H217420   1.145   1.830   5.781
 5827TIP3   OH217421   0.345   4.340   6.247
 5827TIP3    H117422   0.369   4.247   6.251
 5827TIP3    H217423   0.375   4.375   6.331
 5828TIP3   OH217424   6.486   1.085   4.111
 5828TIP3    H117425   6.392   1.102   4.103
 5828TIP3    H217426   6.513   1.059   4.022
 5829TIP3   OH217427   0.228   6.785   2.004
 5829TIP3    H117428   0.176   6.740   2.070
 5829TIP3    H217429   0.285   6.718   1.967
 5830TIP3   OH217430   5.700   1.616   4.631
 5830TIP3    H117431   5.680   1.568   4.711
 5830TIP3    H217432   5.736   1.550   4.572
 5831TIP3   OH217433   7.408   3.562   0.468
 5831TIP3    H117434   7.478   3.504   0.495
 5831TIP3    H217435   7.384   3.610   0.548
 5832TIP3   OH217436   4.426   0.952   0.439
 5832TIP3    H117437   4.457   0.865   0.412
 5832TIP3    H217438   4.454   0.959   0.531
 5833TIP3   OH217439   7.456   6.997   2.543
 5833TIP3    H117440   7.494   6.938   2.609
 5833TIP3    H217441   7.466   7.085   2.581
 5834TIP3   OH217442   3.364   1.664   5.354
 5834TIP3    H117443   3.428   1.679   5.284
 5834TIP3    H217444   3.353   1.569   5.355
 5835TIP3   OH217445   5.505   1.981   5.792
 5835TIP3    H117446   5.442   2.052   5.780
 5835TIP3    H217447   5.578   2.021   5.839
 5836TIP3   OH217448   6.089   2.193   2.803
 5836TIP3    H117449   6.006   2.177   2.847
 5836TIP3    H217450   6.084   2.140   2.723
 5837TIP3   OH217451   0.843   2.837   4.671
 5837TIP3    H117452   0.912   2.853   4.736
 5837TIP3    H217453   0.817   2.746   4.685
 5838TIP3   OH217454   4.676   4.758   0.877
 5838TIP3    H117455   4.755   4.779   0.826
 5838TIP3    H217456   4.702   4.773   0.968
 5839TIP3   OH217457   5.254   0.756   5.819
 5839TIP3    H117458   5.337   0.722   5.851
 5839TIP3    H217459   5.278   0.814   5.746
 5840TIP3   OH217460   4.227   0.544   6.339
 5840TIP3    H117461   4.177   0.507   6.412
 5840TIP3    H217462   4.236   0.472   6.277
 5841TIP3   OH217463   6.321   2.864   1.761
 5841TIP3    H117464   6.247   2.804   1.772
 5841TIP3    H217465   6.295   2.921   1.689
 5842TIP3   OH217466   4.657   1.250   5.480
 5842TIP3    H117467   4.735   1.289   5.518
 5842TIP3    H217468   4.624   1.316   5.419
 5843TIP3   OH217469   6.796   4.505   3.930
 5843TIP3    H117470   6.785   4.525   3.837
 5843TIP3    H217471   6.712   4.529   3.970
 5844TIP3   OH217472   0.445   4.965   2.303
 5844TIP3    H117473   0.443   4.875   2.271
 5844TIP3    H217474   0.359   5.000   2.282
 5845TIP3   OH217475   7.407   3.873   2.560
 5845TIP3    H117476   7.360   3.807   2.610
 5845TIP3    H217477   7.498   3.842   2.558
 5846TIP3   OH217478   5.137   3.910   5.259
 5846TIP3    H117479   5.211   3.966   5.279
 5846TIP3    H217480   5.075   3.926   5.331
 5847TIP3   OH217481   7.413   1.684   5.688
 5847TIP3    H117482   7.351   1.611   5.690
 5847TIP3    H217483   7.464   1.675   5.768
 5848TIP3   OH217484   4.223   4.082   5.109
 5848TIP3    H117485   4.181   4.009   5.155
 5848TIP3    H217486   4.310   4.087   5.149
 5849TIP3   OH217487   7.940   3.544   4.395
 5849TIP3    H117488   8.009   3.530   4.331
 5849TIP3    H217489   7.986   3.574   4.474
 5850TIP3   OH217490   6.432   4.075   3.759
 5850TIP3    H117491   6.518   4.109   3.783
 5850TIP3    H217492   6.382   4.152   3.733
 5851TIP3   OH217493   1.938   2.772   4.449
 5851TIP3    H117494   1.961   2.693   4.498
 5851TIP3    H217495   1.843   2.782   4.463
 5852TIP3   OH217496   7.635   7.722   4.257
 5852TIP3    H117497   7.594   7.769   4.329
 5852TIP3    H217498   7.692   7.786   4.215
 5853TIP3   OH217499   3.363   0.766   3.808
 5853TIP3    H117500   3.391   0.850   3.845
 5853TIP3    H217501   3.311   0.725   3.878
 5854TIP3   OH217502   4.805   2.137   4.830
 5854TIP3    H117503   4.858   2.059   4.848
 5854TIP3    H217504   4.767   2.120   4.744
 5855TIP3   OH217505   7.698   5.675   4.501
 5855TIP3    H117506   7.618   5.646   4.456
 5855TIP3    H217507   7.678   5.668   4.594
 5856TIP3   OH217508   5.341   7.178   5.926
 5856TIP3    H117509   5.430   7.140   5.924
 5856TIP3    H217510   5.330   7.208   6.016
 5857TIP3   OH217511   0.901   5.412   6.579
 5857TIP3    H117512   0.925   5.358   6.504
 5857TIP3    H217513   0.943   5.497   6.562
 5858TIP3   OH217514   4.228   4.857   2.224
 5858TIP3    H117515   4.299   4.894   2.275
 5858TIP3    H217516   4.203   4.926   2.163
 5859TIP3   OH217517   8.034   0.729   1.037
 5859TIP3    H117518   8.011   0.641   1.069
 5859TIP3    H217519   7.950   0.774   1.029
 5860TIP3   OH217520   3.690   1.479   3.384
 5860TIP3    H117521   3.667   1.473   3.477
 5860TIP3    H217522   3.757   1.547   3.381
 5861TIP3   OH217523   6.584   7.721   0.109
 5861TIP3    H117524   6.582   7.702   0.203
 5861TIP3    H217525   6.676   7.744   0.092
 5862TIP3   OH217526   2.704   7.863   0.158
 5862TIP3    H117527   2.775   7.928   0.157
 5862TIP3    H217528   2.668   7.867   0.247
 5863TIP3   OH217529   8.269   1.759   5.074
 5863TIP3    H117530   8.344   1.815   5.092
 5863TIP3    H217531   8.238   1.730   5.160
 5864TIP3   OH217532   1.652   6.740   0.822
 5864TIP3    H117533   1.717   6.685   0.866
 5864TIP3    H217534   1.572   6.686   0.820
 5865TIP3   OH217535   3.633   5.130   0.485
 5865TIP3    H117536   3.657   5.108   0.395
 5865TIP3    H217537   3.538   5.143   0.482
 5866TIP3   OH217538   1.574   4.156   4.735
 5866TIP3    H117539   1.553   4.125   4.823
 5866TIP3    H217540   1.643   4.096   4.704
 5867TIP3   OH217541   6.849   6.161   1.794
 5867TIP3    H117542   6.846   6.092   1.728
 5867TIP3    H217543   6.918   6.220   1.765
 5868TIP3   OH217544   1.217   6.269   4.526
 5868TIP3    H117545   1.250   6.179   4.528
 5868TIP3    H217546   1.214   6.295   4.618
 5869TIP3   OH217547   0.983   7.412   3.430
 5869TIP3    H117548   0.997   7.349   3.501
 5869TIP3    H217549   1.069   7.423   3.389
 5870TIP3   OH217550   4.566   6.143   6.497
 5870TIP3    H117551   4.501   6.073   6.494
 5870TIP3    H217552   4.638   6.107   6.548
 5871TIP3   OH217553   2.524   0.832   3.163
 5871TIP3    H117554   2.530   0.921   3.198
 5871TIP3    H217555   2.447   0.795   3.205
 5872TIP3   OH217556   4.805   4.272   0.148
 5872TIP3    H117557   4.742   4.270   0.077
 5872TIP3    H217558   4.785   4.353   0.196
 5873TIP3   OH217559   5.616   0.499   1.346
 5873TIP3    H117560   5.558   0.521   1.273
 5873TIP3    H217561   5.619   0.578   1.399
 5874TIP3   OH217562   8.146   3.473   6.154
 5874TIP3    H117563   8.179   3.443   6.238
 5874TIP3    H217564   8.159   3.567   6.154
 5875TIP3   OH217565   7.862   5.856   6.219
 5875TIP3    H117566   7.884   5.772   6.259
 5875TIP3    H217567   7.873   5.920   6.289
 5876TIP3   OH217568   5.181   1.764   1.196
 5876TIP3    H117569   5.269   1.758   1.159
 5876TIP3    H217570   5.187   1.720   1.281
 5877TIP3   OH217571   1.619   5.373   0.704
 5877TIP3    H117572   1.634   5.468   0.711
 5877TIP3    H217573   1.555   5.364   0.633
 5878TIP3   OH217574   2.212   7.743   0.469
 5878TIP3    H117575   2.184   7.722   0.379
 5878TIP3    H217576   2.160   7.684   0.524
 5879TIP3   OH217577   2.497   6.846   2.698
 5879TIP3    H117578   2.459   6.927   2.730
 5879TIP3    H217579   2.569   6.874   2.641
 5880TIP3   OH217580   5.146   6.476   2.096
 5880TIP3    H117581   5.104   6.392   2.082
 5880TIP3    H217582   5.102   6.536   2.036
 5881TIP3   OH217583   7.596   7.118   1.912
 5881TIP3    H117584   7.660   7.105   1.842
 5881TIP3    H217585   7.639   7.083   1.990
 5882TIP3   OH217586   6.596   1.826   5.733
 5882TIP3    H117587   6.535   1.884   5.778
 5882TIP3    H217588   6.596   1.745   5.785
 5883TIP3   OH217589   7.196   2.727   1.376
 5883TIP3    H117590   7.156   2.802   1.332
 5883TIP3    H217591   7.290   2.734   1.356
 5884TIP3   OH217592   3.434   5.747   4.002
 5884TIP3    H117593   3.341   5.740   3.982
 5884TIP3    H217594   3.478   5.728   3.919
 5885TIP3   OH217595   4.828   2.114   5.406
 5885TIP3    H117596   4.802   2.039   5.460
 5885TIP3    H217597   4.886   2.076   5.340
 5886TIP3   OH217598   6.976   2.479   6.418
 5886TIP3    H117599   6.984   2.549   6.483
 5886TIP3    H217600   7.022   2.513   6.341
 5887TIP3   OH217601   6.784   2.482   1.090
 5887TIP3    H117602   6.787   2.397   1.045
 5887TIP3    H217603   6.723   2.468   1.163
 5888TIP3   OH217604   7.812   6.495   2.984
 5888TIP3    H117605   7.884   6.558   2.989
 5888TIP3    H217606   7.848   6.414   3.020
 5889TIP3   OH217607   1.447   6.044   6.665
 5889TIP3    H117608   1.353   6.042   6.647
 5889TIP3    H217609   1.460   6.126   6.713
 5890TIP3   OH217610   4.982   0.685   2.044
 5890TIP3    H117611   4.984   0.746   1.971
 5890TIP3    H217612   5.017   0.603   2.008
 5891TIP3   OH217613   1.181   5.489   2.062
 5891TIP3    H117614   1.267   5.511   2.097
 5891TIP3    H217615   1.199   5.456   1.974
 5892TIP3   OH217616   3.463   4.429   2.402
 5892TIP3    H117617   3.494   4.510   2.361
 5892TIP3    H217618   3.539   4.371   2.403
 5893TIP3   OH217619   1.413   3.261   2.812
 5893TIP3    H117620   1.361   3.199   2.864
 5893TIP3    H217621   1.349   3.319   2.772
 5894TIP3   OH217622   3.307   2.811   5.135
 5894TIP3    H117623   3.304   2.889   5.191
 5894TIP3    H217624   3.216   2.783   5.127
 5895TIP3   OH217625   7.670   0.160   3.114
 5895TIP3    H117626   7.644   0.223   3.181
 5895TIP3    H217627   7.688   0.213   3.036
 5896TIP3   OH217628   4.646   4.821   4.909
 5896TIP3    H117629   4.720   4.854   4.860
 5896TIP3    H217630   4.572   4.828   4.849
 5897TIP3   OH217631   1.475   6.551   3.266
 5897TIP3    H117632   1.512   6.482   3.210
 5897TIP3    H217633   1.511   6.632   3.232
 5898TIP3   OH217634   0.911   2.880   4.005
 5898TIP3    H117635   0.858   2.840   4.074
 5898TIP3    H217636   0.851   2.890   3.932
 5899TIP3   OH217637   0.295   0.579   0.057
 5899TIP3    H117638   0.270   0.519  -0.014
 5899TIP3    H217639   0.292   0.666   0.017
 5900TIP3   OH217640   2.688   6.236   0.356
 5900TIP3    H117641   2.682   6.328   0.332
 5900TIP3    H217642   2.647   6.189   0.283
 5901TIP3   OH217643   8.031   1.028   3.244
 5901TIP3    H117644   8.104   1.090   3.244
 5901TIP3    H217645   7.972   1.060   3.312
 5902TIP3   OH217646   1.872   1.052   3.448
 5902TIP3    H117647   1.867   1.139   3.408
 5902TIP3    H217648   1.831   1.063   3.534
 5903TIP3   OH217649   6.833   4.293   5.870
 5903TIP3    H117650   6.774   4.269   5.942
 5903TIP3    H217651   6.842   4.388   5.877
 5904TIP3   OH217652   4.767   3.633   1.322
 5904TIP3    H117653   4.803   3.559   1.372
 5904TIP3    H217654   4.695   3.666   1.376
 5905TIP3   OH217655   6.433   0.591   2.086
 5905TIP3    H117656   6.358   0.536   2.060
 5905TIP3    H217657   6.478   0.541   2.153
 5906TIP3   OH217658   6.651   1.540   4.374
 5906TIP3    H117659   6.617   1.537   4.464
 5906TIP3    H217660   6.603   1.611   4.332
 5907TIP3   OH217661   2.161   7.360   3.965
 5907TIP3    H117662   2.203   7.376   4.050
 5907TIP3    H217663   2.179   7.439   3.915
 5908TIP3   OH217664   1.456   4.968   5.713
 5908TIP3    H117665   1.421   4.883   5.689
 5908TIP3    H217666   1.544   4.949   5.746
 5909TIP3   OH217667   3.363   0.265   3.912
 5909TIP3    H117668   3.447   0.285   3.952
 5909TIP3    H217669   3.314   0.347   3.917
 5910TIP3   OH217670   6.686   0.545   1.924
 5910TIP3    H117671   6.743   0.530   1.999
 5910TIP3    H217672   6.601   0.568   1.961
 5911TIP3   OH217673   5.051   4.477   5.472
 5911TIP3    H117674   5.108   4.503   5.400
 5911TIP3    H217675   5.085   4.526   5.547
 5912TIP3   OH217676   4.820   3.639   3.739
 5912TIP3    H117677   4.897   3.584   3.723
 5912TIP3    H217678   4.816   3.697   3.663
 5913TIP3   OH217679   7.373   3.007   0.085
 5913TIP3    H117680   7.280   3.023   0.097
 5913TIP3    H217681   7.392   3.044  -0.002
 5914TIP3   OH217682   4.473   1.863   2.211
 5914TIP3    H117683   4.440   1.865   2.301
 5914TIP3    H217684   4.470   1.954   2.183
 5915TIP3   OH217685   3.920   7.410   4.323
 5915TIP3    H117686   3.890   7.486   4.373
 5915TIP3    H217687   3.869   7.412   4.242
 5916TIP3   OH217688   7.671   0.535   2.053
 5916TIP3    H117689   7.616   0.457   2.056
 5916TIP3    H217690   7.670   0.569   2.142
 5917TIP3   OH217691   0.757   3.627   1.344
 5917TIP3    H117692   0.685   3.616   1.406
 5917TIP3    H217693   0.734   3.568   1.271
 5918TIP3   OH217694   6.906   0.525   3.359
 5918TIP3    H117695   6.987   0.572   3.378
 5918TIP3    H217696   6.894   0.467   3.434
 5919TIP3   OH217697   7.815   6.339   4.694
 5919TIP3    H117698   7.766   6.418   4.672
 5919TIP3    H217699   7.751   6.269   4.689
 5920TIP3   OH217700   1.532   1.230   4.240
 5920TIP3    H117701   1.481   1.265   4.167
 5920TIP3    H217702   1.593   1.300   4.262
 5921TIP3   OH217703   1.918   4.113   3.935
 5921TIP3    H117704   1.909   4.060   4.014
 5921TIP3    H217705   1.851   4.079   3.875
 5922TIP3   OH217706   6.765   4.764   0.991
 5922TIP3    H117707   6.850   4.759   1.034
 5922TIP3    H217708   6.780   4.727   0.904
 5923TIP3   OH217709   3.072   2.497   1.481
 5923TIP3    H117710   3.049   2.482   1.389
 5923TIP3    H217711   3.055   2.590   1.495
 5924TIP3   OH217712   5.987   4.212   0.683
 5924TIP3    H117713   6.056   4.205   0.617
 5924TIP3    H217714   6.034   4.229   0.765
 5925TIP3   OH217715   1.430   1.088   1.796
 5925TIP3    H117716   1.385   1.020   1.745
 5925TIP3    H217717   1.441   1.161   1.735
 5926TIP3   OH217718   5.121   7.695   4.306
 5926TIP3    H117719   5.214   7.675   4.312
 5926TIP3    H217720   5.100   7.737   4.389
 5927TIP3   OH217721   6.224   7.881   1.320
 5927TIP3    H117722   6.315   7.861   1.299
 5927TIP3    H217723   6.191   7.929   1.243
 5928TIP3   OH217724   5.110   4.008   1.828
 5928TIP3    H117725   5.161   4.054   1.761
 5928TIP3    H217726   5.019   4.031   1.809
 5929TIP3   OH217727   1.774   1.052   6.271
 5929TIP3    H117728   1.791   1.118   6.203
 5929TIP3    H217729   1.840   0.984   6.256
 5930TIP3   OH217730   6.789   6.691   1.312
 5930TIP3    H117731   6.712   6.727   1.357
 5930TIP3    H217732   6.755   6.617   1.262
 5931TIP3   OH217733   7.854   1.528   0.036
 5931TIP3    H117734   7.908   1.464   0.081
 5931TIP3    H217735   7.783   1.548   0.097
 5932TIP3   OH217736   5.426   3.054   0.570
 5932TIP3    H117737   5.350   3.031   0.516
 5932TIP3    H217738   5.462   3.131   0.528
 5933TIP3   OH217739   6.031   4.482   2.471
 5933TIP3    H117740   6.052   4.403   2.420
 5933TIP3    H217741   6.093   4.548   2.441
 5934TIP3   OH217742   2.898   7.743   1.849
 5934TIP3    H117743   2.880   7.649   1.843
 5934TIP3    H217744   2.812   7.785   1.843
 5935TIP3   OH217745   0.384   3.962   5.829
 5935TIP3    H117746   0.427   3.914   5.758
 5935TIP3    H217747   0.440   4.039   5.843
 5936TIP3   OH217748   5.153   2.338   3.132
 5936TIP3    H117749   5.183   2.413   3.082
 5936TIP3    H217750   5.057   2.344   3.129
 5937TIP3   OH217751   4.629   5.236   1.272
 5937TIP3    H117752   4.647   5.323   1.308
 5937TIP3    H217753   4.535   5.238   1.252
 5938TIP3   OH217754   3.380   3.262   6.419
 5938TIP3    H117755   3.329   3.183   6.402
 5938TIP3    H217756   3.321   3.318   6.470
 5939TIP3   OH217757   0.351   4.978   4.910
 5939TIP3    H117758   0.373   4.921   4.984
 5939TIP3    H217759   0.299   4.923   4.852
 5940TIP3   OH217760   2.835   3.266   0.003
 5940TIP3    H117761   2.830   3.357  -0.024
 5940TIP3    H217762   2.814   3.267   0.097
 5941TIP3   OH217763   4.546   1.404   1.649
 5941TIP3    H117764   4.576   1.457   1.724
 5941TIP3    H217765   4.571   1.455   1.572
 5942TIP3   OH217766   8.075   4.531   6.170
 5942TIP3    H117767   7.998   4.567   6.214
 5942TIP3    H217768   8.137   4.514   6.241
 5943TIP3   OH217769   1.923   2.561   3.408
 5943TIP3    H117770   1.951   2.477   3.444
 5943TIP3    H217771   1.983   2.625   3.446
 5944TIP3   OH217772   7.544   1.437   3.522
 5944TIP3    H117773   7.579   1.440   3.433
 5944TIP3    H217774   7.520   1.345   3.535
 5945TIP3   OH217775   7.877   7.444   1.691
 5945TIP3    H117776   7.846   7.530   1.719
 5945TIP3    H217777   7.882   7.450   1.596
 5946TIP3   OH217778   4.299   0.032   5.739
 5946TIP3    H117779   4.295   0.083   5.658
 5946TIP3    H217780   4.230   0.070   5.794
 5947TIP3   OH217781   7.769   1.828   3.441
 5947TIP3    H117782   7.775   1.772   3.364
 5947TIP3    H217783   7.832   1.898   3.426
 5948TIP3   OH217784   3.570   1.489   2.100
 5948TIP3    H117785   3.486   1.533   2.114
 5948TIP3    H217786   3.628   1.557   2.067
 5949TIP3   OH217787   5.516   5.828   5.871
 5949TIP3    H117788   5.538   5.786   5.788
 5949TIP3    H217789   5.590   5.809   5.928
 5950TIP3   OH217790   6.221   3.429   0.585
 5950TIP3    H117791   6.137   3.385   0.597
 5950TIP3    H217792   6.265   3.422   0.670
 5951TIP3   OH217793   7.621   1.630   6.774
 5951TIP3    H117794   7.631   1.537   6.792
 5951TIP3    H217795   7.626   1.672   6.860
 5952TIP3   OH217796   3.106   7.722   0.428
 5952TIP3    H117797   3.167   7.767   0.487
 5952TIP3    H217798   3.139   7.741   0.340
 5953TIP3   OH217799   4.057   2.900   4.035
 5953TIP3    H117800   4.113   2.899   4.113
 5953TIP3    H217801   4.037   2.808   4.019
 5954TIP3   OH217802   1.037   7.313   4.501
 5954TIP3    H117803   1.108   7.371   4.530
 5954TIP3    H217804   0.959   7.369   4.501
 5955TIP3   OH217805   6.004   3.103   5.488
 5955TIP3    H117806   6.026   3.012   5.506
 5955TIP3    H217807   6.059   3.127   5.414
 5956TIP3   OH217808   5.127   0.627   0.313
 5956TIP3    H117809   5.131   0.549   0.258
 5956TIP3    H217810   5.133   0.594   0.402
 5957TIP3   OH217811   2.021   1.638   2.664
 5957TIP3    H117812   1.943   1.586   2.682
 5957TIP3    H217813   2.016   1.659   2.571
 5958TIP3   OH217814   4.287   1.745   1.132
 5958TIP3    H117815   4.287   1.686   1.207
 5958TIP3    H217816   4.380   1.762   1.115
 5959TIP3   OH217817   2.750   0.239   5.379
 5959TIP3    H117818   2.789   0.186   5.310
 5959TIP3    H217819   2.727   0.176   5.448
 5960TIP3   OH217820   5.033   5.145   2.570
 5960TIP3    H117821   5.012   5.095   2.491
 5960TIP3    H217822   4.950   5.187   2.594
 5961TIP3   OH217823   1.010   5.158   5.214
 5961TIP3    H117824   0.925   5.115   5.203
 5961TIP3    H217825   1.072   5.086   5.222
 5962TIP3   OH217826   7.051   2.885   4.264
 5962TIP3    H117827   7.059   2.916   4.174
 5962TIP3    H217828   7.134   2.841   4.282
 5963TIP3   OH217829   0.278   7.650   1.836
 5963TIP3    H117830   0.358   7.658   1.784
 5963TIP3    H217831   0.251   7.741   1.853
 5964TIP3   OH217832   0.208   6.256   3.553
 5964TIP3    H117833   0.187   6.184   3.494
 5964TIP3    H217834   0.181   6.334   3.506
 5965TIP3   OH217835   1.187   2.897   3.865
 5965TIP3    H117836   1.123   2.917   3.796
 5965TIP3    H217837   1.142   2.921   3.946
 5966TIP3   OH217838   0.155   6.399   2.419
 5966TIP3    H117839   0.186   6.321   2.465
 5966TIP3    H217840   0.234   6.448   2.397
 5967TIP3   OH217841   6.697   3.397   1.945
 5967TIP3    H117842   6.617   3.449   1.939
 5967TIP3    H217843   6.744   3.434   2.020
 5968TIP3   OH217844   3.303   7.128   2.166
 5968TIP3    H117845   3.228   7.186   2.181
 5968TIP3    H217846   3.378   7.187   2.163
 5969TIP3   OH217847   2.626   3.664   0.076
 5969TIP3    H117848   2.610   3.757   0.060
 5969TIP3    H217849   2.545   3.621   0.051
 5970TIP3   OH217850   8.185   0.909   6.791
 5970TIP3    H117851   8.273   0.885   6.819
 5970TIP3    H217852   8.188   1.003   6.776
 5971TIP3   OH217853   3.140   0.113   1.265
 5971TIP3    H117854   3.050   0.092   1.291
 5971TIP3    H217855   3.131   0.165   1.185
 5972TIP3   OH217856   7.056   1.594   0.246
 5972TIP3    H117857   6.997   1.665   0.270
 5972TIP3    H217858   6.999   1.519   0.233
 5973TIP3   OH217859   2.025   3.644   4.459
 5973TIP3    H117860   2.065   3.650   4.545
 5973TIP3    H217861   2.090   3.597   4.406
 5974TIP3   OH217862   4.561   6.494   1.636
 5974TIP3    H117863   4.593   6.496   1.546
 5974TIP3    H217864   4.622   6.549   1.685
 5975TIP3   OH217865   6.240   6.947   4.175
 5975TIP3    H117866   6.206   6.974   4.090
 5975TIP3    H217867   6.286   6.865   4.157
 5976TIP3   OH217868   6.456   0.317   2.629
 5976TIP3    H117869   6.504   0.265   2.694
 5976TIP3    H217870   6.364   0.307   2.654
 5977TIP3   OH217871   2.990   0.795   0.702
 5977TIP3    H117872   2.929   0.869   0.698
 5977TIP3    H217873   3.007   0.772   0.611
 5978TIP3   OH217874   7.120   5.826   3.085
 5978TIP3    H117875   7.069   5.871   3.018
 5978TIP3    H217876   7.161   5.753   3.039
 5979TIP3   OH217877   3.058   4.751   4.861
 5979TIP3    H117878   3.079   4.674   4.809
 5979TIP3    H217879   2.964   4.763   4.850
 5980TIP3   OH217880   6.712   6.103   5.544
 5980TIP3    H117881   6.642   6.065   5.492
 5980TIP3    H217882   6.691   6.197   5.549
 5981TIP3   OH217883   7.524   7.628   6.230
 5981TIP3    H117884   7.478   7.698   6.185
 5981TIP3    H217885   7.596   7.672   6.276
 5982TIP3   OH217886   5.760   0.263   6.514
 5982TIP3    H117887   5.803   0.340   6.478
 5982TIP3    H217888   5.759   0.200   6.443
 5983TIP3   OH217889   3.740   4.710   5.055
 5983TIP3    H117890   3.786   4.626   5.043
 5983TIP3    H217891   3.696   4.726   4.972
 5984TIP3   OH217892   8.239   4.757   4.093
 5984TIP3    H117893   8.284   4.711   4.163
 5984TIP3    H217894   8.151   4.774   4.128
 5985TIP3   OH217895   5.303   4.413   6.495
 5985TIP3    H117896   5.227   4.373   6.536
 5985TIP3    H217897   5.267   4.461   6.420
 5986TIP3   OH217898   2.926   6.507   2.799
 5986TIP3    H117899   2.849   6.536   2.749
 5986TIP3    H217900   2.996   6.566   2.771
 5987TIP3   OH217901   7.117   7.169   2.515
 5987TIP3    H117902   7.148   7.079   2.513
 5987TIP3    H217903   7.026   7.163   2.542
 5988TIP3   OH217904   8.200   2.389   4.906
 5988TIP3    H117905   8.147   2.382   4.985
 5988TIP3    H217906   8.279   2.436   4.934
 5989TIP3   OH217907   2.143   2.106   4.620
 5989TIP3    H117908   2.226   2.153   4.624
 5989TIP3    H217909   2.085   2.165   4.571
 5990TIP3   OH217910   3.627   0.996   3.663
 5990TIP3    H117911   3.625   0.921   3.605
 5990TIP3    H217912   3.711   0.991   3.707
 5991TIP3   OH217913   7.884   0.090   4.196
 5991TIP3    H117914   7.858   0.067   4.285
 5991TIP3    H217915   7.958   0.033   4.177
 5992TIP3   OH217916   8.027   2.711   5.846
 5992TIP3    H117917   7.965   2.707   5.919
 5992TIP3    H217918   7.975   2.689   5.769
 5993TIP3   OH217919   7.572   4.821   1.596
 5993TIP3    H117920   7.653   4.861   1.564
 5993TIP3    H217921   7.512   4.825   1.522
 5994TIP3   OH217922   6.232   0.037   3.387
 5994TIP3    H117923   6.247   0.069   3.476
 5994TIP3    H217924   6.262   0.109   3.331
 5995TIP3   OH217925   0.740   6.490   1.850
 5995TIP3    H117926   0.676   6.450   1.908
 5995TIP3    H217927   0.785   6.416   1.809
 5996TIP3   OH217928   4.343   7.314   3.968
 5996TIP3    H117929   4.249   7.303   3.959
 5996TIP3    H217930   4.377   7.305   3.880
 5997TIP3   OH217931   0.048   7.427   6.537
 5997TIP3    H117932   0.003   7.344   6.552
 5997TIP3    H217933   0.140   7.408   6.554
 5998TIP3   OH217934   2.725   2.181   3.299
 5998TIP3    H117935   2.631   2.166   3.286
 5998TIP3    H217936   2.759   2.200   3.211
 5999TIP3   OH217937   6.996   0.109   2.276
 5999TIP3    H117938   7.056   0.168   2.321
 5999TIP3    H217939   7.036   0.095   2.191
 6000TIP3   OH217940   7.981   4.280   4.343
 6000TIP3    H117941   8.038   4.263   4.418
 6000TIP3    H217942   7.930   4.357   4.368
 6001TIP3   OH217943   3.373   7.155   3.139
 6001TIP3    H117944   3.335   7.241   3.119
 6001TIP3    H217945   3.346   7.099   3.066
 6002TIP3   OH217946   3.692   1.951   3.257
 6002TIP3    H117947   3.622   1.944   3.321
 6002TIP3    H217948   3.652   1.992   3.180
 6003TIP3   OH217949   3.171   6.970   3.337
 6003TIP3    H117950   3.217   6.941   3.416
 6003TIP3    H217951   3.123   7.048   3.365
 6004TIP3   OH217952   8.175   5.712   0.708
 6004TIP3    H117953   8.180   5.618   0.727
 6004TIP3    H217954   8.254   5.731   0.658
 6005TIP3   OH217955   0.175   3.636   1.779
 6005TIP3    H117956   0.238   3.691   1.732
 6005TIP3    H217957   0.207   3.547   1.768
 6006TIP3   OH217958   4.943   4.984   2.128
 6006TIP3    H117959   4.902   4.897   2.126
 6006TIP3    H217960   4.983   4.989   2.214
 6007TIP3   OH217961   4.953   0.181   0.728
 6007TIP3    H117962   4.915   0.098   0.756
 6007TIP3    H217963   4.929   0.188   0.635
 6008TIP3   OH217964   5.896   3.716   0.942
 6008TIP3    H117965   5.830   3.711   0.874
 6008TIP3    H217966   5.851   3.690   1.022
 6009TIP3   OH217967   2.897   4.569   1.328
 6009TIP3    H117968   2.895   4.644   1.269
 6009TIP3    H217969   2.947   4.502   1.280
 6010TIP3   OH217970   6.394   6.850   1.975
 6010TIP3    H117971   6.340   6.780   1.939
 6010TIP3    H217972   6.474   6.849   1.922
 6011TIP3   OH217973   4.658   5.151   2.497
 6011TIP3    H117974   4.641   5.245   2.488
 6011TIP3    H217975   4.664   5.138   2.592
 6012TIP3   OH217976   4.966   1.533   0.178
 6012TIP3    H117977   4.874   1.543   0.153
 6012TIP3    H217978   4.998   1.459   0.125
 6013TIP3   OH217979   1.503   0.724   2.653
 6013TIP3    H117980   1.428   0.762   2.700
 6013TIP3    H217981   1.463   0.670   2.585
 6014TIP3   OH217982   6.866   1.177   1.677
 6014TIP3    H117983   6.893   1.269   1.683
 6014TIP3    H217984   6.771   1.180   1.688
 6015TIP3   OH217985   1.464   1.989   3.644
 6015TIP3    H117986   1.400   2.027   3.705
 6015TIP3    H217987   1.527   1.944   3.700
 6016TIP3   OH217988   7.503   0.710   5.222
 6016TIP3    H117989   7.434   0.776   5.212
 6016TIP3    H217990   7.566   0.751   5.280
 6017TIP3   OH217991   5.509   2.073   1.556
 6017TIP3    H117992   5.598   2.071   1.521
 6017TIP3    H217993   5.455   2.033   1.488
 6018TIP3   OH217994   2.354   3.105   0.250
 6018TIP3    H117995   2.301   3.153   0.313
 6018TIP3    H217996   2.405   3.172   0.205
 6019TIP3   OH217997   4.937   3.267   3.988
 6019TIP3    H117998   4.956   3.298   4.077
 6019TIP3    H217999   4.932   3.171   3.998
 6020TIP3   OH218000   1.311   5.015   2.058
 6020TIP3    H118001   1.346   5.096   2.022
 6020TIP3    H218002   1.329   5.020   2.152
 6021TIP3   OH218003   6.678   4.359  -0.039
 6021TIP3    H118004   6.728   4.376   0.041
 6021TIP3    H218005   6.666   4.445  -0.080
 6022TIP3   OH218006   7.036   5.830   2.685
 6022TIP3    H118007   7.113   5.856   2.634
 6022TIP3    H218008   6.968   5.893   2.660
 6023TIP3   OH218009   1.499   4.643   1.353
 6023TIP3    H118010   1.581   4.612   1.390
 6023TIP3    H218011   1.477   4.721   1.404
 6024TIP3   OH218012   7.497   3.202   6.585
 6024TIP3    H118013   7.468   3.292   6.596
 6024TIP3    H218014   7.582   3.208   6.543
 6025TIP3   OH218015   0.356   6.296   4.871
 6025TIP3    H118016   0.272   6.318   4.831
 6025TIP3    H218017   0.420   6.319   4.803
 6026TIP3   OH218018   4.012   4.422   0.641
 6026TIP3    H118019   4.082   4.357   0.643
 6026TIP3    H218020   3.956   4.399   0.715
 6027TIP3   OH218021   0.197   2.525   1.260
 6027TIP3    H118022   0.257   2.599   1.259
 6027TIP3    H218023   0.111   2.564   1.278
 6028TIP3   OH218024   1.620   7.546   0.716
 6028TIP3    H118025   1.613   7.516   0.626
 6028TIP3    H218026   1.530   7.544   0.749
 6029TIP3   OH218027   6.805   3.462   3.801
 6029TIP3    H118028   6.799   3.386   3.860
 6029TIP3    H218029   6.894   3.494   3.813
 6030TIP3   OH218030   1.834   0.841   0.807
 6030TIP3    H118031   1.762   0.894   0.842
 6030TIP3    H218032   1.882   0.812   0.885
 6031TIP3   OH218033   2.911   6.528   5.032
 6031TIP3    H118034   2.947   6.550   4.946
 6031TIP3    H218035   2.986   6.536   5.092
 6032TIP3   OH218036   7.153   0.776   3.317
 6032TIP3    H118037   7.158   0.706   3.383
 6032TIP3    H218038   7.061   0.776   3.291
 6033TIP3   OH218039   7.441   7.186   2.875
 6033TIP3    H118040   7.404   7.269   2.845
 6033TIP3    H218041   7.437   7.129   2.798
 6034TIP3   OH218042   0.731   2.807   0.181
 6034TIP3    H118043   0.793   2.855   0.126
 6034TIP3    H218044   0.761   2.716   0.179
 6035TIP3   OH218045   7.015   4.383   0.936
 6035TIP3    H118046   6.998   4.351   0.848
 6035TIP3    H218047   7.041   4.475   0.924
 6036TIP3   OH218048   6.781   5.273   4.394
 6036TIP3    H118049   6.722   5.267   4.469
 6036TIP3    H218050   6.743   5.213   4.329
 6037TIP3   OH218051   1.415   4.118   2.790
 6037TIP3    H118052   1.412   4.152   2.700
 6037TIP3    H218053   1.469   4.182   2.837
 6038TIP3   OH218054   6.000   2.879   1.928
 6038TIP3    H118055   5.996   2.954   1.869
 6038TIP3    H218056   5.910   2.847   1.932
 6039TIP3   OH218057   2.384   7.876   1.029
 6039TIP3    H118058   2.429   7.955   1.060
 6039TIP3    H218059   2.421   7.859   0.943
 6040TIP3   OH218060   8.279   0.826   0.990
 6040TIP3    H118061   8.189   0.793   0.989
 6040TIP3    H218062   8.269   0.920   1.009
 6041TIP3   OH218063   6.831   1.009   2.025
 6041TIP3    H118064   6.907   0.994   1.969
 6041TIP3    H218065   6.844   0.950   2.099
 6042TIP3   OH218066   1.720   6.998   0.313
 6042TIP3    H118067   1.783   6.987   0.384
 6042TIP3    H218068   1.763   6.960   0.237
 6043TIP3   OH218069   1.581   1.342   4.741
 6043TIP3    H118070   1.509   1.367   4.683
 6043TIP3    H218071   1.589   1.415   4.802
 6044TIP3   OH218072   7.159   1.983   6.766
 6044TIP3    H118073   7.193   1.922   6.831
 6044TIP3    H218074   7.221   1.976   6.693
 6045TIP3   OH218075   2.271   7.221   4.612
 6045TIP3    H118076   2.224   7.300   4.636
 6045TIP3    H218077   2.362   7.238   4.636
 6046TIP3   OH218078   3.635   1.245   5.566
 6046TIP3    H118079   3.587   1.326   5.586
 6046TIP3    H218080   3.596   1.213   5.485
 6047TIP3   OH218081   6.234   1.495   2.570
 6047TIP3    H118082   6.157   1.468   2.621
 6047TIP3    H218083   6.237   1.433   2.497
 6048TIP3   OH218084   0.140   1.335   5.622
 6048TIP3    H118085   0.145   1.307   5.530
 6048TIP3    H218086   0.226   1.315   5.658
 6049TIP3   OH218087   2.431   0.337   4.608
 6049TIP3    H118088   2.367   0.386   4.555
 6049TIP3    H218089   2.443   0.391   4.686
 6050TIP3   OH218090   7.794   7.858   2.748
 6050TIP3    H118091   7.832   7.809   2.821
 6050TIP3    H218092   7.713   7.811   2.727
 6051TIP3   OH218093   6.951   6.675   4.292
 6051TIP3    H118094   6.987   6.716   4.214
 6051TIP3    H218095   6.937   6.748   4.353
 6052TIP3   OH218096   2.624   3.034   6.266
 6052TIP3    H118097   2.544   3.030   6.212
 6052TIP3    H218098   2.602   3.095   6.336
 6053TIP3   OH218099   7.635   2.652   6.643
 6053TIP3    H118100   7.641   2.731   6.590
 6053TIP3    H218101   7.575   2.596   6.595
 6054TIP3   OH218102   1.129   0.247   3.548
 6054TIP3    H118103   1.166   0.335   3.545
 6054TIP3    H218104   1.136   0.215   3.458
 6055TIP3   OH218105   6.425   5.508   1.840
 6055TIP3    H118106   6.476   5.516   1.760
 6055TIP3    H218107   6.346   5.461   1.814
 6056TIP3   OH218108   0.324   0.038   2.018
 6056TIP3    H118109   0.320   0.071   2.108
 6056TIP3    H218110   0.274   0.102   1.967
 6057TIP3   OH218111   3.994   6.024   0.118
 6057TIP3    H118112   4.004   6.103   0.172
 6057TIP3    H218113   4.068   5.969   0.142
 6058TIP3   OH218114   4.794   6.081   3.547
 6058TIP3    H118115   4.754   6.045   3.467
 6058TIP3    H218116   4.836   6.162   3.517
 6059TIP3   OH218117   2.937   0.774   2.318
 6059TIP3    H118118   3.004   0.711   2.292
 6059TIP3    H218119   2.863   0.719   2.346
 6060TIP3   OH218120   2.379   7.831   0.764
 6060TIP3    H118121   2.424   7.855   0.683
 6060TIP3    H218122   2.313   7.767   0.736
 6061TIP3   OH218123   6.991   3.653   1.179
 6061TIP3    H118124   6.963   3.608   1.099
 6061TIP3    H218125   6.915   3.647   1.237
 6062TIP3   OH218126   7.856   4.138   0.978
 6062TIP3    H118127   7.823   4.224   0.954
 6062TIP3    H218128   7.805   4.113   1.055
 6063TIP3   OH218129   6.112   1.088   6.738
 6063TIP3    H118130   6.137   1.075   6.647
 6063TIP3    H218131   6.057   1.013   6.759
 6064TIP3   OH218132   2.824   7.238   3.838
 6064TIP3    H118133   2.831   7.163   3.778
 6064TIP3    H218134   2.733   7.266   3.831
 6065TIP3   OH218135   7.374   6.333   4.138
 6065TIP3    H118136   7.439   6.263   4.124
 6065TIP3    H218137   7.419   6.397   4.193
 6066TIP3   OH218138   5.330   7.648   0.026
 6066TIP3    H118139   5.361   7.701   0.099
 6066TIP3    H218140   5.409   7.625  -0.022
 6067TIP3   OH218141   3.668   1.501   3.069
 6067TIP3    H118142   3.704   1.483   3.156
 6067TIP3    H218143   3.595   1.561   3.085
 6068TIP3   OH218144   6.341   3.160   4.489
 6068TIP3    H118145   6.280   3.153   4.415
 6068TIP3    H218146   6.330   3.250   4.520
 6069TIP3   OH218147   1.956   4.992   3.774
 6069TIP3    H118148   1.893   4.924   3.797
 6069TIP3    H218149   2.039   4.946   3.762
 6070TIP3   OH218150   3.747   3.328   4.059
 6070TIP3    H118151   3.800   3.258   4.097
 6070TIP3    H218152   3.811   3.382   4.011
 6071TIP3   OH218153   4.806   6.916   1.071
 6071TIP3    H118154   4.793   6.841   1.013
 6071TIP3    H218155   4.726   6.968   1.061
 6072TIP3   OH218156   6.082   5.469   4.510
 6072TIP3    H118157   6.155   5.522   4.478
 6072TIP3    H218158   6.057   5.509   4.593
 6073TIP3   OH218159   4.314   1.475   3.356
 6073TIP3    H118160   4.385   1.431   3.309
 6073TIP3    H218161   4.341   1.567   3.358
 6074TIP3   OH218162   6.488   2.570   2.578
 6074TIP3    H118163   6.540   2.517   2.639
 6074TIP3    H218164   6.551   2.604   2.515
 6075TIP3   OH218165   6.753   5.865   0.433
 6075TIP3    H118166   6.848   5.873   0.444
 6075TIP3    H218167   6.732   5.919   0.358
 6076TIP3   OH218168   7.451   2.505   4.767
 6076TIP3    H118169   7.484   2.538   4.683
 6076TIP3    H218170   7.493   2.561   4.832
 6077TIP3   OH218171   0.058   5.495   0.843
 6077TIP3    H118172   0.100   5.409   0.847
 6077TIP3    H218173   0.100   5.538   0.769
 6078TIP3   OH218174   2.748   2.818   6.375
 6078TIP3    H118175   2.759   2.743   6.317
 6078TIP3    H218176   2.694   2.879   6.326
 6079TIP3   OH218177   3.030   0.332   2.476
 6079TIP3    H118178   3.109   0.281   2.458
 6079TIP3    H218179   2.990   0.345   2.390
 6080TIP3   OH218180   0.065   7.501   6.282
 6080TIP3    H118181   0.017   7.425   6.249
 6080TIP3    H218182   0.059   7.493   6.378
 6081TIP3   OH218183   7.169   6.356   6.124
 6081TIP3    H118184   7.190   6.431   6.180
 6081TIP3    H218185   7.076   6.368   6.102
 6082TIP3   OH218186   0.545   4.320   1.919
 6082TIP3    H118187   0.520   4.375   1.994
 6082TIP3    H218188   0.499   4.237   1.934
 6083TIP3   OH218189   2.704   4.935   1.234
 6083TIP3    H118190   2.644   4.883   1.179
 6083TIP3    H218191   2.761   4.980   1.171
 6084TIP3   OH218192   7.960   6.634   4.037
 6084TIP3    H118193   8.044   6.677   4.020
 6084TIP3    H218194   7.898   6.706   4.051
 6085TIP3   OH218195   0.953   1.338   2.577
 6085TIP3    H118196   1.016   1.393   2.530
 6085TIP3    H218197   0.999   1.254   2.589
 6086TIP3   OH218198   2.358   2.696   6.359
 6086TIP3    H118199   2.284   2.652   6.400
 6086TIP3    H218200   2.347   2.788   6.380
 6087TIP3   OH218201   5.162   1.739   2.499
 6087TIP3    H118202   5.123   1.751   2.412
 6087TIP3    H218203   5.178   1.644   2.504
 6088TIP3   OH218204   5.117   7.164   5.010
 6088TIP3    H118205   5.107   7.166   5.105
 6088TIP3    H218206   5.112   7.256   4.983
 6089TIP3   OH218207   7.791   3.244   0.402
 6089TIP3    H118208   7.872   3.294   0.394
 6089TIP3    H218209   7.796   3.180   0.330
 6090TIP3   OH218210   8.135   6.446   6.738
 6090TIP3    H118211   8.048   6.480   6.720
 6090TIP3    H218212   8.158   6.396   6.659
 6091TIP3   OH218213   4.589   0.882   4.947
 6091TIP3    H118214   4.591   0.835   5.030
 6091TIP3    H218215   4.520   0.946   4.957
 6092TIP3   OH218216   2.090   7.285   0.879
 6092TIP3    H118217   2.025   7.223   0.845
 6092TIP3    H218218   2.060   7.305   0.967
 6093TIP3   OH218219   4.638   3.379   1.258
 6093TIP3    H118220   4.642   3.354   1.166
 6093TIP3    H218221   4.729   3.391   1.284
 6094TIP3   OH218222   0.646   7.843   3.326
 6094TIP3    H118223   0.662   7.866   3.234
 6094TIP3    H218224   0.702   7.768   3.342
 6095TIP3   OH218225   2.791   3.592   6.827
 6095TIP3    H118226   2.862   3.654   6.844
 6095TIP3    H218227   2.816   3.512   6.874
 6096TIP3   OH218228   7.446   2.627   2.571
 6096TIP3    H118229   7.453   2.592   2.482
 6096TIP3    H218230   7.464   2.721   2.560
 6097TIP3   OH218231   3.458   0.499   4.414
 6097TIP3    H118232   3.364   0.493   4.432
 6097TIP3    H218233   3.470   0.449   4.334
 6098TIP3   OH218234   5.884   0.645   3.645
 6098TIP3    H118235   5.839   0.667   3.564
 6098TIP3    H218236   5.816   0.649   3.712
 6099TIP3   OH218237   0.174   0.722   4.550
 6099TIP3    H118238   0.269   0.709   4.557
 6099TIP3    H218239   0.137   0.670   4.621
 6100TIP3   OH218240   5.340   1.711   2.805
 6100TIP3    H118241   5.410   1.675   2.750
 6100TIP3    H218242   5.270   1.734   2.745
 6101TIP3   OH218243   5.875   6.135   5.339
 6101TIP3    H118244   5.793   6.182   5.353
 6101TIP3    H218245   5.937   6.203   5.313
 6102TIP3   OH218246   7.910   4.368   3.567
 6102TIP3    H118247   7.934   4.401   3.653
 6102TIP3    H218248   7.994   4.362   3.519
 6103TIP3   OH218249   5.295   0.513   4.109
 6103TIP3    H118250   5.228   0.575   4.077
 6103TIP3    H218251   5.258   0.478   4.190
 6104TIP3   OH218252   8.317   6.184   3.539
 6104TIP3    H118253   8.240   6.235   3.565
 6104TIP3    H218254   8.390   6.227   3.582
 6105TIP3   OH218255   5.930   3.137   4.722
 6105TIP3    H118256   5.881   3.136   4.805
 6105TIP3    H218257   6.000   3.200   4.737
 6106TIP3   OH218258   4.821   0.749   6.556
 6106TIP3    H118259   4.795   0.761   6.465
 6106TIP3    H218260   4.739   0.734   6.603
 6107TIP3   OH218261   1.029   2.737   0.381
 6107TIP3    H118262   0.981   2.688   0.314
 6107TIP3    H218263   1.009   2.829   0.362
 6108TIP3   OH218264   5.687   2.649   5.795
 6108TIP3    H118265   5.625   2.615   5.859
 6108TIP3    H218266   5.714   2.734   5.832
 6109TIP3   OH218267   0.688   3.572   6.614
 6109TIP3    H118268   0.677   3.650   6.560
 6109TIP3    H218269   0.643   3.593   6.696
 6110TIP3   OH218270   2.414   4.719   5.564
 6110TIP3    H118271   2.393   4.812   5.567
 6110TIP3    H218272   2.483   4.707   5.629
 6111TIP3   OH218273   2.412   6.857   1.248
 6111TIP3    H118274   2.468   6.808   1.188
 6111TIP3    H218275   2.325   6.822   1.233
 6112TIP3   OH218276   5.350   2.813   3.259
 6112TIP3    H118277   5.275   2.756   3.277
 6112TIP3    H218278   5.318   2.901   3.275
 6113TIP3   OH218279   5.750   1.881   5.115
 6113TIP3    H118280   5.791   1.907   5.032
 6113TIP3    H218281   5.687   1.951   5.134
 6114TIP3   OH218282   3.446   2.051   6.507
 6114TIP3    H118283   3.477   1.964   6.532
 6114TIP3    H218284   3.358   2.057   6.544
 6115TIP3   OH218285   6.077   7.350   0.150
 6115TIP3    H118286   6.156   7.299   0.170
 6115TIP3    H218287   6.018   7.287   0.108
 6116TIP3   OH218288   5.162   2.212   2.670
 6116TIP3    H118289   5.192   2.212   2.761
 6116TIP3    H218290   5.242   2.199   2.619
 6117TIP3   OH218291   1.978   1.862   0.311
 6117TIP3    H118292   2.011   1.811   0.236
 6117TIP3    H218293   2.047   1.926   0.328
 6118TIP3   OH218294   1.228   3.185   3.781
 6118TIP3    H118295   1.153   3.152   3.831
 6118TIP3    H218296   1.293   3.208   3.848
 6119TIP3   OH218297   3.296   1.494   6.787
 6119TIP3    H118298   3.324   1.429   6.851
 6119TIP3    H218299   3.213   1.528   6.820
 6120TIP3   OH218300   5.337   6.139   0.683
 6120TIP3    H118301   5.340   6.234   0.695
 6120TIP3    H218302   5.367   6.103   0.767
 6121TIP3   OH218303   1.323   2.987   6.138
 6121TIP3    H118304   1.407   2.995   6.092
 6121TIP3    H218305   1.315   2.893   6.157
 6122TIP3   OH218306   0.371   1.913   3.691
 6122TIP3    H118307   0.307   1.846   3.669
 6122TIP3    H218308   0.372   1.972   3.616
 6123TIP3   OH218309   6.793   4.463   4.618
 6123TIP3    H118310   6.739   4.419   4.685
 6123TIP3    H218311   6.729   4.499   4.556
 6124TIP3   OH218312   5.349   7.059   2.367
 6124TIP3    H118313   5.316   7.121   2.301
 6124TIP3    H218314   5.383   7.114   2.437
 6125TIP3   OH218315   6.316   3.549   4.855
 6125TIP3    H118316   6.398   3.507   4.827
 6125TIP3    H218317   6.331   3.571   4.947
 6126TIP3   OH218318   0.257   2.799   3.303
 6126TIP3    H118319   0.216   2.762   3.225
 6126TIP3    H218320   0.335   2.843   3.270
 6127TIP3   OH218321   1.362   0.842   2.158
 6127TIP3    H118322   1.351   0.874   2.247
 6127TIP3    H218323   1.414   0.909   2.114
 6128TIP3   OH218324   6.499   4.260   1.481
 6128TIP3    H118325   6.564   4.328   1.467
 6128TIP3    H218326   6.489   4.256   1.576
 6129TIP3   OH218327   1.029   6.251   0.260
 6129TIP3    H118328   1.026   6.175   0.202
 6129TIP3    H218329   1.039   6.326   0.201
 6130TIP3   OH218330   1.720   5.846   0.662
 6130TIP3    H118331   1.809   5.820   0.638
 6130TIP3    H218332   1.710   5.934   0.626
 6131TIP3   OH218333   7.811   6.702   1.929
 6131TIP3    H118334   7.756   6.777   1.910
 6131TIP3    H218335   7.751   6.628   1.930
 6132TIP3   OH218336   5.999   2.417   6.197
 6132TIP3    H118337   6.015   2.421   6.103
 6132TIP3    H218338   6.086   2.412   6.237
 6133TIP3   OH218339   1.280   6.296   2.684
 6133TIP3    H118340   1.189   6.302   2.713
 6133TIP3    H218341   1.315   6.384   2.696
 6134TIP3   OH218342   5.712   3.707   0.618
 6134TIP3    H118343   5.716   3.799   0.593
 6134TIP3    H218344   5.660   3.706   0.698
 6135TIP3   OH218345   5.041   7.024   2.194
 6135TIP3    H118346   5.094   7.100   2.214
 6135TIP3    H218347   5.099   6.949   2.210
 6136TIP3   OH218348   4.804   4.499   4.795
 6136TIP3    H118349   4.728   4.520   4.741
 6136TIP3    H218350   4.768   4.457   4.873
 6137TIP3   OH218351   4.349   6.374   1.051
 6137TIP3    H118352   4.372   6.351   1.141
 6137TIP3    H218353   4.393   6.309   0.997
 6138TIP3   OH218354   3.526   4.115   1.557
 6138TIP3    H118355   3.466   4.063   1.504
 6138TIP3    H218356   3.524   4.203   1.518
 6139TIP3   OH218357   3.447   6.391   4.718
 6139TIP3    H118358   3.434   6.314   4.663
 6139TIP3    H218359   3.374   6.389   4.780
 6140TIP3   OH218360   3.842   0.413   0.755
 6140TIP3    H118361   3.768   0.417   0.816
 6140TIP3    H218362   3.918   0.438   0.808
 6141TIP3   OH218363   5.857   1.855   4.648
 6141TIP3    H118364   5.800   1.786   4.682
 6141TIP3    H218365   5.879   1.826   4.559
 6142TIP3   OH218366   1.643   0.189   2.932
 6142TIP3    H118367   1.555   0.170   2.965
 6142TIP3    H218368   1.646   0.284   2.924
 6143TIP3   OH218369   5.281   5.377   0.282
 6143TIP3    H118370   5.197   5.398   0.323
 6143TIP3    H218371   5.326   5.462   0.274
 6144TIP3   OH218372   0.904   4.321   0.681
 6144TIP3    H118373   0.993   4.291   0.701
 6144TIP3    H218374   0.904   4.414   0.703
 6145TIP3   OH218375   7.743   6.466   4.012
 6145TIP3    H118376   7.826   6.503   3.981
 6145TIP3    H218377   7.682   6.540   4.008
 6146TIP3   OH218378   6.344   4.959   4.180
 6146TIP3    H118379   6.359   5.030   4.117
 6146TIP3    H218380   6.278   4.903   4.137
 6147TIP3   OH218381   8.291   2.692   6.448
 6147TIP3    H118382   8.291   2.605   6.410
 6147TIP3    H218383   8.201   2.705   6.479
 6148TIP3   OH218384   0.382   1.433   6.773
 6148TIP3    H118385   0.447   1.496   6.804
 6148TIP3    H218386   0.399   1.426   6.679
 6149TIP3   OH218387   0.671   5.205   0.722
 6149TIP3    H118388   0.578   5.217   0.707
 6149TIP3    H218389   0.707   5.180   0.637
 6150TIP3   OH218390   2.945   4.990   6.055
 6150TIP3    H118391   2.875   5.051   6.029
 6150TIP3    H218392   2.913   4.950   6.136
 6151TIP3   OH218393   5.002   2.997   3.167
 6151TIP3    H118394   5.097   3.002   3.165
 6151TIP3    H218395   4.973   3.088   3.164
 6152TIP3   OH218396   5.937   0.304   3.857
 6152TIP3    H118397   5.990   0.293   3.778
 6152TIP3    H218398   5.904   0.216   3.876
 6153TIP3   OH218399   2.487   6.536   5.005
 6153TIP3    H118400   2.409   6.530   4.949
 6153TIP3    H218401   2.523   6.622   4.987
 6154TIP3   OH218402   1.435   1.153   2.727
 6154TIP3    H118403   1.483   1.216   2.781
 6154TIP3    H218404   1.433   1.073   2.779
 6155TIP3   OH218405   0.611   6.772   3.992
 6155TIP3    H118406   0.651   6.686   4.004
 6155TIP3    H218407   0.577   6.770   3.902
 6156TIP3   OH218408   7.019   5.721   6.244
 6156TIP3    H118409   7.097   5.687   6.200
 6156TIP3    H218410   6.947   5.668   6.210
 6157TIP3   OH218411   5.730   3.633   6.731
 6157TIP3    H118412   5.720   3.570   6.802
 6157TIP3    H218413   5.642   3.665   6.713
 6158TIP3   OH218414   3.380   2.283   1.933
 6158TIP3    H118415   3.361   2.217   1.866
 6158TIP3    H218416   3.390   2.364   1.884
 6159TIP3   OH218417   2.947   5.219   2.663
 6159TIP3    H118418   2.956   5.211   2.758
 6159TIP3    H218419   2.926   5.131   2.633
 6160TIP3   OH218420   0.234   5.829   6.233
 6160TIP3    H118421   0.224   5.734   6.240
 6160TIP3    H218422   0.288   5.853   6.309
 6161TIP3   OH218423   4.564   1.399   4.978
 6161TIP3    H118424   4.534   1.353   5.057
 6161TIP3    H218425   4.483   1.430   4.936
 6162TIP3   OH218426   4.409   7.620   4.946
 6162TIP3    H118427   4.459   7.548   4.908
 6162TIP3    H218428   4.402   7.684   4.875
 6163TIP3   OH218429   4.081   7.308   0.963
 6163TIP3    H118430   4.126   7.238   1.011
 6163TIP3    H218431   4.066   7.377   1.028
 6164TIP3   OH218432   0.291   4.592   1.017
 6164TIP3    H118433   0.310   4.499   1.023
 6164TIP3    H218434   0.201   4.597   0.986
 6165TIP3   OH218435   3.247   2.864   2.457
 6165TIP3    H118436   3.314   2.892   2.395
 6165TIP3    H218437   3.174   2.925   2.443
 6166TIP3   OH218438   7.134   2.087   4.097
 6166TIP3    H118439   7.192   2.140   4.152
 6166TIP3    H218440   7.135   2.000   4.137
 6167TIP3   OH218441   0.448   6.985   4.466
 6167TIP3    H118442   0.473   7.007   4.376
 6167TIP3    H218443   0.474   6.893   4.477
 6168TIP3   OH218444   7.244   6.004   5.669
 6168TIP3    H118445   7.272   5.961   5.750
 6168TIP3    H218446   7.171   6.061   5.697
 6169TIP3   OH218447   4.604   5.233   6.633
 6169TIP3    H118448   4.656   5.172   6.685
 6169TIP3    H218449   4.533   5.181   6.598
 6170TIP3   OH218450   0.878   3.059   0.786
 6170TIP3    H118451   0.820   2.988   0.812
 6170TIP3    H218452   0.849   3.135   0.838
 6171TIP3   OH218453   4.086   3.284   4.214
 6171TIP3    H118454   4.157   3.297   4.151
 6171TIP3    H218455   4.024   3.227   4.169
 6172TIP3   OH218456   1.848   4.480   1.746
 6172TIP3    H118457   1.898   4.513   1.671
 6172TIP3    H218458   1.908   4.418   1.788
 6173TIP3   OH218459   4.582   0.323   4.467
 6173TIP3    H118460   4.633   0.390   4.420
 6173TIP3    H218461   4.563   0.257   4.400
 6174TIP3   OH218462   5.399   7.650   2.734
 6174TIP3    H118463   5.352   7.721   2.690
 6174TIP3    H218464   5.428   7.687   2.816
 6175TIP3   OH218465   5.170   3.386   4.992
 6175TIP3    H118466   5.127   3.433   4.920
 6175TIP3    H218467   5.100   3.374   5.057
 6176TIP3   OH218468   4.312   5.354   2.269
 6176TIP3    H118469   4.307   5.284   2.334
 6176TIP3    H218470   4.221   5.382   2.257
 6177TIP3   OH218471   6.060   2.237   5.715
 6177TIP3    H118472   6.014   2.320   5.725
 6177TIP3    H218473   6.153   2.261   5.713
 6178TIP3   OH218474   2.866   1.399   5.750
 6178TIP3    H118475   2.860   1.470   5.813
 6178TIP3    H218476   2.958   1.395   5.727
 6179TIP3   OH218477   6.150   0.256   0.904
 6179TIP3    H118478   6.218   0.253   0.971
 6179TIP3    H218479   6.151   0.347   0.874
 6180TIP3   OH218480   1.085   6.139   1.845
 6180TIP3    H118481   1.119   6.228   1.851
 6180TIP3    H218482   1.108   6.098   1.929
 6181TIP3   OH218483   7.799   5.422   5.725
 6181TIP3    H118484   7.782   5.411   5.632
 6181TIP3    H218485   7.758   5.347   5.767
 6182TIP3   OH218486   6.916   0.200   4.012
 6182TIP3    H118487   6.977   0.179   3.941
 6182TIP3    H218488   6.936   0.290   4.035
 6183TIP3   OH218489   5.199   2.436   5.781
 6183TIP3    H118490   5.123   2.479   5.818
 6183TIP3    H218491   5.272   2.495   5.801
 6184TIP3   OH218492   0.602   5.412   1.775
 6184TIP3    H118493   0.698   5.420   1.776
 6184TIP3    H218494   0.578   5.416   1.683
 6185TIP3   OH218495   6.461   0.698   6.492
 6185TIP3    H118496   6.469   0.698   6.587
 6185TIP3    H218497   6.395   0.630   6.474
 6186TIP3   OH218498   4.178   5.130   2.390
 6186TIP3    H118499   4.128   5.108   2.468
 6186TIP3    H218500   4.131   5.086   2.319
 6187TIP3   OH218501   2.516   0.124   6.473
 6187TIP3    H118502   2.602   0.155   6.444
 6187TIP3    H218503   2.473   0.203   6.506
 6188TIP3   OH218504   7.773   1.044   0.372
 6188TIP3    H118505   7.705   0.980   0.350
 6188TIP3    H218506   7.725   1.116   0.415
 6189TIP3   OH218507   0.223   5.170   6.313
 6189TIP3    H118508   0.179   5.123   6.243
 6189TIP3    H218509   0.185   5.134   6.393
 6190TIP3   OH218510   1.069   3.755   5.353
 6190TIP3    H118511   1.011   3.720   5.421
 6190TIP3    H218512   1.138   3.690   5.344
 6191TIP3   OH218513   2.618   6.092   0.142
 6191TIP3    H118514   2.603   6.001   0.167
 6191TIP3    H218515   2.684   6.089   0.073
 6192TIP3   OH218516   6.915   5.826   1.752
 6192TIP3    H118517   6.924   5.795   1.661
 6192TIP3    H218518   6.821   5.821   1.769
 6193TIP3   OH218519   1.227   1.345   1.881
 6193TIP3    H118520   1.244   1.251   1.885
 6193TIP3    H218521   1.132   1.352   1.888
 6194TIP3   OH218522   0.566   0.972   4.627
 6194TIP3    H118523   0.565   0.893   4.680
 6194TIP3    H218524   0.474   0.989   4.607
 6195TIP3   OH218525   4.119   1.501   2.260
 6195TIP3    H118526   4.130   1.515   2.354
 6195TIP3    H218527   4.153   1.581   2.220
 6196TIP3   OH218528   0.558   2.806   4.397
 6196TIP3    H118529   0.570   2.833   4.488
 6196TIP3    H218530   0.468   2.830   4.377
 6197TIP3   OH218531   0.530   5.011   6.483
 6197TIP3    H118532   0.529   5.042   6.393
 6197TIP3    H218533   0.564   5.085   6.534
 6198TIP3   OH218534   1.288   4.795   6.060
 6198TIP3    H118535   1.277   4.870   6.001
 6198TIP3    H218536   1.268   4.830   6.147
 6199TIP3   OH218537   0.584   7.038   6.179
 6199TIP3    H118538   0.547   6.955   6.210
 6199TIP3    H218539   0.678   7.022   6.175
 6200TIP3   OH218540   0.679   3.824   4.994
 6200TIP3    H118541   0.614   3.886   5.026
 6200TIP3    H218542   0.759   3.847   5.042
 6201TIP3   OH218543   5.091   6.823   0.107
 6201TIP3    H118544   5.015   6.764   0.112
 6201TIP3    H218545   5.060   6.905   0.144
 6202TIP3   OH218546   2.230   1.190   4.433
 6202TIP3    H118547   2.278   1.200   4.351
 6202TIP3    H218548   2.280   1.126   4.483
 6203TIP3   OH218549   1.170   0.306   1.494
 6203TIP3    H118550   1.238   0.301   1.561
 6203TIP3    H218551   1.166   0.219   1.456
 6204TIP3   OH218552   6.419   4.274   2.281
 6204TIP3    H118553   6.489   4.258   2.345
 6204TIP3    H218554   6.442   4.358   2.241
 6205TIP3   OH218555   0.020   4.138   3.458
 6205TIP3    H118556   0.105   4.109   3.490
 6205TIP3    H218557  -0.042   4.076   3.495
 6206TIP3   OH218558   3.767   6.215   1.415
 6206TIP3    H118559   3.725   6.244   1.334
 6206TIP3    H218560   3.749   6.286   1.477
 6207TIP3   OH218561   8.029   7.848   3.567
 6207TIP3    H118562   7.977   7.909   3.514
 6207TIP3    H218563   7.995   7.859   3.656
 6208TIP3   OH218564   7.126   1.541   4.646
 6208TIP3    H118565   7.064   1.591   4.593
 6208TIP3    H218566   7.162   1.604   4.708
 6209TIP3   OH218567   2.446   2.551   1.151
 6209TIP3    H118568   2.421   2.563   1.243
 6209TIP3    H218569   2.541   2.562   1.150
 6210TIP3   OH218570   5.660   6.023   0.700
 6210TIP3    H118571   5.674   6.025   0.795
 6210TIP3    H218572   5.743   6.053   0.664
 6211TIP3   OH218573   0.204   3.615   2.555
 6211TIP3    H118574   0.229   3.523   2.563
 6211TIP3    H218575   0.276   3.655   2.507
 6212TIP3   OH218576   5.758   1.815   1.547
 6212TIP3    H118577   5.760   1.844   1.638
 6212TIP3    H218578   5.712   1.731   1.549
 6213TIP3   OH218579   2.766   1.224   6.696
 6213TIP3    H118580   2.842   1.210   6.640
 6213TIP3    H218581   2.774   1.314   6.726
 6214TIP3   OH218582   3.404   0.323   6.549
 6214TIP3    H118583   3.452   0.253   6.505
 6214TIP3    H218584   3.439   0.323   6.639
 6215TIP3   OH218585   3.566   1.150   3.093
 6215TIP3    H118586   3.588   1.059   3.076
 6215TIP3    H218587   3.506   1.174   3.023
 6216TIP3   OH218588   3.941   4.005   0.720
 6216TIP3    H118589   4.002   4.045   0.658
 6216TIP3    H218590   3.858   4.049   0.704
 6217TIP3   OH218591   1.331   1.097   1.501
 6217TIP3    H118592   1.330   1.011   1.460
 6217TIP3    H218593   1.240   1.112   1.529
 6218TIP3   OH218594   5.470   6.220   3.312
 6218TIP3    H118595   5.544   6.184   3.361
 6218TIP3    H218596   5.502   6.226   3.222
 6219TIP3   OH218597   4.060   5.851   5.225
 6219TIP3    H118598   4.080   5.898   5.306
 6219TIP3    H218599   3.984   5.897   5.189
 6220TIP3   OH218600   1.697   5.700   3.213
 6220TIP3    H118601   1.641   5.768   3.249
 6220TIP3    H218602   1.764   5.686   3.281
 6221TIP3   OH218603   3.569   1.928   4.881
 6221TIP3    H118604   3.554   2.022   4.871
 6221TIP3    H218605   3.490   1.895   4.923
 6222TIP3   OH218606   0.137   0.710   3.981
 6222TIP3    H118607   0.215   0.691   3.928
 6222TIP3    H218608   0.129   0.634   4.039
 6223TIP3   OH218609   4.603   0.826   4.346
 6223TIP3    H118610   4.626   0.910   4.309
 6223TIP3    H218611   4.681   0.797   4.393
 6224TIP3   OH218612   2.951   4.447   3.153
 6224TIP3    H118613   3.040   4.424   3.127
 6224TIP3    H218614   2.933   4.391   3.229
 6225TIP3   OH218615   0.881   6.776   0.099
 6225TIP3    H118616   0.852   6.737   0.182
 6225TIP3    H218617   0.813   6.840   0.079
 6226TIP3   OH218618   6.210   6.770   3.868
 6226TIP3    H118619   6.246   6.781   3.781
 6226TIP3    H218620   6.235   6.682   3.894
 6227TIP3   OH218621   0.350   0.348   3.291
 6227TIP3    H118622   0.437   0.338   3.252
 6227TIP3    H218623   0.292   0.361   3.216
 6228TIP3   OH218624   7.859   0.838   2.005
 6228TIP3    H118625   7.870   0.753   1.962
 6228TIP3    H218626   7.884   0.822   2.096
 6229TIP3   OH218627   5.499   5.756   4.160
 6229TIP3    H118628   5.547   5.828   4.202
 6229TIP3    H218629   5.414   5.757   4.204
 6230TIP3   OH218630   4.155   7.276   2.564
 6230TIP3    H118631   4.113   7.361   2.558
 6230TIP3    H218632   4.203   7.266   2.482
 6231TIP3   OH218633   5.990   1.802   1.125
 6231TIP3    H118634   6.058   1.737   1.147
 6231TIP3    H218635   5.979   1.853   1.205
 6232TIP3   OH218636   7.837   0.331   3.393
 6232TIP3    H118637   7.811   0.359   3.481
 6232TIP3    H218638   7.796   0.393   3.334
 6233TIP3   OH218639   1.570   5.212   6.342
 6233TIP3    H118640   1.506   5.149   6.308
 6233TIP3    H218641   1.645   5.204   6.285
 6234TIP3   OH218642   2.877   0.053   0.925
 6234TIP3    H118643   2.812   0.083   0.989
 6234TIP3    H218644   2.924  -0.018   0.970
 6235TIP3   OH218645   5.132   6.080   3.573
 6235TIP3    H118646   5.103   6.169   3.551
 6235TIP3    H218647   5.202   6.062   3.510
 6236TIP3   OH218648   7.431   4.043   0.940
 6236TIP3    H118649   7.404   4.015   0.853
 6236TIP3    H218650   7.351   4.075   0.981
 6237TIP3   OH218651   4.223   3.325   0.319
 6237TIP3    H118652   4.230   3.368   0.234
 6237TIP3    H218653   4.179   3.242   0.300
 6238TIP3   OH218654   2.019   4.604   1.527
 6238TIP3    H118655   2.057   4.692   1.530
 6238TIP3    H218656   2.053   4.565   1.447
 6239TIP3   OH218657   0.078   4.567   1.924
 6239TIP3    H118658  -0.005   4.527   1.949
 6239TIP3    H218659   0.119   4.503   1.866
 6240TIP3   OH218660   8.391   1.287   2.445
 6240TIP3    H118661   8.311   1.315   2.490
 6240TIP3    H218662   8.452   1.264   2.516
 6241TIP3   OH218663   6.252   2.445   6.293
 6241TIP3    H118664   6.319   2.377   6.288
 6241TIP3    H218665   6.297   2.525   6.263
 6242TIP3   OH218666   4.903   4.899   6.688
 6242TIP3    H118667   4.973   4.951   6.649
 6242TIP3    H218668   4.947   4.845   6.754
 6243TIP3   OH218669   5.546   6.606   2.815
 6243TIP3    H118670   5.541   6.516   2.783
 6243TIP3    H218671   5.468   6.649   2.781
 6244TIP3   OH218672   5.503   4.545   4.063
 6244TIP3    H118673   5.448   4.534   3.985
 6244TIP3    H218674   5.570   4.608   4.037
 6245TIP3   OH218675   1.424   3.528   3.269
 6245TIP3    H118676   1.365   3.461   3.303
 6245TIP3    H218677   1.449   3.496   3.182
 6246TIP3   OH218678   5.506   3.651   2.571
 6246TIP3    H118679   5.459   3.588   2.626
 6246TIP3    H218680   5.437   3.701   2.528
 6247TIP3   OH218681   1.141   5.137   6.209
 6247TIP3    H118682   1.218   5.114   6.261
 6247TIP3    H218683   1.173   5.198   6.143
 6248TIP3   OH218684   4.574   7.874   2.566
 6248TIP3    H118685   4.552   7.967   2.564
 6248TIP3    H218686   4.622   7.862   2.648
 6249TIP3   OH218687   2.937   3.777   5.693
 6249TIP3    H118688   2.889   3.828   5.627
 6249TIP3    H218689   2.956   3.693   5.649
 6250TIP3   OH218690   0.447   7.626   6.785
 6250TIP3    H118691   0.401   7.549   6.752
 6250TIP3    H218692   0.459   7.609   6.879
 6251TIP3   OH218693   5.728   6.995   6.734
 6251TIP3    H118694   5.688   6.924   6.783
 6251TIP3    H218695   5.687   7.074   6.768
 6252TIP3   OH218696   4.007   0.721   4.150
 6252TIP3    H118697   4.099   0.742   4.131
 6252TIP3    H218698   3.986   0.651   4.088
 6253TIP3   OH218699   6.023   7.773   6.332
 6253TIP3    H118700   5.958   7.737   6.272
 6253TIP3    H218701   6.105   7.728   6.309
 6254TIP3   OH218702   0.787   6.724   3.464
 6254TIP3    H118703   0.786   6.648   3.407
 6254TIP3    H218704   0.755   6.796   3.409
 6255TIP3   OH218705   7.004   1.319   5.917
 6255TIP3    H118706   7.076   1.340   5.977
 6255TIP3    H218707   6.959   1.402   5.903
 6256TIP3   OH218708   2.124   6.402   3.457
 6256TIP3    H118709   2.193   6.429   3.517
 6256TIP3    H218710   2.069   6.342   3.508
 6257TIP3   OH218711   1.880   6.067   1.822
 6257TIP3    H118712   1.889   6.017   1.903
 6257TIP3    H218713   1.968   6.066   1.783
 6258TIP3   OH218714   5.602   7.414   2.747
 6258TIP3    H118715   5.528   7.463   2.783
 6258TIP3    H218716   5.666   7.411   2.818
 6259TIP3   OH218717   7.681   3.445   1.704
 6259TIP3    H118718   7.745   3.492   1.758
 6259TIP3    H218719   7.646   3.512   1.645
 6260TIP3   OH218720   2.729   1.982   1.315
 6260TIP3    H118721   2.644   1.954   1.349
 6260TIP3    H218722   2.709   2.060   1.264
 6261TIP3   OH218723   4.928   4.402   3.940
 6261TIP3    H118724   4.892   4.402   3.852
 6261TIP3    H218725   4.900   4.485   3.978
 6262TIP3   OH218726   0.197   0.720   0.287
 6262TIP3    H118727   0.229   0.652   0.346
 6262TIP3    H218728   0.210   0.685   0.199
 6263TIP3   OH218729   5.562   2.991   5.258
 6263TIP3    H118730   5.654   2.972   5.277
 6263TIP3    H218731   5.518   2.983   5.343
 6264TIP3   OH218732   4.005   5.596   5.337
 6264TIP3    H118733   3.971   5.574   5.424
 6264TIP3    H218734   3.943   5.662   5.304
 6265TIP3   OH218735   0.682   2.278   5.824
 6265TIP3    H118736   0.639   2.337   5.887
 6265TIP3    H218737   0.653   2.191   5.849
 6266TIP3   OH218738   2.216   7.788   5.260
 6266TIP3    H118739   2.300   7.830   5.240
 6266TIP3    H218740   2.231   7.695   5.244
 6267TIP3   OH218741   2.925   4.389   5.335
 6267TIP3    H118742   2.857   4.394   5.268
 6267TIP3    H218743   3.006   4.411   5.289
 6268TIP3   OH218744   4.265   5.285   5.526
 6268TIP3    H118745   4.230   5.232   5.598
 6268TIP3    H218746   4.192   5.295   5.466
 6269TIP3   OH218747   4.390   4.623   0.732
 6269TIP3    H118748   4.296   4.632   0.745
 6269TIP3    H218749   4.429   4.679   0.799
 6270TIP3   OH218750   3.019   1.132   0.414
 6270TIP3    H118751   3.045   1.177   0.333
 6270TIP3    H218752   3.102   1.112   0.458
 6271TIP3   OH218753   6.996   5.241   3.566
 6271TIP3    H118754   7.015   5.151   3.595
 6271TIP3    H218755   7.076   5.270   3.522
 6272TIP3   OH218756   4.937   1.274   2.400
 6272TIP3    H118757   4.911   1.324   2.323
 6272TIP3    H218758   5.032   1.268   2.394
 6273TIP3   OH218759   5.771   6.292   5.054
 6273TIP3    H118760   5.860   6.257   5.051
 6273TIP3    H218761   5.749   6.294   5.147
 6274TIP3   OH218762   7.550   1.578   6.504
 6274TIP3    H118763   7.455   1.565   6.497
 6274TIP3    H218764   7.567   1.577   6.598
 6275TIP3   OH218765   4.949   5.895   1.044
 6275TIP3    H118766   4.964   5.876   0.952
 6275TIP3    H218767   5.023   5.949   1.070
 6276TIP3   OH218768   1.476   3.558   0.848
 6276TIP3    H118769   1.488   3.530   0.757
 6276TIP3    H218770   1.387   3.592   0.851
 6277TIP3   OH218771   7.121   5.281   5.174
 6277TIP3    H118772   7.078   5.314   5.253
 6277TIP3    H218773   7.210   5.260   5.201
 6278TIP3   OH218774   0.554   6.060   3.188
 6278TIP3    H118775   0.535   6.127   3.254
 6278TIP3    H218776   0.532   5.977   3.230
 6279TIP3   OH218777   8.062   2.511   6.174
 6279TIP3    H118778   7.971   2.488   6.154
 6279TIP3    H218779   8.091   2.560   6.097
 6280TIP3   OH218780   3.539   4.517   3.823
 6280TIP3    H118781   3.536   4.543   3.731
 6280TIP3    H218782   3.602   4.578   3.862
 6281TIP3   OH218783   6.807   4.278   2.127
 6281TIP3    H118784   6.793   4.348   2.191
 6281TIP3    H218785   6.871   4.313   2.066
 6282TIP3   OH218786   6.970   4.561   0.017
 6282TIP3    H118787   6.983   4.625   0.087
 6282TIP3    H218788   6.978   4.476   0.060
 6283TIP3   OH218789   7.000   0.567   5.624
 6283TIP3    H118790   7.042   0.486   5.595
 6283TIP3    H218791   6.925   0.578   5.567
 6284TIP3   OH218792   7.183   6.278   2.248
 6284TIP3    H118793   7.133   6.352   2.215
 6284TIP3    H218794   7.135   6.249   2.326
 6285TIP3   OH218795   0.299   6.680   6.413
 6285TIP3    H118796   0.204   6.672   6.411
 6285TIP3    H218797   0.331   6.590   6.401
 6286TIP3   OH218798   7.694   2.357   2.332
 6286TIP3    H118799   7.755   2.283   2.330
 6286TIP3    H218800   7.619   2.325   2.381
 6287TIP3   OH218801   7.098   5.602   1.765
 6287TIP3    H118802   7.056   5.527   1.807
 6287TIP3    H218803   7.048   5.678   1.796
 6288TIP3   OH218804   6.004   1.478   4.601
 6288TIP3    H118805   5.962   1.476   4.687
 6288TIP3    H218806   6.075   1.542   4.610
 6289TIP3   OH218807   2.527   3.191   5.762
 6289TIP3    H118808   2.616   3.205   5.796
 6289TIP3    H218809   2.540   3.165   5.671
 6290TIP3   OH218810   3.215   5.607   2.309
 6290TIP3    H118811   3.157   5.533   2.327
 6290TIP3    H218812   3.254   5.586   2.224
 6291TIP3   OH218813   6.425   1.448   5.192
 6291TIP3    H118814   6.494   1.511   5.212
 6291TIP3    H218815   6.377   1.438   5.275
 6292TIP3   OH218816   4.126   7.016   3.962
 6292TIP3    H118817   4.093   7.099   3.926
 6292TIP3    H218818   4.106   6.951   3.894
 6293TIP3   OH218819   4.610   5.758   4.043
 6293TIP3    H118820   4.524   5.786   4.011
 6293TIP3    H218821   4.626   5.813   4.120
 6294TIP3   OH218822   3.500   6.034   3.504
 6294TIP3    H118823   3.410   6.067   3.509
 6294TIP3    H218824   3.542   6.090   3.439
 6295TIP3   OH218825   1.779   6.343   5.813
 6295TIP3    H118826   1.831   6.396   5.873
 6295TIP3    H218827   1.835   6.334   5.735
 6296TIP3   OH218828  -0.027   5.146   2.268
 6296TIP3    H118829   0.034   5.205   2.224
 6296TIP3    H218830   0.024   5.067   2.287
 6297TIP3   OH218831   5.979   5.772   1.720
 6297TIP3    H118832   5.901   5.717   1.722
 6297TIP3    H218833   5.957   5.844   1.661
 6298TIP3   OH218834   6.935   3.321   5.859
 6298TIP3    H118835   6.899   3.401   5.822
 6298TIP3    H218836   7.026   3.343   5.879
 6299TIP3   OH218837   0.627   2.714   5.936
 6299TIP3    H118838   0.619   2.754   6.023
 6299TIP3    H218839   0.573   2.635   5.941
 6300TIP3   OH218840   0.869   7.471   5.817
 6300TIP3    H118841   0.782   7.509   5.809
 6300TIP3    H218842   0.857   7.379   5.792
 6301TIP3   OH218843   1.716   4.311   3.751
 6301TIP3    H118844   1.807   4.298   3.724
 6301TIP3    H218845   1.696   4.234   3.805
 6302TIP3   OH218846   8.072   2.728   4.094
 6302TIP3    H118847   7.981   2.711   4.120
 6302TIP3    H218848   8.107   2.641   4.075
 6303TIP3   OH218849   6.460   4.241   1.748
 6303TIP3    H118850   6.367   4.224   1.735
 6303TIP3    H218851   6.479   4.206   1.835
 6304TIP3   OH218852   7.225   2.739   2.795
 6304TIP3    H118853   7.241   2.815   2.739
 6304TIP3    H218854   7.246   2.664   2.739
 6305TIP3   OH218855   0.776   1.858   4.737
 6305TIP3    H118856   0.760   1.896   4.650
 6305TIP3    H218857   0.816   1.930   4.786
 6306TIP3   OH218858   4.307   5.471   4.227
 6306TIP3    H118859   4.306   5.380   4.197
 6306TIP3    H218860   4.389   5.480   4.274
 6307TIP3   OH218861   2.194   0.548   1.694
 6307TIP3    H118862   2.220   0.626   1.742
 6307TIP3    H218863   2.232   0.560   1.607
 6308TIP3   OH218864   5.350   0.035   4.909
 6308TIP3    H118865   5.414   0.104   4.926
 6308TIP3    H218866   5.328   0.000   4.995
 6309TIP3   OH218867   0.494   5.564   5.004
 6309TIP3    H118868   0.460   5.618   5.075
 6309TIP3    H218869   0.582   5.540   5.031
 6310TIP3   OH218870   1.529   2.267   4.224
 6310TIP3    H118871   1.567   2.194   4.271
 6310TIP3    H218872   1.547   2.344   4.279
 6311TIP3   OH218873   7.526   2.545   0.280
 6311TIP3    H118874   7.445   2.590   0.257
 6311TIP3    H218875   7.509   2.507   0.366
 6312TIP3   OH218876   4.090   5.462   4.376
 6312TIP3    H118877   4.096   5.534   4.438
 6312TIP3    H218878   4.176   5.459   4.334
 6313TIP3   OH218879   3.139   0.624   2.190
 6313TIP3    H118880   3.102   0.571   2.119
 6313TIP3    H218881   3.219   0.579   2.215
 6314TIP3   OH218882   7.764   1.939   3.099
 6314TIP3    H118883   7.796   2.018   3.054
 6314TIP3    H218884   7.837   1.877   3.092
 6315TIP3   OH218885   3.404   5.696   1.339
 6315TIP3    H118886   3.354   5.747   1.274
 6315TIP3    H218887   3.495   5.706   1.312
 6316TIP3   OH218888   8.405   6.201   1.957
 6316TIP3    H118889   8.374   6.111   1.945
 6316TIP3    H218890   8.330   6.248   1.993
 6317TIP3   OH218891   5.573   3.780   0.894
 6317TIP3    H118892   5.509   3.843   0.859
 6317TIP3    H218893   5.520   3.713   0.936
 6318TIP3   OH218894   7.748   2.527   3.264
 6318TIP3    H118895   7.667   2.558   3.303
 6318TIP3    H218896   7.789   2.605   3.227
 6319TIP3   OH218897   7.031   1.052   2.652
 6319TIP3    H118898   6.953   1.000   2.671
 6319TIP3    H218899   7.068   1.012   2.573
 6320TIP3   OH218900   1.057   5.875   6.765
 6320TIP3    H118901   0.991   5.910   6.705
 6320TIP3    H218902   1.035   5.782   6.773
 6321TIP3   OH218903   6.415   3.104   6.097
 6321TIP3    H118904   6.356   3.179   6.086
 6321TIP3    H218905   6.481   3.134   6.159
 6322TIP3   OH218906   6.132   6.480   3.114
 6322TIP3    H118907   6.088   6.396   3.131
 6322TIP3    H218908   6.061   6.542   3.103
 6323TIP3   OH218909   5.523   5.565   0.525
 6323TIP3    H118910   5.591   5.501   0.504
 6323TIP3    H218911   5.441   5.523   0.497
 6324TIP3   OH218912   8.228   7.637   2.822
 6324TIP3    H118913   8.192   7.716   2.782
 6324TIP3    H218914   8.217   7.651   2.916
 6325TIP3   OH218915   6.744   1.269   4.381
 6325TIP3    H118916   6.683   1.197   4.366
 6325TIP3    H218917   6.691   1.348   4.370
 6326TIP3   OH218918   3.117   0.188   0.998
 6326TIP3    H118919   3.035   0.160   0.956
 6326TIP3    H218920   3.181   0.188   0.927
 6327TIP3   OH218921   5.632   0.476   2.027
 6327TIP3    H118922   5.633   0.409   2.095
 6327TIP3    H218923   5.540   0.488   2.006
 6328TIP3   OH218924   0.499   7.775   1.440
 6328TIP3    H118925   0.492   7.844   1.374
 6328TIP3    H218926   0.433   7.798   1.505
 6329TIP3   OH218927   0.768   6.066   3.639
 6329TIP3    H118928   0.784   6.071   3.733
 6329TIP3    H218929   0.762   6.157   3.611
 6330TIP3   OH218930   1.668   4.999   2.320
 6330TIP3    H118931   1.760   4.972   2.324
 6330TIP3    H218932   1.634   4.978   2.407
 6331TIP3   OH218933   6.335   3.538   1.205
 6331TIP3    H118934   6.384   3.615   1.178
 6331TIP3    H218935   6.389   3.464   1.179
 6332TIP3   OH218936   4.887   7.658   1.795
 6332TIP3    H118937   4.853   7.741   1.762
 6332TIP3    H218938   4.954   7.684   1.858
 6333TIP3   OH218939   0.557   0.377   1.491
 6333TIP3    H118940   0.518   0.332   1.416
 6333TIP3    H218941   0.589   0.460   1.455
 6334TIP3   OH218942   6.555   0.732   4.109
 6334TIP3    H118943   6.466   0.768   4.111
 6334TIP3    H218944   6.551   0.656   4.167
 6335TIP3   OH218945   7.544   1.128   3.574
 6335TIP3    H118946   7.468   1.091   3.618
 6335TIP3    H218947   7.616   1.118   3.637
 6336TIP3   OH218948   7.800   0.683   3.445
 6336TIP3    H118949   7.716   0.639   3.441
 6336TIP3    H218950   7.846   0.656   3.366
 6337TIP3   OH218951   0.497   1.470   5.181
 6337TIP3    H118952   0.412   1.489   5.222
 6337TIP3    H218953   0.476   1.412   5.108
 6338TIP3   OH218954   8.025   6.899   5.373
 6338TIP3    H118955   8.117   6.897   5.398
 6338TIP3    H218956   7.998   6.990   5.387
 6339TIP3   OH218957   1.365   6.115   0.332
 6339TIP3    H118958   1.392   6.071   0.252
 6339TIP3    H218959   1.447   6.148   0.370
 6340TIP3   OH218960   4.044   5.490   6.098
 6340TIP3    H118961   3.989   5.447   6.164
 6340TIP3    H218962   4.130   5.450   6.110
 6341TIP3   OH218963   2.663   6.262   4.677
 6341TIP3    H118964   2.667   6.303   4.763
 6341TIP3    H218965   2.732   6.305   4.626
 6342TIP3   OH218966   2.100   6.590   3.221
 6342TIP3    H118967   2.130   6.555   3.305
 6342TIP3    H218968   2.177   6.589   3.165
 6343TIP3   OH218969   6.256   3.300   5.284
 6343TIP3    H118970   6.271   3.392   5.306
 6343TIP3    H218971   6.307   3.251   5.348
 6344TIP3   OH218972   0.164   0.933   1.945
 6344TIP3    H118973   0.163   1.028   1.935
 6344TIP3    H218974   0.181   0.900   1.857
 6345TIP3   OH218975   1.808   3.496   1.943
 6345TIP3    H118976   1.795   3.549   2.022
 6345TIP3    H218977   1.786   3.554   1.871
 6346TIP3   OH218978   7.418   7.716   1.873
 6346TIP3    H118979   7.462   7.731   1.790
 6346TIP3    H218980   7.457   7.635   1.906
 6347TIP3   OH218981   6.113   6.406   2.424
 6347TIP3    H118982   6.205   6.383   2.408
 6347TIP3    H218983   6.080   6.431   2.338
 6348TIP3   OH218984   4.396   0.691   3.040
 6348TIP3    H118985   4.465   0.756   3.057
 6348TIP3    H218986   4.372   0.705   2.948
 6349TIP3   OH218987   8.035   3.320   5.910
 6349TIP3    H118988   7.959   3.271   5.940
 6349TIP3    H218989   8.077   3.351   5.991
 6350TIP3   OH218990   5.363   1.329   1.285
 6350TIP3    H118991   5.364   1.394   1.215
 6350TIP3    H218992   5.311   1.257   1.250
 6351TIP3   OH218993   2.194   6.045   5.763
 6351TIP3    H118994   2.285   6.016   5.752
 6351TIP3    H218995   2.194   6.135   5.730
 6352TIP3   OH218996   7.308   3.547   5.497
 6352TIP3    H118997   7.367   3.485   5.453
 6352TIP3    H218998   7.358   3.579   5.571
 6353TIP3   OH218999   6.234   1.449   6.573
 6353TIP3    H119000   6.158   1.485   6.618
 6353TIP3    H219001   6.233   1.356   6.596
 6354TIP3   OH219002   4.817   1.125   6.588
 6354TIP3    H119003   4.730   1.118   6.627
 6354TIP3    H219004   4.814   1.068   6.511
 6355TIP3   OH219005   1.471   6.398   2.153
 6355TIP3    H119006   1.536   6.429   2.217
 6355TIP3    H219007   1.387   6.423   2.192
 6356TIP3   OH219008   1.165   7.392   2.952
 6356TIP3    H119009   1.175   7.341   3.033
 6356TIP3    H219010   1.105   7.463   2.976
 6357TIP3   OH219011   5.722   3.599   6.297
 6357TIP3    H119012   5.722   3.517   6.247
 6357TIP3    H219013   5.793   3.589   6.359
 6358TIP3   OH219014   5.329   4.011   2.428
 6358TIP3    H119015   5.365   4.079   2.486
 6358TIP3    H219016   5.253   4.052   2.387
 6359TIP3   OH219017   7.871   1.784   5.239
 6359TIP3    H119018   7.954   1.829   5.256
 6359TIP3    H219019   7.837   1.827   5.161
 6360TIP3   OH219020   3.468   7.480   4.369
 6360TIP3    H119021   3.419   7.527   4.302
 6360TIP3    H219022   3.453   7.388   4.349
 6361TIP3   OH219023   4.780   2.775   6.762
 6361TIP3    H119024   4.844   2.838   6.730
 6361TIP3    H219025   4.715   2.827   6.809
 6362TIP3   OH219026   4.273   3.044   2.521
 6362TIP3    H119027   4.307   3.004   2.601
 6362TIP3    H219028   4.288   3.138   2.534
 6363TIP3   OH219029   5.513   0.959   1.779
 6363TIP3    H119030   5.548   0.872   1.799
 6363TIP3    H219031   5.521   0.967   1.684
 6364TIP3   OH219032   6.765   7.889   3.805
 6364TIP3    H119033   6.695   7.929   3.753
 6364TIP3    H219034   6.753   7.926   3.893
 6365TIP3   OH219035   4.389   6.837   4.239
 6365TIP3    H119036   4.479   6.811   4.215
 6365TIP3    H219037   4.377   6.922   4.198
 6366TIP3   OH219038   8.192   3.258   4.718
 6366TIP3    H119039   8.201   3.164   4.734
 6366TIP3    H219040   8.098   3.274   4.714
 6367TIP3   OH219041   3.637   5.300   0.076
 6367TIP3    H119042   3.716   5.246   0.082
 6367TIP3    H219043   3.626   5.316  -0.018
 6368TIP3   OH219044   4.796   0.103   3.394
 6368TIP3    H119045   4.866   0.162   3.368
 6368TIP3    H219046   4.805   0.094   3.489
 6369TIP3   OH219047   1.423   6.118   5.483
 6369TIP3    H119048   1.407   6.192   5.540
 6369TIP3    H219049   1.434   6.043   5.542
 6370TIP3   OH219050   0.949   7.056   4.429
 6370TIP3    H119051   0.857   7.079   4.441
 6370TIP3    H219052   0.997   7.135   4.457
 6371TIP3   OH219053   0.250   6.224   1.168
 6371TIP3    H119054   0.281   6.166   1.097
 6371TIP3    H219055   0.155   6.227   1.156
 6372TIP3   OH219056   4.340   3.741   4.016
 6372TIP3    H119057   4.350   3.695   4.100
 6372TIP3    H219058   4.316   3.672   3.954
 6373TIP3   OH219059   2.740   6.644   2.371
 6373TIP3    H119060   2.698   6.599   2.297
 6373TIP3    H219061   2.801   6.705   2.331
 6374TIP3   OH219062   6.721   0.114   5.187
 6374TIP3    H119063   6.785   0.158   5.132
 6374TIP3    H219064   6.670   0.060   5.127
 6375TIP3   OH219065   0.932   3.617   6.013
 6375TIP3    H119066   0.914   3.710   6.007
 6375TIP3    H219067   0.850   3.575   5.988
 6376TIP3   OH219068   0.611   2.588   2.946
 6376TIP3    H119069   0.683   2.560   2.890
 6376TIP3    H219070   0.645   2.581   3.035
 6377TIP3   OH219071   8.084   2.251   1.439
 6377TIP3    H119072   8.069   2.205   1.522
 6377TIP3    H219073   8.107   2.182   1.377
 6378TIP3   OH219074   0.196   6.029   2.223
 6378TIP3    H119075   0.286   6.027   2.191
 6378TIP3    H219076   0.189   6.112   2.271
 6379TIP3   OH219077   2.773   4.254   6.847
 6379TIP3    H119078   2.690   4.234   6.890
 6379TIP3    H219079   2.761   4.343   6.814
 6380TIP3   OH219080   7.005   2.272   2.382
 6380TIP3    H119081   7.016   2.188   2.337
 6380TIP3    H219082   7.080   2.325   2.355
 6381TIP3   OH219083   1.704   5.394   6.805
 6381TIP3    H119084   1.777   5.424   6.751
 6381TIP3    H219085   1.656   5.332   6.749
 6382TIP3   OH219086   5.383   0.488   4.847
 6382TIP3    H119087   5.474   0.503   4.822
 6382TIP3    H219088   5.386   0.469   4.941
 6383TIP3   OH219089   2.208   2.862   4.691
 6383TIP3    H119090   2.216   2.903   4.605
 6383TIP3    H219091   2.200   2.769   4.673
 6384TIP3   OH219092   0.920   6.124   0.885
 6384TIP3    H119093   0.851   6.178   0.924
 6384TIP3    H219094   0.995   6.134   0.943
 6385TIP3   OH219095   2.098   3.104   4.811
 6385TIP3    H119096   2.004   3.104   4.792
 6385TIP3    H219097   2.126   3.014   4.794
 6386TIP3   OH219098   1.603   0.574   3.583
 6386TIP3    H119099   1.653   0.497   3.554
 6386TIP3    H219100   1.535   0.584   3.518
 6387TIP3   OH219101   2.739   7.630   0.770
 6387TIP3    H119102   2.702   7.571   0.705
 6387TIP3    H219103   2.822   7.659   0.731
 6388TIP3   OH219104   4.641   1.135   3.763
 6388TIP3    H119105   4.734   1.132   3.785
 6388TIP3    H219106   4.597   1.096   3.838
 6389TIP3   OH219107   5.401   6.583   2.449
 6389TIP3    H119108   5.420   6.671   2.482
 6389TIP3    H219109   5.331   6.550   2.506
 6390TIP3   OH219110   0.524   6.899   0.399
 6390TIP3    H119111   0.466   6.968   0.430
 6390TIP3    H219112   0.469   6.844   0.343
 6391TIP3   OH219113   6.721   3.094   1.451
 6391TIP3    H119114   6.650   3.156   1.464
 6391TIP3    H219115   6.688   3.034   1.384
 6392TIP3   OH219116   2.914   1.707   1.113
 6392TIP3    H119117   3.002   1.691   1.081
 6392TIP3    H219118   2.926   1.747   1.199
 6393TIP3   OH219119   2.881   7.224   4.799
 6393TIP3    H119120   2.875   7.281   4.722
 6393TIP3    H219121   2.871   7.283   4.874
 6394TIP3   OH219122   6.035   5.682   4.170
 6394TIP3    H119123   6.066   5.626   4.099
 6394TIP3    H219124   5.943   5.699   4.148
 6395TIP3   OH219125   8.053   2.721   3.296
 6395TIP3    H119126   8.059   2.654   3.229
 6395TIP3    H219127   8.060   2.804   3.249
 6396TIP3   OH219128   7.166   1.902   4.783
 6396TIP3    H119129   7.179   1.816   4.824
 6396TIP3    H219130   7.155   1.962   4.856
 6397TIP3   OH219131   6.439   4.485   5.667
 6397TIP3    H119132   6.532   4.506   5.665
 6397TIP3    H219133   6.429   4.424   5.741
 6398TIP3   OH219134   2.866   4.181   4.231
 6398TIP3    H119135   2.903   4.206   4.147
 6398TIP3    H219136   2.931   4.208   4.295
 6399TIP3   OH219137   0.378   2.974   5.222
 6399TIP3    H119138   0.471   2.982   5.200
 6399TIP3    H219139   0.370   3.015   5.308
 6400TIP3   OH219140   8.243   1.194   6.806
 6400TIP3    H119141   8.295   1.199   6.725
 6400TIP3    H219142   8.160   1.235   6.783
 6401TIP3   OH219143   1.964   6.081   6.770
 6401TIP3    H119144   1.892   6.032   6.810
 6401TIP3    H219145   1.949   6.075   6.676
 6402TIP3   OH219146   8.365   2.007   6.392
 6402TIP3    H119147   8.338   2.096   6.418
 6402TIP3    H219148   8.283   1.962   6.372
 6403TIP3   OH219149   4.136   2.673   6.216
 6403TIP3    H119150   4.156   2.641   6.304
 6403TIP3    H219151   4.052   2.718   6.226
 6404TIP3   OH219152   8.311   3.632   4.287
 6404TIP3    H119153   8.336   3.587   4.368
 6404TIP3    H219154   8.331   3.724   4.303
 6405TIP3   OH219155   6.753   5.384   0.327
 6405TIP3    H119156   6.820   5.428   0.379
 6405TIP3    H219157   6.724   5.450   0.264
 6406TIP3   OH219158   7.206   1.224   5.624
 6406TIP3    H119159   7.209   1.164   5.550
 6406TIP3    H219160   7.249   1.176   5.695
 6407TIP3   OH219161   3.941   6.715   5.269
 6407TIP3    H119162   3.956   6.624   5.243
 6407TIP3    H219163   4.013   6.735   5.328
 6408TIP3   OH219164   5.257   3.583   6.376
 6408TIP3    H119165   5.183   3.590   6.437
 6408TIP3    H219166   5.334   3.601   6.430
 6409TIP3   OH219167   0.666   4.312   3.351
 6409TIP3    H119168   0.598   4.367   3.392
 6409TIP3    H219169   0.623   4.228   3.336
 6410TIP3   OH219170   6.745   2.296   0.079
 6410TIP3    H119171   6.660   2.269   0.045
 6410TIP3    H219172   6.736   2.390   0.092
 6411TIP3   OH219173   7.403   4.369   2.539
 6411TIP3    H119174   7.435   4.450   2.499
 6411TIP3    H219175   7.408   4.385   2.633
 6412TIP3   OH219176   4.362   1.542   4.880
 6412TIP3    H119177   4.295   1.515   4.817
 6412TIP3    H219178   4.363   1.637   4.874
 6413TIP3   OH219179   5.603   7.838   1.839
 6413TIP3    H119180   5.689   7.833   1.797
 6413TIP3    H219181   5.547   7.881   1.773
 6414TIP3   OH219182   1.488   2.688   2.759
 6414TIP3    H119183   1.487   2.624   2.830
 6414TIP3    H219184   1.419   2.751   2.781
 6415TIP3   OH219185   2.633   1.631   5.505
 6415TIP3    H119186   2.554   1.617   5.454
 6415TIP3    H219187   2.611   1.703   5.564
 6416TIP3   OH219188   0.479   7.872   0.848
 6416TIP3    H119189   0.397   7.888   0.802
 6416TIP3    H219190   0.546   7.873   0.779
 6417TIP3   OH219191   5.766   2.555   3.134
 6417TIP3    H119192   5.744   2.533   3.043
 6417TIP3    H219193   5.703   2.623   3.158
 6418TIP3   OH219194   4.131   6.431   2.702
 6418TIP3    H119195   4.187   6.360   2.737
 6418TIP3    H219196   4.163   6.445   2.613
 6419TIP3   OH219197   7.207   7.797   0.043
 6419TIP3    H119198   7.186   7.852   0.119
 6419TIP3    H219199   7.122   7.771   0.008
 6420TIP3   OH219200   4.063   0.833   6.700
 6420TIP3    H119201   3.995   0.780   6.741
 6420TIP3    H219202   4.016   0.893   6.643
 6421TIP3   OH219203   3.562   5.519   1.801
 6421TIP3    H119204   3.508   5.532   1.723
 6421TIP3    H219205   3.503   5.540   1.874
 6422TIP3   OH219206   0.886   4.796   3.483
 6422TIP3    H119207   0.869   4.833   3.570
 6422TIP3    H219208   0.863   4.703   3.491
 6423TIP3   OH219209   0.244   5.721   2.326
 6423TIP3    H119210   0.313   5.700   2.389
 6423TIP3    H219211   0.290   5.753   2.249
 6424TIP3   OH219212   1.402   1.125   6.147
 6424TIP3    H119213   1.451   1.078   6.079
 6424TIP3    H219214   1.335   1.062   6.176
 6425TIP3   OH219215   7.550   4.893   3.299
 6425TIP3    H119216   7.586   4.970   3.341
 6425TIP3    H219217   7.614   4.824   3.316
 6426TIP3   OH219218   8.384   3.887   4.375
 6426TIP3    H119219   8.319   3.895   4.445
 6426TIP3    H219220   8.355   3.949   4.308
 6427TIP3   OH219221   2.038   1.319   1.620
 6427TIP3    H119222   2.006   1.232   1.596
 6427TIP3    H219223   1.962   1.376   1.607
 6428TIP3   OH219224   7.550   5.597   5.630
 6428TIP3    H119225   7.486   5.625   5.695
 6428TIP3    H219226   7.589   5.518   5.667
 6429TIP3   OH219227   3.969   6.177   0.540
 6429TIP3    H119228   3.955   6.083   0.536
 6429TIP3    H219229   3.903   6.209   0.601
 6430TIP3   OH219230   7.502   1.647   1.802
 6430TIP3    H119231   7.417   1.680   1.831
 6430TIP3    H219232   7.561   1.667   1.874
 6431TIP3   OH219233   3.549   3.249   1.816
 6431TIP3    H119234   3.609   3.300   1.760
 6431TIP3    H219235   3.469   3.301   1.819
 6432TIP3   OH219236   6.029   7.203   1.995
 6432TIP3    H119237   6.014   7.139   1.925
 6432TIP3    H219238   5.986   7.282   1.964
 6433TIP3   OH219239   4.262   5.449   1.979
 6433TIP3    H119240   4.292   5.358   1.971
 6433TIP3    H219241   4.338   5.497   2.011
 6434TIP3   OH219242   6.582   1.672   0.486
 6434TIP3    H119243   6.663   1.629   0.459
 6434TIP3    H219244   6.588   1.760   0.449
 6435TIP3   OH219245   0.491   6.702   4.471
 6435TIP3    H119246   0.433   6.671   4.540
 6435TIP3    H219247   0.488   6.633   4.404
 6436TIP3   OH219248   6.468   3.011   4.710
 6436TIP3    H119249   6.418   3.076   4.661
 6436TIP3    H219250   6.442   2.927   4.673
 6437TIP3   OH219251   0.943   1.699   2.237
 6437TIP3    H119252   0.939   1.609   2.206
 6437TIP3    H219253   0.864   1.740   2.203
 6438TIP3   OH219254   1.537   2.386   5.377
 6438TIP3    H119255   1.536   2.480   5.398
 6438TIP3    H219256   1.538   2.342   5.461
 6439TIP3   OH219257   5.767   5.095   0.433
 6439TIP3    H119258   5.860   5.084   0.455
 6439TIP3    H219259   5.730   5.007   0.441
 6440TIP3   OH219260   2.219   0.811   5.499
 6440TIP3    H119261   2.300   0.841   5.540
 6440TIP3    H219262   2.152   0.870   5.532
 6441TIP3   OH219263   7.393   4.598   5.550
 6441TIP3    H119264   7.391   4.627   5.459
 6441TIP3    H219265   7.328   4.528   5.555
 6442TIP3   OH219266   4.975   2.543   0.357
 6442TIP3    H119267   5.012   2.537   0.269
 6442TIP3    H219268   4.975   2.452   0.389
 6443TIP3   OH219269   1.719   1.799   5.259
 6443TIP3    H119270   1.690   1.818   5.170
 6443TIP3    H219271   1.798   1.747   5.248
 6444TIP3   OH219272   2.492   5.026   4.046
 6444TIP3    H119273   2.402   4.998   4.029
 6444TIP3    H219274   2.533   4.949   4.085
 6445TIP3   OH219275   7.192   2.728   6.192
 6445TIP3    H119276   7.148   2.644   6.199
 6445TIP3    H219277   7.226   2.746   6.280
 6446TIP3   OH219278   3.855   7.726   1.023
 6446TIP3    H119279   3.904   7.706   1.102
 6446TIP3    H219280   3.923   7.747   0.958
 6447TIP3   OH219281   7.802   7.358   6.089
 6447TIP3    H119282   7.808   7.388   6.180
 6447TIP3    H219283   7.886   7.382   6.050
 6448TIP3   OH219284   6.938   0.561   6.265
 6448TIP3    H119285   6.877   0.531   6.332
 6448TIP3    H219286   7.018   0.511   6.282
 6449TIP3   OH219287   4.981   5.346   6.472
 6449TIP3    H119288   5.020   5.276   6.525
 6449TIP3    H219289   4.931   5.399   6.535
 6450TIP3   OH219290   3.207   2.421   3.643
 6450TIP3    H119291   3.263   2.494   3.671
 6450TIP3    H219292   3.120   2.444   3.675
 6451TIP3   OH219293   7.873   1.098   5.116
 6451TIP3    H119294   7.935   1.134   5.179
 6451TIP3    H219295   7.892   1.145   5.035
 6452TIP3   OH219296   6.964   5.030   2.849
 6452TIP3    H119297   6.917   4.969   2.906
 6452TIP3    H219298   7.054   5.000   2.851
 6453TIP3   OH219299   2.298   6.249   0.472
 6453TIP3    H119300   2.267   6.328   0.517
 6453TIP3    H219301   2.385   6.233   0.509
 6454TIP3   OH219302   7.930   1.371   0.466
 6454TIP3    H119303   7.872   1.427   0.517
 6454TIP3    H219304   7.958   1.303   0.527
 6455TIP3   OH219305   3.980   4.893   2.745
 6455TIP3    H119306   3.922   4.916   2.673
 6455TIP3    H219307   4.044   4.834   2.707
 6456TIP3   OH219308   7.511   2.957   2.530
 6456TIP3    H119309   7.455   2.990   2.600
 6456TIP3    H219310   7.600   2.974   2.560
 6457TIP3   OH219311   2.821   6.515   3.997
 6457TIP3    H119312   2.782   6.447   3.942
 6457TIP3    H219313   2.893   6.550   3.944
 6458TIP3   OH219314   1.239   2.737   1.478
 6458TIP3    H119315   1.276   2.754   1.565
 6458TIP3    H219316   1.312   2.753   1.418
 6459TIP3   OH219317   2.724   3.114   0.513
 6459TIP3    H119318   2.778   3.038   0.536
 6459TIP3    H219319   2.639   3.098   0.555
 6460TIP3   OH219320   2.401   7.777   1.301
 6460TIP3    H119321   2.314   7.819   1.299
 6460TIP3    H219322   2.435   7.790   1.212
 6461TIP3   OH219323   4.983   1.237   2.767
 6461TIP3    H119324   4.991   1.152   2.724
 6461TIP3    H219325   4.973   1.299   2.695
 6462TIP3   OH219326   3.349   7.624   4.105
 6462TIP3    H119327   3.297   7.544   4.107
 6462TIP3    H219328   3.392   7.622   4.019
 6463TIP3   OH219329   7.044   5.223   6.229
 6463TIP3    H119330   7.044   5.301   6.174
 6463TIP3    H219331   7.080   5.154   6.172
 6464TIP3   OH219332   5.529   4.919   6.748
 6464TIP3    H119333   5.491   4.934   6.834
 6464TIP3    H219334   5.455   4.890   6.694
 6465TIP3   OH219335   3.706   4.696   2.674
 6465TIP3    H119336   3.683   4.775   2.625
 6465TIP3    H219337   3.644   4.694   2.747
 6466TIP3   OH219338   6.102   7.347   5.196
 6466TIP3    H119339   6.166   7.279   5.216
 6466TIP3    H219340   6.102   7.354   5.101
 6467TIP3   OH219341   7.242   1.717   1.824
 6467TIP3    H119342   7.157   1.715   1.780
 6467TIP3    H219343   7.220   1.718   1.917
 6468TIP3   OH219344   6.151   4.585   3.845
 6468TIP3    H119345   6.104   4.641   3.783
 6468TIP3    H219346   6.098   4.505   3.849
 6469TIP3   OH219347   0.024   5.942   2.441
 6469TIP3    H119348  -0.024   5.867   2.408
 6469TIP3    H219349   0.080   5.969   2.367
 6470TIP3   OH219350   0.033   2.164   2.836
 6470TIP3    H119351   0.091   2.116   2.777
 6470TIP3    H219352  -0.044   2.183   2.784
 6471TIP3   OH219353   7.625   4.943   4.693
 6471TIP3    H119354   7.665   4.856   4.685
 6471TIP3    H219355   7.700   5.004   4.693
 6472TIP3   OH219356   2.583   3.745   5.540
 6472TIP3    H119357   2.501   3.795   5.544
 6472TIP3    H219358   2.561   3.670   5.484
 6473TIP3   OH219359   6.428   4.355   6.259
 6473TIP3    H119360   6.488   4.320   6.193
 6473TIP3    H219361   6.359   4.288   6.266
 6474TIP3   OH219362   6.327   5.108   3.543
 6474TIP3    H119363   6.298   5.073   3.627
 6474TIP3    H219364   6.399   5.167   3.565
 6475TIP3   OH219365   1.334   2.181   1.596
 6475TIP3    H119366   1.286   2.174   1.514
 6475TIP3    H219367   1.267   2.169   1.664
 6476TIP3   OH219368   6.863   4.256   3.593
 6476TIP3    H119369   6.882   4.333   3.539
 6476TIP3    H219370   6.819   4.195   3.533
 6477TIP3   OH219371   4.338   6.631   1.770
 6477TIP3    H119372   4.410   6.627   1.707
 6477TIP3    H219373   4.357   6.562   1.833
 6478TIP3   OH219374   0.506   4.739   2.443
 6478TIP3    H119375   0.560   4.697   2.510
 6478TIP3    H219376   0.526   4.832   2.453
 6479TIP3   OH219377   7.306   7.674   1.046
 6479TIP3    H119378   7.314   7.589   1.089
 6479TIP3    H219379   7.212   7.685   1.031
 6480TIP3   OH219380   1.994   2.637   1.656
 6480TIP3    H119381   2.010   2.721   1.699
 6480TIP3    H219382   2.078   2.592   1.660
 6481TIP3   OH219383   7.685   3.935   0.874
 6481TIP3    H119384   7.604   3.968   0.912
 6481TIP3    H219385   7.750   4.003   0.892
 6482TIP3   OH219386   3.465   7.497   6.404
 6482TIP3    H119387   3.408   7.436   6.357
 6482TIP3    H219388   3.553   7.462   6.391
 6483TIP3   OH219389   0.068   4.468   4.079
 6483TIP3    H119390   0.008   4.395   4.066
 6483TIP3    H219391   0.039   4.510   4.159
 6484TIP3   OH219392   4.980   0.288   4.992
 6484TIP3    H119393   4.949   0.369   5.032
 6484TIP3    H219394   4.941   0.219   5.046
 6485TIP3   OH219395   2.280   2.257   5.672
 6485TIP3    H119396   2.346   2.317   5.707
 6485TIP3    H219397   2.325   2.172   5.667
 6486TIP3   OH219398   7.108   6.886   0.614
 6486TIP3    H119399   7.105   6.960   0.674
 6486TIP3    H219400   7.190   6.842   0.634
 6487TIP3   OH219401   0.025   4.234   6.404
 6487TIP3    H119402   0.037   4.313   6.351
 6487TIP3    H219403   0.055   4.162   6.348
 6488TIP3   OH219404   4.633   0.084   6.429
 6488TIP3    H119405   4.714   0.040   6.455
 6488TIP3    H219406   4.570   0.013   6.418
 6489TIP3   OH219407   4.275   1.294   2.553
 6489TIP3    H119408   4.194   1.328   2.516
 6489TIP3    H219409   4.291   1.348   2.631
 6490TIP3   OH219410   5.025   1.594   4.740
 6490TIP3    H119411   5.101   1.645   4.769
 6490TIP3    H219412   5.003   1.539   4.815
 6491TIP3   OH219413   6.311   0.228   1.114
 6491TIP3    H119414   6.241   0.205   1.176
 6491TIP3    H219415   6.373   0.155   1.118
 6492TIP3   OH219416   7.193   7.678   6.170
 6492TIP3    H119417   7.136   7.603   6.188
 6492TIP3    H219418   7.214   7.671   6.077
 6493TIP3   OH219419   6.879   3.363   2.516
 6493TIP3    H119420   6.846   3.323   2.435
 6493TIP3    H219421   6.832   3.317   2.586
 6494TIP3   OH219422   5.096   6.990   6.842
 6494TIP3    H119423   5.098   6.982   6.937
 6494TIP3    H219424   5.005   6.971   6.818
 6495TIP3   OH219425   0.755   0.067   2.546
 6495TIP3    H119426   0.814   0.069   2.471
 6495TIP3    H219427   0.726  -0.024   2.552
 6496TIP3   OH219428   5.424   5.735   2.597
 6496TIP3    H119429   5.481   5.812   2.602
 6496TIP3    H219430   5.482   5.662   2.619
 6497TIP3   OH219431   2.953   0.496   5.711
 6497TIP3    H119432   2.859   0.510   5.723
 6497TIP3    H219433   2.986   0.482   5.800
 6498TIP3   OH219434   3.152   5.185   4.470
 6498TIP3    H119435   3.187   5.259   4.420
 6498TIP3    H219436   3.115   5.126   4.405
 6499TIP3   OH219437   2.996   5.531   1.046
 6499TIP3    H119438   3.004   5.577   1.129
 6499TIP3    H219439   2.949   5.592   0.989
 6500TIP3   OH219440   1.896   4.491   6.410
 6500TIP3    H119441   1.852   4.564   6.454
 6500TIP3    H219442   1.825   4.436   6.377
 6501TIP3   OH219443   7.065   6.071   0.781
 6501TIP3    H119444   7.140   6.031   0.737
 6501TIP3    H219445   7.046   6.149   0.729
 6502TIP3   OH219446   5.056  -0.006   5.760
 6502TIP3    H119447   5.002   0.072   5.772
 6502TIP3    H219448   5.016  -0.052   5.687
 6503TIP3   OH219449   0.504   3.843   3.057
 6503TIP3    H119450   0.545   3.899   3.123
 6503TIP3    H219451   0.539   3.874   2.974
 6504TIP3   OH219452   7.255   4.958   3.873
 6504TIP3    H119453   7.274   5.003   3.791
 6504TIP3    H219454   7.161   4.969   3.886
 6505TIP3   OH219455   8.328   6.204   4.347
 6505TIP3    H119456   8.339   6.248   4.263
 6505TIP3    H219457   8.248   6.153   4.338
 6506TIP3   OH219458   4.279   3.918   5.659
 6506TIP3    H119459   4.355   3.892   5.607
 6506TIP3    H219460   4.224   3.840   5.663
 6507TIP3   OH219461   4.463   2.818   2.402
 6507TIP3    H119462   4.438   2.907   2.375
 6507TIP3    H219463   4.547   2.830   2.446
 6508TIP3   OH219464   5.960   1.226   2.868
 6508TIP3    H119465   5.913   1.233   2.951
 6508TIP3    H219466   5.951   1.134   2.843
 6509TIP3   OH219467   2.213   3.759   0.146
 6509TIP3    H119468   2.270   3.707   0.203
 6509TIP3    H219469   2.124   3.728   0.166
 6510TIP3   OH219470   6.682   6.484   1.478
 6510TIP3    H119471   6.722   6.450   1.398
 6510TIP3    H219472   6.614   6.543   1.448
 6511TIP3   OH219473   4.732   3.968   0.258
 6511TIP3    H119474   4.780   3.979   0.176
 6511TIP3    H219475   4.799   3.946   0.322
 6512TIP3   OH219476   7.509   3.725   2.916
 6512TIP3    H119477   7.445   3.662   2.948
 6512TIP3    H219478   7.474   3.810   2.943
 6513TIP3   OH219479   5.436   3.149   4.575
 6513TIP3    H119480   5.394   3.194   4.648
 6513TIP3    H219481   5.524   3.188   4.569
 6514TIP3   OH219482   6.531   0.681   2.949
 6514TIP3    H119483   6.466   0.614   2.930
 6514TIP3    H219484   6.589   0.642   3.014
 6515TIP3   OH219485   0.810   0.186   5.357
 6515TIP3    H119486   0.722   0.170   5.323
 6515TIP3    H219487   0.805   0.274   5.395
 6516TIP3   OH219488   1.604   6.340   6.717
 6516TIP3    H119489   1.678   6.395   6.742
 6516TIP3    H219490   1.566   6.311   6.800
 6517TIP3   OH219491   7.984   0.452   6.681
 6517TIP3    H119492   7.969   0.478   6.590
 6517TIP3    H219493   7.990   0.535   6.729
 6518TIP3   OH219494   6.187   2.423   0.827
 6518TIP3    H119495   6.139   2.505   0.815
 6518TIP3    H219496   6.192   2.385   0.739
 6519TIP3   OH219497   1.918   2.755   6.470
 6519TIP3    H119498   1.942   2.842   6.438
 6519TIP3    H219499   1.964   2.694   6.411
 6520TIP3   OH219500   3.523   6.024   2.711
 6520TIP3    H119501   3.457   6.093   2.710
 6520TIP3    H219502   3.533   6.000   2.619
 6521TIP3   OH219503   2.662   1.962   0.396
 6521TIP3    H119504   2.572   1.961   0.427
 6521TIP3    H219505   2.654   1.976   0.301
 6522TIP3   OH219506   4.124   7.874   3.659
 6522TIP3    H119507   4.197   7.817   3.637
 6522TIP3    H219508   4.057   7.854   3.593
 6523TIP3   OH219509   7.781   5.542   3.167
 6523TIP3    H119510   7.717   5.592   3.116
 6523TIP3    H219511   7.845   5.513   3.102
 6524TIP3   OH219512   0.338   6.545   1.940
 6524TIP3    H119513   0.282   6.505   2.006
 6524TIP3    H219514   0.329   6.489   1.863
 6525TIP3   OH219515   2.271   0.805   6.214
 6525TIP3    H119516   2.206   0.851   6.161
 6525TIP3    H219517   2.323   0.755   6.150
 6526TIP3   OH219518   2.149   3.084   3.673
 6526TIP3    H119519   2.123   3.176   3.664
 6526TIP3    H219520   2.237   3.080   3.634
 6527TIP3   OH219521   3.760   1.095   0.887
 6527TIP3    H119522   3.782   1.065   0.975
 6527TIP3    H219523   3.788   1.024   0.830
 6528TIP3   OH219524   5.199   2.402   6.079
 6528TIP3    H119525   5.187   2.476   6.139
 6528TIP3    H219526   5.261   2.345   6.123
 6529TIP3   OH219527   7.939   6.445   0.301
 6529TIP3    H119528   7.984   6.413   0.223
 6529TIP3    H219529   7.982   6.529   0.320
 6530TIP3   OH219530   5.733   5.857   5.348
 6530TIP3    H119531   5.752   5.923   5.282
 6530TIP3    H219532   5.651   5.885   5.388
 6531TIP3   OH219533   7.875   6.824   1.505
 6531TIP3    H119534   7.797   6.788   1.549
 6531TIP3    H219535   7.841   6.863   1.425
 6532TIP3   OH219536   4.662   7.140   3.710
 6532TIP3    H119537   4.723   7.208   3.737
 6532TIP3    H219538   4.579   7.186   3.700
 6533TIP3   OH219539   5.378   0.773   2.124
 6533TIP3    H119540   5.461   0.816   2.146
 6533TIP3    H219541   5.326   0.842   2.083
 6534TIP3   OH219542   5.459   1.608   6.581
 6534TIP3    H119543   5.479   1.648   6.497
 6534TIP3    H219544   5.364   1.598   6.581
 6535TIP3   OH219545   2.294   1.626   2.436
 6535TIP3    H119546   2.206   1.650   2.466
 6535TIP3    H219547   2.307   1.676   2.355
 6536TIP3   OH219548   3.244   0.769   3.564
 6536TIP3    H119549   3.297   0.790   3.641
 6536TIP3    H219550   3.295   0.702   3.518
 6537TIP3   OH219551   0.126   5.116   6.573
 6537TIP3    H119552   0.070   5.052   6.617
 6537TIP3    H219553   0.067   5.188   6.551
 6538TIP3   OH219554   7.428   1.847   5.043
 6538TIP3    H119555   7.337   1.875   5.049
 6538TIP3    H219556   7.422   1.752   5.029
 6539TIP3   OH219557   4.206   7.130   2.278
 6539TIP3    H119558   4.153   7.074   2.222
 6539TIP3    H219559   4.295   7.123   2.241
 6540TIP3   OH219560   3.540   5.094   5.224
 6540TIP3    H119561   3.547   4.999   5.216
 6540TIP3    H219562   3.594   5.115   5.301
 6541TIP3   OH219563   0.191   4.683   1.405
 6541TIP3    H119564   0.191   4.704   1.312
 6541TIP3    H219565   0.106   4.711   1.437
 6542TIP3   OH219566   5.507   6.595   1.721
 6542TIP3    H119567   5.434   6.594   1.659
 6542TIP3    H219568   5.558   6.672   1.696
 6543TIP3   OH219569   1.100   7.307   1.582
 6543TIP3    H119570   1.026   7.324   1.524
 6543TIP3    H219571   1.068   7.327   1.670
 6544TIP3   OH219572   6.937   4.212   4.882
 6544TIP3    H119573   6.961   4.157   4.807
 6544TIP3    H219574   6.841   4.213   4.881
 6545TIP3   OH219575   5.552   3.095   6.317
 6545TIP3    H119576   5.580   3.010   6.352
 6545TIP3    H219577   5.579   3.093   6.226
 6546TIP3   OH219578   0.811   4.243   4.554
 6546TIP3    H119579   0.727   4.203   4.534
 6546TIP3    H219580   0.858   4.243   4.470
 6547TIP3   OH219581   2.253   1.913   1.275
 6547TIP3    H119582   2.227   1.837   1.223
 6547TIP3    H219583   2.298   1.970   1.212
 6548TIP3   OH219584   1.927   7.008   3.733
 6548TIP3    H119585   1.904   6.923   3.696
 6548TIP3    H219586   2.018   6.997   3.763
 6549TIP3   OH219587   3.555   5.065   2.891
 6549TIP3    H119588   3.559   5.037   2.982
 6549TIP3    H219589   3.461   5.063   2.870
 6550TIP3   OH219590   6.069   3.581   2.946
 6550TIP3    H119591   6.087   3.525   2.870
 6550TIP3    H219592   6.052   3.521   3.018
 6551TIP3   OH219593   3.985   4.910   3.915
 6551TIP3    H119594   4.022   4.843   3.858
 6551TIP3    H219595   3.960   4.863   3.995
 6552TIP3   OH219596   4.064   5.360   4.047
 6552TIP3    H119597   4.096   5.388   4.133
 6552TIP3    H219598   3.969   5.365   4.054
 6553TIP3   OH219599   8.098   7.595   6.383
 6553TIP3    H119600   8.012   7.585   6.425
 6553TIP3    H219601   8.148   7.647   6.445
 6554TIP3   OH219602  -0.009   5.644   1.158
 6554TIP3    H119603   0.036   5.725   1.132
 6554TIP3    H219604   0.061   5.586   1.189
 6555TIP3   OH219605   5.544   7.096   5.177
 6555TIP3    H119606   5.622   7.108   5.230
 6555TIP3    H219607   5.575   7.056   5.096
 6556TIP3   OH219608   6.877   6.761   0.541
 6556TIP3    H119609   6.948   6.815   0.576
 6556TIP3    H219610   6.804   6.778   0.600
 6557TIP3   OH219611   7.217   6.355   6.425
 6557TIP3    H119612   7.164   6.428   6.459
 6557TIP3    H219613   7.154   6.298   6.382
 6558TIP3   OH219614   0.435   0.056   4.081
 6558TIP3    H119615   0.387   0.114   4.022
 6558TIP3    H219616   0.442  -0.026   4.033
 6559TIP3   OH219617   2.380   1.482   2.070
 6559TIP3    H119618   2.469   1.517   2.077
 6559TIP3    H219619   2.346   1.517   1.988
 6560TIP3   OH219620   6.181   7.315   6.779
 6560TIP3    H119621   6.114   7.258   6.816
 6560TIP3    H219622   6.166   7.401   6.819
 6561TIP3   OH219623   0.386   6.115   1.790
 6561TIP3    H119624   0.387   6.142   1.698
 6561TIP3    H219625   0.303   6.068   1.800
 6562TIP3   OH219626   5.792   5.246   6.451
 6562TIP3    H119627   5.742   5.277   6.527
 6562TIP3    H219628   5.725   5.222   6.387
 6563TIP3   OH219629   1.279   2.090   3.806
 6563TIP3    H119630   1.225   2.166   3.781
 6563TIP3    H219631   1.301   2.105   3.897
 6564TIP3   OH219632   1.403   7.441   4.096
 6564TIP3    H119633   1.346   7.518   4.090
 6564TIP3    H219634   1.388   7.408   4.185
 6565TIP3   OH219635   3.047   1.965   5.986
 6565TIP3    H119636   3.115   2.004   6.041
 6565TIP3    H219637   3.029   2.032   5.919
 6566TIP3   OH219638   0.106   6.308   2.862
 6566TIP3    H119639   0.156   6.326   2.942
 6566TIP3    H219640   0.153   6.355   2.793
 6567TIP3   OH219641   4.865   4.068   1.703
 6567TIP3    H119642   4.810   4.097   1.630
 6567TIP3    H219643   4.804   4.032   1.767
 6568TIP3   OH219644   2.923   5.895   2.849
 6568TIP3    H119645   2.831   5.876   2.831
 6568TIP3    H219646   2.969   5.815   2.823
 6569TIP3   OH219647   1.282   7.475   4.481
 6569TIP3    H119648   1.290   7.546   4.418
 6569TIP3    H219649   1.347   7.410   4.452
 6570TIP3   OH219650   1.668   0.488   5.477
 6570TIP3    H119651   1.734   0.436   5.431
 6570TIP3    H219652   1.718   0.538   5.541
 6571TIP3   OH219653   1.614   5.838   1.123
 6571TIP3    H119654   1.669   5.784   1.180
 6571TIP3    H219655   1.644   5.928   1.139
 6572TIP3   OH219656   5.586   1.638   0.676
 6572TIP3    H119657   5.554   1.660   0.764
 6572TIP3    H219658   5.507   1.615   0.627
 6573TIP3   OH219659   2.891   4.258   1.539
 6573TIP3    H119660   2.909   4.322   1.470
 6573TIP3    H219661   2.867   4.311   1.615
 6574TIP3   OH219662   4.035   2.755   0.706
 6574TIP3    H119663   3.943   2.734   0.724
 6574TIP3    H219664   4.076   2.757   0.792
 6575TIP3   OH219665   2.973   7.337   1.119
 6575TIP3    H119666   2.902   7.277   1.143
 6575TIP3    H219667   2.929   7.417   1.091
 6576TIP3   OH219668   1.875   2.932   2.262
 6576TIP3    H119669   1.896   2.926   2.355
 6576TIP3    H219670   1.781   2.949   2.260
 6577TIP3   OH219671   8.052   6.946   0.305
 6577TIP3    H119672   8.029   6.937   0.213
 6577TIP3    H219673   8.014   7.030   0.331
 6578TIP3   OH219674   4.828   3.752   6.244
 6578TIP3    H119675   4.783   3.832   6.215
 6578TIP3    H219676   4.921   3.770   6.229
 6579TIP3   OH219677   4.707   2.675   5.659
 6579TIP3    H119678   4.682   2.766   5.642
 6579TIP3    H219679   4.759   2.679   5.739
 6580TIP3   OH219680   4.162   0.107   2.469
 6580TIP3    H119681   4.192   0.016   2.469
 6580TIP3    H219682   4.234   0.156   2.510
 6581TIP3   OH219683   4.282   0.756   2.756
 6581TIP3    H119684   4.314   0.752   2.666
 6581TIP3    H219685   4.261   0.665   2.779
 6582TIP3   OH219686   2.751   4.520   2.741
 6582TIP3    H119687   2.714   4.437   2.711
 6582TIP3    H219688   2.845   4.508   2.736
 6583TIP3   OH219689   0.840   6.665   5.236
 6583TIP3    H119690   0.796   6.664   5.321
 6583TIP3    H219691   0.830   6.577   5.202
 6584TIP3   OH219692   5.711   4.267   2.330
 6584TIP3    H119693   5.774   4.208   2.371
 6584TIP3    H219694   5.682   4.323   2.402
 6585TIP3   OH219695   3.715   6.031   3.712
 6585TIP3    H119696   3.638   6.007   3.661
 6585TIP3    H219697   3.786   6.036   3.648
 6586TIP3   OH219698   2.229   0.675   5.114
 6586TIP3    H119699   2.319   0.671   5.147
 6586TIP3    H219700   2.175   0.684   5.192
 6587TIP3   OH219701   7.082   3.462   3.106
 6587TIP3    H119702   7.036   3.534   3.064
 6587TIP3    H219703   7.020   3.389   3.104
 6588TIP3   OH219704   5.139   1.416   5.244
 6588TIP3    H119705   5.108   1.341   5.295
 6588TIP3    H219706   5.219   1.386   5.202
 6589TIP3   OH219707   3.978   3.072   2.616
 6589TIP3    H119708   4.050   3.063   2.554
 6589TIP3    H219709   3.899   3.075   2.562
 6590TIP3   OH219710   7.302   3.231   0.793
 6590TIP3    H119711   7.291   3.218   0.699
 6590TIP3    H219712   7.375   3.293   0.800
 6591TIP3   OH219713   6.170   5.883   0.333
 6591TIP3    H119714   6.124   5.959   0.370
 6591TIP3    H219715   6.235   5.921   0.274
 6592TIP3   OH219716   6.377   4.414   5.039
 6592TIP3    H119717   6.320   4.480   5.079
 6592TIP3    H219718   6.352   4.414   4.946
 6593TIP3   OH219719   4.907   3.538   1.110
 6593TIP3    H119720   4.995   3.545   1.145
 6593TIP3    H219721   4.851   3.570   1.181
 6594TIP3   OH219722   0.173   0.194   6.200
 6594TIP3    H119723   0.097   0.159   6.247
 6594TIP3    H219724   0.140   0.217   6.114
 6595TIP3   OH219725   1.411   6.470   0.180
 6595TIP3    H119726   1.323   6.507   0.184
 6595TIP3    H219727   1.448   6.503   0.099
 6596TIP3   OH219728   7.404   5.398   4.198
 6596TIP3    H119729   7.438   5.324   4.249
 6596TIP3    H219730   7.331   5.362   4.148
 6597TIP3   OH219731   5.272   3.654   2.792
 6597TIP3    H119732   5.261   3.749   2.787
 6597TIP3    H219733   5.186   3.621   2.819
 6598TIP3   OH219734   0.587   6.951   5.069
 6598TIP3    H119735   0.590   6.893   5.145
 6598TIP3    H219736   0.552   6.896   4.999
 6599TIP3   OH219737   5.967   5.843   0.972
 6599TIP3    H119738   5.906   5.809   0.906
 6599TIP3    H219739   6.051   5.802   0.950
 6600TIP3   OH219740   1.250   5.239   3.641
 6600TIP3    H119741   1.212   5.296   3.575
 6600TIP3    H219742   1.313   5.294   3.688
 6601TIP3   OH219743   1.849   0.806   6.676
 6601TIP3    H119744   1.941   0.798   6.699
 6601TIP3    H219745   1.836   0.899   6.657
 6602TIP3   OH219746   2.612   1.536   6.878
 6602TIP3    H119747   2.659   1.532   6.795
 6602TIP3    H219748   2.548   1.606   6.866
 6603TIP3   OH219749   2.808   0.091   5.133
 6603TIP3    H119750   2.886   0.053   5.092
 6603TIP3    H219751   2.750   0.111   5.060
 6604TIP3   OH219752   0.324   0.838   0.039
 6604TIP3    H119753   0.376   0.850   0.119
 6604TIP3    H219754   0.257   0.906   0.044
 6605TIP3   OH219755   3.860   2.839   1.062
 6605TIP3    H119756   3.888   2.754   1.096
 6605TIP3    H219757   3.891   2.902   1.127
 6606TIP3   OH219758   0.178   0.103   0.065
 6606TIP3    H119759   0.104   0.153   0.030
 6606TIP3    H219760   0.252   0.128   0.009
 6607TIP3   OH219761   5.837   2.627   6.253
 6607TIP3    H119762   5.894   2.556   6.223
 6607TIP3    H219763   5.799   2.595   6.334
 6608TIP3   OH219764   7.980   2.452   5.098
 6608TIP3    H119765   7.975   2.548   5.098
 6608TIP3    H219766   7.958   2.427   5.188
 6609TIP3   OH219767   1.080   5.054   4.716
 6609TIP3    H119768   1.047   5.122   4.774
 6609TIP3    H219769   1.023   5.057   4.639
 6610TIP3   OH219770   4.966   2.485   0.039
 6610TIP3    H119771   4.918   2.561   0.072
 6610TIP3    H219772   4.904   2.413   0.046
 6611TIP3   OH219773   3.714   0.288   3.017
 6611TIP3    H119774   3.730   0.371   2.972
 6611TIP3    H219775   3.659   0.239   2.957
 6612TIP3   OH219776   5.004   4.624   0.817
 6612TIP3    H119777   5.097   4.646   0.818
 6612TIP3    H219778   4.987   4.590   0.905
 6613TIP3   OH219779   5.900   1.637   4.179
 6613TIP3    H119780   5.947   1.575   4.234
 6613TIP3    H219781   5.892   1.593   4.094
 6614TIP3   OH219782   3.543   2.339   3.687
 6614TIP3    H119783   3.540   2.308   3.777
 6614TIP3    H219784   3.453   2.369   3.669
 6615TIP3   OH219785   8.176   3.210   5.316
 6615TIP3    H119786   8.122   3.187   5.240
 6615TIP3    H219787   8.265   3.187   5.289
 6616TIP3   OH219788   2.510   2.177   3.917
 6616TIP3    H119789   2.450   2.167   3.843
 6616TIP3    H219790   2.587   2.219   3.881
 6617TIP3   OH219791   7.661   6.441   5.286
 6617TIP3    H119792   7.573   6.413   5.311
 6617TIP3    H219793   7.673   6.406   5.198
 6618TIP3   OH219794   1.132   6.796   4.836
 6618TIP3    H119795   1.142   6.735   4.762
 6618TIP3    H219796   1.046   6.836   4.822
 6619TIP3   OH219797   1.660   7.306   6.772
 6619TIP3    H119798   1.714   7.230   6.752
 6619TIP3    H219799   1.722   7.371   6.805
 6620TIP3   OH219800   6.848   0.561   2.161
 6620TIP3    H119801   6.846   0.472   2.196
 6620TIP3    H219802   6.926   0.564   2.106
 6621TIP3   OH219803   7.433   6.361   5.480
 6621TIP3    H119804   7.393   6.378   5.395
 6621TIP3    H219805   7.398   6.429   5.537
 6622TIP3   OH219806   4.092   3.509   0.469
 6622TIP3    H119807   4.109   3.415   0.460
 6622TIP3    H219808   4.148   3.537   0.541
 6623TIP3   OH219809   7.956   3.411   4.830
 6623TIP3    H119810   7.936   3.489   4.882
 6623TIP3    H219811   7.954   3.339   4.892
 6624TIP3   OH219812   0.205   7.889   4.984
 6624TIP3    H119813   0.154   7.812   5.008
 6624TIP3    H219814   0.182   7.906   4.893
 6625TIP3   OH219815   1.598   1.706   5.800
 6625TIP3    H119816   1.602   1.611   5.793
 6625TIP3    H219817   1.574   1.736   5.712
 6626TIP3   OH219818   0.674   7.162   0.720
 6626TIP3    H119819   0.663   7.203   0.806
 6626TIP3    H219820   0.748   7.207   0.680
 6627TIP3   OH219821   3.193   4.445   5.224
 6627TIP3    H119822   3.208   4.354   5.251
 6627TIP3    H219823   3.262   4.495   5.269
 6628TIP3   OH219824   1.257   1.799   3.775
 6628TIP3    H119825   1.279   1.883   3.815
 6628TIP3    H219826   1.183   1.818   3.718
 6629TIP3   OH219827   0.466   5.767   0.323
 6629TIP3    H119828   0.450   5.748   0.416
 6629TIP3    H219829   0.438   5.858   0.313
 6630TIP3   OH219830   4.610   2.962   6.223
 6630TIP3    H119831   4.653   2.974   6.307
 6630TIP3    H219832   4.554   3.039   6.212
 6631TIP3   OH219833   8.147   5.628   1.631
 6631TIP3    H119834   8.073   5.664   1.583
 6631TIP3    H219835   8.224   5.653   1.579
 6632TIP3   OH219836   6.794   4.783   4.739
 6632TIP3    H119837   6.844   4.706   4.768
 6632TIP3    H219838   6.824   4.799   4.650
 6633TIP3   OH219839   6.965   3.827   6.463
 6633TIP3    H119840   6.903   3.877   6.516
 6633TIP3    H219841   6.963   3.738   6.500
 6634TIP3   OH219842   5.588   0.945   2.259
 6634TIP3    H119843   5.646   0.988   2.196
 6634TIP3    H219844   5.639   0.942   2.340
 6635TIP3   OH219845   1.449   5.589   4.988
 6635TIP3    H119846   1.466   5.555   4.900
 6635TIP3    H219847   1.504   5.667   4.994
 6636TIP3   OH219848   6.005   2.083   0.515
 6636TIP3    H119849   6.076   2.146   0.520
 6636TIP3    H219850   5.959   2.093   0.598
 6637TIP3   OH219851   0.284   0.701   2.649
 6637TIP3    H119852   0.269   0.670   2.559
 6637TIP3    H219853   0.364   0.657   2.677
 6638TIP3   OH219854   1.562   3.868   2.796
 6638TIP3    H119855   1.473   3.892   2.770
 6638TIP3    H219856   1.613   3.948   2.788
 6639TIP3   OH219857   8.077   5.349   6.347
 6639TIP3    H119858   8.028   5.269   6.365
 6639TIP3    H219859   8.139   5.325   6.279
 6640TIP3   OH219860   7.240   0.270   3.446
 6640TIP3    H119861   7.153   0.240   3.471
 6640TIP3    H219862   7.294   0.257   3.524
 6641TIP3   OH219863   1.719   2.307   0.172
 6641TIP3    H119864   1.677   2.254   0.240
 6641TIP3    H219865   1.652   2.317   0.105
 6642TIP3   OH219866   5.432   7.774   0.936
 6642TIP3    H119867   5.345   7.741   0.959
 6642TIP3    H219868   5.472   7.795   1.021
 6643TIP3   OH219869   7.220   7.065   5.896
 6643TIP3    H119870   7.252   7.110   5.818
 6643TIP3    H219871   7.259   6.977   5.892
 6644TIP3   OH219872   7.207   6.768   1.844
 6644TIP3    H119873   7.225   6.851   1.801
 6644TIP3    H219874   7.119   6.744   1.815
 6645TIP3   OH219875   1.148   5.812   2.770
 6645TIP3    H119876   1.151   5.872   2.844
 6645TIP3    H219877   1.159   5.869   2.693
 6646TIP3   OH219878   5.883   2.445   5.777
 6646TIP3    H119879   5.935   2.468   5.854
 6646TIP3    H219880   5.833   2.524   5.756
 6647TIP3   OH219881   6.022   3.810   6.528
 6647TIP3    H119882   6.068   3.855   6.457
 6647TIP3    H219883   6.092   3.785   6.589
 6648TIP3   OH219884   2.920   5.769   2.002
 6648TIP3    H119885   2.863   5.844   2.018
 6648TIP3    H219886   2.867   5.693   2.027
 6649TIP3   OH219887   0.194   0.715   6.153
 6649TIP3    H119888   0.137   0.766   6.095
 6649TIP3    H219889   0.259   0.677   6.094
 6650TIP3   OH219890   3.646   3.871   1.417
 6650TIP3    H119891   3.571   3.820   1.387
 6650TIP3    H219892   3.608   3.954   1.447
 6651TIP3   OH219893   5.656   6.490   2.381
 6651TIP3    H119894   5.665   6.396   2.397
 6651TIP3    H219895   5.566   6.510   2.410
 6652TIP3   OH219896   1.065   3.959   0.154
 6652TIP3    H119897   0.975   3.933   0.175
 6652TIP3    H219898   1.075   4.046   0.191
 6653TIP3   OH219899   4.215   4.459   0.951
 6653TIP3    H119900   4.300   4.470   0.992
 6653TIP3    H219901   4.153   4.457   1.024
 6654TIP3   OH219902   8.075   7.604   4.865
 6654TIP3    H119903   8.020   7.551   4.807
 6654TIP3    H219904   8.079   7.690   4.822
 6655TIP3   OH219905   1.851   3.428  -0.004
 6655TIP3    H119906   1.841   3.350  -0.058
 6655TIP3    H219907   1.857   3.396   0.085
 6656TIP3   OH219908   7.146   1.088   5.053
 6656TIP3    H119909   7.075   1.141   5.090
 6656TIP3    H219910   7.122   1.078   4.961
 6657TIP3   OH219911   2.844   0.412   3.172
 6657TIP3    H119912   2.820   0.364   3.093
 6657TIP3    H219913   2.888   0.347   3.227
 6658TIP3   OH219914   6.569   7.288   1.588
 6658TIP3    H119915   6.511   7.273   1.513
 6658TIP3    H219916   6.512   7.323   1.656
 6659TIP3   OH219917   8.169   5.923   6.483
 6659TIP3    H119918   8.079   5.893   6.492
 6659TIP3    H219919   8.185   5.927   6.389
 6660TIP3   OH219920   3.302   7.510   1.773
 6660TIP3    H119921   3.225   7.559   1.744
 6660TIP3    H219922   3.376   7.567   1.757
 6661TIP3   OH219923   4.026   2.100   0.156
 6661TIP3    H119924   4.081   2.061   0.224
 6661TIP3    H219925   4.087   2.121   0.086
 6662TIP3   OH219926   0.783   7.371   6.615
 6662TIP3    H119927   0.764   7.294   6.668
 6662TIP3    H219928   0.743   7.352   6.530
 6663TIP3   OH219929   7.983   3.524   0.608
 6663TIP3    H119930   7.924   3.463   0.653
 6663TIP3    H219931   7.945   3.611   0.625
 6664TIP3   OH219932   5.666   2.966   2.653
 6664TIP3    H119933   5.649   2.953   2.560
 6664TIP3    H219934   5.730   3.037   2.657
 6665TIP3   OH219935   2.773   4.143   5.350
 6665TIP3    H119936   2.814   4.230   5.352
 6665TIP3    H219937   2.692   4.156   5.300
 6666TIP3   OH219938   4.573   7.185   2.796
 6666TIP3    H119939   4.588   7.136   2.715
 6666TIP3    H219940   4.510   7.253   2.772
 6667TIP3   OH219941   3.388   0.100   1.554
 6667TIP3    H119942   3.299   0.121   1.582
 6667TIP3    H219943   3.408   0.018   1.599
 6668TIP3   OH219944   0.640   7.401   3.167
 6668TIP3    H119945   0.550   7.382   3.195
 6668TIP3    H219946   0.631   7.428   3.076
 6669TIP3   OH219947   0.778   3.854   4.266
 6669TIP3    H119948   0.793   3.948   4.252
 6669TIP3    H219949   0.683   3.844   4.263
 6670TIP3   OH219950   7.261   5.340   1.688
 6670TIP3    H119951   7.290   5.281   1.757
 6670TIP3    H219952   7.166   5.334   1.690
 6671TIP3   OH219953   3.034   5.066   5.114
 6671TIP3    H119954   3.050   5.159   5.132
 6671TIP3    H219955   3.057   5.022   5.196
 6672TIP3   OH219956   3.101   2.219   6.330
 6672TIP3    H119957   3.065   2.306   6.347
 6672TIP3    H219958   3.136   2.190   6.414
 6673TIP3   OH219959   4.899   6.632   5.071
 6673TIP3    H119960   4.970   6.695   5.061
 6673TIP3    H219961   4.829   6.682   5.112
 6674TIP3   OH219962   1.463   1.860   4.415
 6674TIP3    H119963   1.414   1.941   4.401
 6674TIP3    H219964   1.481   1.827   4.327
 6675TIP3   OH219965   3.674   7.937   1.166
 6675TIP3    H119966   3.615   7.866   1.190
 6675TIP3    H219967   3.744   7.894   1.117
 6676TIP3   OH219968   1.388   0.103   2.962
 6676TIP3    H119969   1.418   0.042   3.029
 6676TIP3    H219970   1.389   0.052   2.881
 6677TIP3   OH219971   6.185   6.098   2.532
 6677TIP3    H119972   6.230   6.171   2.490
 6677TIP3    H219973   6.146   6.049   2.460
 6678TIP3   OH219974   1.146   6.460   1.895
 6678TIP3    H119975   1.182   6.434   1.810
 6678TIP3    H219976   1.102   6.543   1.879
 6679TIP3   OH219977   6.139   7.213   4.514
 6679TIP3    H119978   6.082   7.276   4.559
 6679TIP3    H219979   6.197   7.180   4.583
 6680TIP3   OH219980   7.753   1.257   1.715
 6680TIP3    H119981   7.798   1.330   1.673
 6680TIP3    H219982   7.820   1.189   1.724
 6681TIP3   OH219983   1.147   1.193   3.295
 6681TIP3    H119984   1.167   1.274   3.247
 6681TIP3    H219985   1.153   1.218   3.387
 6682TIP3   OH219986   5.973   5.234   0.673
 6682TIP3    H119987   5.978   5.155   0.619
 6682TIP3    H219988   5.978   5.202   0.763
 6683TIP3   OH219989   3.931   0.567   0.315
 6683TIP3    H119990   3.972   0.500   0.370
 6683TIP3    H219991   3.913   0.639   0.375
 6684TIP3   OH219992   7.395   4.309   5.706
 6684TIP3    H119993   7.433   4.362   5.776
 6684TIP3    H219994   7.325   4.259   5.748
 6685TIP3   OH219995   7.694   3.428   2.938
 6685TIP3    H119996   7.761   3.405   2.872
 6685TIP3    H219997   7.634   3.485   2.891
 6686TIP3   OH219998   3.149   1.971   0.195
 6686TIP3    H119999   3.126   2.050   0.145
 6686TIP3    H220000   3.065   1.942   0.233
 6687TIP3   OH220001   0.997   0.052   0.943
 6687TIP3    H120002   1.050   0.120   0.984
 6687TIP3    H220003   1.060  -0.004   0.898
 6688TIP3   OH220004   4.567   0.722   2.689
 6688TIP3    H120005   4.506   0.725   2.615
 6688TIP3    H220006   4.589   0.814   2.705
 6689TIP3   OH220007   1.003   0.019   2.789
 6689TIP3    H120008   1.035   0.063   2.868
 6689TIP3    H220009   1.007   0.085   2.721
 6690TIP3   OH220010   4.366   7.006   2.897
 6690TIP3    H120011   4.346   7.098   2.914
 6690TIP3    H220012   4.449   7.008   2.849
 6691TIP3   OH220013   5.811   6.544   5.272
 6691TIP3    H120014   5.740   6.501   5.318
 6691TIP3    H220015   5.883   6.480   5.273
 6692TIP3   OH220016   2.413   5.806   4.182
 6692TIP3    H120017   2.362   5.803   4.264
 6692TIP3    H220018   2.346   5.808   4.113
 6693TIP3   OH220019   3.414   0.824   5.809
 6693TIP3    H120020   3.445   0.874   5.733
 6693TIP3    H220021   3.430   0.881   5.884
 6694TIP3   OH220022   3.007   1.447   0.297
 6694TIP3    H120023   3.056   1.435   0.216
 6694TIP3    H220024   3.058   1.512   0.346
 6695TIP3   OH220025   4.438   3.021   4.454
 6695TIP3    H120026   4.464   2.949   4.397
 6695TIP3    H220027   4.517   3.044   4.502
 6696TIP3   OH220028   4.785   2.381   4.291
 6696TIP3    H120029   4.849   2.323   4.251
 6696TIP3    H220030   4.700   2.341   4.271
 6697TIP3   OH220031   3.834   6.781   2.050
 6697TIP3    H120032   3.752   6.829   2.045
 6697TIP3    H220033   3.816   6.699   2.003
 6698TIP3   OH220034   3.805   3.181   6.782
 6698TIP3    H120035   3.811   3.261   6.730
 6698TIP3    H220036   3.712   3.158   6.780
 6699TIP3   OH220037   2.005   2.723   0.693
 6699TIP3    H120038   1.986   2.677   0.774
 6699TIP3    H220039   1.927   2.777   0.677
 6700TIP3   OH220040   2.324   2.403   3.571
 6700TIP3    H120041   2.370   2.363   3.497
 6700TIP3    H220042   2.343   2.346   3.645
 6701TIP3   OH220043   2.380   6.100   5.434
 6701TIP3    H120044   2.388   6.121   5.341
 6701TIP3    H220045   2.362   6.184   5.476
 6702TIP3   OH220046   5.802   2.400   2.599
 6702TIP3    H120047   5.859   2.471   2.630
 6702TIP3    H220048   5.856   2.321   2.607
 6703TIP3   OH220049   3.273   3.234   6.753
 6703TIP3    H120050   3.273   3.290   6.675
 6703TIP3    H220051   3.183   3.238   6.785
 6704TIP3   OH220052   6.361   6.820   5.511
 6704TIP3    H120053   6.267   6.802   5.516
 6704TIP3    H220054   6.399   6.768   5.581
 6705TIP3   OH220055   8.090   1.687   2.193
 6705TIP3    H120056   8.140   1.699   2.274
 6705TIP3    H220057   8.084   1.775   2.156
 6706TIP3   OH220058   7.028   2.964   4.642
 6706TIP3    H120059   6.968   3.025   4.600
 6706TIP3    H220060   7.113   2.982   4.600
 6707TIP3   OH220061   7.098   1.471   6.374
 6707TIP3    H120062   7.009   1.500   6.395
 6707TIP3    H220063   7.149   1.493   6.452
 6708TIP3   OH220064   6.384   4.021   0.378
 6708TIP3    H120065   6.454   3.959   0.358
 6708TIP3    H220066   6.398   4.094   0.318
 6709TIP3   OH220067   3.565   3.882   3.909
 6709TIP3    H120068   3.570   3.916   3.820
 6709TIP3    H220069   3.620   3.803   3.908
 6710TIP3   OH220070   6.577   4.024   1.345
 6710TIP3    H120071   6.631   3.981   1.412
 6710TIP3    H220072   6.557   4.110   1.383
 6711TIP3   OH220073   2.660   0.890   6.753
 6711TIP3    H120074   2.608   0.961   6.716
 6711TIP3    H220075   2.729   0.874   6.689
 6712TIP3   OH220076   5.946   4.946   3.022
 6712TIP3    H120077   5.907   4.907   3.100
 6712TIP3    H220078   6.006   5.012   3.056
 6713TIP3   OH220079   1.462   1.758   6.185
 6713TIP3    H120080   1.520   1.682   6.174
 6713TIP3    H220081   1.375   1.726   6.162
 6714TIP3   OH220082   4.382   5.763   5.946
 6714TIP3    H120083   4.441   5.827   5.985
 6714TIP3    H220084   4.331   5.812   5.881
 6715TIP3   OH220085   2.486   6.110   4.910
 6715TIP3    H120086   2.519   6.144   4.827
 6715TIP3    H220087   2.426   6.040   4.884
 6716TIP3   OH220088   4.109   5.843   3.632
 6716TIP3    H120089   4.162   5.922   3.645
 6716TIP3    H220090   4.082   5.817   3.720
 6717TIP3   OH220091   4.051   3.668   4.326
 6717TIP3    H120092   4.012   3.646   4.411
 6717TIP3    H220093   4.025   3.759   4.311
 6718TIP3   OH220094   7.277   5.526   1.478
 6718TIP3    H120095   7.284   5.464   1.551
 6718TIP3    H220096   7.190   5.509   1.441
 6719TIP3   OH220097   2.885   1.962   3.954
 6719TIP3    H120098   2.874   2.054   3.979
 6719TIP3    H220099   2.892   1.964   3.859
 6720TIP3   OH220100   4.543   2.451   3.053
 6720TIP3    H120101   4.533   2.449   3.148
 6720TIP3    H220102   4.588   2.369   3.033
 6721TIP3   OH220103   2.706   6.382   4.928
 6721TIP3    H120104   2.771   6.444   4.960
 6721TIP3    H220105   2.623   6.413   4.962
 6722TIP3   OH220106   2.805   5.096   2.091
 6722TIP3    H120107   2.875   5.145   2.133
 6722TIP3    H220108   2.760   5.051   2.162
 6723TIP3   OH220109   2.240   6.414   0.235
 6723TIP3    H120110   2.148   6.393   0.220
 6723TIP3    H220111   2.263   6.366   0.314
 6724TIP3   OH220112   8.184   0.494   0.260
 6724TIP3    H120113   8.146   0.436   0.194
 6724TIP3    H220114   8.268   0.454   0.282
 6725TIP3   OH220115   1.306   6.906   2.248
 6725TIP3    H120116   1.273   6.968   2.182
 6725TIP3    H220117   1.355   6.961   2.309
 6726TIP3   OH220118   2.528   7.712   3.411
 6726TIP3    H120119   2.606   7.657   3.413
 6726TIP3    H220120   2.456   7.652   3.430
 6727TIP3   OH220121   7.937   5.756   0.174
 6727TIP3    H120122   8.012   5.776   0.230
 6727TIP3    H220123   7.976   5.720   0.095
 6728TIP3   OH220124   5.685   7.128   3.264
 6728TIP3    H120125   5.693   7.090   3.351
 6728TIP3    H220126   5.634   7.208   3.277
 6729TIP3   OH220127   6.380   6.938   0.723
 6729TIP3    H120128   6.358   6.871   0.658
 6729TIP3    H220129   6.342   7.019   0.688
 6730TIP3   OH220130   0.264   2.482   6.713
 6730TIP3    H120131   0.320   2.450   6.642
 6730TIP3    H220132   0.175   2.472   6.680
 6731TIP3   OH220133   4.528   1.199   5.174
 6731TIP3    H120134   4.483   1.120   5.204
 6731TIP3    H220135   4.619   1.172   5.165
 6732TIP3   OH220136   1.696   0.291   4.639
 6732TIP3    H120137   1.739   0.270   4.722
 6732TIP3    H220138   1.635   0.361   4.660
 6733TIP3   OH220139   7.278   3.457   2.333
 6733TIP3    H120140   7.288   3.363   2.344
 6733TIP3    H220141   7.211   3.467   2.266
 6734TIP3   OH220142   5.806   1.640   3.744
 6734TIP3    H120143   5.879   1.695   3.717
 6734TIP3    H220144   5.846   1.559   3.775
 6735TIP3   OH220145   0.663   7.619   0.525
 6735TIP3    H120146   0.704   7.662   0.451
 6735TIP3    H220147   0.646   7.529   0.495
 6736TIP3   OH220148   2.870   1.475   2.260
 6736TIP3    H120149   2.877   1.570   2.246
 6736TIP3    H220150   2.897   1.436   2.177
 6737TIP3   OH220151   4.577   6.707   4.767
 6737TIP3    H120152   4.511   6.709   4.836
 6737TIP3    H220153   4.636   6.636   4.793
 6738TIP3   OH220154   0.951   1.908   6.206
 6738TIP3    H120155   0.906   1.970   6.149
 6738TIP3    H220156   0.999   1.963   6.268
 6739TIP3   OH220157   5.190   1.431   0.492
 6739TIP3    H120158   5.200   1.509   0.547
 6739TIP3    H220159   5.099   1.432   0.465
 6740TIP3   OH220160   0.898   0.366   1.560
 6740TIP3    H120161   0.992   0.351   1.548
 6740TIP3    H220162   0.860   0.347   1.474
 6741TIP3   OH220163   1.832   5.007   1.685
 6741TIP3    H120164   1.777   4.950   1.738
 6741TIP3    H220165   1.772   5.071   1.648
 6742TIP3   OH220166   1.187   1.872   5.500
 6742TIP3    H120167   1.139   1.818   5.437
 6742TIP3    H220168   1.212   1.950   5.450
 6743TIP3   OH220169   4.125   3.876   1.598
 6743TIP3    H120170   4.177   3.836   1.528
 6743TIP3    H220171   4.145   3.823   1.676
 6744TIP3   OH220172   5.451   2.223   1.802
 6744TIP3    H120173   5.396   2.158   1.845
 6744TIP3    H220174   5.474   2.184   1.718
 6745TIP3   OH220175   6.446   1.597   4.835
 6745TIP3    H120176   6.443   1.541   4.758
 6745TIP3    H220177   6.392   1.552   4.900
 6746TIP3   OH220178   1.993   6.042   6.225
 6746TIP3    H120179   1.967   5.950   6.236
 6746TIP3    H220180   1.982   6.058   6.131
 6747TIP3   OH220181   4.861   0.179   2.606
 6747TIP3    H120182   4.849   0.242   2.677
 6747TIP3    H220183   4.956   0.167   2.601
 6748TIP3   OH220184   6.952   3.213   1.342
 6748TIP3    H120185   6.880   3.159   1.375
 6748TIP3    H220186   7.030   3.176   1.384
 6749TIP3   OH220187   5.893   4.582   2.238
 6749TIP3    H120188   5.972   4.637   2.242
 6749TIP3    H220189   5.891   4.537   2.323
 6750TIP3   OH220190   4.224   1.044   3.144
 6750TIP3    H120191   4.254   1.046   3.236
 6750TIP3    H220192   4.211   1.137   3.122
 6751TIP3   OH220193   0.383   3.583   5.500
 6751TIP3    H120194   0.359   3.491   5.486
 6751TIP3    H220195   0.443   3.603   5.429
 6752TIP3   OH220196   7.027   3.349   0.505
 6752TIP3    H120197   6.965   3.401   0.454
 6752TIP3    H220198   7.004   3.366   0.596
 6753TIP3   OH220199   4.042   6.976   4.234
 6753TIP3    H120200   4.017   7.048   4.292
 6753TIP3    H220201   4.069   7.019   4.154
 6754TIP3   OH220202   4.962   6.333   3.888
 6754TIP3    H120203   4.885   6.277   3.898
 6754TIP3    H220204   5.026   6.295   3.948
 6755TIP3   OH220205   4.824   7.685   3.675
 6755TIP3    H120206   4.736   7.690   3.711
 6755TIP3    H220207   4.882   7.705   3.749
 6756TIP3   OH220208   4.423   2.130   2.132
 6756TIP3    H120209   4.428   2.124   2.036
 6756TIP3    H220210   4.483   2.201   2.154
 6757TIP3   OH220211   2.175   0.255   4.830
 6757TIP3    H120212   2.110   0.296   4.888
 6757TIP3    H220213   2.244   0.225   4.889
 6758TIP3   OH220214   3.563   6.923   2.102
 6758TIP3    H120215   3.512   6.953   2.178
 6758TIP3    H220216   3.497   6.904   2.035
 6759TIP3   OH220217   3.904   1.345   6.737
 6759TIP3    H120218   3.845   1.343   6.662
 6759TIP3    H220219   3.963   1.419   6.720
 6760TIP3   OH220220   6.001   3.360   4.934
 6760TIP3    H120221   5.916   3.405   4.930
 6760TIP3    H220222   5.990   3.295   5.003
 6761TIP3   OH220223   2.857   4.992   4.918
 6761TIP3    H120224   2.919   5.024   4.984
 6761TIP3    H220225   2.791   4.945   4.968
 6762TIP3   OH220226   7.869   6.224   5.204
 6762TIP3    H120227   7.841   6.246   5.293
 6762TIP3    H220228   7.788   6.214   5.155
 6763TIP3   OH220229   7.749   6.713   4.896
 6763TIP3    H120230   7.810   6.679   4.961
 6763TIP3    H220231   7.664   6.712   4.940
 6764TIP3   OH220232   6.356   6.432   2.971
 6764TIP3    H120233   6.413   6.376   3.023
 6764TIP3    H220234   6.282   6.452   3.029
 6765TIP3   OH220235   1.643   4.512   1.935
 6765TIP3    H120236   1.554   4.480   1.917
 6765TIP3    H220237   1.690   4.501   1.852
 6766TIP3   OH220238   7.583   1.264   1.280
 6766TIP3    H120239   7.640   1.321   1.331
 6766TIP3    H220240   7.527   1.324   1.230
 6767TIP3   OH220241   0.527   4.564   0.629
 6767TIP3    H120242   0.559   4.502   0.694
 6767TIP3    H220243   0.436   4.581   0.656
 6768TIP3   OH220244   2.818   7.279   1.422
 6768TIP3    H120245   2.740   7.307   1.470
 6768TIP3    H220246   2.787   7.205   1.369
 6769TIP3   OH220247   5.581   4.451   3.517
 6769TIP3    H120248   5.545   4.423   3.601
 6769TIP3    H220249   5.611   4.541   3.533
 6770TIP3   OH220250   4.367   7.774   6.810
 6770TIP3    H120251   4.386   7.693   6.764
 6770TIP3    H220252   4.450   7.822   6.808
 6771TIP3   OH220253   0.890   2.528   6.399
 6771TIP3    H120254   0.944   2.481   6.336
 6771TIP3    H220255   0.904   2.482   6.482
 6772TIP3   OH220256   5.248   2.043   4.689
 6772TIP3    H120257   5.292   2.029   4.605
 6772TIP3    H220258   5.270   2.133   4.713
 6773TIP3   OH220259   3.011   3.285   3.206
 6773TIP3    H120260   2.955   3.240   3.142
 6773TIP3    H220261   2.990   3.378   3.195
 6774TIP3   OH220262   2.243   1.411   0.756
 6774TIP3    H120263   2.260   1.331   0.707
 6774TIP3    H220264   2.234   1.479   0.688
 6775TIP3   OH220265   1.245   4.411   3.553
 6775TIP3    H120266   1.330   4.372   3.572
 6775TIP3    H220267   1.241   4.488   3.610
 6776TIP3   OH220268   2.356   2.746   3.327
 6776TIP3    H120269   2.286   2.794   3.282
 6776TIP3    H220270   2.437   2.781   3.290
 6777TIP3   OH220271   0.536   4.347   0.813
 6777TIP3    H120272   0.585   4.299   0.879
 6777TIP3    H220273   0.444   4.333   0.835
 6778TIP3   OH220274   6.788   5.097   6.000
 6778TIP3    H120275   6.833   5.021   6.035
 6778TIP3    H220276   6.791   5.162   6.071
 6779TIP3   OH220277   7.616   4.924   3.798
 6779TIP3    H120278   7.551   4.968   3.852
 6779TIP3    H220279   7.568   4.855   3.753
 6780TIP3   OH220280   0.914   1.249   1.123
 6780TIP3    H120281   0.827   1.289   1.127
 6780TIP3    H220282   0.949   1.261   1.211
 6781TIP3   OH220283   4.910   5.897   4.383
 6781TIP3    H120284   4.881   5.955   4.453
 6781TIP3    H220285   5.003   5.918   4.372
 6782TIP3   OH220286   5.074   7.675   1.280
 6782TIP3    H120287   5.046   7.724   1.358
 6782TIP3    H220288   5.142   7.729   1.241
 6783TIP3   OH220289   2.019   4.476   4.669
 6783TIP3    H120290   2.008   4.560   4.715
 6783TIP3    H220291   2.103   4.485   4.624
 6784TIP3   OH220292   5.428   7.793   0.247
 6784TIP3    H120293   5.522   7.808   0.249
 6784TIP3    H220294   5.403   7.787   0.340
 6785TIP3   OH220295   0.429   0.178   1.677
 6785TIP3    H120296   0.362   0.230   1.722
 6785TIP3    H220297   0.468   0.239   1.614
 6786TIP3   OH220298   4.417   4.340   4.174
 6786TIP3    H120299   4.505   4.310   4.151
 6786TIP3    H220300   4.415   4.334   4.269
 6787TIP3   OH220301   7.830   0.704   1.290
 6787TIP3    H120302   7.742   0.720   1.326
 6787TIP3    H220303   7.869   0.791   1.282
 6788TIP3   OH220304   4.447   4.028   0.755
 6788TIP3    H120305   4.532   4.066   0.773
 6788TIP3    H220306   4.386   4.101   0.761
 6789TIP3   OH220307   1.607   1.525   0.396
 6789TIP3    H120308   1.676   1.531   0.462
 6789TIP3    H220309   1.643   1.569   0.319
 6790TIP3   OH220310   2.103   0.588  -0.034
 6790TIP3    H120311   2.123   0.678  -0.009
 6790TIP3    H220312   2.147   0.535   0.033
 6791TIP3   OH220313   6.955   4.978   3.626
 6791TIP3    H120314   6.877   5.023   3.594
 6791TIP3    H220315   6.934   4.956   3.717
 6792TIP3   OH220316   7.989   4.103   4.940
 6792TIP3    H120317   7.898   4.133   4.934
 6792TIP3    H220318   8.005   4.062   4.855
 6793TIP3   OH220319   5.160   2.612   6.280
 6793TIP3    H120320   5.093   2.675   6.304
 6793TIP3    H220321   5.233   2.630   6.340
 6794TIP3   OH220322   8.017   2.634   1.800
 6794TIP3    H120323   8.032   2.593   1.715
 6794TIP3    H220324   7.965   2.712   1.780
 6795TIP3   OH220325   0.493   5.192   1.923
 6795TIP3    H120326   0.577   5.212   1.965
 6795TIP3    H220327   0.488   5.255   1.851
 6796TIP3   OH220328   0.094   1.385   4.252
 6796TIP3    H120329   0.084   1.378   4.347
 6796TIP3    H220330   0.065   1.300   4.219
 6797TIP3   OH220331   5.260   6.438   5.098
 6797TIP3    H120332   5.174   6.400   5.083
 6797TIP3    H220333   5.274   6.497   5.024
 6798TIP3   OH220334   5.075   2.402   2.402
 6798TIP3    H120335   5.119   2.481   2.431
 6798TIP3    H220336   5.090   2.339   2.473
 6799TIP3   OH220337   2.518   0.520   1.165
 6799TIP3    H120338   2.557   0.484   1.244
 6799TIP3    H220339   2.443   0.463   1.147
 6800TIP3   OH220340   2.868   3.104   3.052
 6800TIP3    H120341   2.900   3.049   3.123
 6800TIP3    H220342   2.849   3.042   2.981
 6801TIP3   OH220343   3.532   2.034   0.604
 6801TIP3    H120344   3.573   1.949   0.621
 6801TIP3    H220345   3.460   2.014   0.544
 6802TIP3   OH220346   2.989   5.209   6.363
 6802TIP3    H120347   3.005   5.245   6.276
 6802TIP3    H220348   3.062   5.242   6.416
 6803TIP3   OH220349   7.274   7.353   1.892
 6803TIP3    H120350   7.324   7.322   1.968
 6803TIP3    H220351   7.228   7.430   1.923
 6804TIP3   OH220352   0.412   3.641   6.306
 6804TIP3    H120353   0.401   3.735   6.320
 6804TIP3    H220354   0.325   3.604   6.320
 6805TIP3   OH220355   6.144   3.498   6.782
 6805TIP3    H120356   6.132   3.414   6.828
 6805TIP3    H220357   6.236   3.497   6.755
 6806TIP3   OH220358   6.513   0.260   5.819
 6806TIP3    H120359   6.521   0.289   5.728
 6806TIP3    H220360   6.594   0.289   5.861
 6807TIP3   OH220361   1.995   4.699   6.043
 6807TIP3    H120362   1.975   4.667   5.955
 6807TIP3    H220363   2.058   4.636   6.078
 6808TIP3   OH220364   8.045   7.235   0.347
 6808TIP3    H120365   8.099   7.313   0.354
 6808TIP3    H220366   7.962   7.266   0.309
 6809TIP3   OH220367   2.478   0.298   3.352
 6809TIP3    H120368   2.418   0.309   3.277
 6809TIP3    H220369   2.525   0.381   3.357
 6810TIP3   OH220370   6.255   5.630   5.327
 6810TIP3    H120371   6.178   5.686   5.334
 6810TIP3    H220372   6.220   5.541   5.333
 6811TIP3   OH220373   6.122   2.142   3.740
 6811TIP3    H120374   6.125   2.090   3.820
 6811TIP3    H220375   6.126   2.233   3.769
 6812TIP3   OH220376   6.659   0.659   0.109
 6812TIP3    H120377   6.700   0.741   0.081
 6812TIP3    H220378   6.731   0.596   0.111
 6813TIP3   OH220379   5.300   6.655   4.346
 6813TIP3    H120380   5.385   6.686   4.378
 6813TIP3    H220381   5.240   6.672   4.419
 6814TIP3   OH220382   0.974   6.289   0.637
 6814TIP3    H120383   1.061   6.294   0.596
 6814TIP3    H220384   0.983   6.220   0.703
 6815TIP3   OH220385   5.281   5.472   3.836
 6815TIP3    H120386   5.207   5.444   3.782
 6815TIP3    H220387   5.241   5.526   3.904
 6816TIP3   OH220388   7.384   4.141   5.201
 6816TIP3    H120389   7.413   4.201   5.269
 6816TIP3    H220390   7.295   4.169   5.180
 6817TIP3   OH220391   0.134   7.168   6.179
 6817TIP3    H120392   0.191   7.101   6.143
 6817TIP3    H220393   0.173   7.251   6.151
 6818TIP3   OH220394   8.170   0.562   1.849
 6818TIP3    H120395   8.170   0.657   1.861
 6818TIP3    H220396   8.079   0.537   1.864
 6819TIP3   OH220397   5.142   0.966   3.879
 6819TIP3    H120398   5.048   0.950   3.885
 6819TIP3    H220399   5.162   1.019   3.957
 6820TIP3   OH220400   0.716   7.342   1.233
 6820TIP3    H120401   0.727   7.250   1.210
 6820TIP3    H220402   0.784   7.387   1.184
 6821TIP3   OH220403   2.222   1.827   5.574
 6821TIP3    H120404   2.263   1.751   5.533
 6821TIP3    H220405   2.212   1.802   5.666
 6822TIP3   OH220406   8.077   2.447   4.208
 6822TIP3    H120407   8.046   2.361   4.237
 6822TIP3    H220408   7.998   2.499   4.195
 6823TIP3   OH220409   3.512   0.088   5.690
 6823TIP3    H120410   3.545   0.001   5.667
 6823TIP3    H220411   3.526   0.094   5.785
 6824TIP3   OH220412   0.385   1.332   1.294
 6824TIP3    H120413   0.476   1.300   1.291
 6824TIP3    H220414   0.389   1.411   1.348
 6825TIP3   OH220415   1.568   0.688   1.043
 6825TIP3    H120416   1.534   0.687   1.132
 6825TIP3    H220417   1.550   0.777   1.011
 6826TIP3   OH220418   4.523   0.720   0.315
 6826TIP3    H120419   4.548   0.771   0.238
 6826TIP3    H220420   4.507   0.632   0.281
 6827TIP3   OH220421   3.180   7.371   0.490
 6827TIP3    H120422   3.192   7.466   0.491
 6827TIP3    H220423   3.268   7.335   0.498
 6828TIP3   OH220424   1.285   5.742   5.404
 6828TIP3    H120425   1.343   5.686   5.352
 6828TIP3    H220426   1.281   5.699   5.489
 6829TIP3   OH220427   0.508   6.867   1.045
 6829TIP3    H120428   0.458   6.881   0.964
 6829TIP3    H220429   0.591   6.912   1.030
 6830TIP3   OH220430   6.500   5.722   2.410
 6830TIP3    H120431   6.446   5.795   2.442
 6830TIP3    H220432   6.521   5.671   2.488
 6831TIP3   OH220433   6.987   6.848   6.722
 6831TIP3    H120434   6.935   6.831   6.643
 6831TIP3    H220435   6.933   6.815   6.794
 6832TIP3   OH220436   4.119   5.164   6.296
 6832TIP3    H120437   4.181   5.098   6.266
 6832TIP3    H220438   4.126   5.162   6.391
 6833TIP3   OH220439   5.873   1.131   6.009
 6833TIP3    H120440   5.882   1.209   5.954
 6833TIP3    H220441   5.815   1.158   6.080
 6834TIP3   OH220442   8.144   3.504   2.331
 6834TIP3    H120443   8.141   3.430   2.391
 6834TIP3    H220444   8.215   3.559   2.364
 6835TIP3   OH220445   1.978   7.114   4.822
 6835TIP3    H120446   1.991   7.102   4.728
 6835TIP3    H220447   1.889   7.081   4.838
 6836TIP3   OH220448   4.834   5.725   1.576
 6836TIP3    H120449   4.895   5.760   1.511
 6836TIP3    H220450   4.748   5.757   1.546
 6837TIP3   OH220451   2.928   2.434   3.665
 6837TIP3    H120452   2.937   2.366   3.599
 6837TIP3    H220453   2.843   2.476   3.646
 6838TIP3   OH220454   5.153   0.935   2.470
 6838TIP3    H120455   5.091   0.915   2.400
 6838TIP3    H220456   5.099   0.947   2.548
 6839TIP3   OH220457   5.259   1.730   4.843
 6839TIP3    H120458   5.277   1.823   4.824
 6839TIP3    H220459   5.226   1.730   4.932
 6840TIP3   OH220460   1.390   0.345   4.905
 6840TIP3    H120461   1.379   0.436   4.877
 6840TIP3    H220462   1.485   0.330   4.903
 6841TIP3   OH220463   8.328   4.667   1.561
 6841TIP3    H120464   8.333   4.760   1.584
 6841TIP3    H220465   8.239   4.641   1.583
 6842TIP3   OH220466   3.330   0.155   2.858
 6842TIP3    H120467   3.290   0.071   2.881
 6842TIP3    H220468   3.284   0.219   2.913
 6843TIP3   OH220469   1.641   7.584   4.391
 6843TIP3    H120470   1.647   7.528   4.469
 6843TIP3    H220471   1.724   7.632   4.389
 6844TIP3   OH220472   0.407   4.862   2.892
 6844TIP3    H120473   0.485   4.822   2.854
 6844TIP3    H220474   0.405   4.950   2.855
 6845TIP3   OH220475   3.342   1.314   1.545
 6845TIP3    H120476   3.309   1.380   1.606
 6845TIP3    H220477   3.436   1.332   1.539
 6846TIP3   OH220478   2.649   4.441   1.326
 6846TIP3    H120479   2.602   4.521   1.351
 6846TIP3    H220480   2.738   4.470   1.310
 6847TIP3   OH220481   0.234   1.999   2.681
 6847TIP3    H120482   0.198   2.003   2.593
 6847TIP3    H220483   0.310   2.057   2.679
 6848TIP3   OH220484   5.082   0.273   3.614
 6848TIP3    H120485   5.067   0.235   3.701
 6848TIP3    H220486   5.079   0.368   3.629
 6849TIP3   OH220487   3.779   5.344   5.300
 6849TIP3    H120488   3.810   5.254   5.291
 6849TIP3    H220489   3.783   5.379   5.211
 6850TIP3   OH220490   5.288   5.369   5.861
 6850TIP3    H120491   5.346   5.334   5.793
 6850TIP3    H220492   5.231   5.296   5.884
 6851TIP3   OH220493   6.517   1.348   0.507
 6851TIP3    H120494   6.524   1.256   0.482
 6851TIP3    H220495   6.522   1.347   0.603
 6852TIP3   OH220496   5.623   0.262   2.194
 6852TIP3    H120497   5.534   0.243   2.222
 6852TIP3    H220498   5.679   0.211   2.253
 6853TIP3   OH220499   7.506   0.719   4.636
 6853TIP3    H120500   7.513   0.775   4.713
 6853TIP3    H220501   7.414   0.694   4.633
 6854TIP3   OH220502   6.581   3.541   4.143
 6854TIP3    H120503   6.496   3.586   4.146
 6854TIP3    H220504   6.628   3.584   4.072
 6855TIP3   OH220505   1.891   2.216   1.673
 6855TIP3    H120506   1.803   2.231   1.638
 6855TIP3    H220507   1.881   2.139   1.730
 6856TIP3   OH220508   4.960   3.824   6.639
 6856TIP3    H120509   4.866   3.835   6.653
 6856TIP3    H220510   4.967   3.751   6.579
 6857TIP3   OH220511   3.559   6.820   3.672
 6857TIP3    H120512   3.507   6.758   3.722
 6857TIP3    H220513   3.495   6.885   3.641
 6858TIP3   OH220514   5.468   0.326   1.788
 6858TIP3    H120515   5.420   0.327   1.871
 6858TIP3    H220516   5.551   0.369   1.807
 6859TIP3   OH220517   4.208   5.500   3.646
 6859TIP3    H120518   4.241   5.500   3.556
 6859TIP3    H220519   4.114   5.517   3.636
 6860TIP3   OH220520   5.306   2.874   0.338
 6860TIP3    H120521   5.395   2.850   0.363
 6860TIP3    H220522   5.279   2.804   0.278
 6861TIP3   OH220523   1.229   7.579   2.468
 6861TIP3    H120524   1.289   7.603   2.539
 6861TIP3    H220525   1.237   7.484   2.460
 6862TIP3   OH220526   1.157   3.635   1.602
 6862TIP3    H120527   1.245   3.602   1.585
 6862TIP3    H220528   1.139   3.694   1.529
 6863TIP3   OH220529   5.894   4.865   0.956
 6863TIP3    H120530   5.959   4.926   0.922
 6863TIP3    H220531   5.810   4.907   0.940
 6864TIP3   OH220532   7.842   1.376   3.575
 6864TIP3    H120533   7.798   1.308   3.625
 6864TIP3    H220534   7.799   1.458   3.601
 6865TIP3   OH220535   7.062   4.613   3.934
 6865TIP3    H120536   6.972   4.581   3.939
 6865TIP3    H220537   7.111   4.542   3.893
 6866TIP3   OH220538   0.636   3.395   6.332
 6866TIP3    H120539   0.730   3.412   6.324
 6866TIP3    H220540   0.605   3.463   6.392
 6867TIP3   OH220541   6.731   3.748   1.033
 6867TIP3    H120542   6.803   3.730   0.973
 6867TIP3    H220543   6.725   3.843   1.036
 6868TIP3   OH220544   6.269   7.237   6.537
 6868TIP3    H120545   6.236   7.245   6.626
 6868TIP3    H220546   6.364   7.234   6.546
 6869TIP3   OH220547   5.279   5.013   6.079
 6869TIP3    H120548   5.259   4.971   6.163
 6869TIP3    H220549   5.311   4.942   6.024
 6870TIP3   OH220550   0.168   2.087   2.442
 6870TIP3    H120551   0.107   2.089   2.369
 6870TIP3    H220552   0.142   2.162   2.497
 6871TIP3   OH220553   7.513   2.579   3.369
 6871TIP3    H120554   7.445   2.614   3.312
 6871TIP3    H220555   7.492   2.613   3.456
 6872TIP3   OH220556   5.418   1.099   6.005
 6872TIP3    H120557   5.472   1.148   5.943
 6872TIP3    H220558   5.357   1.164   6.041
 6873TIP3   OH220559   4.489   3.354   0.382
 6873TIP3    H120560   4.501   3.449   0.384
 6873TIP3    H220561   4.398   3.342   0.356
 6874TIP3   OH220562   6.296   2.599   1.961
 6874TIP3    H120563   6.392   2.594   1.970
 6874TIP3    H220564   6.281   2.587   1.868
 6875TIP3   OH220565   0.290   3.804   4.202
 6875TIP3    H120566   0.266   3.721   4.161
 6875TIP3    H220567   0.264   3.795   4.293
 6876TIP3   OH220568   3.927   4.133   0.439
 6876TIP3    H120569   3.987   4.064   0.410
 6876TIP3    H220570   3.944   4.206   0.380
 6877TIP3   OH220571   5.968   3.684   5.328
 6877TIP3    H120572   5.874   3.696   5.343
 6877TIP3    H220573   5.977   3.684   5.233
 6878TIP3   OH220574   1.911   3.789   0.524
 6878TIP3    H120575   1.822   3.756   0.536
 6878TIP3    H220576   1.964   3.711   0.509
 6879TIP3   OH220577   5.821   6.172   3.989
 6879TIP3    H120578   5.839   6.078   3.989
 6879TIP3    H220579   5.857   6.204   3.907
 6880TIP3   OH220580   5.732   0.405   4.086
 6880TIP3    H120581   5.792   0.384   4.014
 6880TIP3    H220582   5.646   0.411   4.045
 6881TIP3   OH220583   3.030   4.746   3.233
 6881TIP3    H120584   2.964   4.772   3.170
 6881TIP3    H220585   2.996   4.665   3.271
 6882TIP3   OH220586   4.405   6.677   5.322
 6882TIP3    H120587   4.312   6.693   5.342
 6882TIP3    H220588   4.408   6.672   5.226
 6883TIP3   OH220589   7.314   4.936   2.232
 6883TIP3    H120590   7.253   4.901   2.167
 6883TIP3    H220591   7.376   4.989   2.181
 6884TIP3   OH220592   0.954   5.576   6.206
 6884TIP3    H120593   1.041   5.615   6.215
 6884TIP3    H220594   0.956   5.533   6.120
 6885TIP3   OH220595   5.900   0.293   2.548
 6885TIP3    H120596   5.964   0.359   2.573
 6885TIP3    H220597   5.942   0.246   2.476
 6886TIP3   OH220598   0.594   0.464   1.761
 6886TIP3    H120599   0.556   0.533   1.707
 6886TIP3    H220600   0.597   0.388   1.704
 6887TIP3   OH220601   0.322   3.002   0.513
 6887TIP3    H120602   0.256   2.946   0.472
 6887TIP3    H220603   0.274   3.050   0.581
 6888TIP3   OH220604   2.410   3.439   0.769
 6888TIP3    H120605   2.359   3.359   0.753
 6888TIP3    H220606   2.409   3.450   0.864
 6889TIP3   OH220607   2.662   3.147   5.538
 6889TIP3    H120608   2.647   3.213   5.471
 6889TIP3    H220609   2.726   3.088   5.499
 6890TIP3   OH220610   3.097   3.935   0.106
 6890TIP3    H120611   3.189   3.928   0.080
 6890TIP3    H220612   3.100   3.968   0.196
 6891TIP3   OH220613   0.967   5.747   1.612
 6891TIP3    H120614   0.946   5.704   1.529
 6891TIP3    H220615   1.006   5.831   1.587
 6892TIP3   OH220616   8.328   7.396   1.518
 6892TIP3    H120617   8.273   7.452   1.573
 6892TIP3    H220618   8.339   7.445   1.437
 6893TIP3   OH220619   0.930   7.198   0.924
 6893TIP3    H120620   1.025   7.209   0.913
 6893TIP3    H220621   0.897   7.287   0.936
 6894TIP3   OH220622   2.099   5.359   3.628
 6894TIP3    H120623   2.018   5.327   3.666
 6894TIP3    H220624   2.076   5.385   3.539
 6895TIP3   OH220625   6.814   4.969   5.324
 6895TIP3    H120626   6.779   4.982   5.237
 6895TIP3    H220627   6.769   4.891   5.357
 6896TIP3   OH220628   3.971   4.352   3.403
 6896TIP3    H120629   3.973   4.328   3.310
 6896TIP3    H220630   4.036   4.421   3.411
 6897TIP3   OH220631   6.989   2.060   6.233
 6897TIP3    H120632   6.947   1.986   6.189
 6897TIP3    H220633   7.057   2.020   6.287
 6898TIP3   OH220634   3.664   2.226   3.471
 6898TIP3    H120635   3.617   2.263   3.545
 6898TIP3    H220636   3.617   2.146   3.450
 6899TIP3   OH220637   8.343   2.675   4.952
 6899TIP3    H120638   8.323   2.631   5.035
 6899TIP3    H220639   8.332   2.768   4.972
 6900TIP3   OH220640   6.975   0.059   3.233
 6900TIP3    H120641   7.065   0.025   3.239
 6900TIP3    H220642   6.985   0.153   3.245
 6901TIP3   OH220643   7.679   4.244   2.497
 6901TIP3    H120644   7.650   4.332   2.471
 6901TIP3    H220645   7.657   4.189   2.422
 6902TIP3   OH220646   6.504   5.232   1.020
 6902TIP3    H120647   6.563   5.208   0.949
 6902TIP3    H220648   6.472   5.319   0.996
 6903TIP3   OH220649   5.758   2.799   1.784
 6903TIP3    H120650   5.729   2.851   1.858
 6903TIP3    H220651   5.677   2.778   1.736
 6904TIP3   OH220652   3.690   1.111   2.623
 6904TIP3    H120653   3.608   1.157   2.640
 6904TIP3    H220654   3.758   1.178   2.636
 6905TIP3   OH220655   6.200   1.472   0.754
 6905TIP3    H120656   6.174   1.439   0.668
 6905TIP3    H220657   6.139   1.544   0.772
 6906TIP3   OH220658   7.210   0.959   0.692
 6906TIP3    H120659   7.162   0.876   0.699
 6906TIP3    H220660   7.177   0.998   0.611
 6907TIP3   OH220661   2.913   3.597   0.558
 6907TIP3    H120662   2.889   3.506   0.571
 6907TIP3    H220663   2.838   3.636   0.513
 6908TIP3   OH220664   2.203   6.474   6.788
 6908TIP3    H120665   2.289   6.483   6.830
 6908TIP3    H220666   2.152   6.420   6.848
 6909TIP3   OH220667   2.875   5.386   1.425
 6909TIP3    H120668   2.926   5.403   1.345
 6909TIP3    H220669   2.786   5.372   1.394
 6910TIP3   OH220670   7.164   3.095   1.461
 6910TIP3    H120671   7.189   3.049   1.541
 6910TIP3    H220672   7.139   3.026   1.400
 6911TIP3   OH220673   1.515   7.795   2.460
 6911TIP3    H120674   1.522   7.700   2.469
 6911TIP3    H220675   1.570   7.817   2.386
 6912TIP3   OH220676   6.289   7.209   1.910
 6912TIP3    H120677   6.210   7.172   1.948
 6912TIP3    H220678   6.259   7.253   1.830
 6913TIP3   OH220679   3.245   6.652   4.440
 6913TIP3    H120680   3.303   6.578   4.422
 6913TIP3    H220681   3.267   6.677   4.530
 6914TIP3   OH220682   3.064   0.712   4.950
 6914TIP3    H120683   3.113   0.771   5.008
 6914TIP3    H220684   3.026   0.646   5.008
 6915TIP3   OH220685   6.899   1.656   2.589
 6915TIP3    H120686   6.958   1.672   2.663
 6915TIP3    H220687   6.925   1.570   2.557
 6916TIP3   OH220688   6.362   5.516   2.670
 6916TIP3    H120689   6.356   5.464   2.590
 6916TIP3    H220690   6.456   5.516   2.691
 6917TIP3   OH220691   0.055   1.584   6.140
 6917TIP3    H120692  -0.034   1.612   6.119
 6917TIP3    H220693   0.094   1.562   6.055
 6918TIP3   OH220694   3.186   2.919   3.296
 6918TIP3    H120695   3.118   2.970   3.340
 6918TIP3    H220696   3.222   2.980   3.231
 6919TIP3   OH220697   2.217   2.680   5.986
 6919TIP3    H120698   2.139   2.702   6.038
 6919TIP3    H220699   2.288   2.726   6.030
 6920TIP3   OH220700   4.738  -0.036   1.401
 6920TIP3    H120701   4.827  -0.008   1.379
 6920TIP3    H220702   4.686   0.044   1.397
 6921TIP3   OH220703   5.059   4.559   1.097
 6921TIP3    H120704   5.038   4.612   1.174
 6921TIP3    H220705   5.154   4.548   1.101
 6922TIP3   OH220706   6.034   0.163   1.702
 6922TIP3    H120707   6.120   0.154   1.742
 6922TIP3    H220708   5.989   0.081   1.722
 6923TIP3   OH220709   0.594   7.679   2.669
 6923TIP3    H120710   0.643   7.636   2.599
 6923TIP3    H220711   0.536   7.740   2.624
 6924TIP3   OH220712   8.213   0.932   1.366
 6924TIP3    H120713   8.198   0.968   1.454
 6924TIP3    H220714   8.295   0.971   1.337
 6925TIP3   OH220715   1.422   1.467   1.022
 6925TIP3    H120716   1.468   1.478   0.939
 6925TIP3    H220717   1.330   1.484   1.001
 6926TIP3   OH220718   4.173   6.800   4.373
 6926TIP3    H120719   4.263   6.808   4.343
 6926TIP3    H220720   4.121   6.850   4.310
 6927TIP3   OH220721   0.559   5.050   6.016
 6927TIP3    H120722   0.548   5.030   5.923
 6927TIP3    H220723   0.485   5.107   6.038
 6928TIP3   OH220724   5.356   4.638   1.882
 6928TIP3    H120725   5.270   4.616   1.846
 6928TIP3    H220726   5.346   4.627   1.976
 6929TIP3   OH220727   7.970   0.128   5.034
 6929TIP3    H120728   7.993   0.046   4.990
 6929TIP3    H220729   7.883   0.112   5.070
 6930TIP3   OH220730   4.252   7.550   0.467
 6930TIP3    H120731   4.203   7.573   0.546
 6930TIP3    H220732   4.343   7.541   0.497
 6931TIP3   OH220733   0.476   0.577   5.597
 6931TIP3    H120734   0.563   0.563   5.634
 6931TIP3    H220735   0.426   0.499   5.622
 6932TIP3   OH220736   8.016   1.682   4.922
 6932TIP3    H120737   7.936   1.730   4.944
 6932TIP3    H220738   8.069   1.686   5.001
 6933TIP3   OH220739   4.759   1.979   6.717
 6933TIP3    H120740   4.745   2.066   6.755
 6933TIP3    H220741   4.798   1.929   6.788
 6934TIP3   OH220742   3.204   6.472   1.742
 6934TIP3    H120743   3.284   6.419   1.748
 6934TIP3    H220744   3.174   6.458   1.652
 6935TIP3   OH220745   0.218   0.708   1.479
 6935TIP3    H120746   0.199   0.679   1.390
 6935TIP3    H220747   0.170   0.646   1.535
 6936TIP3   OH220748   8.373   0.949   3.270
 6936TIP3    H120749   8.352   0.874   3.215
 6936TIP3    H220750   8.365   0.917   3.360
 6937TIP3   OH220751   7.880   1.469   1.583
 6937TIP3    H120752   7.893   1.446   1.491
 6937TIP3    H220753   7.963   1.450   1.625
 6938TIP3   OH220754   7.051   7.007   2.782
 6938TIP3    H120755   7.123   6.944   2.789
 6938TIP3    H220756   7.092   7.092   2.797
 6939TIP3   OH220757   2.451   2.902   4.862
 6939TIP3    H120758   2.356   2.895   4.853
 6939TIP3    H220759   2.483   2.814   4.841
 6940TIP3   OH220760   0.512   5.456   3.816
 6940TIP3    H120761   0.452   5.516   3.861
 6940TIP3    H220762   0.542   5.397   3.886
 6941TIP3   OH220763   3.729   1.640   4.384
 6941TIP3    H120764   3.703   1.548   4.377
 6941TIP3    H220765   3.651   1.689   4.358
 6942TIP3   OH220766   4.328   4.960   6.181
 6942TIP3    H120767   4.406   4.966   6.126
 6942TIP3    H220768   4.352   4.899   6.250
 6943TIP3   OH220769   8.301   5.754   1.429
 6943TIP3    H120770   8.340   5.670   1.404
 6943TIP3    H220771   8.327   5.815   1.360
 6944TIP3   OH220772   7.638   4.763   1.890
 6944TIP3    H120773   7.714   4.762   1.947
 6944TIP3    H220774   7.669   4.729   1.806
 6945TIP3   OH220775   2.570   2.258   6.462
 6945TIP3    H120776   2.491   2.258   6.409
 6945TIP3    H220777   2.633   2.310   6.411
 6946TIP3   OH220778   0.704   2.247   6.491
 6946TIP3    H120779   0.697   2.165   6.442
 6946TIP3    H220780   0.799   2.259   6.502
 6947TIP3   OH220781   7.626   0.651   2.953
 6947TIP3    H120782   7.595   0.730   2.909
 6947TIP3    H220783   7.721   0.656   2.947
 6948TIP3   OH220784   0.362   5.044   1.432
 6948TIP3    H120785   0.308   5.020   1.507
 6948TIP3    H220786   0.448   5.063   1.470
 6949TIP3   OH220787   3.492   5.729   6.030
 6949TIP3    H120788   3.435   5.802   6.003
 6949TIP3    H220789   3.513   5.748   6.121
 6950TIP3   OH220790   5.368   3.503   5.117
 6950TIP3    H120791   5.407   3.463   5.195
 6950TIP3    H220792   5.307   3.437   5.084
 6951TIP3   OH220793   7.765   1.823   6.638
 6951TIP3    H120794   7.713   1.764   6.693
 6951TIP3    H220795   7.706   1.848   6.567
 6952TIP3   OH220796   6.677   2.778   3.386
 6952TIP3    H120797   6.763   2.776   3.427
 6952TIP3    H220798   6.695   2.789   3.293
 6953TIP3   OH220799   2.177   2.347   4.270
 6953TIP3    H120800   2.110   2.322   4.334
 6953TIP3    H220801   2.214   2.428   4.306
 6954TIP3   OH220802   0.711   0.124   4.455
 6954TIP3    H120803   0.685   0.188   4.521
 6954TIP3    H220804   0.805   0.138   4.444
 6955TIP3   OH220805   6.591   0.081   1.535
 6955TIP3    H120806   6.513   0.032   1.508
 6955TIP3    H220807   6.609   0.050   1.624
 6956TIP3   OH220808   2.045   0.101   0.286
 6956TIP3    H120809   2.017   0.134   0.201
 6956TIP3    H220810   1.990   0.147   0.349
 6957TIP3   OH220811   1.877   4.567   1.152
 6957TIP3    H120812   1.809   4.502   1.167
 6957TIP3    H220813   1.960   4.519   1.161
 6958TIP3   OH220814   4.627   6.167   1.642
 6958TIP3    H120815   4.617   6.218   1.723
 6958TIP3    H220816   4.566   6.094   1.652
 6959TIP3   OH220817   7.221   2.057   0.956
 6959TIP3    H120818   7.171   2.002   0.896
 6959TIP3    H220819   7.241   2.136   0.905
 6960TIP3   OH220820   6.429   3.818   3.873
 6960TIP3    H120821   6.501   3.777   3.825
 6960TIP3    H220822   6.433   3.910   3.848
 6961TIP3   OH220823   4.435   1.029   5.508
 6961TIP3    H120824   4.480   1.112   5.488
 6961TIP3    H220825   4.477   0.964   5.452
 6962TIP3   OH220826   0.107   2.548   0.055
 6962TIP3    H120827   0.162   2.592  -0.010
 6962TIP3    H220828   0.054   2.618   0.094
 6963TIP3   OH220829   5.590   3.783   5.676
 6963TIP3    H120830   5.525   3.725   5.716
 6963TIP3    H220831   5.571   3.870   5.711
 6964TIP3   OH220832   6.935   5.151   3.994
 6964TIP3    H120833   6.869   5.218   3.976
 6964TIP3    H220834   6.916   5.081   3.932
 6965TIP3   OH220835   1.364   5.985   6.216
 6965TIP3    H120836   1.438   5.999   6.158
 6965TIP3    H220837   1.402   5.955   6.298
 6966TIP3   OH220838   0.724   2.922   1.527
 6966TIP3    H120839   0.737   3.015   1.509
 6966TIP3    H220840   0.809   2.882   1.509
 6967TIP3   OH220841   0.935   5.342   3.686
 6967TIP3    H120842   0.908   5.278   3.751
 6967TIP3    H220843   0.947   5.292   3.606
 6968TIP3   OH220844   5.799   5.841   2.782
 6968TIP3    H120845   5.823   5.873   2.695
 6968TIP3    H220846   5.847   5.758   2.791
 6969TIP3   OH220847   1.206   3.549   6.519
 6969TIP3    H120848   1.143   3.620   6.535
 6969TIP3    H220849   1.201   3.535   6.424
 6970TIP3   OH220850   4.062   2.461   6.000
 6970TIP3    H120851   4.079   2.550   5.967
 6970TIP3    H220852   4.031   2.475   6.089
 6971TIP3   OH220853   3.480   6.826   5.790
 6971TIP3    H120854   3.420   6.823   5.865
 6971TIP3    H220855   3.557   6.874   5.823
 6972TIP3   OH220856   4.158   6.001   6.437
 6972TIP3    H120857   4.251   5.983   6.423
 6972TIP3    H220858   4.154   6.041   6.524
 6973TIP3   OH220859   8.283   6.112   1.596
 6973TIP3    H120860   8.283   6.055   1.673
 6973TIP3    H220861   8.296   6.200   1.632
 6974TIP3   OH220862   8.408   6.516   6.764
 6974TIP3    H120863   8.313   6.509   6.749
 6974TIP3    H220864   8.416   6.522   6.860
 6975TIP3   OH220865   3.426   5.684   6.643
 6975TIP3    H120866   3.367   5.698   6.717
 6975TIP3    H220867   3.371   5.700   6.566
 6976TIP3   OH220868   0.116   7.542   0.905
 6976TIP3    H120869   0.184   7.478   0.886
 6976TIP3    H220870   0.138   7.575   0.992
 6977TIP3   OH220871   1.268   0.246   3.868
 6977TIP3    H120872   1.332   0.289   3.925
 6977TIP3    H220873   1.239   0.169   3.918
 6978TIP3   OH220874   1.417   0.057   3.668
 6978TIP3    H120875   1.346   0.111   3.703
 6978TIP3    H220876   1.396   0.046   3.576
 6979TIP3   OH220877   7.702   0.028   4.824
 6979TIP3    H120878   7.766  -0.001   4.759
 6979TIP3    H220879   7.735   0.112   4.854
 6980TIP3   OH220880   5.076   5.653   2.267
 6980TIP3    H120881   5.086   5.560   2.251
 6980TIP3    H220882   5.021   5.659   2.345
 6981TIP3   OH220883   5.740   7.653   3.375
 6981TIP3    H120884   5.830   7.652   3.344
 6981TIP3    H220885   5.704   7.735   3.343
 6982TIP3   OH220886   4.176   1.270   1.224
 6982TIP3    H120887   4.150   1.357   1.196
 6982TIP3    H220888   4.183   1.277   1.319
 6983TIP3   OH220889   5.186   3.459   2.509
 6983TIP3    H120890   5.228   3.514   2.443
 6983TIP3    H220891   5.128   3.518   2.556
 6984TIP3   OH220892   0.517   1.279   3.666
 6984TIP3    H120893   0.513   1.198   3.615
 6984TIP3    H220894   0.442   1.330   3.637
 6985TIP3   OH220895   2.862   5.647   4.762
 6985TIP3    H120896   2.913   5.698   4.700
 6985TIP3    H220897   2.914   5.646   4.842
 6986TIP3   OH220898   2.603   2.237   1.231
 6986TIP3    H120899   2.611   2.320   1.184
 6986TIP3    H220900   2.510   2.214   1.225
 6987TIP3   OH220901   1.964   6.918   1.574
 6987TIP3    H120902   1.917   6.862   1.636
 6987TIP3    H220903   1.935   6.889   1.488
 6988TIP3   OH220904   2.999   1.793   1.675
 6988TIP3    H120905   2.912   1.828   1.655
 6988TIP3    H220906   3.000   1.787   1.771
 6989TIP3   OH220907   5.028   5.646   0.082
 6989TIP3    H120908   4.963   5.711   0.108
 6989TIP3    H220909   5.100   5.697   0.045
 6990TIP3   OH220910   5.194   1.346   4.313
 6990TIP3    H120911   5.267   1.376   4.366
 6990TIP3    H220912   5.209   1.383   4.226
 6991TIP3   OH220913   2.876   5.158   3.431
 6991TIP3    H120914   2.948   5.186   3.375
 6991TIP3    H220915   2.868   5.064   3.414
 6992TIP3   OH220916   0.297   6.976   3.281
 6992TIP3    H120917   0.338   6.925   3.211
 6992TIP3    H220918   0.208   6.991   3.251
 6993TIP3   OH220919   6.170   6.350   1.963
 6993TIP3    H120920   6.100   6.369   1.901
 6993TIP3    H220921   6.223   6.284   1.919
 6994TIP3   OH220922   0.155   3.132   0.703
 6994TIP3    H120923   0.131   3.062   0.764
 6994TIP3    H220924   0.084   3.134   0.639
 6995TIP3   OH220925   6.664   2.327   1.982
 6995TIP3    H120926   6.658   2.242   1.939
 6995TIP3    H220927   6.738   2.319   2.042
 6996TIP3   OH220928   6.788   2.919   4.074
 6996TIP3    H120929   6.852   2.862   4.117
 6996TIP3    H220930   6.759   2.870   3.997
 6997TIP3   OH220931   1.353   1.936   1.826
 6997TIP3    H120932   1.381   2.027   1.823
 6997TIP3    H220933   1.316   1.925   1.913
 6998TIP3   OH220934   1.075   3.761   4.361
 6998TIP3    H120935   1.022   3.826   4.316
 6998TIP3    H220936   1.151   3.749   4.304
 6999TIP3   OH220937   0.714   2.304   0.056
 6999TIP3    H120938   0.717   2.341   0.144
 6999TIP3    H220939   0.671   2.219   0.067
 7000TIP3   OH220940   5.785   6.789   5.138
 7000TIP3    H120941   5.795   6.706   5.185
 7000TIP3    H220942   5.754   6.850   5.205
 7001TIP3   OH220943   2.404   7.567   0.409
 7001TIP3    H120944   2.331   7.526   0.362
 7001TIP3    H220945   2.364   7.641   0.455
 7002TIP3   OH220946   3.060   0.879   5.411
 7002TIP3    H120947   3.093   0.791   5.398
 7002TIP3    H220948   2.995   0.871   5.482
 7003TIP3   OH220949   2.092   4.270   0.368
 7003TIP3    H120950   2.180   4.242   0.396
 7003TIP3    H220951   2.108   4.331   0.296
 7004TIP3   OH220952   4.061   7.309   1.897
 7004TIP3    H120953   4.039   7.226   1.938
 7004TIP3    H220954   4.154   7.320   1.912
 7005TIP3   OH220955   3.763   6.380   3.176
 7005TIP3    H120956   3.839   6.332   3.143
 7005TIP3    H220957   3.798   6.461   3.211
 7006TIP3   OH220958   6.401   2.824   5.789
 7006TIP3    H120959   6.400   2.918   5.808
 7006TIP3    H220960   6.487   2.809   5.748
 7007TIP3   OH220961   6.089   2.369   4.405
 7007TIP3    H120962   6.005   2.382   4.450
 7007TIP3    H220963   6.154   2.398   4.468
 7008TIP3   OH220964   7.970   3.922   4.709
 7008TIP3    H120965   7.890   3.889   4.749
 7008TIP3    H220966   7.940   3.985   4.643
 7009TIP3   OH220967   7.031   6.312   2.470
 7009TIP3    H120968   6.967   6.253   2.510
 7009TIP3    H220969   6.978   6.377   2.424
 7010TIP3   OH220970   3.395   0.452   5.900
 7010TIP3    H120971   3.322   0.513   5.908
 7010TIP3    H220972   3.367   0.375   5.949
 7011TIP3   OH220973   8.301   5.694   6.338
 7011TIP3    H120974   8.269   5.722   6.423
 7011TIP3    H220975   8.264   5.757   6.276
 7012TIP3   OH220976   3.005   4.995   0.867
 7012TIP3    H120977   2.933   5.042   0.825
 7012TIP3    H220978   3.080   5.009   0.809
 7013TIP3   OH220979   1.561   1.605   3.992
 7013TIP3    H120980   1.603   1.596   4.078
 7013TIP3    H220981   1.577   1.697   3.968
 7014TIP3   OH220982   7.035   1.571   5.144
 7014TIP3    H120983   6.987   1.585   5.063
 7014TIP3    H220984   6.968   1.550   5.209
 7015TIP3   OH220985   7.811   1.944   4.996
 7015TIP3    H120986   7.896   1.980   4.972
 7015TIP3    H220987   7.753   1.964   4.922
 7016TIP3   OH220988   1.662   6.264   1.430
 7016TIP3    H120989   1.695   6.318   1.502
 7016TIP3    H220990   1.730   6.198   1.418
 7017TIP3   OH220991   5.498   4.306   1.638
 7017TIP3    H120992   5.575   4.250   1.643
 7017TIP3    H220993   5.529   4.393   1.660
 7018TIP3   OH220994   1.765   5.308   2.531
 7018TIP3    H120995   1.778   5.220   2.567
 7018TIP3    H220996   1.825   5.312   2.457
 7019TIP3   OH220997   4.926   7.132   4.461
 7019TIP3    H120998   4.845   7.145   4.411
 7019TIP3    H220999   4.922   7.041   4.491
 7020TIP3   OH221000   3.440   2.693   3.947
 7020TIP3    H121001   3.532   2.690   3.971
 7020TIP3    H221002   3.404   2.765   3.999
 7021TIP3   OH221003   1.947   1.409   1.244
 7021TIP3    H121004   1.913   1.371   1.163
 7021TIP3    H221005   1.978   1.496   1.218
 7022TIP3   OH221006   2.650   2.811   5.711
 7022TIP3    H121007   2.700   2.892   5.704
 7022TIP3    H221008   2.627   2.789   5.621
 7023TIP3   OH221009   0.994   5.691   6.554
 7023TIP3    H121010   0.914   5.684   6.501
 7023TIP3    H221011   1.052   5.748   6.503
 7024TIP3   OH221012   3.874   3.434   2.162
 7024TIP3    H121013   3.802   3.468   2.109
 7024TIP3    H221014   3.915   3.366   2.108
 7025TIP3   OH221015   6.049   1.704   0.116
 7025TIP3    H121016   6.059   1.768   0.046
 7025TIP3    H221017   6.063   1.754   0.197
 7026TIP3   OH221018   2.127   3.465   1.247
 7026TIP3    H121019   2.039   3.491   1.276
 7026TIP3    H221020   2.124   3.370   1.245
 7027TIP3   OH221021   6.056   6.526   5.823
 7027TIP3    H121022   6.133   6.563   5.778
 7027TIP3    H221023   6.004   6.603   5.848
 7028TIP3   OH221024   5.992   5.127   0.913
 7028TIP3    H121025   6.078   5.087   0.925
 7028TIP3    H221026   5.956   5.134   1.002
 7029TIP3   OH221027   6.629   7.701   5.492
 7029TIP3    H121028   6.562   7.669   5.552
 7029TIP3    H221029   6.704   7.721   5.548
 7030TIP3   OH221030   3.753   5.979   3.988
 7030TIP3    H121031   3.749   5.968   3.893
 7030TIP3    H221032   3.795   6.064   4.001
 7031TIP3   OH221033   6.875   1.609   1.263
 7031TIP3    H121034   6.960   1.649   1.283
 7031TIP3    H221035   6.891   1.557   1.184
 7032TIP3   OH221036   2.811   0.958   4.078
 7032TIP3    H121037   2.725   0.988   4.047
 7032TIP3    H221038   2.866   0.957   4.000
 7033TIP3   OH221039   1.084   4.302   6.758
 7033TIP3    H121040   1.049   4.389   6.778
 7033TIP3    H221041   1.007   4.249   6.736
 7034TIP3   OH221042   8.300   4.993   3.337
 7034TIP3    H121043   8.335   4.905   3.320
 7034TIP3    H221044   8.375   5.041   3.373
 7035TIP3   OH221045   3.714   7.179   2.161
 7035TIP3    H121046   3.716   7.142   2.249
 7035TIP3    H221047   3.647   7.247   2.165
 7036TIP3   OH221048   6.148   6.935   6.589
 7036TIP3    H121049   6.188   7.018   6.562
 7036TIP3    H221050   6.055   6.946   6.570
 7037TIP3   OH221051   0.679   2.876   5.718
 7037TIP3    H121052   0.604   2.884   5.659
 7037TIP3    H221053   0.658   2.801   5.774
 7038TIP3   OH221054   0.992   4.965   0.260
 7038TIP3    H121055   0.997   5.038   0.322
 7038TIP3    H221056   0.906   4.975   0.218
 7039TIP3   OH221057   0.284   7.803   4.274
 7039TIP3    H121058   0.247   7.824   4.360
 7039TIP3    H221059   0.332   7.721   4.288
 7040TIP3   OH221060   0.544   2.648   6.769
 7040TIP3    H121061   0.624   2.625   6.721
 7040TIP3    H221062   0.497   2.566   6.780
 7041TIP3   OH221063   1.726   3.131   1.937
 7041TIP3    H121064   1.715   3.037   1.945
 7041TIP3    H221065   1.756   3.160   2.023
 7042TIP3   OH221066   1.520   2.112   5.801
 7042TIP3    H121067   1.589   2.069   5.750
 7042TIP3    H221068   1.545   2.097   5.892
 7043TIP3   OH221069   0.818   2.350   0.590
 7043TIP3    H121070   0.820   2.287   0.662
 7043TIP3    H221071   0.778   2.428   0.629
 7044TIP3   OH221072   0.091   3.701   0.278
 7044TIP3    H121073   0.069   3.707   0.185
 7044TIP3    H221074   0.103   3.792   0.306
 7045TIP3   OH221075   6.672   7.592   2.906
 7045TIP3    H121076   6.613   7.568   2.977
 7045TIP3    H221077   6.754   7.616   2.950
 7046TIP3   OH221078   0.088   7.804   3.048
 7046TIP3    H121079   0.023   7.867   3.017
 7046TIP3    H221080   0.096   7.822   3.142
 7047TIP3   OH221081   3.293   0.316   4.754
 7047TIP3    H121082   3.381   0.354   4.765
 7047TIP3    H221083   3.281   0.310   4.660
 7048TIP3   OH221084   6.252   3.007   5.532
 7048TIP3    H121085   6.278   2.962   5.451
 7048TIP3    H221086   6.322   3.070   5.548
 7049TIP3   OH221087   7.798   2.764   1.524
 7049TIP3    H121088   7.824   2.843   1.570
 7049TIP3    H221089   7.821   2.780   1.432
 7050TIP3   OH221090   1.416   6.501   4.532
 7050TIP3    H121091   1.395   6.431   4.471
 7050TIP3    H221092   1.506   6.482   4.560
 7051TIP3   OH221093   2.780   4.893   3.422
 7051TIP3    H121094   2.707   4.890   3.359
 7051TIP3    H221095   2.835   4.818   3.399
 7052TIP3   OH221096   1.822   1.296   3.336
 7052TIP3    H121097   1.912   1.330   3.335
 7052TIP3    H221098   1.776   1.350   3.400
 7053TIP3   OH221099   6.391   6.701   4.197
 7053TIP3    H121100   6.447   6.666   4.128
 7053TIP3    H221101   6.336   6.628   4.224
 7054TIP3   OH221102   3.883   6.437   6.514
 7054TIP3    H121103   3.917   6.404   6.430
 7054TIP3    H221104   3.954   6.423   6.576
 7055TIP3   OH221105   1.456   7.091   0.178
 7055TIP3    H121106   1.361   7.100   0.169
 7055TIP3    H221107   1.468   7.041   0.259
 7056TIP3   OH221108   3.196   6.326   4.858
 7056TIP3    H121109   3.165   6.318   4.768
 7056TIP3    H221110   3.139   6.391   4.898
 7057TIP3   OH221111   7.705   1.721   0.529
 7057TIP3    H121112   7.793   1.699   0.498
 7057TIP3    H221113   7.718   1.764   0.613
 7058TIP3   OH221114   0.704   5.333   5.487
 7058TIP3    H121115   0.735   5.256   5.534
 7058TIP3    H221116   0.762   5.404   5.514
 7059TIP3   OH221117   3.862   2.617   3.538
 7059TIP3    H121118   3.801   2.683   3.505
 7059TIP3    H221119   3.812   2.569   3.605
 7060TIP3   OH221120   2.736   2.003   6.252
 7060TIP3    H121121   2.769   2.082   6.210
 7060TIP3    H221122   2.646   1.995   6.220
 7061TIP3   OH221123   3.677   3.813   4.793
 7061TIP3    H121124   3.713   3.902   4.791
 7061TIP3    H221125   3.599   3.817   4.737
 7062TIP3   OH221126   3.814   3.189   6.161
 7062TIP3    H121127   3.787   3.140   6.239
 7062TIP3    H221128   3.902   3.154   6.141
 7063TIP3   OH221129   1.371   2.384   0.689
 7063TIP3    H121130   1.450   2.426   0.725
 7063TIP3    H221131   1.402   2.301   0.654
 7064TIP3   OH221132   3.708   2.664   4.044
 7064TIP3    H121133   3.735   2.730   4.107
 7064TIP3    H221134   3.716   2.581   4.091
 7065TIP3   OH221135   3.354   3.892   4.768
 7065TIP3    H121136   3.392   3.865   4.684
 7065TIP3    H221137   3.275   3.939   4.744
 7066TIP3   OH221138   2.429   0.715   3.537
 7066TIP3    H121139   2.456   0.757   3.455
 7066TIP3    H221140   2.366   0.776   3.575
 7067TIP3   OH221141   1.177   3.017   4.191
 7067TIP3    H121142   1.189   2.965   4.271
 7067TIP3    H221143   1.263   3.012   4.148
 7068TIP3   OH221144   3.954   0.505   2.001
 7068TIP3    H121145   3.930   0.490   1.909
 7068TIP3    H221146   3.946   0.600   2.013
 7069TIP3   OH221147   2.258   2.202   2.597
 7069TIP3    H121148   2.164   2.213   2.614
 7069TIP3    H221149   2.298   2.204   2.684
 7070TIP3   OH221150   1.443   4.186   0.137
 7070TIP3    H121151   1.472   4.103   0.176
 7070TIP3    H221152   1.427   4.164   0.045
 7071TIP3   OH221153   8.407   0.633   1.143
 7071TIP3    H121154   8.444   0.591   1.065
 7071TIP3    H221155   8.332   0.682   1.111
 7072TIP3   OH221156   0.327   3.038   6.005
 7072TIP3    H121157   0.308   3.102   6.073
 7072TIP3    H221158   0.363   3.091   5.933
 7073TIP3   OH221159   0.338   7.329   4.522
 7073TIP3    H121160   0.362   7.297   4.609
 7073TIP3    H221161   0.285   7.258   4.484
 7074TIP3   OH221162   4.307   1.144   0.699
 7074TIP3    H121163   4.395   1.182   0.698
 7074TIP3    H221164   4.318   1.059   0.741
 7075TIP3   OH221165   2.742   3.263   3.848
 7075TIP3    H121166   2.773   3.349   3.875
 7075TIP3    H221167   2.721   3.272   3.755
 7076TIP3   OH221168   7.183   7.656   0.750
 7076TIP3    H121169   7.189   7.564   0.723
 7076TIP3    H221170   7.120   7.656   0.822
 7077TIP3   OH221171   7.923   5.029   1.324
 7077TIP3    H121172   7.935   5.044   1.230
 7077TIP3    H221173   7.834   5.058   1.341
 7078TIP3   OH221174   6.035   2.790   3.669
 7078TIP3    H121175   5.976   2.731   3.623
 7078TIP3    H221176   6.079   2.839   3.600
 7079TIP3   OH221177   6.744   1.418   2.419
 7079TIP3    H121178   6.680   1.443   2.485
 7079TIP3    H221179   6.803   1.358   2.465
 7080TIP3   OH221180   1.904   2.023   6.371
 7080TIP3    H121181   1.916   2.043   6.464
 7080TIP3    H221182   1.858   1.939   6.370
 7081TIP3   OH221183   4.550   6.266   2.579
 7081TIP3    H121184   4.640   6.295   2.590
 7081TIP3    H221185   4.551   6.175   2.610
 7082TIP3   OH221186   1.117   1.374   1.011
 7082TIP3    H121187   1.087   1.430   0.939
 7082TIP3    H221188   1.036   1.338   1.048
 7083TIP3   OH221189   5.693   6.087   4.598
 7083TIP3    H121190   5.626   6.145   4.563
 7083TIP3    H221191   5.666   6.070   4.688
 7084TIP3   OH221192   7.717   1.126   1.066
 7084TIP3    H121193   7.641   1.143   1.121
 7084TIP3    H221194   7.779   1.195   1.087
 7085TIP3   OH221195   5.547   2.723   1.652
 7085TIP3    H121196   5.452   2.716   1.643
 7085TIP3    H221197   5.581   2.673   1.578
 7086TIP3   OH221198   0.382   6.241   5.723
 7086TIP3    H121199   0.311   6.296   5.691
 7086TIP3    H221200   0.341   6.186   5.790
 7087TIP3   OH221201   5.698   6.305   4.212
 7087TIP3    H121202   5.612   6.280   4.178
 7087TIP3    H221203   5.760   6.276   4.146
 7088TIP3   OH221204   0.780   7.593   3.360
 7088TIP3    H121205   0.859   7.539   3.364
 7088TIP3    H221206   0.720   7.544   3.303
 7089TIP3   OH221207   6.609   3.520   0.604
 7089TIP3    H121208   6.544   3.574   0.649
 7089TIP3    H221209   6.649   3.468   0.673
 7090TIP3   OH221210   5.789   2.931   1.398
 7090TIP3    H121211   5.722   2.864   1.394
 7090TIP3    H221212   5.781   2.980   1.316
 7091TIP3   OH221213   3.152   4.675   0.604
 7091TIP3    H121214   3.145   4.771   0.603
 7091TIP3    H221215   3.192   4.653   0.519
 7092TIP3   OH221216   4.175   3.697   1.809
 7092TIP3    H121217   4.088   3.664   1.787
 7092TIP3    H221218   4.188   3.669   1.900
 7093TIP3   OH221219   2.310   4.159   4.525
 7093TIP3    H121220   2.247   4.188   4.459
 7093TIP3    H221221   2.270   4.183   4.608
 7094TIP3   OH221222   6.955   6.961   2.192
 7094TIP3    H121223   6.986   7.015   2.120
 7094TIP3    H221224   6.993   7.001   2.270
 7095TIP3   OH221225   1.272   5.084   6.601
 7095TIP3    H121226   1.270   5.173   6.635
 7095TIP3    H221227   1.195   5.042   6.640
 7096TIP3   OH221228   4.577   0.551   4.282
 7096TIP3    H121229   4.550   0.521   4.196
 7096TIP3    H221230   4.574   0.646   4.276
 7097TIP3   OH221231   3.766   6.644   4.786
 7097TIP3    H121232   3.688   6.636   4.732
 7097TIP3    H221233   3.839   6.629   4.725
 7098TIP3   OH221234   8.368   6.400   5.191
 7098TIP3    H121235   8.352   6.439   5.277
 7098TIP3    H221236   8.337   6.466   5.129
 7099TIP3   OH221237   2.512   7.307   2.321
 7099TIP3    H121238   2.513   7.396   2.286
 7099TIP3    H221239   2.599   7.297   2.361
 7100TIP3   OH221240   0.994   4.016   6.803
 7100TIP3    H121241   0.957   4.043   6.719
 7100TIP3    H221242   1.012   3.923   6.793
 7101TIP3   OH221243   4.184   5.248   1.512
 7101TIP3    H121244   4.171   5.343   1.501
 7101TIP3    H221245   4.097   5.211   1.497
 7102TIP3   OH221246   7.266   4.747   1.431
 7102TIP3    H121247   7.263   4.733   1.525
 7102TIP3    H221248   7.192   4.697   1.396
 7103TIP3   OH221249   0.230   5.331   1.419
 7103TIP3    H121250   0.257   5.244   1.391
 7103TIP3    H221251   0.222   5.381   1.338
 7104TIP3   OH221252   7.940   5.771   6.552
 7104TIP3    H121253   7.870   5.835   6.568
 7104TIP3    H221254   7.957   5.733   6.637
 7105TIP3   OH221255   0.527   5.047   5.748
 7105TIP3    H121256   0.603   5.105   5.739
 7105TIP3    H221257   0.564   4.959   5.745
 7106TIP3   OH221258   2.012   3.486   5.151
 7106TIP3    H121259   1.951   3.535   5.205
 7106TIP3    H221260   1.980   3.396   5.154
 7107TIP3   OH221261   6.558   1.785   3.067
 7107TIP3    H121262   6.586   1.826   2.986
 7107TIP3    H221263   6.639   1.768   3.115
 7108TIP3   OH221264   2.853   2.705   3.424
 7108TIP3    H121265   2.948   2.690   3.431
 7108TIP3    H221266   2.824   2.715   3.515
 7109TIP3   OH221267   7.017   5.998   4.086
 7109TIP3    H121268   7.073   5.954   4.022
 7109TIP3    H221269   7.069   6.074   4.114
 7110TIP3   OH221270   4.270   4.699   3.557
 7110TIP3    H121271   4.178   4.723   3.551
 7110TIP3    H221272   4.275   4.611   3.519
 7111TIP3   OH221273   1.549   3.399   0.598
 7111TIP3    H121274   1.543   3.306   0.621
 7111TIP3    H221275   1.513   3.403   0.509
 7112TIP3   OH221276   2.597   7.159   0.972
 7112TIP3    H121277   2.571   7.070   0.948
 7112TIP3    H221278   2.639   7.193   0.893
 7113TIP3   OH221279   3.712   0.715   2.592
 7113TIP3    H121280   3.683   0.778   2.525
 7113TIP3    H221281   3.805   0.731   2.602
 7114TIP3   OH221282   4.503   7.053   1.758
 7114TIP3    H121283   4.423   7.083   1.802
 7114TIP3    H221284   4.552   7.133   1.740
 7115TIP3   OH221285   2.571   6.885   2.194
 7115TIP3    H121286   2.488   6.911   2.235
 7115TIP3    H221287   2.633   6.879   2.267
 7116TIP3   OH221288   8.260   4.398   1.156
 7116TIP3    H121289   8.244   4.393   1.062
 7116TIP3    H221290   8.253   4.308   1.187
 7117TIP3   OH221291   0.751   6.530   3.946
 7117TIP3    H121292   0.776   6.525   3.853
 7117TIP3    H221293   0.805   6.463   3.988
 7118TIP3   OH221294   2.832   2.243   5.499
 7118TIP3    H121295   2.749   2.208   5.466
 7118TIP3    H221296   2.884   2.166   5.520
 7119TIP3   OH221297   3.447   2.499   1.771
 7119TIP3    H121298   3.425   2.501   1.678
 7119TIP3    H221299   3.514   2.568   1.781
 7120TIP3   OH221300   8.367   6.140   1.187
 7120TIP3    H121301   8.341   6.228   1.213
 7120TIP3    H221302   8.284   6.096   1.165
 7121TIP3   OH221303   7.682   6.651   5.942
 7121TIP3    H121304   7.715   6.723   5.997
 7121TIP3    H221305   7.624   6.601   6.000
 7122TIP3   OH221306   4.300   6.660   4.873
 7122TIP3    H121307   4.298   6.628   4.783
 7122TIP3    H221308   4.231   6.727   4.876
 7123TIP3   OH221309   4.346   3.949   0.126
 7123TIP3    H121310   4.326   3.919   0.037
 7123TIP3    H221311   4.415   3.890   0.156
 7124TIP3   OH221312   7.838   0.599   4.845
 7124TIP3    H121313   7.785   0.564   4.916
 7124TIP3    H221314   7.873   0.681   4.879
 7125TIP3   OH221315   2.091   2.196   1.873
 7125TIP3    H121316   2.050   2.239   1.797
 7125TIP3    H221317   2.110   2.108   1.843
 7126TIP3   OH221318   1.242   0.216   0.506
 7126TIP3    H121319   1.277   0.296   0.545
 7126TIP3    H221320   1.156   0.205   0.547
 7127TIP3   OH221321   0.811   6.220   0.402
 7127TIP3    H121322   0.885   6.236   0.343
 7127TIP3    H221323   0.844   6.243   0.488
 7128TIP3   OH221324   2.131   4.189   2.739
 7128TIP3    H121325   2.113   4.250   2.810
 7128TIP3    H221326   2.099   4.104   2.770
 7129TIP3   OH221327   1.273   4.033   1.412
 7129TIP3    H121328   1.339   3.997   1.352
 7129TIP3    H221329   1.223   4.095   1.358
 7130TIP3   OH221330   1.002   1.174   3.786
 7130TIP3    H121331   1.052   1.168   3.867
 7130TIP3    H221332   1.034   1.254   3.744
 7131TIP3   OH221333   1.063   1.393   4.924
 7131TIP3    H121334   1.102   1.353   4.846
 7131TIP3    H221335   1.020   1.472   4.890
 7132TIP3   OH221336   2.293   7.373   4.214
 7132TIP3    H121337   2.353   7.435   4.256
 7132TIP3    H221338   2.240   7.339   4.285
 7133TIP3   OH221339   7.796   4.782   1.394
 7133TIP3    H121340   7.864   4.719   1.418
 7133TIP3    H221341   7.842   4.865   1.384
 7134TIP3   OH221342   2.023   3.077   0.988
 7134TIP3    H121343   2.094   3.038   0.937
 7134TIP3    H221344   1.964   3.004   1.006
 7135TIP3   OH221345   1.518   2.387   5.971
 7135TIP3    H121346   1.476   2.415   5.889
 7135TIP3    H221347   1.460   2.418   6.040
 7136TIP3   OH221348   3.696   5.119   5.492
 7136TIP3    H121349   3.719   5.185   5.558
 7136TIP3    H221350   3.687   5.038   5.542
 7137TIP3   OH221351   0.971   2.762   1.452
 7137TIP3    H121352   1.065   2.778   1.444
 7137TIP3    H221353   0.938   2.763   1.362
 7138TIP3   OH221354   4.806   6.918   2.903
 7138TIP3    H121355   4.822   6.896   2.812
 7138TIP3    H221356   4.722   6.877   2.924
 7139TIP3   OH221357   4.593   3.145   3.618
 7139TIP3    H121358   4.653   3.131   3.545
 7139TIP3    H221359   4.509   3.113   3.587
 7140TIP3   OH221360   0.258   2.168   2.994
 7140TIP3    H121361   0.303   2.251   2.979
 7140TIP3    H221362   0.189   2.167   2.927
 7141TIP3   OH221363   0.518   1.509   0.893
 7141TIP3    H121364   0.468   1.434   0.860
 7141TIP3    H221365   0.512   1.575   0.824
 7142TIP3   OH221366   1.235   1.719   3.260
 7142TIP3    H121367   1.284   1.702   3.341
 7142TIP3    H221368   1.155   1.667   3.269
 7143TIP3   OH221369   7.588   4.470   1.802
 7143TIP3    H121370   7.534   4.519   1.864
 7143TIP3    H221371   7.533   4.458   1.725
 7144TIP3   OH221372   5.396   0.217   6.636
 7144TIP3    H121373   5.481   0.187   6.604
 7144TIP3    H221374   5.404   0.312   6.643
 7145TIP3   OH221375   2.043   6.299   6.278
 7145TIP3    H121376   1.963   6.350   6.288
 7145TIP3    H221377   2.014   6.208   6.275
 7146TIP3   OH221378   4.398   7.362   2.410
 7146TIP3    H121379   4.472   7.368   2.350
 7146TIP3    H221380   4.333   7.422   2.374
 7147TIP3   OH221381   7.945   1.672   1.885
 7147TIP3    H121382   7.935   1.639   1.975
 7147TIP3    H221383   7.861   1.655   1.844
 7148TIP3   OH221384   6.768   6.977   4.187
 7148TIP3    H121385   6.761   6.928   4.269
 7148TIP3    H221386   6.737   6.916   4.120
 7149TIP3   OH221387   4.610   7.005   6.321
 7149TIP3    H121388   4.610   7.046   6.407
 7149TIP3    H221389   4.613   7.078   6.259
 7150TIP3   OH221390   6.811   0.864   4.011
 7150TIP3    H121391   6.843   0.807   3.941
 7150TIP3    H221392   6.729   0.823   4.040
 7151TIP3   OH221393   5.690   4.581   1.573
 7151TIP3    H121394   5.750   4.571   1.647
 7151TIP3    H221395   5.626   4.645   1.602
 7152TIP3   OH221396   8.290   4.855   4.507
 7152TIP3    H121397   8.297   4.904   4.589
 7152TIP3    H221398   8.294   4.922   4.438
 7153TIP3   OH221399   3.138   0.958   4.141
 7153TIP3    H121400   3.084   0.882   4.159
 7153TIP3    H221401   3.119   0.980   4.049
 7154TIP3   OH221402   0.387   1.186   4.305
 7154TIP3    H121403   0.348   1.231   4.230
 7154TIP3    H221404   0.469   1.232   4.321
 7155TIP3   OH221405   3.438   2.326   4.245
 7155TIP3    H121406   3.381   2.281   4.307
 7155TIP3    H221407   3.516   2.271   4.238
 7156TIP3   OH221408   6.209   5.089   4.742
 7156TIP3    H121409   6.288   5.099   4.795
 7156TIP3    H221410   6.232   5.127   4.657
 7157TIP3   OH221411   0.901   5.367   2.894
 7157TIP3    H121412   0.858   5.398   2.814
 7157TIP3    H221413   0.835   5.378   2.962
 7158TIP3   OH221414   4.671   3.607   2.950
 7158TIP3    H121415   4.601   3.543   2.937
 7158TIP3    H221416   4.685   3.607   3.045
 7159TIP3   OH221417   8.072   5.692   3.005
 7159TIP3    H121418   8.124   5.622   2.965
 7159TIP3    H221419   8.075   5.763   2.942
 7160TIP3   OH221420   0.451   3.571   5.012
 7160TIP3    H121421   0.419   3.654   4.976
 7160TIP3    H221422   0.395   3.505   4.972
 7161TIP3   OH221423   0.979   4.632   2.019
 7161TIP3    H121424   0.992   4.727   2.025
 7161TIP3    H221425   1.065   4.598   1.994
 7162TIP3   OH221426   4.508   1.859   6.375
 7162TIP3    H121427   4.498   1.842   6.469
 7162TIP3    H221428   4.582   1.920   6.369
 7163TIP3   OH221429   4.198   5.576   3.914
 7163TIP3    H121430   4.245   5.559   3.831
 7163TIP3    H221431   4.169   5.489   3.942
 7164TIP3   OH221432   6.005   1.834   6.844
 7164TIP3    H121433   6.048   1.918   6.862
 7164TIP3    H221434   6.059   1.769   6.891
 7165TIP3   OH221435   1.946   7.274   1.702
 7165TIP3    H121436   1.873   7.296   1.759
 7165TIP3    H221437   1.944   7.178   1.695
 7166TIP3   OH221438   4.962   6.309   6.386
 7166TIP3    H121439   5.026   6.297   6.456
 7166TIP3    H221440   5.009   6.285   6.306
 7167TIP3   OH221441   4.755   5.483   4.466
 7167TIP3    H121442   4.784   5.511   4.379
 7167TIP3    H221443   4.697   5.408   4.449
 7168TIP3   OH221444   6.828   5.090   0.541
 7168TIP3    H121445   6.745   5.121   0.577
 7168TIP3    H221446   6.881   5.169   0.531
 7169TIP3   OH221447   3.519   6.374   0.858
 7169TIP3    H121448   3.550   6.349   0.946
 7169TIP3    H221449   3.596   6.410   0.815
 7170TIP3   OH221450   1.420   7.737   2.900
 7170TIP3    H121451   1.409   7.782   2.984
 7170TIP3    H221452   1.481   7.791   2.851
 7171TIP3   OH221453   2.128   4.309   3.412
 7171TIP3    H121454   2.095   4.261   3.335
 7171TIP3    H221455   2.216   4.275   3.425
 7172TIP3   OH221456   3.575   5.899   6.275
 7172TIP3    H121457   3.485   5.932   6.267
 7172TIP3    H221458   3.626   5.975   6.305
 7173TIP3   OH221459   3.412   4.903   4.674
 7173TIP3    H121460   3.503   4.880   4.656
 7173TIP3    H221461   3.409   4.999   4.664
 7174TIP3   OH221462   5.902   6.385   6.006
 7174TIP3    H121463   5.950   6.434   5.940
 7174TIP3    H221464   5.851   6.320   5.956
 7175TIP3   OH221465   7.277   1.998   6.052
 7175TIP3    H121466   7.192   1.956   6.045
 7175TIP3    H221467   7.290   2.042   5.967
 7176TIP3   OH221468   3.253   4.766   0.130
 7176TIP3    H121469   3.327   4.739   0.184
 7176TIP3    H221470   3.194   4.691   0.130
 7177TIP3   OH221471   2.210   6.458   2.964
 7177TIP3    H121472   2.277   6.401   3.001
 7177TIP3    H221473   2.137   6.400   2.943
 7178TIP3   OH221474   0.959   7.246   3.129
 7178TIP3    H121475   0.962   7.153   3.110
 7178TIP3    H221476   0.889   7.256   3.194
 7179TIP3   OH221477   2.926   0.207   1.697
 7179TIP3    H121478   2.884   0.292   1.703
 7179TIP3    H221479   2.911   0.166   1.783
 7180TIP3   OH221480   3.431   2.506   0.245
 7180TIP3    H121481   3.441   2.528   0.153
 7180TIP3    H221482   3.407   2.413   0.245
 7181TIP3   OH221483   5.345   4.851   4.934
 7181TIP3    H121484   5.295   4.770   4.924
 7181TIP3    H221485   5.334   4.896   4.850
 7182TIP3   OH221486   5.541   5.276   0.162
 7182TIP3    H121487   5.489   5.209   0.207
 7182TIP3    H221488   5.475   5.335   0.125
 7183TIP3   OH221489   5.659   4.644   5.111
 7183TIP3    H121490   5.698   4.715   5.059
 7183TIP3    H221491   5.706   4.648   5.194
 7184TIP3   OH221492   6.422   2.649   3.922
 7184TIP3    H121493   6.442   2.725   3.977
 7184TIP3    H221494   6.353   2.680   3.863
 7185TIP3   OH221495   0.153   1.186   1.900
 7185TIP3    H121496   0.137   1.171   1.807
 7185TIP3    H221497   0.181   1.277   1.906
 7186TIP3   OH221498   0.026   2.714   0.747
 7186TIP3    H121499  -0.023   2.694   0.667
 7186TIP3    H221500  -0.012   2.655   0.813
 7187TIP3   OH221501   0.726   4.143   5.150
 7187TIP3    H121502   0.754   4.232   5.171
 7187TIP3    H221503   0.743   4.093   5.230
 7188TIP3   OH221504   7.170   1.452   3.229
 7188TIP3    H121505   7.160   1.546   3.211
 7188TIP3    H221506   7.215   1.417   3.152
 7189TIP3   OH221507   6.926   5.963   1.988
 7189TIP3    H121508   6.918   6.048   1.946
 7189TIP3    H221509   6.963   5.905   1.921
 7190TIP3   OH221510   4.398   6.095   6.254
 7190TIP3    H121511   4.430   6.005   6.263
 7190TIP3    H221512   4.471   6.141   6.212
 7191TIP3   OH221513   0.832   0.665   4.594
 7191TIP3    H121514   0.813   0.704   4.679
 7191TIP3    H221515   0.756   0.610   4.575
 7192TIP3   OH221516   7.552   7.127   3.117
 7192TIP3    H121517   7.490   7.138   3.044
 7192TIP3    H221518   7.506   7.069   3.178
 7193TIP3   OH221519   6.718   2.524   3.955
 7193TIP3    H121520   6.647   2.544   4.016
 7193TIP3    H221521   6.675   2.513   3.870
 7194TIP3   OH221522   7.630   6.243   6.174
 7194TIP3    H121523   7.557   6.227   6.234
 7194TIP3    H221524   7.596   6.220   6.088
 7195TIP3   OH221525   0.754   1.458   1.361
 7195TIP3    H121526   0.714   1.545   1.358
 7195TIP3    H221527   0.756   1.435   1.454
 7196TIP3   OH221528   0.457   3.176   0.912
 7196TIP3    H121529   0.442   3.083   0.928
 7196TIP3    H221530   0.433   3.219   0.994
 7197TIP3   OH221531   5.425   2.088   0.916
 7197TIP3    H121532   5.333   2.100   0.892
 7197TIP3    H221533   5.465   2.173   0.901
 7198TIP3   OH221534   6.934   2.761   3.263
 7198TIP3    H121535   6.962   2.681   3.306
 7198TIP3    H221536   6.952   2.745   3.170
 7199TIP3   OH221537   1.200   1.224   6.530
 7199TIP3    H121538   1.157   1.140   6.541
 7199TIP3    H221539   1.277   1.205   6.476
 7200TIP3   OH221540   6.983   4.774   1.149
 7200TIP3    H121541   7.014   4.863   1.131
 7200TIP3    H221542   7.062   4.721   1.155
 7201TIP3   OH221543   2.055   6.659   2.869
 7201TIP3    H121544   2.106   6.588   2.907
 7201TIP3    H221545   2.095   6.739   2.901
 7202TIP3   OH221546   6.780   3.002   1.697
 7202TIP3    H121547   6.797   3.046   1.614
 7202TIP3    H221548   6.693   3.033   1.723
 7203TIP3   OH221549   4.602   3.672   1.076
 7203TIP3    H121550   4.637   3.732   1.010
 7203TIP3    H221551   4.665   3.675   1.148
 7204TIP3   OH221552   2.312   5.455   0.521
 7204TIP3    H121553   2.225   5.452   0.561
 7204TIP3    H221554   2.366   5.503   0.584
 7205TIP3   OH221555   2.051   6.548   6.577
 7205TIP3    H121556   2.109   6.517   6.647
 7205TIP3    H221557   2.002   6.470   6.551
 7206TIP3   OH221558   5.693   5.003   2.898
 7206TIP3    H121559   5.782   4.968   2.906
 7206TIP3    H221560   5.649   4.975   2.978
 7207TIP3   OH221561   0.313   0.218   3.540
 7207TIP3    H121562   0.404   0.222   3.570
 7207TIP3    H221563   0.313   0.263   3.456
 7208TIP3   OH221564   0.956   2.139   3.861
 7208TIP3    H121565   0.992   2.167   3.777
 7208TIP3    H221566   0.938   2.046   3.850
 7209TIP3   OH221567   2.154   3.620   5.513
 7209TIP3    H121568   2.147   3.707   5.473
 7209TIP3    H221569   2.202   3.634   5.594
 7210TIP3   OH221570   0.714   1.168   0.011
 7210TIP3    H121571   0.707   1.256  -0.027
 7210TIP3    H221572   0.738   1.184   0.103
 7211TIP3   OH221573   7.195   7.625   2.871
 7211TIP3    H121574   7.160   7.572   2.942
 7211TIP3    H221575   7.145   7.599   2.794
 7212TIP3   OH221576   0.980   0.666   2.237
 7212TIP3    H121577   0.930   0.647   2.317
 7212TIP3    H221578   0.915   0.701   2.176
 7213TIP3   OH221579   1.424   6.188   1.601
 7213TIP3    H121580   1.435   6.093   1.611
 7213TIP3    H221581   1.506   6.217   1.562
 7214TIP3   OH221582   0.591   4.074   3.180
 7214TIP3    H121583   0.662   4.132   3.152
 7214TIP3    H221584   0.522   4.088   3.115
 7215TIP3   OH221585   2.612   2.583   2.718
 7215TIP3    H121586   2.631   2.522   2.790
 7215TIP3    H221587   2.669   2.554   2.647
 7216TIP3   OH221588   1.595   2.684   4.751
 7216TIP3    H121589   1.614   2.622   4.821
 7216TIP3    H221590   1.664   2.750   4.759
 7217TIP3   OH221591   4.935   3.668   3.007
 7217TIP3    H121592   4.937   3.572   2.998
 7217TIP3    H221593   4.856   3.695   2.961
 7218TIP3   OH221594   1.946   5.505   6.125
 7218TIP3    H121595   1.898   5.563   6.066
 7218TIP3    H221596   1.911   5.418   6.107
 7219TIP3   OH221597   3.959   5.158   1.860
 7219TIP3    H121598   3.882   5.175   1.914
 7219TIP3    H221599   3.997   5.244   1.844
 7220TIP3   OH221600   2.946   1.820   1.380
 7220TIP3    H121601   2.996   1.896   1.407
 7220TIP3    H221602   2.859   1.854   1.360
 7221TIP3   OH221603   2.630   1.390   3.226
 7221TIP3    H121604   2.637   1.367   3.318
 7221TIP3    H221605   2.675   1.319   3.180
 7222TIP3   OH221606   5.017   0.237   3.357
 7222TIP3    H121607   5.033   0.262   3.448
 7222TIP3    H221608   5.087   0.174   3.337
 7223TIP3   OH221609   2.339   4.217   0.488
 7223TIP3    H121610   2.335   4.149   0.555
 7223TIP3    H221611   2.428   4.252   0.495
 7224TIP3   OH221612   4.222   0.405   4.884
 7224TIP3    H121613   4.251   0.388   4.794
 7224TIP3    H221614   4.134   0.440   4.874
 7225TIP3   OH221615   7.395   4.683   4.633
 7225TIP3    H121616   7.419   4.748   4.699
 7225TIP3    H221617   7.305   4.659   4.654
 7226TIP3   OH221618   4.979   6.279   1.569
 7226TIP3    H121619   4.906   6.273   1.507
 7226TIP3    H221620   5.021   6.194   1.566
 7227TIP3   OH221621   6.319   5.947   6.299
 7227TIP3    H121622   6.356   5.860   6.284
 7227TIP3    H221623   6.361   5.977   6.379
 7228TIP3   OH221624   3.858   0.956   4.185
 7228TIP3    H121625   3.772   0.920   4.207
 7228TIP3    H221626   3.913   0.879   4.172
 7229TIP3   OH221627   0.074  -0.008   3.298
 7229TIP3    H121628   0.067   0.076   3.254
 7229TIP3    H221629   0.085   0.014   3.390
 7230TIP3   OH221630   0.283   5.439   3.422
 7230TIP3    H121631   0.316   5.376   3.486
 7230TIP3    H221632   0.361   5.482   3.388
 7231TIP3   OH221633   0.989   6.834   5.076
 7231TIP3    H121634   1.040   6.793   5.006
 7231TIP3    H221635   0.951   6.760   5.124
 7232TIP3   OH221636   1.522   1.089   4.543
 7232TIP3    H121637   1.475   1.151   4.599
 7232TIP3    H221638   1.602   1.134   4.519
 7233TIP3   OH221639   2.974   7.611   2.467
 7233TIP3    H121640   3.053   7.644   2.424
 7233TIP3    H221641   2.902   7.638   2.411
 7234TIP3   OH221642   2.755   7.053   6.164
 7234TIP3    H121643   2.850   7.066   6.175
 7234TIP3    H221644   2.724   7.134   6.122
 7235TIP3   OH221645   5.976   4.823   3.841
 7235TIP3    H121646   5.962   4.867   3.757
 7235TIP3    H221647   5.900   4.848   3.894
 7236TIP3   OH221648   1.055   5.036   2.305
 7236TIP3    H121649   0.990   5.094   2.346
 7236TIP3    H221650   1.138   5.061   2.346
 7237TIP3   OH221651   4.991   0.057   3.050
 7237TIP3    H121652   4.968   0.000   3.123
 7237TIP3    H221653   5.078   0.028   3.024
 7238TIP3   OH221654   6.184   5.504   1.442
 7238TIP3    H121655   6.099   5.529   1.478
 7238TIP3    H221656   6.244   5.572   1.471
 7239TIP3   OH221657   1.946   4.770   3.253
 7239TIP3    H121658   1.995   4.798   3.331
 7239TIP3    H221659   1.907   4.850   3.219
 7240TIP3   OH221660   0.916   6.139   6.168
 7240TIP3    H121661   1.006   6.152   6.136
 7240TIP3    H221662   0.919   6.054   6.213
 7241TIP3   OH221663   2.793   6.031   6.267
 7241TIP3    H121664   2.748   6.058   6.188
 7241TIP3    H221665   2.737   6.060   6.339
 7242TIP3   OH221666   3.233   6.251   6.579
 7242TIP3    H121667   3.167   6.314   6.548
 7242TIP3    H221668   3.302   6.304   6.618
 7243TIP3   OH221669   2.922   6.973   6.600
 7243TIP3    H121670   3.009   6.941   6.579
 7243TIP3    H221671   2.869   6.951   6.523
 7244TIP3   OH221672   8.023   0.510   6.415
 7244TIP3    H121673   8.050   0.460   6.338
 7244TIP3    H221674   7.941   0.552   6.389
 7245TIP3   OH221675   6.951   7.935   1.652
 7245TIP3    H121676   6.860   7.959   1.667
 7245TIP3    H221677   6.953   7.840   1.660
 7246TIP3   OH221678   6.490   0.831   3.736
 7246TIP3    H121679   6.468   0.792   3.651
 7246TIP3    H221680   6.565   0.780   3.767
 7247TIP3   OH221681   4.994   1.084   1.511
 7247TIP3    H121682   4.903   1.080   1.542
 7247TIP3    H221683   4.990   1.138   1.432
 7248TIP3   OH221684   4.676   2.280   5.224
 7248TIP3    H121685   4.746   2.252   5.283
 7248TIP3    H221686   4.719   2.288   5.139
 7249TIP3   OH221687   7.155   4.087   6.713
 7249TIP3    H121688   7.215   4.030   6.760
 7249TIP3    H221689   7.190   4.091   6.624
 7250TIP3   OH221690   4.218   2.989   1.972
 7250TIP3    H121691   4.123   3.003   1.966
 7250TIP3    H221692   4.238   3.001   2.065
 7251TIP3   OH221693   4.307   1.071   6.592
 7251TIP3    H121694   4.311   0.977   6.612
 7251TIP3    H221695   4.398   1.100   6.595
 7252TIP3   OH221696   3.883   5.768   3.492
 7252TIP3    H121697   3.944   5.799   3.559
 7252TIP3    H221698   3.886   5.835   3.424
 7253TIP3   OH221699   4.409   1.577   4.208
 7253TIP3    H121700   4.442   1.605   4.294
 7253TIP3    H221701   4.385   1.659   4.164
 7254TIP3   OH221702   6.118   2.356   2.385
 7254TIP3    H121703   6.147   2.352   2.476
 7254TIP3    H221704   6.191   2.396   2.338
 7255TIP3   OH221705   1.185   4.573   0.131
 7255TIP3    H121706   1.253   4.641   0.126
 7255TIP3    H221707   1.196   4.535   0.218
 7256TIP3   OH221708   5.293   7.483   2.114
 7256TIP3    H121709   5.306   7.534   2.034
 7256TIP3    H221710   5.310   7.545   2.185
 7257TIP3   OH221711   5.385   0.928   2.720
 7257TIP3    H121712   5.457   0.971   2.766
 7257TIP3    H221713   5.415   0.922   2.629
 7258TIP3   OH221714   0.918   1.136   1.931
 7258TIP3    H121715   0.878   1.215   1.895
 7258TIP3    H221716   0.867   1.064   1.893
 7259TIP3   OH221717   1.773   1.535   1.993
 7259TIP3    H121718   1.824   1.599   1.943
 7259TIP3    H221719   1.767   1.459   1.936
 7260TIP3   OH221720   6.814   1.926   0.563
 7260TIP3    H121721   6.800   1.854   0.624
 7260TIP3    H221722   6.746   1.913   0.496
 7261TIP3   OH221723   8.203   7.873   3.359
 7261TIP3    H121724   8.190   7.846   3.450
 7261TIP3    H221725   8.156   7.956   3.352
 7262TIP3   OH221726   1.058   6.241   2.227
 7262TIP3    H121727   1.142   6.265   2.187
 7262TIP3    H221728   1.049   6.300   2.302
 7263TIP3   OH221729   0.473   1.079   0.291
 7263TIP3    H121730   0.442   1.111   0.206
 7263TIP3    H221731   0.449   1.148   0.353
 7264TIP3   OH221732   7.249   1.122   0.224
 7264TIP3    H121733   7.292   1.205   0.245
 7264TIP3    H221734   7.311   1.077   0.166
 7265TIP3   OH221735   4.754   5.067   1.667
 7265TIP3    H121736   4.707   5.118   1.732
 7265TIP3    H221737   4.764   5.126   1.592
 7266TIP3   OH221738   3.179   2.717   0.728
 7266TIP3    H121739   3.239   2.642   0.725
 7266TIP3    H221740   3.178   2.751   0.639
 7267TIP3   OH221741   6.812   7.085   3.464
 7267TIP3    H121742   6.834   7.106   3.555
 7267TIP3    H221743   6.849   7.157   3.413
 7268TIP3   OH221744   3.898   7.836   4.306
 7268TIP3    H121745   3.964   7.811   4.371
 7268TIP3    H221746   3.827   7.875   4.357
 7269TIP3   OH221747   0.875   2.071   5.540
 7269TIP3    H121748   0.854   2.040   5.452
 7269TIP3    H221749   0.853   1.997   5.597
 7270TIP3   OH221750   5.895   3.439   4.579
 7270TIP3    H121751   5.917   3.467   4.668
 7270TIP3    H221752   5.968   3.383   4.553
 7271TIP3   OH221753   3.835   2.530   5.358
 7271TIP3    H121754   3.823   2.435   5.359
 7271TIP3    H221755   3.909   2.544   5.300
 7272TIP3   OH221756   4.305   6.369   2.471
 7272TIP3    H121757   4.391   6.352   2.511
 7272TIP3    H221758   4.299   6.308   2.398
 7273TIP3   OH221759   2.320   6.720   3.018
 7273TIP3    H121760   2.281   6.805   2.997
 7273TIP3    H221761   2.278   6.659   2.958
 7274TIP3   OH221762   0.704   3.809   6.487
 7274TIP3    H121763   0.625   3.805   6.434
 7274TIP3    H221764   0.683   3.873   6.556
 7275TIP3   OH221765   1.153   0.063   4.070
 7275TIP3    H121766   1.091   0.000   4.106
 7275TIP3    H221767   1.203   0.093   4.147
 7276TIP3   OH221768   1.045   6.149   3.513
 7276TIP3    H121769   1.045   6.245   3.518
 7276TIP3    H221770   0.980   6.122   3.578
 7277TIP3   OH221771   7.492   7.928   3.198
 7277TIP3    H121772   7.428   7.882   3.252
 7277TIP3    H221773   7.571   7.875   3.205
 7278TIP3   OH221774   5.855   0.525   4.608
 7278TIP3    H121775   5.886   0.605   4.568
 7278TIP3    H221776   5.775   0.503   4.559
 7279TIP3   OH221777   3.195   4.842   3.889
 7279TIP3    H121778   3.155   4.908   3.945
 7279TIP3    H221779   3.146   4.847   3.807
 7280TIP3   OH221780   6.517   2.306   2.352
 7280TIP3    H121781   6.492   2.215   2.333
 7280TIP3    H221782   6.524   2.347   2.266
 7281TIP3   OH221783   0.256   2.322   5.259
 7281TIP3    H121784   0.280   2.313   5.167
 7281TIP3    H221785   0.161   2.310   5.261
 7282TIP3   OH221786   5.626   1.236   1.275
 7282TIP3    H121787   5.670   1.310   1.231
 7282TIP3    H221788   5.533   1.255   1.266
 7283TIP3   OH221789   0.920   5.966   5.403
 7283TIP3    H121790   0.842   5.941   5.452
 7283TIP3    H221791   0.917   5.914   5.323
 7284TIP3   OH221792   5.372   2.186   0.488
 7284TIP3    H121793   5.466   2.166   0.489
 7284TIP3    H221794   5.364   2.258   0.426
 7285TIP3   OH221795   1.175   3.126   3.499
 7285TIP3    H121796   1.245   3.148   3.560
 7285TIP3    H221797   1.143   3.041   3.529
 7286TIP3   OH221798   0.074   2.991   4.005
 7286TIP3    H121799   0.059   2.904   3.970
 7286TIP3    H221800   0.169   3.004   3.996
 7287TIP3   OH221801   3.648   2.876   3.762
 7287TIP3    H121802   3.679   2.786   3.749
 7287TIP3    H221803   3.590   2.870   3.838
 7288TIP3   OH221804   5.408   6.356   1.420
 7288TIP3    H121805   5.503   6.364   1.421
 7288TIP3    H221806   5.376   6.446   1.430
 7289TIP3   OH221807   4.779   5.152   5.596
 7289TIP3    H121808   4.689   5.185   5.606
 7289TIP3    H221809   4.824   5.180   5.676
 7290TIP3   OH221810   2.403   1.150   3.189
 7290TIP3    H121811   2.492   1.158   3.154
 7290TIP3    H221812   2.362   1.234   3.167
 7291TIP3   OH221813   3.808   2.258   5.375
 7291TIP3    H121814   3.878   2.206   5.335
 7291TIP3    H221815   3.757   2.196   5.425
 7292TIP3   OH221816   4.435   5.254   6.356
 7292TIP3    H121817   4.513   5.310   6.359
 7292TIP3    H221818   4.368   5.304   6.402
 7293TIP3   OH221819   4.775   3.541   0.703
 7293TIP3    H121820   4.865   3.551   0.672
 7293TIP3    H221821   4.728   3.502   0.630
 7294TIP3   OH221822   7.354   2.388   0.436
 7294TIP3    H121823   7.260   2.371   0.445
 7294TIP3    H221824   7.390   2.363   0.521
 7295TIP3   OH221825   6.576   5.516   6.623
 7295TIP3    H121826   6.578   5.599   6.671
 7295TIP3    H221827   6.581   5.541   6.531
 7296TIP3   OH221828   6.734   2.919   3.004
 7296TIP3    H121829   6.706   2.948   2.918
 7296TIP3    H221830   6.657   2.879   3.043
 7297TIP3   OH221831   2.006   0.289   3.489
 7297TIP3    H121832   2.054   0.350   3.546
 7297TIP3    H221833   1.922   0.331   3.475
 7298TIP3   OH221834   6.272   4.091   5.484
 7298TIP3    H121835   6.287   4.164   5.423
 7298TIP3    H221836   6.195   4.046   5.450
 7299TIP3   OH221837   6.890   0.314   6.435
 7299TIP3    H121838   6.813   0.355   6.474
 7299TIP3    H221839   6.957   0.319   6.503
 7300TIP3   OH221840   2.669   2.334   2.828
 7300TIP3    H121841   2.751   2.337   2.878
 7300TIP3    H221842   2.693   2.290   2.746
 7301TIP3   OH221843   5.221   0.651   5.530
 7301TIP3    H121844   5.217   0.730   5.584
 7301TIP3    H221845   5.153   0.664   5.464
 7302TIP3   OH221846   1.956   4.450   5.569
 7302TIP3    H121847   2.036   4.488   5.606
 7302TIP3    H221848   1.981   4.361   5.544
 7303TIP3   OH221849   4.890   6.314   3.464
 7303TIP3    H121850   4.933   6.340   3.383
 7303TIP3    H221851   4.927   6.373   3.530
 7304TIP3   OH221852   1.254   7.443   3.353
 7304TIP3    H121853   1.247   7.508   3.283
 7304TIP3    H221854   1.286   7.492   3.428
 7305TIP3   OH221855   6.395   4.047   4.720
 7305TIP3    H121856   6.423   3.959   4.745
 7305TIP3    H221857   6.476   4.091   4.694
 7306TIP3   OH221858   0.582   1.823   6.751
 7306TIP3    H121859   0.533   1.772   6.816
 7306TIP3    H221860   0.516   1.876   6.708
 7307TIP3   OH221861   6.114   4.799   1.596
 7307TIP3    H121862   6.162   4.852   1.531
 7307TIP3    H221863   6.033   4.848   1.611
 7308TIP3   OH221864   4.945   0.454   0.754
 7308TIP3    H121865   4.903   0.460   0.668
 7308TIP3    H221866   4.953   0.360   0.770
 7309TIP3   OH221867   2.895   4.191   0.622
 7309TIP3    H121868   2.941   4.109   0.642
 7309TIP3    H221869   2.934   4.221   0.540
 7310TIP3   OH221870   8.323   2.524   4.134
 7310TIP3    H121871   8.256   2.476   4.182
 7310TIP3    H221872   8.404   2.508   4.183
 7311TIP3   OH221873   5.303   6.662   5.684
 7311TIP3    H121874   5.313   6.569   5.703
 7311TIP3    H221875   5.288   6.666   5.589
 7312TIP3   OH221876   0.303   1.805   1.156
 7312TIP3    H121877   0.290   1.893   1.120
 7312TIP3    H221878   0.309   1.819   1.251
 7313TIP3   OH221879   3.153   1.356   4.372
 7313TIP3    H121880   3.201   1.287   4.326
 7313TIP3    H221881   3.116   1.313   4.449
 7314TIP3   OH221882   4.980   7.872   1.455
 7314TIP3    H121883   4.994   7.959   1.492
 7314TIP3    H221884   4.885   7.864   1.448
 7315TIP3   OH221885   1.016   6.502   2.575
 7315TIP3    H121886   0.965   6.455   2.510
 7315TIP3    H221887   1.027   6.440   2.647
 7316TIP3   OH221888   6.451   5.100   6.671
 7316TIP3    H121889   6.476   5.144   6.751
 7316TIP3    H221890   6.510   5.025   6.665
 7317TIP3   OH221891   7.192   7.302   5.160
 7317TIP3    H121892   7.100   7.288   5.184
 7317TIP3    H221893   7.204   7.248   5.081
 7318TIP3   OH221894   1.867   5.264   4.056
 7318TIP3    H121895   1.940   5.319   4.086
 7318TIP3    H221896   1.884   5.250   3.963
 7319TIP3   OH221897   1.098   7.341   5.179
 7319TIP3    H121898   1.115   7.404   5.109
 7319TIP3    H221899   1.059   7.394   5.249
 7320TIP3   OH221900   4.097   4.921   1.090
 7320TIP3    H121901   4.005   4.944   1.103
 7320TIP3    H221902   4.096   4.829   1.065
 7321TIP3   OH221903   7.632   6.673   1.550
 7321TIP3    H121904   7.662   6.650   1.462
 7321TIP3    H221905   7.595   6.592   1.585
 7322TIP3   OH221906   1.735   3.703   3.575
 7322TIP3    H121907   1.749   3.759   3.498
 7322TIP3    H221908   1.640   3.700   3.585
 7323TIP3   OH221909   3.119   4.495   5.914
 7323TIP3    H121910   3.078   4.471   5.997
 7323TIP3    H221911   3.052   4.546   5.868
 7324TIP3   OH221912   7.543   3.892   3.966
 7324TIP3    H121913   7.628   3.915   3.929
 7324TIP3    H221914   7.527   3.957   4.034
 7325TIP3   OH221915   7.561   2.447   2.093
 7325TIP3    H121916   7.635   2.409   2.045
 7325TIP3    H221917   7.572   2.416   2.183
 7326TIP3   OH221918   0.978   0.117   6.568
 7326TIP3    H121919   1.069   0.097   6.590
 7326TIP3    H221920   0.974   0.107   6.473
 7327TIP3   OH221921   2.718   3.118   6.015
 7327TIP3    H121922   2.704   3.212   6.000
 7327TIP3    H221923   2.701   3.106   6.109
 7328TIP3   OH221924   2.149   1.549   0.984
 7328TIP3    H121925   2.164   1.499   1.064
 7328TIP3    H221926   2.181   1.493   0.914
 7329TIP3   OH221927   0.198   5.400   4.674
 7329TIP3    H121928   0.225   5.490   4.691
 7329TIP3    H221929   0.269   5.346   4.709
 7330TIP3   OH221930   0.762   3.217   1.502
 7330TIP3    H121931   0.730   3.264   1.426
 7330TIP3    H221932   0.723   3.262   1.577
 7331TIP3   OH221933   4.260   1.720   6.078
 7331TIP3    H121934   4.257   1.737   6.173
 7331TIP3    H221935   4.282   1.805   6.040
 7332TIP3   OH221936   6.539   4.539   0.640
 7332TIP3    H121937   6.581   4.502   0.562
 7332TIP3    H221938   6.475   4.473   0.666
 7333TIP3   OH221939   0.054   4.389   3.190
 7333TIP3    H121940   0.037   4.302   3.154
 7333TIP3    H221941  -0.033   4.422   3.213
 7334TIP3   OH221942   0.197   3.628   5.190
 7334TIP3    H121943   0.237   3.552   5.233
 7334TIP3    H221944   0.211   3.700   5.251
 7335TIP3   OH221945   2.347   5.265   5.481
 7335TIP3    H121946   2.317   5.336   5.424
 7335TIP3    H221947   2.385   5.200   5.421
 7336TIP3   OH221948   5.000   5.011   3.155
 7336TIP3    H121949   5.049   5.032   3.234
 7336TIP3    H221950   5.066   5.006   3.086
 7337TIP3   OH221951   0.327   7.241   2.161
 7337TIP3    H121952   0.394   7.297   2.122
 7337TIP3    H221953   0.353   7.233   2.252
 7338TIP3   OH221954   3.405   1.106   2.848
 7338TIP3    H121955   3.309   1.101   2.845
 7338TIP3    H221956   3.425   1.192   2.811
 7339TIP3   OH221957   5.475   0.636   5.907
 7339TIP3    H121958   5.472   0.591   5.992
 7339TIP3    H221959   5.558   0.683   5.907
 7340TIP3   OH221960   5.589   6.756   0.750
 7340TIP3    H121961   5.494   6.761   0.757
 7340TIP3    H221962   5.615   6.699   0.823
 7341TIP3   OH221963   3.673   0.176   4.968
 7341TIP3    H121964   3.578   0.167   4.978
 7341TIP3    H221965   3.694   0.124   4.890
 7342TIP3   OH221966   4.323   7.714   5.411
 7342TIP3    H121967   4.366   7.733   5.327
 7342TIP3    H221968   4.339   7.621   5.426
 7343TIP3   OH221969   0.968   2.103   2.967
 7343TIP3    H121970   0.900   2.048   3.006
 7343TIP3    H221971   0.993   2.057   2.887
 7344TIP3   OH221972   5.452   7.328   3.513
 7344TIP3    H121973   5.440   7.331   3.608
 7344TIP3    H221974   5.410   7.408   3.481
 7345TIP3   OH221975   1.463   4.157   4.466
 7345TIP3    H121976   1.510   4.182   4.546
 7345TIP3    H221977   1.375   4.136   4.496
 7346TIP3   OH221978   2.279   4.788   3.159
 7346TIP3    H121979   2.252   4.729   3.230
 7346TIP3    H221980   2.243   4.747   3.080
 7347TIP3   OH221981   3.892   2.405   5.640
 7347TIP3    H121982   3.943   2.324   5.644
 7347TIP3    H221983   3.900   2.434   5.549
 7348TIP3   OH221984   3.510   1.985   6.045
 7348TIP3    H121985   3.511   2.080   6.032
 7348TIP3    H221986   3.462   1.951   5.969
 7349TIP3   OH221987   6.313   7.695   3.374
 7349TIP3    H121988   6.318   7.678   3.468
 7349TIP3    H221989   6.400   7.725   3.349
 7350TIP3   OH221990   1.092   3.614   5.038
 7350TIP3    H121991   1.109   3.522   5.060
 7350TIP3    H221992   1.004   3.614   5.000
 7351TIP3   OH221993   6.167   3.739   3.915
 7351TIP3    H121994   6.262   3.747   3.905
 7351TIP3    H221995   6.134   3.827   3.899
 7352TIP3   OH221996   1.419   1.853   2.213
 7352TIP3    H121997   1.485   1.806   2.163
 7352TIP3    H221998   1.452   1.853   2.302
 7353TIP3   OH221999   0.242   2.199   4.002
 7353TIP3    H122000   0.291   2.119   3.983
 7353TIP3    H222001   0.152   2.179   3.976
 7354TIP3   OH222002   2.489   6.125   0.632
 7354TIP3    H122003   2.560   6.092   0.686
 7354TIP3    H222004   2.409   6.096   0.676
 7355TIP3   OH222005   7.023   6.119   5.004
 7355TIP3    H122006   6.994   6.101   5.093
 7355TIP3    H222007   6.979   6.054   4.950
 7356TIP3   OH222008   3.227   0.236   1.894
 7356TIP3    H122009   3.203   0.148   1.923
 7356TIP3    H222010   3.317   0.248   1.925
 7357TIP3   OH222011   2.133   0.595   4.856
 7357TIP3    H122012   2.214   0.593   4.805
 7357TIP3    H222013   2.162   0.613   4.945
 7358TIP3   OH222014   7.489   7.891   6.089
 7358TIP3    H122015   7.560   7.951   6.115
 7358TIP3    H222016   7.413   7.948   6.078
 7359TIP3   OH222017   1.734   6.078   5.523
 7359TIP3    H122018   1.674   6.082   5.597
 7359TIP3    H222019   1.736   5.985   5.499
 7360TIP3   OH222020   8.198   6.114   0.921
 7360TIP3    H122021   8.182   6.038   0.864
 7360TIP3    H222022   8.200   6.188   0.861
 7361TIP3   OH222023   2.024   1.460   5.359
 7361TIP3    H122024   2.014   1.365   5.352
 7361TIP3    H222025   1.953   1.496   5.306
 7362TIP3   OH222026   0.619   4.977   5.465
 7362TIP3    H122027   0.578   5.062   5.477
 7362TIP3    H222028   0.693   4.994   5.406
 7363TIP3   OH222029   5.349   4.724   3.491
 7363TIP3    H122030   5.255   4.742   3.491
 7363TIP3    H222031   5.374   4.726   3.583
 7364TIP3   OH222032   4.656   7.419   2.232
 7364TIP3    H122033   4.701   7.353   2.180
 7364TIP3    H222034   4.623   7.483   2.168
 7365TIP3   OH222035   2.781   0.706   0.125
 7365TIP3    H122036   2.854   0.754   0.164
 7365TIP3    H222037   2.785   0.619   0.166
 7366TIP3   OH222038   2.933   3.827   5.004
 7366TIP3    H122039   2.888   3.882   4.940
 7366TIP3    H222040   2.957   3.748   4.956
 7367TIP3   OH222041   4.071   6.042   6.710
 7367TIP3    H122042   4.051   5.949   6.701
 7367TIP3    H222043   3.997   6.087   6.669
 7368TIP3   OH222044   4.231   3.744   3.293
 7368TIP3    H122045   4.159   3.796   3.329
 7368TIP3    H222046   4.217   3.746   3.198
 7369TIP3   OH222047   1.954   7.609   2.582
 7369TIP3    H122048   1.945   7.702   2.560
 7369TIP3    H222049   1.868   7.584   2.615
 7370TIP3   OH222050   0.944   0.329   5.099
 7370TIP3    H122051   0.944   0.354   5.007
 7370TIP3    H222052   0.989   0.245   5.101
 7371TIP3   OH222053   0.624   1.571   4.104
 7371TIP3    H122054   0.636   1.509   4.033
 7371TIP3    H222055   0.529   1.572   4.120
 7372TIP3   OH222056   0.783   3.544   2.577
 7372TIP3    H122057   0.807   3.551   2.485
 7372TIP3    H222058   0.771   3.450   2.591
 7373TIP3   OH222059   7.629   3.009   0.355
 7373TIP3    H122060   7.623   3.007   0.260
 7373TIP3    H222061   7.648   2.918   0.380
 7374TIP3   OH222062   3.753   7.246   4.022
 7374TIP3    H122063   3.731   7.196   4.101
 7374TIP3    H222064   3.690   7.318   4.022
 7375TIP3   OH222065   0.542   2.234   0.673
 7375TIP3    H122066   0.476   2.301   0.653
 7375TIP3    H222067   0.572   2.256   0.761
 7376TIP3   OH222068   4.865   7.091   5.374
 7376TIP3    H122069   4.932   7.024   5.359
 7376TIP3    H222070   4.859   7.098   5.469
 7377TIP3   OH222071   7.912   7.553   1.427
 7377TIP3    H122072   8.000   7.516   1.424
 7377TIP3    H222073   7.859   7.491   1.378
 7378TIP3   OH222074   5.519   7.887   1.151
 7378TIP3    H122075   5.590   7.937   1.192
 7378TIP3    H222076   5.439   7.924   1.188
 7379TIP3   OH222077   6.552   3.149   2.112
 7379TIP3    H122078   6.571   3.223   2.055
 7379TIP3    H222079   6.544   3.074   2.053
 7380TIP3   OH222080   7.023   2.553   2.257
 7380TIP3    H122081   7.100   2.600   2.224
 7380TIP3    H222082   7.015   2.582   2.348
 7381TIP3   OH222083   7.221   2.568   3.990
 7381TIP3    H122084   7.202   2.574   3.896
 7381TIP3    H222085   7.315   2.550   3.994
 7382TIP3   OH222086   1.521   1.140   3.582
 7382TIP3    H122087   1.482   1.183   3.658
 7382TIP3    H222088   1.561   1.060   3.618
 7383TIP3   OH222089   7.893   4.427   4.981
 7383TIP3    H122090   7.849   4.351   5.019
 7383TIP3    H222091   7.972   4.438   5.034
 7384TIP3   OH222092   3.113   4.084   1.599
 7384TIP3    H122093   3.079   4.066   1.512
 7384TIP3    H222094   3.208   4.070   1.590
 7385TIP3   OH222095   5.938   5.797   3.671
 7385TIP3    H122096   6.011   5.735   3.660
 7385TIP3    H222097   5.861   5.741   3.681
 7386TIP3   OH222098   7.162   5.029   1.684
 7386TIP3    H122099   7.122   5.069   1.761
 7386TIP3    H222100   7.241   4.987   1.717
 7387TIP3   OH222101   6.419   7.788   2.939
 7387TIP3    H122102   6.480   7.809   2.868
 7387TIP3    H222103   6.360   7.863   2.943
 7388TIP3   OH222104   4.895   0.473   5.531
 7388TIP3    H122105   4.920   0.564   5.515
 7388TIP3    H222106   4.800   0.476   5.544
 7389TIP3   OH222107   1.316   1.487   2.630
 7389TIP3    H122108   1.236   1.505   2.582
 7389TIP3    H222109   1.386   1.503   2.568
 7390TIP3   OH222110   2.050   6.858   3.252
 7390TIP3    H122111   2.138   6.888   3.273
 7390TIP3    H222112   2.059   6.763   3.244
 7391TIP3   OH222113   6.921   0.380   0.504
 7391TIP3    H122114   6.968   0.455   0.540
 7391TIP3    H222115   6.989   0.316   0.483
 7392TIP3   OH222116   7.037   6.697   3.015
 7392TIP3    H122117   6.976   6.771   3.012
 7392TIP3    H222118   7.018   6.647   2.935
 7393TIP3   OH222119   3.452   1.240   2.598
 7393TIP3    H122120   3.427   1.311   2.656
 7393TIP3    H222121   3.390   1.246   2.525
 7394TIP3   OH222122   2.330   1.258   2.449
 7394TIP3    H122123   2.265   1.327   2.443
 7394TIP3    H222124   2.367   1.252   2.361
 7395TIP3   OH222125   0.458   4.756   5.411
 7395TIP3    H122126   0.534   4.699   5.420
 7395TIP3    H222127   0.480   4.834   5.462
 7396TIP3   OH222128   2.720   5.455   3.324
 7396TIP3    H122129   2.780   5.384   3.345
 7396TIP3    H222130   2.722   5.462   3.229
 7397TIP3   OH222131   1.516   0.104   0.182
 7397TIP3    H122132   1.547   0.157   0.109
 7397TIP3    H222133   1.428   0.136   0.200
 7398TIP3   OH222134   3.638   5.951   0.263
 7398TIP3    H122135   3.653   5.924   0.173
 7398TIP3    H222136   3.722   5.986   0.292
 7399TIP3   OH222137   0.300   2.240   6.509
 7399TIP3    H122138   0.371   2.303   6.497
 7399TIP3    H222139   0.280   2.209   6.421
 7400TIP3   OH222140   7.450   3.803   1.095
 7400TIP3    H122141   7.403   3.876   1.054
 7400TIP3    H222142   7.382   3.746   1.129
 7401TIP3   OH222143   0.154   4.129   1.570
 7401TIP3    H122144   0.183   4.098   1.656
 7401TIP3    H222145   0.150   4.224   1.579
 7402TIP3   OH222146   5.766   0.087   3.925
 7402TIP3    H122147   5.819   0.008   3.934
 7402TIP3    H222148   5.714   0.072   3.846
 7403TIP3   OH222149   5.387   3.257   3.462
 7403TIP3    H122150   5.411   3.345   3.434
 7403TIP3    H222151   5.322   3.229   3.397
 7404TIP3   OH222152   7.788   3.732   5.983
 7404TIP3    H122153   7.808   3.675   6.057
 7404TIP3    H222154   7.743   3.807   6.022
 7405TIP3   OH222155   3.547   0.643   5.589
 7405TIP3    H122156   3.558   0.550   5.609
 7405TIP3    H222157   3.533   0.685   5.674
 7406TIP3   OH222158   1.925   4.724   2.087
 7406TIP3    H122159   1.953   4.809   2.121
 7406TIP3    H222160   2.003   4.689   2.043
 7407TIP3   OH222161   6.668   0.489   2.497
 7407TIP3    H122162   6.607   0.437   2.550
 7407TIP3    H222163   6.738   0.511   2.558
 7408TIP3   OH222164   4.351   5.175   2.641
 7408TIP3    H122165   4.272   5.128   2.669
 7408TIP3    H222166   4.421   5.140   2.697
 7409TIP3   OH222167   3.124   3.970   4.358
 7409TIP3    H122168   3.091   3.968   4.448
 7409TIP3    H222169   3.127   4.062   4.335
 7410TIP3   OH222170   1.195   4.933   1.241
 7410TIP3    H122171   1.207   4.841   1.216
 7410TIP3    H222172   1.104   4.952   1.217
 7411TIP3   OH222173   2.132   7.546   6.723
 7411TIP3    H122174   2.150   7.497   6.803
 7411TIP3    H222175   2.191   7.622   6.728
 7412TIP3   OH222176   0.854   3.675   1.019
 7412TIP3    H122177   0.780   3.715   1.065
 7412TIP3    H222178   0.835   3.687   0.926
 7413TIP3   OH222179   7.986   2.992   0.640
 7413TIP3    H122180   8.046   3.066   0.649
 7413TIP3    H222181   7.928   3.017   0.568
 7414TIP3   OH222182   3.294   5.804   1.856
 7414TIP3    H122183   3.294   5.804   1.760
 7414TIP3    H222184   3.298   5.712   1.880
 7415TIP3   OH222185   0.853   6.575   3.235
 7415TIP3    H122186   0.787   6.632   3.194
 7415TIP3    H222187   0.933   6.627   3.234
 7416TIP3   OH222188   5.297   0.270   0.824
 7416TIP3    H122189   5.347   0.351   0.833
 7416TIP3    H222190   5.361   0.200   0.838
 7417TIP3   OH222191   1.108   2.950   0.664
 7417TIP3    H122192   1.029   2.985   0.706
 7417TIP3    H222193   1.104   2.982   0.574
 7418TIP3   OH222194   0.788   1.788   1.909
 7418TIP3    H122195   0.881   1.786   1.930
 7418TIP3    H222196   0.784   1.815   1.818
 7419TIP3   OH222197   0.517   1.447   2.441
 7419TIP3    H122198   0.600   1.444   2.394
 7419TIP3    H222199   0.535   1.405   2.525
 7420TIP3   OH222200   5.394   7.664   4.630
 7420TIP3    H122201   5.299   7.673   4.619
 7420TIP3    H222202   5.413   7.713   4.710
 7421TIP3   OH222203   3.966   3.567   3.565
 7421TIP3    H122204   3.900   3.499   3.558
 7421TIP3    H222205   3.918   3.649   3.558
 7422TIP3   OH222206   6.939   0.283   2.807
 7422TIP3    H122207   6.902   0.270   2.894
 7422TIP3    H222208   7.018   0.229   2.807
 7423TIP3   OH222209   8.377   7.728   5.000
 7423TIP3    H122210   8.283   7.724   5.016
 7423TIP3    H222211   8.389   7.682   4.916
 7424TIP3   OH222212   0.649   4.277   0.148
 7424TIP3    H122213   0.664   4.307   0.238
 7424TIP3    H222214   0.581   4.210   0.156
 7425TIP3   OH222215   0.306   7.174   0.265
 7425TIP3    H122216   0.323   7.139   0.353
 7425TIP3    H222217   0.288   7.267   0.281
 7426TIP3   OH222218   3.830   7.681   2.306
 7426TIP3    H122219   3.838   7.605   2.247
 7426TIP3    H222220   3.863   7.754   2.255
 7427TIP3   OH222221   6.231   1.276   5.779
 7427TIP3    H122222   6.306   1.335   5.778
 7427TIP3    H222223   6.188   1.293   5.863
 7428TIP3   OH222224   7.868   5.568   3.813
 7428TIP3    H122225   7.938   5.634   3.805
 7428TIP3    H222226   7.794   5.607   3.768
 7429TIP3   OH222227   3.033   5.901   1.472
 7429TIP3    H122228   3.014   5.813   1.506
 7429TIP3    H222229   3.120   5.922   1.506
 7430TIP3   OH222230   1.945   7.366   2.101
 7430TIP3    H122231   2.023   7.421   2.104
 7430TIP3    H222232   1.928   7.343   2.193
 7431TIP3   OH222233   1.960   0.022   3.624
 7431TIP3    H122234   1.962   0.105   3.576
 7431TIP3    H222235   1.869   0.016   3.655
 7432TIP3   OH222236   3.241   6.054   6.759
 7432TIP3    H122237   3.336   6.059   6.770
 7432TIP3    H222238   3.224   6.098   6.676
 7433TIP3   OH222239   2.450   5.594   1.869
 7433TIP3    H122240   2.429   5.501   1.865
 7433TIP3    H222241   2.370   5.638   1.841
 7434TIP3   OH222242   4.568   5.818   1.524
 7434TIP3    H122243   4.502   5.763   1.566
 7434TIP3    H222244   4.522   5.900   1.505
 7435TIP3   OH222245   1.325   1.161   3.762
 7435TIP3    H122246   1.340   1.066   3.770
 7435TIP3    H222247   1.279   1.184   3.843
 7436TIP3   OH222248   2.376   3.742   4.313
 7436TIP3    H122249   2.464   3.702   4.312
 7436TIP3    H222250   2.386   3.820   4.367
 7437TIP3   OH222251   7.179   1.214   6.517
 7437TIP3    H122252   7.096   1.261   6.510
 7437TIP3    H222253   7.188   1.169   6.433
 7438TIP3   OH222254   2.644   1.857   4.025
 7438TIP3    H122255   2.738   1.875   4.026
 7438TIP3    H222256   2.617   1.874   3.934
 7439TIP3   OH222257   6.670   4.225   3.811
 7439TIP3    H122258   6.718   4.218   3.728
 7439TIP3    H222259   6.738   4.229   3.878
 7440TIP3   OH222260   0.709   1.515   6.704
 7440TIP3    H122261   0.749   1.585   6.755
 7440TIP3    H222262   0.668   1.560   6.630
 7441TIP3   OH222263   5.621   5.757  -0.011
 7441TIP3    H122264   5.643   5.759   0.082
 7441TIP3    H222265   5.527   5.745  -0.013
 7442TIP3   OH222266   2.876   6.464   0.809
 7442TIP3    H122267   2.857   6.545   0.761
 7442TIP3    H222268   2.821   6.398   0.767
 7443TIP3   OH222269   8.317   7.142   2.726
 7443TIP3    H122270   8.249   7.202   2.758
 7443TIP3    H222271   8.398   7.175   2.765
 7444TIP3   OH222272   0.601   5.539   4.246
 7444TIP3    H122273   0.678   5.590   4.222
 7444TIP3    H222274   0.534   5.604   4.266
 7445TIP3   OH222275   2.423   7.615   3.807
 7445TIP3    H122276   2.463   7.528   3.800
 7445TIP3    H222277   2.453   7.648   3.892
 7446TIP3   OH222278   0.114   4.112   1.136
 7446TIP3    H122279   0.023   4.092   1.114
 7446TIP3    H222280   0.162   4.033   1.111
 7447TIP3   OH222281   2.375   3.083   6.097
 7447TIP3    H122282   2.416   3.153   6.047
 7447TIP3    H222283   2.283   3.106   6.102
 7448TIP3   OH222284   3.942   1.892   1.969
 7448TIP3    H122285   3.872   1.827   1.979
 7448TIP3    H222286   4.002   1.873   2.042
 7449TIP3   OH222287   6.599   6.449   0.447
 7449TIP3    H122288   6.505   6.463   0.456
 7449TIP3    H222289   6.623   6.399   0.525
 7450TIP3   OH222290   6.587   3.620   1.702
 7450TIP3    H122291   6.540   3.582   1.777
 7450TIP3    H222292   6.642   3.688   1.741
 7451TIP3   OH222293   0.547   1.523   5.512
 7451TIP3    H122294   0.573   1.487   5.427
 7451TIP3    H222295   0.629   1.544   5.556
 7452TIP3   OH222296   7.432   0.828   3.316
 7452TIP3    H122297   7.337   0.833   3.324
 7452TIP3    H222298   7.447   0.779   3.235
 7453TIP3   OH222299   5.917   4.007   0.072
 7453TIP3    H122300   5.852   4.077   0.075
 7453TIP3    H222301   5.908   3.969  -0.016
 7454TIP3   OH222302   8.335   3.671   5.840
 7454TIP3    H122303   8.301   3.583   5.858
 7454TIP3    H222304   8.377   3.663   5.755
 7455TIP3   OH222305   1.951   7.397   2.366
 7455TIP3    H122306   1.943   7.359   2.453
 7455TIP3    H222307   1.999   7.479   2.379
 7456TIP3   OH222308   0.749   1.286   4.995
 7456TIP3    H122309   0.828   1.271   4.945
 7456TIP3    H222310   0.748   1.381   5.012
 7457TIP3   OH222311   2.069   0.061   6.894
 7457TIP3    H122312   2.086   0.140   6.945
 7457TIP3    H222313   2.042   0.093   6.808
 7458TIP3   OH222314   8.149   6.764   1.476
 7458TIP3    H122315   8.176   6.848   1.513
 7458TIP3    H222316   8.054   6.761   1.489
 7459TIP3   OH222317   3.294   2.185   2.851
 7459TIP3    H122318   3.298   2.280   2.837
 7459TIP3    H222319   3.366   2.150   2.798
 7460TIP3   OH222320   8.272   6.866   2.775
 7460TIP3    H122321   8.253   6.787   2.725
 7460TIP3    H222322   8.268   6.938   2.712
 7461TIP3   OH222323   2.413   6.666   2.139
 7461TIP3    H122324   2.497   6.710   2.153
 7461TIP3    H222325   2.356   6.733   2.103
 7462TIP3   OH222326   2.500   4.934   3.019
 7462TIP3    H122327   2.432   4.892   3.072
 7462TIP3    H222328   2.469   5.024   3.008
 7463TIP3   OH222329   0.489   4.855   3.314
 7463TIP3    H122330   0.580   4.876   3.291
 7463TIP3    H222331   0.493   4.833   3.407
 7464TIP3   OH222332   1.939   0.181   2.329
 7464TIP3    H122333   1.962   0.273   2.315
 7464TIP3    H222334   1.938   0.171   2.425
 7465TIP3   OH222335   7.378   0.697   4.304
 7465TIP3    H122336   7.400   0.775   4.254
 7465TIP3    H222337   7.315   0.727   4.370
 7466TIP3   OH222338   4.164   4.515   2.359
 7466TIP3    H122339   4.086   4.477   2.399
 7466TIP3    H222340   4.229   4.444   2.362
 7467TIP3   OH222341   6.452   4.762   0.139
 7467TIP3    H122342   6.475   4.853   0.123
 7467TIP3    H222343   6.357   4.763   0.152
 7468TIP3   OH222344   0.496   1.679   2.291
 7468TIP3    H122345   0.467   1.599   2.334
 7468TIP3    H222346   0.416   1.732   2.282
 7469TIP3   OH222347   6.664   1.101   3.496
 7469TIP3    H122348   6.677   1.187   3.456
 7469TIP3    H222349   6.595   1.060   3.444
 7470TIP3   OH222350   2.948   1.643   6.528
 7470TIP3    H122351   3.010   1.671   6.461
 7470TIP3    H222352   2.910   1.724   6.561
 7471TIP3   OH222353   6.793   2.645   2.139
 7471TIP3    H122354   6.879   2.611   2.166
 7471TIP3    H222355   6.814   2.719   2.082
 7472TIP3   OH222356   7.477   3.405   3.228
 7472TIP3    H122357   7.526   3.471   3.278
 7472TIP3    H222358   7.544   3.353   3.185
 7473TIP3   OH222359   0.609   2.049   4.543
 7473TIP3    H122360   0.531   2.003   4.576
 7473TIP3    H222361   0.583   2.141   4.542
 7474TIP3   OH222362   3.749   0.484   4.566
 7474TIP3    H122363   3.742   0.552   4.633
 7474TIP3    H222364   3.679   0.504   4.504
 7475TIP3   OH222365   8.295   1.341   0.332
 7475TIP3    H122366   8.213   1.327   0.285
 7475TIP3    H222367   8.281   1.300   0.417
 7476TIP3   OH222368   2.508   6.775   0.060
 7476TIP3    H122369   2.423   6.769   0.018
 7476TIP3    H222370   2.556   6.840   0.008
 7477TIP3   OH222371   3.879   5.435   2.906
 7477TIP3    H122372   3.860   5.343   2.887
 7477TIP3    H222373   3.823   5.484   2.845
 7478TIP3   OH222374   0.451   3.257   4.163
 7478TIP3    H122375   0.485   3.306   4.089
 7478TIP3    H222376   0.367   3.298   4.182
 7479TIP3   OH222377   0.020   1.659   2.496
 7479TIP3    H122378   0.075   1.676   2.419
 7479TIP3    H222379  -0.065   1.699   2.474
 7480TIP3   OH222380   0.668   5.956   1.559
 7480TIP3    H122381   0.742   5.990   1.608
 7480TIP3    H222382   0.676   5.997   1.473
 7481TIP3   OH222383   2.849   0.523   5.401
 7481TIP3    H122384   2.806   0.439   5.391
 7481TIP3    H222385   2.934   0.502   5.440
 7482TIP3   OH222386   1.189   3.617   2.368
 7482TIP3    H122387   1.225   3.583   2.286
 7482TIP3    H222388   1.226   3.704   2.377
 7483TIP3   OH222389   7.043   6.815   4.023
 7483TIP3    H122390   7.123   6.865   4.008
 7483TIP3    H222391   7.036   6.758   3.947
 7484TIP3   OH222392   7.250   6.738   5.147
 7484TIP3    H122393   7.271   6.830   5.135
 7484TIP3    H222394   7.220   6.709   5.061
 7485TIP3   OH222395   5.409   5.394   0.724
 7485TIP3    H122396   5.491   5.427   0.685
 7485TIP3    H222397   5.404   5.303   0.695
 7486TIP3   OH222398   1.853   2.029   6.018
 7486TIP3    H122399   1.815   2.113   5.992
 7486TIP3    H222400   1.936   2.053   6.060
 7487TIP3   OH222401   4.897   4.922   4.807
 7487TIP3    H122402   4.985   4.911   4.769
 7487TIP3    H222403   4.907   4.997   4.866
 7488TIP3   OH222404   1.005   2.315   6.243
 7488TIP3    H122405   0.934   2.317   6.179
 7488TIP3    H222406   0.979   2.247   6.305
 7489TIP3   OH222407   6.653   0.324   4.467
 7489TIP3    H122408   6.585   0.257   4.462
 7489TIP3    H222409   6.697   0.308   4.550
 7490TIP3   OH222410   8.345   3.476   1.681
 7490TIP3    H122411   8.357   3.501   1.772
 7490TIP3    H222412   8.428   3.497   1.639
 7491TIP3   OH222413   8.106   1.790   0.810
 7491TIP3    H122414   8.071   1.796   0.721
 7491TIP3    H222415   8.194   1.827   0.804
 7492TIP3   OH222416   4.306   3.644   4.282
 7492TIP3    H122417   4.217   3.647   4.318
 7492TIP3    H222418   4.338   3.557   4.305
 7493TIP3   OH222419   1.897   2.988   3.213
 7493TIP3    H122420   1.879   3.071   3.256
 7493TIP3    H222421   1.843   2.924   3.260
 7494TIP3   OH222422  -0.018   6.004   3.779
 7494TIP3    H122423   0.038   5.932   3.810
 7494TIP3    H222424   0.007   6.079   3.832
 7495TIP3   OH222425   6.759   7.053   6.460
 7495TIP3    H122426   6.752   7.051   6.555
 7495TIP3    H222427   6.838   7.103   6.442
 7496TIP3   OH222428   2.187   5.954   3.504
 7496TIP3    H122429   2.267   6.001   3.524
 7496TIP3    H222430   2.182   5.955   3.408
 7497TIP3   OH222431   4.734   1.856   2.866
 7497TIP3    H122432   4.801   1.789   2.849
 7497TIP3    H222433   4.670   1.812   2.921
 7498TIP3   OH222434   7.520   5.882   0.467
 7498TIP3    H122435   7.518   5.912   0.558
 7498TIP3    H222436   7.610   5.899   0.439
 7499TIP3   OH222437   0.894   6.864   6.605
 7499TIP3    H122438   0.838   6.810   6.548
 7499TIP3    H222439   0.980   6.821   6.600
 7500TIP3   OH222440   2.434   3.285   3.892
 7500TIP3    H122441   2.517   3.312   3.931
 7500TIP3    H222442   2.436   3.189   3.894
 7501TIP3   OH222443   3.145   1.715   3.581
 7501TIP3    H122444   3.112   1.700   3.670
 7501TIP3    H222445   3.069   1.747   3.533
 7502TIP3   OH222446   7.171   7.475   4.779
 7502TIP3    H122447   7.223   7.447   4.704
 7502TIP3    H222448   7.220   7.446   4.855
 7503TIP3   OH222449   7.384   0.063   6.825
 7503TIP3    H122450   7.376   0.154   6.851
 7503TIP3    H222451   7.390   0.015   6.907
 7504TIP3   OH222452   7.227   2.396   1.026
 7504TIP3    H122453   7.232   2.331   0.956
 7504TIP3    H222454   7.312   2.391   1.070
 7505TIP3   OH222455   5.142   3.427   6.726
 7505TIP3    H122456   5.191   3.404   6.647
 7505TIP3    H222457   5.209   3.462   6.785
 7506TIP3   OH222458  -0.002   4.876   6.674
 7506TIP3    H122459  -0.038   4.887   6.762
 7506TIP3    H222460   0.092   4.860   6.688
 7507TIP3   OH222461   6.803   3.537   5.043
 7507TIP3    H122462   6.754   3.473   5.095
 7507TIP3    H222463   6.859   3.484   4.986
 7508TIP3   OH222464   7.671   6.772   4.028
 7508TIP3    H122465   7.593   6.805   4.074
 7508TIP3    H222466   7.702   6.848   3.978
 7509TIP3   OH222467   5.048   3.774   0.069
 7509TIP3    H122468   5.123   3.821   0.034
 7509TIP3    H222469   4.975   3.835   0.058
 7510TIP3   OH222470   3.501   4.171   1.856
 7510TIP3    H122471   3.422   4.117   1.862
 7510TIP3    H222472   3.507   4.192   1.762
 7511TIP3   OH222473   6.982   6.877   5.035
 7511TIP3    H122474   6.886   6.869   5.037
 7511TIP3    H222475   7.013   6.787   5.037
 7512TIP3   OH222476   4.195   2.208   6.001
 7512TIP3    H122477   4.137   2.278   5.970
 7512TIP3    H222478   4.215   2.233   6.091
 7513TIP3   OH222479   1.911   3.181   6.329
 7513TIP3    H122480   1.844   3.114   6.340
 7513TIP3    H222481   1.863   3.263   6.323
 7514TIP3   OH222482   5.869   2.036   4.301
 7514TIP3    H122483   5.780   2.000   4.301
 7514TIP3    H222484   5.870   2.096   4.375
 7515TIP3   OH222485   3.014   3.679   0.178
 7515TIP3    H122486   3.061   3.762   0.174
 7515TIP3    H222487   2.936   3.699   0.231
 7516TIP3   OH222488   7.013   5.972   4.587
 7516TIP3    H122489   6.971   5.982   4.502
 7516TIP3    H222490   6.954   5.913   4.635
 7517TIP3   OH222491   3.252   2.968   5.599
 7517TIP3    H122492   3.195   2.920   5.540
 7517TIP3    H222493   3.199   3.043   5.628
 7518TIP3   OH222494   6.193   0.304   2.766
 7518TIP3    H122495   6.116   0.248   2.775
 7518TIP3    H222496   6.159   0.385   2.729
 7519TIP3   OH222497   8.321   2.586   1.279
 7519TIP3    H122498   8.332   2.630   1.363
 7519TIP3    H222499   8.226   2.580   1.268
 7520TIP3   OH222500   7.001   2.413   5.088
 7520TIP3    H122501   7.071   2.476   5.108
 7520TIP3    H222502   6.953   2.453   5.016
 7521TIP3   OH222503   0.986   6.678   6.420
 7521TIP3    H122504   0.976   6.628   6.338
 7521TIP3    H222505   1.079   6.674   6.439
 7522TIP3   OH222506   4.566   5.517   0.254
 7522TIP3    H122507   4.652   5.485   0.229
 7522TIP3    H222508   4.506   5.479   0.189
 7523TIP3   OH222509   6.623   3.321   5.075
 7523TIP3    H122510   6.578   3.241   5.049
 7523TIP3    H222511   6.554   3.387   5.080
 7524TIP3   OH222512   4.952   5.404   5.456
 7524TIP3    H122513   4.887   5.338   5.432
 7524TIP3    H222514   4.905   5.462   5.516
 7525TIP3   OH222515   4.904   2.548   3.291
 7525TIP3    H122516   4.863   2.461   3.284
 7525TIP3    H222517   4.909   2.579   3.201
 7526TIP3   OH222518   2.081   3.343   3.683
 7526TIP3    H122519   2.013   3.374   3.624
 7526TIP3    H222520   2.154   3.403   3.669
 7527TIP3   OH222521   3.564   4.180   3.847
 7527TIP3    H122522   3.600   4.261   3.812
 7527TIP3    H222523   3.577   4.116   3.777
 7528TIP3   OH222524   8.157   1.748   3.387
 7528TIP3    H122525   8.129   1.750   3.478
 7528TIP3    H222526   8.220   1.819   3.379
 7529TIP3   OH222527   7.856   4.479   5.880
 7529TIP3    H122528   7.781   4.505   5.827
 7529TIP3    H222529   7.819   4.430   5.953
 7530TIP3   OH222530   2.317   2.240   0.247
 7530TIP3    H122531   2.407   2.246   0.279
 7530TIP3    H222532   2.270   2.191   0.315
 7531TIP3   OH222533   0.858   4.789   3.927
 7531TIP3    H122534   0.901   4.824   4.005
 7531TIP3    H222535   0.903   4.829   3.854
 7532TIP3   OH222536   8.056   7.840   4.721
 7532TIP3    H122537   8.147   7.863   4.702
 7532TIP3    H222538   8.004   7.898   4.664
 7533TIP3   OH222539   7.264   4.723   6.217
 7533TIP3    H122540   7.240   4.656   6.281
 7533TIP3    H222541   7.290   4.798   6.269
 7534TIP3   OH222542   1.147   2.223   2.739
 7534TIP3    H122543   1.234   2.213   2.700
 7534TIP3    H222544   1.098   2.146   2.708
 7535TIP3   OH222545   1.808   2.671   2.889
 7535TIP3    H122546   1.774   2.596   2.840
 7535TIP3    H222547   1.760   2.668   2.972
 7536TIP3   OH222548   2.602   3.667   4.735
 7536TIP3    H122549   2.544   3.604   4.778
 7536TIP3    H222550   2.640   3.618   4.662
 7537TIP3   OH222551   8.168   7.501   1.723
 7537TIP3    H122552   8.081   7.519   1.760
 7537TIP3    H222553   8.211   7.446   1.788
 7538TIP3   OH222554   4.606   5.921   2.006
 7538TIP3    H122555   4.649   5.893   2.087
 7538TIP3    H222556   4.673   5.911   1.938
 7539TIP3   OH222557   3.085   3.557   3.614
 7539TIP3    H122558   3.082   3.481   3.671
 7539TIP3    H222559   3.131   3.528   3.536
 7540TIP3   OH222560   7.532   5.048   6.226
 7540TIP3    H122561   7.541   5.128   6.277
 7540TIP3    H222562   7.532   5.077   6.135
 7541TIP3   OH222563   3.204   4.501   2.361
 7541TIP3    H122564   3.296   4.489   2.386
 7541TIP3    H222565   3.205   4.576   2.302
 7542TIP3   OH222566   4.997   6.643   2.835
 7542TIP3    H122567   4.905   6.643   2.862
 7542TIP3    H222568   5.008   6.559   2.790
 7543TIP3   OH222569   1.400   0.318   6.066
 7543TIP3    H122570   1.368   0.264   6.137
 7543TIP3    H222571   1.341   0.299   5.993
 7544TIP3   OH222572   2.032   7.175   5.532
 7544TIP3    H122573   1.973   7.234   5.485
 7544TIP3    H222574   2.093   7.234   5.576
 7545TIP3   OH222575   4.156   5.510   1.424
 7545TIP3    H122576   4.251   5.518   1.433
 7545TIP3    H222577   4.138   5.541   1.336
 7546TIP3   OH222578   4.742   7.499   2.553
 7546TIP3    H122579   4.778   7.413   2.573
 7546TIP3    H222580   4.650   7.494   2.580
 7547TIP3   OH222581   4.457   2.298   6.231
 7547TIP3    H122582   4.443   2.372   6.171
 7547TIP3    H222583   4.369   2.269   6.253
 7548TIP3   OH222584   0.834   0.207   1.753
 7548TIP3    H122585   0.863   0.269   1.686
 7548TIP3    H222586   0.847   0.253   1.836
 7549TIP3   OH222587   7.005   0.773   1.211
 7549TIP3    H122588   6.964   0.856   1.188
 7549TIP3    H222589   6.938   0.707   1.192
 7550TIP3   OH222590   3.119   1.909   2.516
 7550TIP3    H122591   3.133   1.854   2.438
 7550TIP3    H222592   3.196   1.893   2.570
 7551TIP3   OH222593   3.180   5.869   2.386
 7551TIP3    H122594   3.196   5.776   2.369
 7551TIP3    H222595   3.184   5.911   2.300
 7552TIP3   OH222596   0.996   6.347   3.159
 7552TIP3    H122597   0.932   6.417   3.172
 7552TIP3    H222598   1.080   6.386   3.184
 7553TIP3   OH222599   6.282   0.489   6.548
 7553TIP3    H122600   6.208   0.447   6.504
 7553TIP3    H222601   6.260   0.485   6.641
 7554TIP3   OH222602   0.129   5.072   2.710
 7554TIP3    H122603   0.157   5.163   2.721
 7554TIP3    H222604   0.092   5.068   2.622
 7555TIP3   OH222605   1.344   6.496   3.817
 7555TIP3    H122606   1.426   6.481   3.864
 7555TIP3    H222607   1.279   6.442   3.863
 7556TIP3   OH222608   5.431   4.485   4.815
 7556TIP3    H122609   5.393   4.532   4.890
 7556TIP3    H222610   5.524   4.506   4.818
 7557TIP3   OH222611   1.863   7.557   1.650
 7557TIP3    H122612   1.879   7.577   1.558
 7557TIP3    H222613   1.938   7.503   1.676
 7558TIP3   OH222614   1.853   4.189   2.302
 7558TIP3    H122615   1.865   4.273   2.258
 7558TIP3    H222616   1.931   4.179   2.357
 7559TIP3   OH222617   2.823   6.929   0.600
 7559TIP3    H122618   2.854   6.930   0.509
 7559TIP3    H222619   2.816   7.021   0.625
 7560TIP3   OH222620   7.973   6.167   4.858
 7560TIP3    H122621   8.053   6.216   4.875
 7560TIP3    H222622   7.930   6.213   4.786
 7561TIP3   OH222623   2.742   1.834   4.965
 7561TIP3    H122624   2.711   1.922   4.946
 7561TIP3    H222625   2.838   1.843   4.967
 7562TIP3   OH222626   0.623   4.857   0.377
 7562TIP3    H122627   0.580   4.895   0.300
 7562TIP3    H222628   0.624   4.763   0.360
 7563TIP3   OH222629   7.784   4.379   4.048
 7563TIP3    H122630   7.755   4.468   4.029
 7563TIP3    H222631   7.703   4.327   4.048
 7564TIP3   OH222632   3.057   3.124   3.413
 7564TIP3    H122633   3.009   3.183   3.355
 7564TIP3    H222634   3.111   3.181   3.467
 7565TIP3   OH222635   3.530   5.683   3.761
 7565TIP3    H122636   3.484   5.601   3.744
 7565TIP3    H222637   3.619   5.657   3.783
 7566TIP3   OH222638   7.489   2.800   2.980
 7566TIP3    H122639   7.412   2.786   2.924
 7566TIP3    H222640   7.544   2.723   2.967
 7567TIP3   OH222641   1.409   4.755   0.120
 7567TIP3    H122642   1.355   4.808   0.061
 7567TIP3    H222643   1.498   4.765   0.086
 7568TIP3   OH222644   0.148   7.705   5.198
 7568TIP3    H122645   0.065   7.738   5.162
 7568TIP3    H222646   0.180   7.777   5.253
 7569TIP3   OH222647   0.242   5.766   1.144
 7569TIP3    H122648   0.246   5.843   1.086
 7569TIP3    H222649   0.304   5.786   1.214
 7570TIP3   OH222650   6.690   3.178   5.663
 7570TIP3    H122651   6.605   3.152   5.698
 7570TIP3    H222652   6.682   3.273   5.647
 7571TIP3   OH222653   5.209   2.738   2.857
 7571TIP3    H122654   5.125   2.779   2.838
 7571TIP3    H222655   5.231   2.691   2.776
 7572TIP3   OH222656   5.733   0.915   5.096
 7572TIP3    H122657   5.689   0.830   5.096
 7572TIP3    H222658   5.823   0.895   5.068
 7573TIP3   OH222659   7.263   6.743   0.409
 7573TIP3    H122660   7.342   6.697   0.438
 7573TIP3    H222661   7.285   6.836   0.419
 7574TIP3   OH222662   6.867   1.294   0.261
 7574TIP3    H122663   6.885   1.318   0.170
 7574TIP3    H222664   6.788   1.241   0.257
 7575TIP3   OH222665   4.827   6.101   4.011
 7575TIP3    H122666   4.911   6.079   3.969
 7575TIP3    H222667   4.762   6.093   3.941
 7576TIP3   OH222668   2.400   6.400   4.751
 7576TIP3    H122669   2.452   6.481   4.752
 7576TIP3    H222670   2.419   6.361   4.665
 7577TIP3   OH222671   3.361   5.369   2.560
 7577TIP3    H122672   3.384   5.284   2.597
 7577TIP3    H222673   3.445   5.406   2.530
 7578TIP3   OH222674   3.402   1.295   1.173
 7578TIP3    H122675   3.417   1.277   1.080
 7578TIP3    H222676   3.319   1.250   1.193
 7579TIP3   OH222677   0.360   2.466   0.154
 7579TIP3    H122678   0.384   2.473   0.062
 7579TIP3    H222679   0.266   2.481   0.155
 7580TIP3   OH222680   1.822   6.610   3.335
 7580TIP3    H122681   1.895   6.635   3.279
 7580TIP3    H222682   1.840   6.518   3.358
 7581TIP3   OH222683   6.225   4.325   1.658
 7581TIP3    H122684   6.187   4.288   1.579
 7581TIP3    H222685   6.250   4.415   1.634
 7582TIP3   OH222686   1.951   1.721   1.855
 7582TIP3    H122687   1.997   1.782   1.913
 7582TIP3    H222688   1.965   1.757   1.767
 7583TIP3   OH222689   1.952   0.595   5.279
 7583TIP3    H122690   1.907   0.511   5.284
 7583TIP3    H222691   1.900   0.646   5.217
 7584TIP3   OH222692   2.872   4.939   2.706
 7584TIP3    H122693   2.793   4.884   2.713
 7584TIP3    H222694   2.872   4.992   2.785
 7585TIP3   OH222695   6.912   2.361   1.756
 7585TIP3    H122696   6.884   2.270   1.753
 7585TIP3    H222697   6.946   2.379   1.668
 7586TIP3   OH222698   1.043   1.178   5.110
 7586TIP3    H122699   1.053   1.241   5.038
 7586TIP3    H222700   1.121   1.123   5.105
 7587TIP3   OH222701   1.093   2.255   1.782
 7587TIP3    H122702   1.012   2.248   1.832
 7587TIP3    H222703   1.089   2.183   1.719
 7588TIP3   OH222704   4.704   5.803   2.920
 7588TIP3    H122705   4.625   5.803   2.975
 7588TIP3    H222706   4.698   5.884   2.870
 7589TIP3   OH222707   6.098   3.532   3.681
 7589TIP3    H122708   6.038   3.459   3.669
 7589TIP3    H222709   6.182   3.491   3.703
 7590TIP3   OH222710   0.567   2.068   2.121
 7590TIP3    H122711   0.496   2.089   2.182
 7590TIP3    H222712   0.545   2.117   2.042
 7591TIP3   OH222713   6.501   6.141   3.660
 7591TIP3    H122714   6.477   6.096   3.741
 7591TIP3    H222715   6.441   6.106   3.594
 7592TIP3   OH222716   1.697   1.958   1.229
 7592TIP3    H122717   1.602   1.955   1.226
 7592TIP3    H222718   1.717   2.016   1.303
 7593TIP3   OH222719   7.961   2.837   6.234
 7593TIP3    H122720   7.977   2.777   6.306
 7593TIP3    H222721   8.047   2.876   6.215
 7594TIP3   OH222722   2.685   4.314   6.095
 7594TIP3    H122723   2.661   4.290   6.185
 7594TIP3    H222724   2.654   4.241   6.042
 7595TIP3   OH222725   7.598   5.438   3.968
 7595TIP3    H122726   7.634   5.465   3.883
 7595TIP3    H222727   7.557   5.518   4.002
 7596TIP3   OH222728   0.020   7.479   2.694
 7596TIP3    H122729   0.073   7.556   2.715
 7596TIP3    H222730  -0.058   7.488   2.748
 7597TIP3   OH222731   3.660   0.958   6.129
 7597TIP3    H122732   3.725   0.897   6.165
 7597TIP3    H222733   3.584   0.903   6.112
 7598TIP3   OH222734   5.303   5.005   2.696
 7598TIP3    H122735   5.252   4.925   2.699
 7598TIP3    H222736   5.389   4.980   2.729
 7599TIP3   OH222737   5.601   6.113   0.072
 7599TIP3    H122738   5.616   6.205   0.093
 7599TIP3    H222739   5.686   6.071   0.083
 7600TIP3   OH222740   0.919   6.400   5.147
 7600TIP3    H122741   0.929   6.328   5.208
 7600TIP3    H222742   0.933   6.361   5.061
 7601TIP3   OH222743   7.787   5.392   5.409
 7601TIP3    H122744   7.858   5.333   5.381
 7601TIP3    H222745   7.789   5.463   5.345
 7602TIP3   OH222746   2.787   0.098   6.108
 7602TIP3    H122747   2.856   0.039   6.137
 7602TIP3    H222748   2.707   0.046   6.117
 7603TIP3   OH222749   5.199   2.206   5.439
 7603TIP3    H122750   5.124   2.200   5.498
 7603TIP3    H222751   5.262   2.261   5.487
 7604TIP3   OH222752   7.839   2.228   4.996
 7604TIP3    H122753   7.883   2.172   4.931
 7604TIP3    H222754   7.901   2.299   5.012
 7605TIP3   OH222755   3.372   2.891   2.065
 7605TIP3    H122756   3.285   2.916   2.095
 7605TIP3    H222757   3.363   2.799   2.039
 7606TIP3   OH222758   6.603   5.078   0.807
 7606TIP3    H122759   6.595   5.117   0.720
 7606TIP3    H222760   6.591   4.984   0.793
 7607TIP3   OH222761   4.330   5.883   5.670
 7607TIP3    H122762   4.412   5.931   5.669
 7607TIP3    H222763   4.335   5.826   5.592
 7608TIP3   OH222764   0.059   5.728   3.841
 7608TIP3    H122765  -0.030   5.744   3.872
 7608TIP3    H222766   0.048   5.699   3.751
 7609TIP3   OH222767   4.650   4.165   4.635
 7609TIP3    H122768   4.736   4.196   4.664
 7609TIP3    H222769   4.588   4.202   4.698
 7610TIP3   OH222770   7.458   7.597   0.804
 7610TIP3    H122771   7.524   7.665   0.787
 7610TIP3    H222772   7.376   7.645   0.813
 7611TIP3   OH222773   7.670   5.443   6.133
 7611TIP3    H122774   7.724   5.493   6.193
 7611TIP3    H222775   7.615   5.388   6.189
 7612TIP3   OH222776   7.118   5.159   0.524
 7612TIP3    H122777   7.164   5.243   0.516
 7612TIP3    H222778   7.147   5.124   0.608
 7613TIP3   OH222779   0.155   5.885   6.621
 7613TIP3    H122780   0.070   5.923   6.599
 7613TIP3    H222781   0.135   5.803   6.666
 7614TIP3   OH222782   5.144   1.499   2.320
 7614TIP3    H122783   5.132   1.445   2.242
 7614TIP3    H222784   5.109   1.585   2.294
 7615TIP3   OH222785   3.803   6.247   1.769
 7615TIP3    H122786   3.840   6.310   1.706
 7615TIP3    H222787   3.715   6.229   1.736
 7616TIP3   OH222788   3.587   6.849   0.275
 7616TIP3    H122789   3.630   6.935   0.274
 7616TIP3    H222790   3.520   6.856   0.343
 7617TIP3   OH222791   4.559   7.204   3.061
 7617TIP3    H122792   4.465   7.218   3.050
 7617TIP3    H222793   4.591   7.191   2.972
 7618TIP3   OH222794   6.827   2.069   5.259
 7618TIP3    H122795   6.817   1.983   5.219
 7618TIP3    H222796   6.754   2.121   5.225
 7619TIP3   OH222797   1.990   2.132   2.517
 7619TIP3    H122798   1.956   2.216   2.486
 7619TIP3    H222799   1.940   2.067   2.468
 7620TIP3   OH222800   5.750   1.435   0.703
 7620TIP3    H122801   5.770   1.421   0.611
 7620TIP3    H222802   5.698   1.515   0.705
 7621TIP3   OH222803   6.787   2.353   4.162
 7621TIP3    H122804   6.771   2.389   4.075
 7621TIP3    H222805   6.882   2.353   4.171
 7622TIP3   OH222806   3.154   6.843   6.467
 7622TIP3    H122807   3.138   6.813   6.377
 7622TIP3    H222808   3.218   6.780   6.501
 7623TIP3   OH222809   6.536   7.478   3.103
 7623TIP3    H122810   6.442   7.492   3.113
 7623TIP3    H222811   6.545   7.386   3.079
 7624TIP3   OH222812   0.677   6.477   4.842
 7624TIP3    H122813   0.758   6.433   4.868
 7624TIP3    H222814   0.679   6.559   4.890
 7625TIP3   OH222815   0.024   6.897   4.950
 7625TIP3    H122816   0.065   6.915   5.034
 7625TIP3    H222817   0.081   6.833   4.908
 7626TIP3   OH222818   7.942   1.454   5.668
 7626TIP3    H122819   7.985   1.371   5.645
 7626TIP3    H222820   7.978   1.476   5.754
 7627TIP3   OH222821   1.652   7.388   0.457
 7627TIP3    H122822   1.608   7.405   0.374
 7627TIP3    H222823   1.626   7.299   0.481
 7628TIP3   OH222824   6.280   7.362   5.847
 7628TIP3    H122825   6.301   7.403   5.931
 7628TIP3    H222826   6.353   7.387   5.790
 7629TIP3   OH222827   1.900   0.746   5.498
 7629TIP3    H122828   1.941   0.680   5.442
 7629TIP3    H222829   1.814   0.761   5.459
 7630TIP3   OH222830   4.440   3.253   5.857
 7630TIP3    H122831   4.369   3.218   5.803
 7630TIP3    H222832   4.505   3.284   5.794
 7631TIP3   OH222833   1.893   5.787   5.030
 7631TIP3    H122834   1.957   5.747   5.090
 7631TIP3    H222835   1.908   5.881   5.039
 7632TIP3   OH222836   4.060   1.514   1.191
 7632TIP3    H122837   4.055   1.605   1.219
 7632TIP3    H222838   3.993   1.469   1.243
 7633TIP3   OH222839   2.159   7.563   0.721
 7633TIP3    H122840   2.175   7.488   0.663
 7633TIP3    H222841   2.065   7.562   0.736
 7634TIP3   OH222842   0.742   2.415   3.689
 7634TIP3    H122843   0.677   2.351   3.718
 7634TIP3    H222844   0.764   2.387   3.600
 7635TIP3   OH222845   5.652   7.286   2.289
 7635TIP3    H122846   5.592   7.256   2.221
 7635TIP3    H222847   5.602   7.277   2.370
 7636TIP3   OH222848   2.380   4.203   6.153
 7636TIP3    H122849   2.390   4.150   6.074
 7636TIP3    H222850   2.399   4.143   6.225
 7637TIP3   OH222851   6.006   7.342   6.290
 7637TIP3    H122852   6.001   7.285   6.214
 7637TIP3    H222853   6.097   7.371   6.293
 7638TIP3   OH222854   0.057   5.608   1.862
 7638TIP3    H122855  -0.039   5.610   1.872
 7638TIP3    H222856   0.087   5.553   1.934
 7639TIP3   OH222857   3.295   5.028   2.818
 7639TIP3    H122858   3.234   5.035   2.891
 7639TIP3    H222859   3.260   4.957   2.764
 7640TIP3   OH222860   0.229   7.787   1.078
 7640TIP3    H122861   0.316   7.815   1.048
 7640TIP3    H222862   0.245   7.753   1.166
 7641TIP3   OH222863   5.691   6.144   6.064
 7641TIP3    H122864   5.772   6.099   6.043
 7641TIP3    H222865   5.676   6.203   5.989
 7642TIP3   OH222866   4.063   6.954   4.584
 7642TIP3    H122867   4.100   6.873   4.548
 7642TIP3    H222868   4.077   7.019   4.515
 7643TIP3   OH222869   1.887   3.652   5.325
 7643TIP3    H122870   1.846   3.659   5.411
 7643TIP3    H222871   1.934   3.734   5.313
 7644TIP3   OH222872   4.903   1.128   3.711
 7644TIP3    H122873   4.889   1.136   3.617
 7644TIP3    H222874   4.957   1.204   3.734
 7645TIP3   OH222875   2.033   4.859   4.190
 7645TIP3    H122876   1.939   4.843   4.194
 7645TIP3    H222877   2.073   4.782   4.230
 7646TIP3   OH222878   6.628   2.927   6.308
 7646TIP3    H122879   6.693   2.881   6.255
 7646TIP3    H222880   6.574   2.858   6.346
 7647TIP3   OH222881   8.295   3.713   5.442
 7647TIP3    H122882   8.255   3.626   5.433
 7647TIP3    H222883   8.381   3.696   5.480
 7648TIP3   OH222884   2.508   2.106   4.209
 7648TIP3    H122885   2.531   2.094   4.117
 7648TIP3    H222886   2.486   2.198   4.216
 7649TIP3   OH222887   6.985   6.493   6.774
 7649TIP3    H122888   6.966   6.576   6.819
 7649TIP3    H222889   7.065   6.512   6.724
 7650TIP3   OH222890   8.133   6.266   0.707
 7650TIP3    H122891   8.176   6.222   0.633
 7650TIP3    H222892   8.100   6.348   0.670
 7651TIP3   OH222893   6.666   7.636   4.385
 7651TIP3    H122894   6.760   7.643   4.371
 7651TIP3    H222895   6.646   7.543   4.372
 7652TIP3   OH222896   8.349   1.607   3.540
 7652TIP3    H122897   8.263   1.567   3.552
 7652TIP3    H222898   8.334   1.678   3.477
 7653TIP3   OH222899   0.379   3.027   1.588
 7653TIP3    H122900   0.421   3.057   1.507
 7653TIP3    H222901   0.425   3.074   1.658
 7654TIP3   OH222902   4.004   0.528   3.640
 7654TIP3    H122903   4.086   0.514   3.593
 7654TIP3    H222904   3.937   0.529   3.571
 7655TIP3   OH222905   2.888   2.255   3.065
 7655TIP3    H122906   2.931   2.209   2.993
 7655TIP3    H222907   2.953   2.318   3.095
 7656TIP3   OH222908   3.815   3.281   2.362
 7656TIP3    H122909   3.900   3.289   2.405
 7656TIP3    H222910   3.825   3.330   2.280
 7657TIP3   OH222911   5.838   5.457   1.134
 7657TIP3    H122912   5.898   5.449   1.060
 7657TIP3    H222913   5.753   5.477   1.095
 7658TIP3   OH222914   4.054   1.300   0.338
 7658TIP3    H122915   4.109   1.227   0.367
 7658TIP3    H222916   3.991   1.260   0.279
 7659TIP3   OH222917   2.175   6.225   2.251
 7659TIP3    H122918   2.219   6.308   2.272
 7659TIP3    H222919   2.197   6.167   2.324
 7660TIP3   OH222920   7.836   2.602   5.634
 7660TIP3    H122921   7.862   2.592   5.542
 7660TIP3    H222922   7.774   2.675   5.633
 7661TIP3   OH222923   0.902   4.722   5.331
 7661TIP3    H122924   0.989   4.685   5.341
 7661TIP3    H222925   0.847   4.674   5.393
 7662TIP3   OH222926   4.304   5.380   6.125
 7662TIP3    H122927   4.331   5.296   6.163
 7662TIP3    H222928   4.369   5.443   6.156
 7663TIP3   OH222929   5.789   5.391   2.275
 7663TIP3    H122930   5.799   5.327   2.345
 7663TIP3    H222931   5.742   5.345   2.206
 7664TIP3   OH222932   1.319   2.735   2.305
 7664TIP3    H122933   1.232   2.728   2.344
 7664TIP3    H222934   1.379   2.729   2.379
 7665TIP3   OH222935   4.484   4.387   1.089
 7665TIP3    H122936   4.567   4.409   1.131
 7665TIP3    H222937   4.507   4.360   1.001
 7666TIP3   OH222938   1.587   3.167   5.199
 7666TIP3    H122939   1.637   3.087   5.211
 7666TIP3    H222940   1.556   3.163   5.108
 7667TIP3   OH222941   1.866   3.884   4.110
 7667TIP3    H122942   1.811   3.859   4.184
 7667TIP3    H222943   1.894   3.800   4.073
 7668TIP3   OH222944   1.641   4.882   3.666
 7668TIP3    H122945   1.589   4.824   3.610
 7668TIP3    H222946   1.710   4.916   3.609
 7669TIP3   OH222947   2.903   3.233   6.647
 7669TIP3    H122948   2.849   3.155   6.657
 7669TIP3    H222949   2.863   3.281   6.574
 7670TIP3   OH222950   8.110   0.649   3.100
 7670TIP3    H122951   8.199   0.625   3.072
 7670TIP3    H222952   8.122   0.682   3.189
 7671TIP3   OH222953   4.570   7.696   4.585
 7671TIP3    H122954   4.664   7.689   4.601
 7671TIP3    H222955   4.550   7.620   4.531
 7672TIP3   OH222956   6.045   6.095   6.527
 7672TIP3    H122957   5.991   6.169   6.501
 7672TIP3    H222958   6.100   6.128   6.598
 7673TIP3   OH222959   1.719   7.675   4.074
 7673TIP3    H122960   1.666   7.666   4.153
 7673TIP3    H222961   1.794   7.618   4.089
 7674TIP3   OH222962   3.624   1.693   1.294
 7674TIP3    H122963   3.532   1.711   1.273
 7674TIP3    H222964   3.668   1.693   1.209
 7675TIP3   OH222965   7.172   4.095   2.201
 7675TIP3    H122966   7.170   4.177   2.252
 7675TIP3    H222967   7.088   4.094   2.156
 7676TIP3   OH222968   8.089   5.529   5.085
 7676TIP3    H122969   8.003   5.557   5.119
 7676TIP3    H222970   8.083   5.434   5.082
 7677TIP3   OH222971   5.249   4.163   5.351
 7677TIP3    H122972   5.339   4.137   5.332
 7677TIP3    H222973   5.219   4.206   5.271
 7678TIP3   OH222974   6.303   1.409   0.996
 7678TIP3    H122975   6.329   1.320   1.022
 7678TIP3    H222976   6.295   1.405   0.901
 7679TIP3   OH222977   5.615   1.033   5.661
 7679TIP3    H122978   5.609   1.111   5.716
 7679TIP3    H222979   5.651   0.965   5.719
 7680TIP3   OH222980   2.200   4.934   0.013
 7680TIP3    H122981   2.233   4.857   0.059
 7680TIP3    H222982   2.277   4.973  -0.027
 7681TIP3   OH222983   4.608   6.285   0.889
 7681TIP3    H122984   4.555   6.320   0.817
 7681TIP3    H222985   4.656   6.212   0.850
 7682TIP3   OH222986   5.881   3.655   1.456
 7682TIP3    H122987   5.911   3.572   1.495
 7682TIP3    H222988   5.888   3.719   1.527
 7683TIP3   OH222989   1.999   0.226   6.084
 7683TIP3    H122990   2.064   0.292   6.110
 7683TIP3    H222991   1.971   0.254   5.997
 7684TIP3   OH222992   4.028   7.022   2.093
 7684TIP3    H122993   3.938   7.002   2.116
 7684TIP3    H222994   4.048   6.961   2.022
 7685TIP3   OH222995   2.971   0.856   4.713
 7685TIP3    H122996   2.988   0.932   4.658
 7685TIP3    H222997   3.055   0.838   4.756
 7686TIP3   OH222998   5.942   1.805   4.396
 7686TIP3    H122999   5.916   1.743   4.328
 7686TIP3    H223000   5.909   1.889   4.366
 7687TIP3   OH223001   5.610   2.945   3.783
 7687TIP3    H123002   5.581   2.982   3.700
 7687TIP3    H223003   5.556   2.989   3.849
 7688TIP3   OH223004   5.246   2.130   6.721
 7688TIP3    H123005   5.216   2.055   6.671
 7688TIP3    H223006   5.323   2.098   6.768
 7689TIP3   OH223007   5.224   4.457   3.647
 7689TIP3    H123008   5.199   4.451   3.739
 7689TIP3    H223009   5.264   4.372   3.627
 7690TIP3   OH223010   1.338   4.879   2.568
 7690TIP3    H123011   1.248   4.883   2.601
 7690TIP3    H223012   1.351   4.786   2.547
 7691TIP3   OH223013   0.320   7.926   5.953
 7691TIP3    H123014   0.378   7.864   5.997
 7691TIP3    H223015   0.234   7.910   5.990
 7692TIP3   OH223016   1.270   4.519   5.979
 7692TIP3    H123017   1.264   4.612   6.001
 7692TIP3    H223018   1.226   4.511   5.894
 7693TIP3   OH223019   7.981   2.073   4.808
 7693TIP3    H123020   7.993   2.006   4.740
 7693TIP3    H223021   8.026   2.150   4.773
 7694TIP3   OH223022   0.022   6.478   0.552
 7694TIP3    H123023   0.003   6.384   0.548
 7694TIP3    H223024   0.115   6.484   0.532
 7695TIP3   OH223025   1.166   7.746   1.892
 7695TIP3    H123026   1.215   7.681   1.842
 7695TIP3    H223027   1.233   7.791   1.944
 7696TIP3   OH223028   6.315   5.395   4.737
 7696TIP3    H123029   6.394   5.431   4.698
 7696TIP3    H223030   6.280   5.336   4.669
 7697TIP3   OH223031   6.580   7.178   6.274
 7697TIP3    H123032   6.654   7.129   6.309
 7697TIP3    H223033   6.611   7.269   6.270
 7698TIP3   OH223034   3.904   3.560   5.349
 7698TIP3    H123035   3.954   3.499   5.403
 7698TIP3    H223036   3.816   3.560   5.387
 7699TIP3   OH223037   7.885   7.588   6.564
 7699TIP3    H123038   7.819   7.552   6.624
 7699TIP3    H223039   7.948   7.631   6.621
 7700TIP3   OH223040   4.636   1.831   4.705
 7700TIP3    H123041   4.718   1.790   4.679
 7700TIP3    H223042   4.617   1.894   4.636
 7701TIP3   OH223043   4.797   5.971   4.909
 7701TIP3    H123044   4.758   5.913   4.843
 7701TIP3    H223045   4.734   6.041   4.920
 7702TIP3   OH223046   0.698   5.151   0.258
 7702TIP3    H123047   0.679   5.074   0.205
 7702TIP3    H223048   0.729   5.216   0.196
 7703TIP3   OH223049   6.430   4.673   4.456
 7703TIP3    H123050   6.339   4.694   4.436
 7703TIP3    H223051   6.477   4.755   4.439
 7704TIP3   OH223052   1.298   3.848   0.657
 7704TIP3    H123053   1.252   3.768   0.681
 7704TIP3    H223054   1.277   3.860   0.564
 7705TIP3   OH223055   6.933   0.223   4.615
 7705TIP3    H123056   6.957   0.225   4.523
 7705TIP3    H223057   6.913   0.131   4.633
 7706TIP3   OH223058   5.758   0.787   4.280
 7706TIP3    H123059   5.760   0.714   4.218
 7706TIP3    H223060   5.689   0.844   4.248
 7707TIP3   OH223061   7.570   5.482   2.851
 7707TIP3    H123062   7.532   5.437   2.926
 7707TIP3    H223063   7.659   5.447   2.845
 7708TIP3   OH223064   4.248   2.132   1.559
 7708TIP3    H123065   4.247   2.177   1.644
 7708TIP3    H223066   4.198   2.052   1.573
 7709TIP3   OH223067   4.977   7.794   0.549
 7709TIP3    H123068   5.013   7.717   0.592
 7709TIP3    H223069   5.005   7.867   0.605
 7710TIP3   OH223070   3.984   0.153   3.589
 7710TIP3    H123071   4.069   0.134   3.628
 7710TIP3    H223072   3.922   0.149   3.662
 7711TIP3   OH223073   7.341   4.907   3.069
 7711TIP3    H123074   7.281   4.866   3.006
 7711TIP3    H223075   7.348   4.843   3.140
 7712TIP3   OH223076   0.398   3.161   2.993
 7712TIP3    H123077   0.475   3.105   2.980
 7712TIP3    H223078   0.400   3.222   2.919
 7713TIP3   OH223079   0.557   3.909   2.208
 7713TIP3    H123080   0.576   4.001   2.189
 7713TIP3    H223081   0.642   3.864   2.198
 7714TIP3   OH223082   6.765   4.865   1.317
 7714TIP3    H123083   6.697   4.890   1.255
 7714TIP3    H223084   6.815   4.797   1.271
 7715TIP3   OH223085   3.435   7.852   4.230
 7715TIP3    H123086   3.443   7.886   4.141
 7715TIP3    H223087   3.421   7.758   4.219
 7716TIP3   OH223088   1.295   2.438   2.540
 7716TIP3    H123089   1.355   2.441   2.615
 7716TIP3    H223090   1.252   2.523   2.541
 7717TIP3   OH223091   1.010   4.862   5.042
 7717TIP3    H123092   0.957   4.817   5.108
 7717TIP3    H223093   1.079   4.905   5.092
 7718TIP3   OH223094   0.678   7.951   4.125
 7718TIP3    H123095   0.768   7.962   4.095
 7718TIP3    H223096   0.659   7.858   4.109
 7719TIP3   OH223097   4.774   7.692   2.090
 7719TIP3    H123098   4.719   7.742   2.151
 7719TIP3    H223099   4.711   7.647   2.033
 7720TIP3   OH223100   3.003   0.651   1.290
 7720TIP3    H123101   2.962   0.564   1.284
 7720TIP3    H223102   2.995   0.674   1.382
 7721TIP3   OH223103   6.957   2.685   3.978
 7721TIP3    H123104   7.030   2.625   3.993
 7721TIP3    H223105   6.879   2.629   3.982
 7722TIP3   OH223106   3.574   2.427   4.463
 7722TIP3    H123107   3.530   2.446   4.546
 7722TIP3    H223108   3.506   2.386   4.410
 7723TIP3   OH223109   8.071   4.437   5.566
 7723TIP3    H123110   8.110   4.367   5.514
 7723TIP3    H223111   8.134   4.509   5.561
 7724TIP3   OH223112   0.941   7.589   4.281
 7724TIP3    H123113   1.018   7.543   4.313
 7724TIP3    H223114   0.868   7.549   4.328
 7725TIP3   OH223115   4.786   7.871   3.928
 7725TIP3    H123116   4.855   7.817   3.889
 7725TIP3    H223117   4.802   7.865   4.023
 7726TIP3   OH223118   1.468   5.873   5.635
 7726TIP3    H123119   1.549   5.887   5.685
 7726TIP3    H223120   1.403   5.852   5.701
 7727TIP3   OH223121   7.064   0.630   1.772
 7727TIP3    H123122   7.126   0.695   1.806
 7727TIP3    H223123   6.999   0.681   1.724
 7728TIP3   OH223124   6.639   6.966   6.722
 7728TIP3    H123125   6.689   6.905   6.777
 7728TIP3    H223126   6.557   6.979   6.770
 7729TIP3   OH223127   4.205   3.700   0.288
 7729TIP3    H123128   4.169   3.642   0.355
 7729TIP3    H223129   4.187   3.788   0.319
 7730TIP3   OH223130   8.018   3.536   6.433
 7730TIP3    H123131   7.932   3.512   6.397
 7730TIP3    H223132   8.071   3.457   6.424
 7731TIP3   OH223133   6.092   6.010   1.163
 7731TIP3    H123134   6.186   6.003   1.149
 7731TIP3    H223135   6.053   5.952   1.098
 7732TIP3   OH223136   3.389   5.467   0.932
 7732TIP3    H123137   3.474   5.485   0.970
 7732TIP3    H223138   3.396   5.499   0.842
 7733TIP3   OH223139   6.105   2.373   3.901
 7733TIP3    H123140   6.019   2.411   3.883
 7733TIP3    H223141   6.111   2.370   3.997
 7734TIP3   OH223142   5.882   6.644   1.858
 7734TIP3    H123143   5.932   6.675   1.933
 7734TIP3    H223144   5.822   6.716   1.836
 7735TIP3   OH223145   1.737   6.519   5.579
 7735TIP3    H123146   1.690   6.443   5.613
 7735TIP3    H223147   1.711   6.591   5.637
 7736TIP3   OH223148   0.153   0.454   0.585
 7736TIP3    H123149   0.069   0.447   0.630
 7736TIP3    H223150   0.173   0.548   0.584
 7737TIP3   OH223151   2.720   5.729   3.182
 7737TIP3    H123152   2.687   5.643   3.155
 7737TIP3    H223153   2.699   5.787   3.109
 7738TIP3   OH223154   6.847   0.868   6.090
 7738TIP3    H123155   6.932   0.895   6.056
 7738TIP3    H223156   6.803   0.827   6.015
 7739TIP3   OH223157   0.646   0.074   2.993
 7739TIP3    H123158   0.552   0.073   3.013
 7739TIP3    H223159   0.681   0.146   3.045
 7740TIP3   OH223160   5.165   3.009   0.792
 7740TIP3    H123161   5.243   3.035   0.743
 7740TIP3    H223162   5.095   3.006   0.727
 7741TIP3   OH223163   3.327   4.948   5.704
 7741TIP3    H123164   3.239   4.939   5.668
 7741TIP3    H223165   3.314   4.944   5.799
 7742TIP3   OH223166   5.850   5.647   6.201
 7742TIP3    H123167   5.836   5.556   6.172
 7742TIP3    H223168   5.941   5.666   6.179
 7743TIP3   OH223169   0.841   5.000   5.959
 7743TIP3    H123170   0.783   4.980   6.032
 7743TIP3    H223171   0.922   5.029   5.999
 7744TIP3   OH223172   2.217   1.001   1.477
 7744TIP3    H123173   2.213   1.010   1.382
 7744TIP3    H223174   2.125   1.007   1.505
 7745TIP3   OH223175   2.809   2.070   6.680
 7745TIP3    H123176   2.793   2.115   6.762
 7745TIP3    H223177   2.820   2.140   6.615
 7746TIP3   OH223178   0.537   0.189   5.238
 7746TIP3    H123179   0.503   0.270   5.276
 7746TIP3    H223180   0.537   0.127   5.310
 7747TIP3   OH223181   1.582   0.359   2.652
 7747TIP3    H123182   1.538   0.276   2.632
 7747TIP3    H223183   1.573   0.411   2.573
 7748TIP3   OH223184   3.319   6.689   4.971
 7748TIP3    H123185   3.281   6.656   5.053
 7748TIP3    H223186   3.410   6.659   4.973
 7749TIP3   OH223187   2.198   3.439   2.740
 7749TIP3    H123188   2.243   3.382   2.679
 7749TIP3    H223189   2.137   3.382   2.787
 7750TIP3   OH223190   7.719   2.966   3.823
 7750TIP3    H123191   7.797   2.913   3.811
 7750TIP3    H223192   7.669   2.953   3.742
 7751TIP3   OH223193   2.544   2.645   5.091
 7751TIP3    H123194   2.528   2.557   5.124
 7751TIP3    H223195   2.457   2.679   5.070
 7752TIP3   OH223196   0.351   4.619   3.277
 7752TIP3    H123197   0.339   4.599   3.370
 7752TIP3    H223198   0.405   4.698   3.276
 7753TIP3   OH223199   1.314   7.478   6.746
 7753TIP3    H123200   1.344   7.390   6.722
 7753TIP3    H223201   1.221   7.479   6.725
 7754TIP3   OH223202   7.720   4.945   5.050
 7754TIP3    H123203   7.791   4.989   5.003
 7754TIP3    H223204   7.765   4.892   5.117
 7755TIP3   OH223205   4.949   0.667   4.227
 7755TIP3    H123206   4.853   0.661   4.226
 7755TIP3    H223207   4.968   0.754   4.194
 7756TIP3   OH223208   4.599   3.021   0.817
 7756TIP3    H123209   4.524   2.960   0.814
 7756TIP3    H223210   4.583   3.080   0.743
 7757TIP3   OH223211   3.001   4.721   1.712
 7757TIP3    H123212   2.967   4.802   1.674
 7757TIP3    H223213   3.007   4.739   1.806
 7758TIP3   OH223214   6.365   1.587   4.484
 7758TIP3    H123215   6.368   1.578   4.389
 7758TIP3    H223216   6.292   1.646   4.500
 7759TIP3   OH223217   8.016   6.251   5.790
 7759TIP3    H123218   7.966   6.182   5.832
 7759TIP3    H223219   8.050   6.211   5.710
 7760TIP3   OH223220   3.261   0.325   0.503
 7760TIP3    H123221   3.191   0.344   0.565
 7760TIP3    H223222   3.284   0.233   0.519
 7761TIP3   OH223223   6.876   6.519   0.404
 7761TIP3    H123224   6.866   6.599   0.455
 7761TIP3    H223225   6.786   6.488   0.391
 7762TIP3   OH223226   6.967   1.592   3.394
 7762TIP3    H123227   7.036   1.532   3.364
 7762TIP3    H223228   7.011   1.676   3.402
 7763TIP3   OH223229   4.163   1.518   5.877
 7763TIP3    H123230   4.144   1.594   5.932
 7763TIP3    H223231   4.119   1.536   5.794
 7764TIP3   OH223232   3.950   0.713   3.841
 7764TIP3    H123233   3.855   0.713   3.852
 7764TIP3    H223234   3.965   0.656   3.765
 7765TIP3   OH223235   2.998   7.325   1.617
 7765TIP3    H123236   2.920   7.321   1.562
 7765TIP3    H223237   3.070   7.311   1.556
 7766TIP3   OH223238   5.537   2.595   1.087
 7766TIP3    H123239   5.595   2.665   1.118
 7766TIP3    H223240   5.484   2.636   1.020
 7767TIP3   OH223241   3.210   5.147   0.069
 7767TIP3    H123242   3.174   5.233   0.047
 7767TIP3    H223243   3.212   5.100  -0.014
 7768TIP3   OH223244   5.998   2.294   3.146
 7768TIP3    H123245   5.956   2.210   3.166
 7768TIP3    H223246   5.948   2.329   3.073
 7769TIP3   OH223247   6.606   1.625   3.738
 7769TIP3    H123248   6.636   1.672   3.816
 7769TIP3    H223249   6.615   1.533   3.761
 7770TIP3   OH223250   5.276   3.165   4.169
 7770TIP3    H123251   5.369   3.172   4.190
 7770TIP3    H223252   5.233   3.151   4.254
 7771TIP3   OH223253   0.048   3.222   2.056
 7771TIP3    H123254   0.139   3.213   2.081
 7771TIP3    H223255   0.020   3.134   2.031
 7772TIP3   OH223256   8.351   3.975   3.228
 7772TIP3    H123257   8.395   3.950   3.310
 7772TIP3    H223258   8.263   4.000   3.255
 7773TIP3   OH223259   7.728   0.449   4.372
 7773TIP3    H123260   7.762   0.370   4.413
 7773TIP3    H223261   7.746   0.518   4.436
 7774TIP3   OH223262   7.297   2.987   4.552
 7774TIP3    H123263   7.309   2.897   4.524
 7774TIP3    H223264   7.304   3.039   4.472
 7775TIP3   OH223265   6.451   0.776   1.199
 7775TIP3    H123266   6.388   0.753   1.130
 7775TIP3    H223267   6.464   0.695   1.249
 7776TIP3   OH223268   7.363   1.398   3.018
 7776TIP3    H123269   7.393   1.307   3.020
 7776TIP3    H223270   7.437   1.448   3.051
 7777TIP3   OH223271   4.694   4.857   1.489
 7777TIP3    H123272   4.603   4.878   1.508
 7777TIP3    H223273   4.745   4.917   1.545
 7778TIP3   OH223274   2.036   7.335   1.143
 7778TIP3    H123275   1.981   7.259   1.164
 7778TIP3    H223276   2.024   7.395   1.216
 7779TIP3   OH223277   6.416   6.483   3.325
 7779TIP3    H123278   6.482   6.438   3.378
 7779TIP3    H223279   6.463   6.512   3.247
 7780TIP3   OH223280   5.878   1.981   0.952
 7780TIP3    H123281   5.928   2.059   0.974
 7780TIP3    H223282   5.923   1.909   0.998
 7781TIP3   OH223283   5.494   1.916   4.820
 7781TIP3    H123284   5.484   1.985   4.885
 7781TIP3    H223285   5.529   1.842   4.869
 7782TIP3   OH223286   1.249   3.778   3.246
 7782TIP3    H123287   1.271   3.685   3.249
 7782TIP3    H223288   1.229   3.795   3.154
 7783TIP3   OH223289   2.982   5.631   1.524
 7783TIP3    H123290   2.947   5.548   1.491
 7783TIP3    H223291   2.949   5.636   1.614
 7784TIP3   OH223292   8.294   1.187   5.454
 7784TIP3    H123293   8.299   1.273   5.412
 7784TIP3    H223294   8.318   1.125   5.385
 7785TIP3   OH223295   8.019   2.967   1.580
 7785TIP3    H123296   8.004   3.032   1.511
 7785TIP3    H223297   7.977   3.003   1.658
 7786TIP3   OH223298   3.502   4.211   0.827
 7786TIP3    H123299   3.504   4.231   0.734
 7786TIP3    H223300   3.544   4.287   0.869
 7787TIP3   OH223301   3.617   4.421   4.222
 7787TIP3    H123302   3.589   4.502   4.180
 7787TIP3    H223303   3.712   4.427   4.227
 7788TIP3   OH223304   6.416   2.041   2.272
 7788TIP3    H123305   6.471   1.969   2.303
 7788TIP3    H223306   6.338   2.038   2.328
 7789TIP3   OH223307   6.367   1.533   0.340
 7789TIP3    H123308   6.412   1.500   0.418
 7789TIP3    H223309   6.428   1.597   0.303
 7790TIP3   OH223310   4.091   3.250   1.189
 7790TIP3    H123311   4.049   3.335   1.178
 7790TIP3    H223312   4.151   3.243   1.115
 7791TIP3   OH223313   0.045   5.751   5.287
 7791TIP3    H123314   0.035   5.665   5.246
 7791TIP3    H223315   0.113   5.794   5.236
 7792TIP3   OH223316   2.043   6.280   5.283
 7792TIP3    H123317   1.959   6.325   5.293
 7792TIP3    H223318   2.109   6.345   5.306
 7793TIP3   OH223319   5.849   4.111   3.246
 7793TIP3    H123320   5.921   4.122   3.184
 7793TIP3    H223321   5.855   4.188   3.303
 7794TIP3   OH223322   2.927   2.936   5.666
 7794TIP3    H123323   2.920   3.004   5.599
 7794TIP3    H223324   2.922   2.854   5.617
 7795TIP3   OH223325   5.367   7.012   6.282
 7795TIP3    H123326   5.425   6.988   6.355
 7795TIP3    H223327   5.367   6.935   6.225
 7796TIP3   OH223328   7.363   7.822   2.228
 7796TIP3    H123329   7.353   7.790   2.139
 7796TIP3    H223330   7.330   7.912   2.226
 7797TIP3   OH223331   6.677   3.175   4.671
 7797TIP3    H123332   6.606   3.113   4.687
 7797TIP3    H223333   6.710   3.151   4.584
 7798TIP3   OH223334   5.902   3.370   5.349
 7798TIP3    H123335   5.938   3.459   5.346
 7798TIP3    H223336   5.880   3.356   5.441
 7799TIP3   OH223337   7.890   0.683   5.708
 7799TIP3    H123338   7.955   0.728   5.653
 7799TIP3    H223339   7.806   0.715   5.677
 7800TIP3   OH223340   5.201   3.397   0.387
 7800TIP3    H123341   5.290   3.428   0.372
 7800TIP3    H223342   5.148   3.447   0.325
 7801TIP3   OH223343   5.363   5.882   6.098
 7801TIP3    H123344   5.389   5.865   6.008
 7801TIP3    H223345   5.439   5.857   6.151
 7802TIP3   OH223346   2.350   5.205   3.552
 7802TIP3    H123347   2.259   5.234   3.556
 7802TIP3    H223348   2.369   5.173   3.640
 7803TIP3   OH223349   6.686   2.625   4.229
 7803TIP3    H123350   6.725   2.537   4.229
 7803TIP3    H223351   6.732   2.672   4.298
 7804TIP3   OH223352   2.114   7.876   5.495
 7804TIP3    H123353   2.162   7.839   5.422
 7804TIP3    H223354   2.024   7.845   5.483
 7805TIP3   OH223355   4.707   5.671   5.301
 7805TIP3    H123356   4.691   5.584   5.264
 7805TIP3    H223357   4.792   5.696   5.266
 7806TIP3   OH223358   6.605   1.215   0.116
 7806TIP3    H123359   6.523   1.192   0.159
 7806TIP3    H223360   6.584   1.290   0.061
 7807TIP3   OH223361   7.202   2.505   3.490
 7807TIP3    H123362   7.243   2.545   3.413
 7807TIP3    H223363   7.227   2.561   3.563
 7808TIP3   OH223364   3.286   3.107   3.124
 7808TIP3    H123365   3.309   3.095   3.031
 7808TIP3    H223366   3.252   3.196   3.128
 7809TIP3   OH223367   7.460   6.381   2.726
 7809TIP3    H123368   7.396   6.431   2.777
 7809TIP3    H223369   7.536   6.440   2.719
 7810TIP3   OH223370   6.140   0.111   4.008
 7810TIP3    H123371   6.100   0.074   3.930
 7810TIP3    H223372   6.203   0.175   3.974
 7811TIP3   OH223373   0.573   7.074   3.066
 7811TIP3    H123374   0.585   6.983   3.039
 7811TIP3    H223375   0.492   7.074   3.117
 7812TIP3   OH223376   6.746   7.310   0.782
 7812TIP3    H123377   6.789   7.306   0.696
 7812TIP3    H223378   6.658   7.278   0.766
 7813TIP3   OH223379   4.183   6.621   2.419
 7813TIP3    H123380   4.217   6.534   2.442
 7813TIP3    H223381   4.184   6.622   2.323
 7814TIP3   OH223382   2.087   7.009   5.289
 7814TIP3    H123383   2.069   7.039   5.378
 7814TIP3    H223384   2.180   7.029   5.276
 7815TIP3   OH223385   0.102   6.513   3.438
 7815TIP3    H123386   0.022   6.486   3.392
 7815TIP3    H223387   0.158   6.550   3.370
 7816TIP3   OH223388   4.252   0.067   6.349
 7816TIP3    H123389   4.317   0.019   6.401
 7816TIP3    H223390   4.228   0.006   6.279
 7817TIP3   OH223391   0.208   1.366   1.061
 7817TIP3    H123392   0.276   1.359   1.127
 7817TIP3    H223393   0.137   1.416   1.103
 7818TIP3   OH223394   4.522   7.879   5.805
 7818TIP3    H123395   4.530   7.885   5.710
 7818TIP3    H223396   4.608   7.848   5.834
 7819TIP3   OH223397   5.508   4.768   1.663
 7819TIP3    H123398   5.446   4.770   1.589
 7819TIP3    H223399   5.455   4.739   1.737
 7820TIP3   OH223400   5.366   5.806   0.981
 7820TIP3    H123401   5.336   5.775   0.896
 7820TIP3    H223402   5.305   5.877   1.004
 7821TIP3   OH223403   3.789   7.255   0.664
 7821TIP3    H123404   3.745   7.176   0.634
 7821TIP3    H223405   3.845   7.225   0.735
 7822TIP3   OH223406   4.768   0.112   1.988
 7822TIP3    H123407   4.807   0.192   1.952
 7822TIP3    H223408   4.784   0.046   1.921
 7823TIP3   OH223409   2.683   4.513   6.733
 7823TIP3    H123410   2.722   4.566   6.664
 7823TIP3    H223411   2.614   4.568   6.770
 7824TIP3   OH223412   6.407   7.253   1.345
 7824TIP3    H123413   6.389   7.203   1.266
 7824TIP3    H223414   6.397   7.345   1.319
 7825TIP3   OH223415   2.351   0.001   0.243
 7825TIP3    H123416   2.345   0.011   0.149
 7825TIP3    H223417   2.363   0.089   0.277
 7826TIP3   OH223418   5.375   3.936   1.215
 7826TIP3    H123419   5.374   3.932   1.310
 7826TIP3    H223420   5.332   4.018   1.193
 7827TIP3   OH223421   0.990   3.386   3.187
 7827TIP3    H123422   1.003   3.349   3.099
 7827TIP3    H223423   0.921   3.332   3.225
 7828TIP3   OH223424   3.355   6.883   4.312
 7828TIP3    H123425   3.345   6.798   4.354
 7828TIP3    H223426   3.298   6.941   4.363
 7829TIP3   OH223427   3.593   3.801   0.676
 7829TIP3    H123428   3.597   3.778   0.583
 7829TIP3    H223429   3.529   3.871   0.682
 7830TIP3   OH223430   3.333   6.134   0.747
 7830TIP3    H123431   3.399   6.192   0.784
 7830TIP3    H223432   3.249   6.175   0.770
 7831TIP3   OH223433   6.032   7.311   3.470
 7831TIP3    H123434   6.010   7.303   3.377
 7831TIP3    H223435   6.124   7.338   3.470
 7832TIP3   OH223436   4.691   7.312   0.405
 7832TIP3    H123437   4.759   7.267   0.455
 7832TIP3    H223438   4.739   7.356   0.334
 7833TIP3   OH223439   2.455  -0.009   2.268
 7833TIP3    H123440   2.462  -0.022   2.174
 7833TIP3    H223441   2.530   0.045   2.291
 7834TIP3   OH223442   0.664   3.276   5.364
 7834TIP3    H123443   0.604   3.320   5.304
 7834TIP3    H223444   0.745   3.264   5.313
 7835TIP3   OH223445   3.389   2.584   3.415
 7835TIP3    H123446   3.482   2.608   3.409
 7835TIP3    H223447   3.377   2.560   3.506
 7836TIP3   OH223448   5.327   6.760   0.799
 7836TIP3    H123449   5.289   6.673   0.794
 7836TIP3    H223450   5.277   6.804   0.868
 7837TIP3   OH223451   2.302   5.623   3.936
 7837TIP3    H123452   2.282   5.542   3.982
 7837TIP3    H223453   2.370   5.600   3.873
 7838TIP3   OH223454   3.657   2.854   6.528
 7838TIP3    H123455   3.713   2.777   6.518
 7838TIP3    H223456   3.641   2.860   6.622
 7839TIP3   OH223457   6.491   0.847   4.470
 7839TIP3    H123458   6.396   0.858   4.472
 7839TIP3    H223459   6.522   0.899   4.544
 7840TIP3   OH223460   5.366   0.279   5.767
 7840TIP3    H123461   5.429   0.349   5.755
 7840TIP3    H223462   5.288   0.307   5.720
 7841TIP3   OH223463   0.282   0.598   3.119
 7841TIP3    H123464   0.296   0.529   3.053
 7841TIP3    H223465   0.370   0.634   3.133
 7842TIP3   OH223466   3.027   5.417   3.777
 7842TIP3    H123467   3.103   5.441   3.829
 7842TIP3    H223468   2.967   5.491   3.785
 7843TIP3   OH223469   1.438   5.475   2.138
 7843TIP3    H123470   1.458   5.402   2.079
 7843TIP3    H223471   1.514   5.480   2.196
 7844TIP3   OH223472   2.499   5.181   3.792
 7844TIP3    H123473   2.551   5.257   3.816
 7844TIP3    H223474   2.501   5.125   3.870
 7845TIP3   OH223475   3.417   7.019   6.826
 7845TIP3    H123476   3.506   6.982   6.826
 7845TIP3    H223477   3.426   7.102   6.780
 7846TIP3   OH223478   2.473   2.633   4.773
 7846TIP3    H123479   2.394   2.595   4.811
 7846TIP3    H223480   2.546   2.586   4.814
 7847TIP3   OH223481   2.090   5.104   4.501
 7847TIP3    H123482   2.030   5.122   4.573
 7847TIP3    H223483   2.033   5.073   4.430
 7848TIP3   OH223484   5.436   1.134   6.738
 7848TIP3    H123485   5.417   1.092   6.822
 7848TIP3    H223486   5.351   1.141   6.695
 7849TIP3   OH223487   6.237   0.475   4.997
 7849TIP3    H123488   6.152   0.494   4.956
 7849TIP3    H223489   6.283   0.420   4.934
 7850TIP3   OH223490   6.745   4.441   2.893
 7850TIP3    H123491   6.804   4.430   2.968
 7850TIP3    H223492   6.790   4.398   2.820
 7851TIP3   OH223493   5.146   6.719   4.134
 7851TIP3    H123494   5.209   6.736   4.064
 7851TIP3    H223495   5.200   6.711   4.213
 7852TIP3   OH223496   7.234   7.643   4.317
 7852TIP3    H123497   7.148   7.606   4.335
 7852TIP3    H223498   7.237   7.723   4.370
 7853TIP3   OH223499   4.116   2.169   1.153
 7853TIP3    H123500   4.029   2.187   1.118
 7853TIP3    H223501   4.120   2.073   1.159
 7854TIP3   OH223502   5.770   2.723   6.750
 7854TIP3    H123503   5.713   2.786   6.706
 7854TIP3    H223504   5.857   2.741   6.714
 7855TIP3   OH223505   4.457   2.849   2.033
 7855TIP3    H123506   4.433   2.763   2.069
 7855TIP3    H223507   4.373   2.890   2.012
 7856TIP3   OH223508   0.436   6.083   2.056
 7856TIP3    H123509   0.479   6.166   2.077
 7856TIP3    H223510   0.421   6.087   1.962
 7857TIP3   OH223511   1.995   2.826   2.786
 7857TIP3    H123512   1.945   2.763   2.838
 7857TIP3    H223513   1.976   2.910   2.826
 7858TIP3   OH223514   6.170   4.867   6.003
 7858TIP3    H123515   6.158   4.962   6.008
 7858TIP3    H223516   6.103   4.838   5.941
 7859TIP3   OH223517   4.311   2.565   3.152
 7859TIP3    H123518   4.338   2.533   3.238
 7859TIP3    H223519   4.376   2.530   3.091
 7860TIP3   OH223520   3.361   6.803   5.327
 7860TIP3    H123521   3.447   6.790   5.288
 7860TIP3    H223522   3.302   6.748   5.276
 7861TIP3   OH223523   4.179   1.062   2.723
 7861TIP3    H123524   4.164   1.153   2.699
 7861TIP3    H223525   4.092   1.025   2.732
 7862TIP3   OH223526   2.620   7.791   5.633
 7862TIP3    H123527   2.598   7.842   5.711
 7862TIP3    H223528   2.692   7.734   5.661
 7863TIP3   OH223529   0.314   2.268   1.438
 7863TIP3    H123530   0.268   2.333   1.385
 7863TIP3    H223531   0.405   2.299   1.439
 7864TIP3   OH223532   7.911   5.099   1.050
 7864TIP3    H123533   7.912   5.126   0.958
 7864TIP3    H223534   7.951   5.172   1.097
 7865TIP3   OH223535   3.285   5.420   6.244
 7865TIP3    H123536   3.319   5.422   6.154
 7865TIP3    H223537   3.235   5.501   6.252
 7866TIP3   OH223538   5.974   4.690   6.587
 7866TIP3    H123539   5.882   4.667   6.574
 7866TIP3    H223540   6.005   4.627   6.652
 7867TIP3   OH223541   3.297   1.490   1.745
 7867TIP3    H123542   3.225   1.499   1.808
 7867TIP3    H223543   3.361   1.555   1.773
 7868TIP3   OH223544   3.488   7.049   1.737
 7868TIP3    H123545   3.529   7.131   1.712
 7868TIP3    H223546   3.407   7.045   1.687
 7869TIP3   OH223547   3.105   2.590   4.319
 7869TIP3    H123548   3.096   2.665   4.377
 7869TIP3    H223549   3.016   2.570   4.290
 7870TIP3   OH223550   3.178   6.280   4.355
 7870TIP3    H123551   3.119   6.299   4.283
 7870TIP3    H223552   3.256   6.332   4.336
 7871TIP3   OH223553   8.066   7.439   6.016
 7871TIP3    H123554   8.132   7.386   6.062
 7871TIP3    H223555   8.115   7.482   5.946
 7872TIP3   OH223556   8.348   1.236   6.551
 7872TIP3    H123557   8.368   1.320   6.509
 7872TIP3    H223558   8.295   1.189   6.486
 7873TIP3   OH223559   5.931   4.274   0.268
 7873TIP3    H123560   5.900   4.337   0.333
 7873TIP3    H223561   6.006   4.317   0.226
 7874TIP3   OH223562   2.993   2.392   2.615
 7874TIP3    H123563   2.984   2.319   2.554
 7874TIP3    H223564   2.977   2.470   2.562
 7875TIP3   OH223565   7.261   3.224   6.274
 7875TIP3    H123566   7.335   3.204   6.330
 7875TIP3    H223567   7.232   3.311   6.302
 7876TIP3   OH223568   0.766   4.516   4.206
 7876TIP3    H123569   0.846   4.563   4.183
 7876TIP3    H223570   0.714   4.517   4.125
 7877TIP3   OH223571   4.537   5.820   3.128
 7877TIP3    H123572   4.548   5.795   3.220
 7877TIP3    H223573   4.444   5.808   3.111
 7878TIP3   OH223574   0.801   6.930   5.329
 7878TIP3    H123575   0.848   6.923   5.412
 7878TIP3    H223576   0.833   6.856   5.277
 7879TIP3   OH223577   2.829   5.501   6.287
 7879TIP3    H123578   2.737   5.493   6.310
 7879TIP3    H223579   2.840   5.593   6.262
 7880TIP3   OH223580   3.816   1.548   0.598
 7880TIP3    H123581   3.894   1.602   0.613
 7880TIP3    H223582   3.842   1.461   0.628
 7881TIP3   OH223583   6.314   0.088   3.657
 7881TIP3    H123584   6.380   0.020   3.672
 7881TIP3    H223585   6.359   0.170   3.674
 7882TIP3   OH223586   0.648   0.337   6.264
 7882TIP3    H123587   0.678   0.279   6.194
 7882TIP3    H223588   0.683   0.423   6.241
 7883TIP3   OH223589   6.566   2.369   5.777
 7883TIP3    H123590   6.561   2.465   5.771
 7883TIP3    H223591   6.609   2.353   5.861
 7884TIP3   OH223592   1.239   0.173   0.204
 7884TIP3    H123593   1.156   0.197   0.162
 7884TIP3    H223594   1.235   0.214   0.290
 7885TIP3   OH223595   6.800   1.413   4.700
 7885TIP3    H123596   6.805   1.449   4.612
 7885TIP3    H223597   6.815   1.319   4.689
 7886TIP3   OH223598   7.857   2.779   6.792
 7886TIP3    H123599   7.787   2.737   6.742
 7886TIP3    H223600   7.812   2.840   6.851
 7887TIP3   OH223601   6.183   3.171   3.677
 7887TIP3    H123602   6.109   3.232   3.672
 7887TIP3    H223603   6.150   3.090   3.639
 7888TIP3   OH223604   7.370   5.327   4.835
 7888TIP3    H123605   7.409   5.380   4.904
 7888TIP3    H223606   7.299   5.381   4.800
 7889TIP3   OH223607   5.303   7.833   1.658
 7889TIP3    H123608   5.328   7.914   1.702
 7889TIP3    H223609   5.207   7.829   1.666
 7890TIP3   OH223610   5.182   6.933   6.580
 7890TIP3    H123611   5.092   6.922   6.550
 7890TIP3    H223612   5.174   6.963   6.670
 7891TIP3   OH223613   3.301   1.714   3.346
 7891TIP3    H123614   3.262   1.785   3.295
 7891TIP3    H223615   3.257   1.719   3.431
 7892TIP3   OH223616   2.100   5.700   5.176
 7892TIP3    H123617   2.136   5.613   5.191
 7892TIP3    H223618   2.072   5.730   5.263
 7893TIP3   OH223619   5.361   7.691   2.259
 7893TIP3    H123620   5.315   7.769   2.289
 7893TIP3    H223621   5.452   7.718   2.250
 7894TIP3   OH223622   6.713   4.608   1.944
 7894TIP3    H123623   6.736   4.616   2.037
 7894TIP3    H223624   6.673   4.692   1.922
 7895TIP3   OH223625   2.730   0.331   2.912
 7895TIP3    H123626   2.634   0.335   2.901
 7895TIP3    H223627   2.752   0.240   2.896
 7896TIP3   OH223628   8.310   4.651   4.318
 7896TIP3    H123629   8.314   4.724   4.381
 7896TIP3    H223630   8.383   4.595   4.343
 7897TIP3   OH223631   6.690   0.755   5.300
 7897TIP3    H123632   6.642   0.717   5.226
 7897TIP3    H223633   6.750   0.685   5.327
 7898TIP3   OH223634   7.574   5.481   1.021
 7898TIP3    H123635   7.620   5.562   0.999
 7898TIP3    H223636   7.573   5.431   0.940
 7899TIP3   OH223637   6.323   5.322   6.560
 7899TIP3    H123638   6.374   5.373   6.497
 7899TIP3    H223639   6.382   5.250   6.585
 7900TIP3   OH223640   0.525   6.793   6.293
 7900TIP3    H123641   0.564   6.712   6.258
 7900TIP3    H223642   0.485   6.765   6.375
 7901TIP3   OH223643   1.467   5.245   1.994
 7901TIP3    H123644   1.455   5.274   1.904
 7901TIP3    H223645   1.557   5.214   1.998
 7902TIP3   OH223646   3.104   4.339   6.682
 7902TIP3    H123647   3.196   4.350   6.659
 7902TIP3    H223648   3.100   4.260   6.735
 7903TIP3   OH223649   5.360   3.618   0.960
 7903TIP3    H123650   5.321   3.543   0.914
 7903TIP3    H223651   5.284   3.669   0.990
 7904TIP3   OH223652   1.324   0.608   4.840
 7904TIP3    H123653   1.279   0.662   4.906
 7904TIP3    H223654   1.329   0.664   4.763
 7905TIP3   OH223655   8.153   7.644   2.341
 7905TIP3    H123656   8.239   7.673   2.371
 7905TIP3    H223657   8.103   7.725   2.329
 7906TIP3   OH223658   2.454   0.270   2.868
 7906TIP3    H123659   2.407   0.344   2.907
 7906TIP3    H223660   2.405   0.249   2.788
 7907TIP3   OH223661   4.379   5.978   2.876
 7907TIP3    H123662   4.335   5.942   2.953
 7907TIP3    H223663   4.332   6.059   2.857
 7908TIP3   OH223664   0.735   6.705   4.967
 7908TIP3    H123665   0.774   6.761   4.901
 7908TIP3    H223666   0.756   6.747   5.051
 7909TIP3   OH223667   3.647   1.475   0.903
 7909TIP3    H123668   3.699   1.434   0.833
 7909TIP3    H223669   3.587   1.407   0.932
 7910TIP3   OH223670   0.488   6.062   2.731
 7910TIP3    H123671   0.574   6.028   2.754
 7910TIP3    H223672   0.440   6.064   2.814
 7911TIP3   OH223673   1.800   5.624   2.268
 7911TIP3    H123674   1.789   5.718   2.286
 7911TIP3    H223675   1.892   5.606   2.286
 7912TIP3   OH223676   5.435   5.941   5.087
 7912TIP3    H123677   5.493   5.953   5.012
 7912TIP3    H223678   5.401   5.852   5.077
 7913TIP3   OH223679   5.855   4.871   1.677
 7913TIP3    H123680   5.783   4.921   1.717
 7913TIP3    H223681   5.873   4.801   1.739
 7914TIP3   OH223682   7.780   4.402   1.070
 7914TIP3    H123683   7.846   4.458   1.031
 7914TIP3    H223684   7.730   4.459   1.128
 7915TIP3   OH223685   7.585   1.940   5.524
 7915TIP3    H123686   7.547   1.884   5.591
 7915TIP3    H223687   7.567   2.029   5.554
 7916TIP3   OH223688   0.247   4.557   0.701
 7916TIP3    H123689   0.232   4.484   0.762
 7916TIP3    H223690   0.224   4.635   0.751
 7917TIP3   OH223691   7.239   1.721   0.703
 7917TIP3    H123692   7.194   1.721   0.787
 7917TIP3    H223693   7.232   1.631   0.671
 7918TIP3   OH223694   4.528   4.752   6.307
 7918TIP3    H123695   4.572   4.794   6.382
 7918TIP3    H223696   4.570   4.667   6.299
 7919TIP3   OH223697   6.609   2.437   1.722
 7919TIP3    H123698   6.613   2.345   1.699
 7919TIP3    H223699   6.638   2.441   1.813
 7920TIP3   OH223700   4.694   2.430   4.558
 7920TIP3    H123701   4.692   2.397   4.469
 7920TIP3    H223702   4.607   2.412   4.593
 7921TIP3   OH223703   7.693   4.658   4.571
 7921TIP3    H123704   7.605   4.624   4.555
 7921TIP3    H223705   7.716   4.624   4.658
 7922TIP3   OH223706   7.608   1.961   6.481
 7922TIP3    H123707   7.515   1.961   6.459
 7922TIP3    H223708   7.617   2.032   6.544
 7923TIP3   OH223709   7.231   2.459   4.437
 7923TIP3    H123710   7.316   2.416   4.441
 7923TIP3    H223711   7.250   2.552   4.452
 7924TIP3   OH223712   3.713   4.402   1.625
 7924TIP3    H123713   3.677   4.385   1.538
 7924TIP3    H223714   3.639   4.436   1.676
 7925TIP3   OH223715   1.592   5.482   2.368
 7925TIP3    H123716   1.647   5.438   2.434
 7925TIP3    H223717   1.654   5.530   2.314
 7926TIP3   OH223718   1.686   2.076   4.372
 7926TIP3    H123719   1.739   2.142   4.418
 7926TIP3    H223720   1.675   2.005   4.436
 7927TIP3   OH223721   0.847   3.515   0.187
 7927TIP3    H123722   0.766   3.565   0.194
 7927TIP3    H223723   0.912   3.579   0.159
 7928TIP3   OH223724   7.723   0.983   5.692
 7928TIP3    H123725   7.742   0.926   5.618
 7928TIP3    H223726   7.629   0.973   5.707
 7929TIP3   OH223727   0.422   3.452   2.284
 7929TIP3    H123728   0.440   3.359   2.273
 7929TIP3    H223729   0.334   3.464   2.247
 7930TIP3   OH223730   1.654   6.737   3.166
 7930TIP3    H123731   1.709   6.696   3.233
 7930TIP3    H223732   1.670   6.685   3.087
 7931TIP3   OH223733   5.349   0.060   2.794
 7931TIP3    H123734   5.274   0.092   2.744
 7931TIP3    H223735   5.425   0.087   2.743
 7932TIP3   OH223736   5.459   3.997   1.474
 7932TIP3    H123737   5.547   4.032   1.462
 7932TIP3    H223738   5.470   3.924   1.535
 7933TIP3   OH223739   1.227   5.008   1.509
 7933TIP3    H123740   1.239   4.960   1.427
 7933TIP3    H223741   1.236   5.100   1.484
 7934TIP3   OH223742   4.018   2.186   4.380
 7934TIP3    H123743   3.987   2.175   4.291
 7934TIP3    H223744   3.947   2.233   4.425
 7935TIP3   OH223745   6.587   2.259   1.154
 7935TIP3    H123746   6.656   2.202   1.120
 7935TIP3    H223747   6.540   2.204   1.217
 7936TIP3   OH223748   5.612   2.832   0.376
 7936TIP3    H123749   5.664   2.758   0.345
 7936TIP3    H223750   5.668   2.876   0.441
 7937TIP3   OH223751   3.519   0.381   1.408
 7937TIP3    H123752   3.427   0.361   1.391
 7937TIP3    H223753   3.559   0.296   1.426
 7938TIP3   OH223754   4.638   5.610   0.951
 7938TIP3    H123755   4.597   5.528   0.924
 7938TIP3    H223756   4.732   5.595   0.937
 7939TIP3   OH223757   1.825   2.114   2.770
 7939TIP3    H123758   1.867   2.102   2.856
 7939TIP3    H223759   1.896   2.102   2.707
 7940TIP3   OH223760   0.790   1.993   0.523
 7940TIP3    H123761   0.782   2.066   0.585
 7940TIP3    H223762   0.855   2.022   0.459
 7941TIP3   OH223763   3.521   6.255   0.191
 7941TIP3    H123764   3.527   6.311   0.113
 7941TIP3    H223765   3.513   6.166   0.156
 7942TIP3   OH223766   0.050   3.109   4.842
 7942TIP3    H123767   0.077   3.052   4.770
 7942TIP3    H223768   0.080   3.065   4.921
 7943TIP3   OH223769   0.754   4.918   3.288
 7943TIP3    H123770   0.812   4.869   3.347
 7943TIP3    H223771   0.743   4.861   3.212
 7944TIP3   OH223772   5.602   7.841   4.204
 7944TIP3    H123773   5.611   7.854   4.110
 7944TIP3    H223774   5.691   7.850   4.239
 7945TIP3   OH223775   4.446   6.655   6.379
 7945TIP3    H123776   4.409   6.743   6.367
 7945TIP3    H223777   4.370   6.596   6.372
 7946TIP3   OH223778   6.681   4.345   4.173
 7946TIP3    H123779   6.650   4.260   4.143
 7946TIP3    H223780   6.755   4.365   4.115
 7947TIP3   OH223781   1.994   0.558   3.171
 7947TIP3    H123782   2.042   0.541   3.090
 7947TIP3    H223783   1.939   0.480   3.183
 7948TIP3   OH223784   3.611   7.442   4.600
 7948TIP3    H123785   3.536   7.442   4.541
 7948TIP3    H223786   3.624   7.350   4.623
 7949TIP3   OH223787   4.848   3.613   3.418
 7949TIP3    H123788   4.868   3.638   3.328
 7949TIP3    H223789   4.824   3.695   3.461
 7950TIP3   OH223790   6.000   2.552   2.691
 7950TIP3    H123791   5.954   2.634   2.714
 7950TIP3    H223792   6.087   2.581   2.663
 7951TIP3   OH223793   1.113   0.203   2.964
 7951TIP3    H123794   1.205   0.185   2.944
 7951TIP3    H223795   1.092   0.282   2.913
 7952TIP3   OH223796   3.591   4.661   1.427
 7952TIP3    H123797   3.659   4.726   1.414
 7952TIP3    H223798   3.637   4.577   1.427
 7953TIP3   OH223799   7.863   2.970   5.145
 7953TIP3    H123800   7.792   3.033   5.156
 7953TIP3    H223801   7.932   3.019   5.100
 7954TIP3   OH223802   3.335   6.019   0.071
 7954TIP3    H123803   3.360   6.090   0.011
 7954TIP3    H223804   3.408   5.957   0.065
 7955TIP3   OH223805   6.330   4.392   3.282
 7955TIP3    H123806   6.312   4.430   3.196
 7955TIP3    H223807   6.415   4.349   3.272
 7956TIP3   OH223808   5.052   3.531   4.790
 7956TIP3    H123809   5.026   3.464   4.726
 7956TIP3    H223810   4.977   3.591   4.793
 7957TIP3   OH223811   4.312   6.953   6.104
 7957TIP3    H123812   4.368   7.027   6.129
 7957TIP3    H223813   4.364   6.905   6.040
 7958TIP3   OH223814   1.516   0.650   1.339
 7958TIP3    H123815   1.491   0.558   1.335
 7958TIP3    H223816   1.540   0.664   1.430
 7959TIP3   OH223817   4.407   2.284   2.453
 7959TIP3    H123818   4.429   2.217   2.518
 7959TIP3    H223819   4.351   2.239   2.389
 7960TIP3   OH223820   1.636   7.030   1.744
 7960TIP3    H123821   1.571   6.982   1.693
 7960TIP3    H223822   1.693   7.071   1.678
 7961TIP3   OH223823   7.528   4.907   0.193
 7961TIP3    H123824   7.492   4.996   0.204
 7961TIP3    H223825   7.459   4.859   0.147
 7962TIP3   OH223826   6.527   0.176   2.409
 7962TIP3    H123827   6.495   0.206   2.494
 7962TIP3    H223828   6.585   0.103   2.429
 7963TIP3   OH223829   7.804   6.333   2.758
 7963TIP3    H123830   7.819   6.394   2.830
 7963TIP3    H223831   7.798   6.247   2.800
 7964TIP3   OH223832   1.482   1.336   3.989
 7964TIP3    H123833   1.554   1.300   3.937
 7964TIP3    H223834   1.512   1.424   4.012
 7965TIP3   OH223835   5.409   1.736   5.936
 7965TIP3    H123836   5.483   1.717   5.994
 7965TIP3    H223837   5.437   1.811   5.884
 7966TIP3   OH223838   4.312   1.539   2.744
 7966TIP3    H123839   4.263   1.604   2.794
 7966TIP3    H223840   4.329   1.580   2.660
 7967TIP3   OH223841   5.653   1.046   4.229
 7967TIP3    H123842   5.713   1.120   4.226
 7967TIP3    H223843   5.661   1.011   4.318
 7968TIP3   OH223844   2.046   1.730   3.375
 7968TIP3    H123845   1.964   1.757   3.415
 7968TIP3    H223846   2.105   1.714   3.449
 7969TIP3   OH223847   3.607   0.193   6.763
 7969TIP3    H123848   3.644   0.120   6.714
 7969TIP3    H223849   3.522   0.161   6.793
 7970TIP3   OH223850   5.445   3.872   0.585
 7970TIP3    H123851   5.443   3.938   0.516
 7970TIP3    H223852   5.456   3.922   0.665
 7971TIP3   OH223853   3.502   5.947   2.454
 7971TIP3    H123854   3.472   5.866   2.411
 7971TIP3    H223855   3.509   6.011   2.383
 7972TIP3   OH223856  -0.006   4.976   6.329
 7972TIP3    H123857   0.045   4.905   6.290
 7972TIP3    H223858   0.014   4.971   6.422
 7973TIP3   OH223859   4.002   4.507   1.142
 7973TIP3    H123860   3.919   4.469   1.170
 7973TIP3    H223861   4.015   4.583   1.199
 7974TIP3   OH223862   3.700   2.490   0.324
 7974TIP3    H123863   3.721   2.533   0.241
 7974TIP3    H223864   3.615   2.526   0.350
 7975TIP3   OH223865   1.546   1.944   5.411
 7975TIP3    H123866   1.618   1.905   5.362
 7975TIP3    H223867   1.589   1.998   5.478
 7976TIP3   OH223868   3.661   5.736   1.232
 7976TIP3    H123869   3.739   5.693   1.268
 7976TIP3    H223870   3.687   5.827   1.221
 7977TIP3   OH223871   8.187   0.607   4.809
 7977TIP3    H123872   8.116   0.556   4.847
 7977TIP3    H223873   8.144   0.669   4.750
 7978TIP3   OH223874   0.757   5.607   6.413
 7978TIP3    H123875   0.674   5.603   6.365
 7978TIP3    H223876   0.820   5.565   6.355
 7979TIP3   OH223877   7.230   4.688   1.062
 7979TIP3    H123878   7.162   4.656   1.003
 7979TIP3    H223879   7.291   4.615   1.072
 7980TIP3   OH223880   3.617   1.972   4.357
 7980TIP3    H123881   3.576   1.966   4.444
 7980TIP3    H223882   3.591   1.891   4.314
 7981TIP3   OH223883   5.486   1.666   1.337
 7981TIP3    H123884   5.523   1.636   1.420
 7981TIP3    H223885   5.555   1.651   1.273
 7982TIP3   OH223886   4.334   1.790   4.097
 7982TIP3    H123887   4.351   1.770   4.005
 7982TIP3    H223888   4.307   1.882   4.097
 7983TIP3   OH223889   3.026   5.302   1.181
 7983TIP3    H123890   3.030   5.388   1.138
 7983TIP3    H223891   3.117   5.284   1.206
 7984TIP3   OH223892   1.085   6.313   4.293
 7984TIP3    H123893   1.140   6.305   4.371
 7984TIP3    H223894   1.110   6.239   4.238
 7985TIP3   OH223895   2.996   3.556   3.249
 7985TIP3    H123896   2.909   3.577   3.283
 7985TIP3    H223897   3.049   3.540   3.327
 7986TIP3   OH223898   1.116   4.155   1.183
 7986TIP3    H123899   1.162   4.172   1.101
 7986TIP3    H223900   1.049   4.091   1.160
 7987TIP3   OH223901   1.007   1.581   0.865
 7987TIP3    H123902   1.062   1.646   0.821
 7987TIP3    H223903   0.951   1.547   0.795
 7988TIP3   OH223904   4.243   3.985   3.741
 7988TIP3    H123905   4.289   3.982   3.825
 7988TIP3    H223906   4.156   3.951   3.761
 7989TIP3   OH223907   2.682   4.518   0.413
 7989TIP3    H123908   2.675   4.478   0.326
 7989TIP3    H223909   2.776   4.533   0.424
 7990TIP3   OH223910   3.109   0.587   2.870
 7990TIP3    H123911   3.103   0.562   2.778
 7990TIP3    H223912   3.070   0.674   2.874
 7991TIP3   OH223913   5.990   1.121   5.585
 7991TIP3    H123914   6.076   1.146   5.552
 7991TIP3    H223915   5.942   1.204   5.593
 7992TIP3   OH223916   5.035   0.895   2.217
 7992TIP3    H123917   5.048   0.822   2.157
 7992TIP3    H223918   5.088   0.966   2.181
 7993TIP3   OH223919   7.868   3.358   2.741
 7993TIP3    H123920   7.816   3.294   2.693
 7993TIP3    H223921   7.911   3.308   2.810
 7994TIP3   OH223922   7.978   0.898   0.471
 7994TIP3    H123923   7.912   0.945   0.421
 7994TIP3    H223924   8.010   0.830   0.411
 7995TIP3   OH223925   7.362   5.762   3.235
 7995TIP3    H123926   7.274   5.783   3.202
 7995TIP3    H223927   7.416   5.835   3.206
 7996TIP3   OH223928   4.374   4.018   3.989
 7996TIP3    H123929   4.421   4.026   4.072
 7996TIP3    H223930   4.357   3.924   3.980
 7997TIP3   OH223931   0.380   7.429   5.590
 7997TIP3    H123932   0.369   7.516   5.551
 7997TIP3    H223933   0.424   7.378   5.522
 7998TIP3   OH223934   0.828   3.072   3.045
 7998TIP3    H123935   0.887   3.001   3.072
 7998TIP3    H223936   0.863   3.102   2.961
 7999TIP3   OH223937   3.058   2.846   3.972
 7999TIP3    H123938   2.964   2.832   3.961
 7999TIP3    H223939   3.067   2.887   4.058
 8000TIP3   OH223940   6.933   2.635   1.357
 8000TIP3    H123941   7.020   2.637   1.397
 8000TIP3    H223942   6.874   2.662   1.428
 8001TIP3   OH223943   6.423   4.192   6.851
 8001TIP3    H123944   6.405   4.107   6.812
 8001TIP3    H223945   6.370   4.195   6.930
 8002TIP3   OH223946   2.142   5.381   1.923
 8002TIP3    H123947   2.073   5.329   1.881
 8002TIP3    H223948   2.220   5.360   1.872
 8003TIP3   OH223949   1.187   1.639   4.089
 8003TIP3    H123950   1.237   1.695   4.029
 8003TIP3    H223951   1.101   1.630   4.048
 8004TIP3   OH223952   5.835   2.387   3.357
 8004TIP3    H123953   5.916   2.358   3.314
 8004TIP3    H223954   5.788   2.434   3.289
 8005TIP3   OH223955   2.796   7.704   5.851
 8005TIP3    H123956   2.759   7.616   5.855
 8005TIP3    H223957   2.863   7.705   5.920
 8006TIP3   OH223958   7.896   2.329   5.346
 8006TIP3    H123959   7.871   2.259   5.406
 8006TIP3    H223960   7.813   2.366   5.316
 8007TIP3   OH223961   3.793   4.608   3.564
 8007TIP3    H123962   3.771   4.692   3.523
 8007TIP3    H223963   3.886   4.616   3.586
 8008TIP3   OH223964   1.983   6.620   5.186
 8008TIP3    H123965   1.924   6.686   5.150
 8008TIP3    H223966   2.071   6.657   5.174
 8009TIP3   OH223967   3.101   2.076   2.280
 8009TIP3    H123968   3.103   2.166   2.312
 8009TIP3    H223969   3.110   2.022   2.358
 8010TIP3   OH223970   7.429   5.799   1.158
 8010TIP3    H123971   7.520   5.777   1.140
 8010TIP3    H223972   7.416   5.773   1.249
 8011TIP3   OH223973   3.964   0.290   6.196
 8011TIP3    H123974   3.938   0.319   6.284
 8011TIP3    H223975   3.882   0.267   6.153
 8012TIP3   OH223976   3.178   2.463   3.073
 8012TIP3    H123977   3.201   2.554   3.092
 8012TIP3    H223978   3.181   2.457   2.977
 8013TIP3   OH223979   3.646   2.793   6.235
 8013TIP3    H123980   3.723   2.825   6.281
 8013TIP3    H223981   3.607   2.872   6.196
 8014TIP3   OH223982   1.104   4.030   4.571
 8014TIP3    H123983   1.095   4.053   4.479
 8014TIP3    H223984   1.015   4.036   4.606
 8015TIP3   OH223985   1.116   0.219   1.166
 8015TIP3    H123986   1.178   0.262   1.225
 8015TIP3    H223987   1.168   0.151   1.123
 8016TIP3   OH223988   3.687   6.927   1.260
 8016TIP3    H123989   3.618   6.977   1.216
 8016TIP3    H223990   3.769   6.959   1.220
 8017TIP3   OH223991   4.919   3.142   1.496
 8017TIP3    H123992   4.919   3.124   1.402
 8017TIP3    H223993   4.829   3.124   1.523
 8018TIP3   OH223994   6.020   5.519   3.273
 8018TIP3    H123995   6.035   5.612   3.289
 8018TIP3    H223996   6.081   5.497   3.202
 8019TIP3   OH223997   1.496   3.554   1.176
 8019TIP3    H123998   1.515   3.626   1.236
 8019TIP3    H223999   1.560   3.562   1.106
 8020TIP3   OH224000   2.356   6.922   3.698
 8020TIP3    H124001   2.340   6.873   3.779
 8020TIP3    H224002   2.389   7.006   3.727
 8021TIP3   OH224003   1.348   0.093   5.085
 8021TIP3    H124004   1.363   0.149   5.008
 8021TIP3    H224005   1.265   0.049   5.067
 8022TIP3   OH224006   4.756   4.113   0.722
 8022TIP3    H124007   4.837   4.063   0.728
 8022TIP3    H224008   4.740   4.121   0.628
 8023TIP3   OH224009   0.705   0.467   2.944
 8023TIP3    H124010   0.733   0.421   2.865
 8023TIP3    H224011   0.778   0.456   3.006
 8024TIP3   OH224012   6.621   5.906   4.553
 8024TIP3    H124013   6.556   5.844   4.521
 8024TIP3    H224014   6.573   5.962   4.614
 8025TIP3   OH224015   3.818   6.256   0.762
 8025TIP3    H124016   3.781   6.341   0.739
 8025TIP3    H224017   3.856   6.269   0.849
 8026TIP3   OH224018   7.831   5.870   3.105
 8026TIP3    H124019   7.791   5.792   3.067
 8026TIP3    H224020   7.875   5.839   3.184
 8027TIP3   OH224021   1.613   0.359   0.610
 8027TIP3    H124022   1.570   0.395   0.687
 8027TIP3    H224023   1.691   0.315   0.644
 8028TIP3   OH224024   4.129   4.065   3.264
 8028TIP3    H124025   4.219   4.031   3.263
 8028TIP3    H224026   4.127   4.124   3.340
 8029TIP3   OH224027   7.299   7.119   1.646
 8029TIP3    H124028   7.332   7.035   1.615
 8029TIP3    H224029   7.321   7.120   1.739
 8030TIP3   OH224030   3.862   6.934   2.602
 8030TIP3    H124031   3.926   6.903   2.537
 8030TIP3    H224032   3.871   7.029   2.600
 8031TIP3   OH224033   8.357   0.373   1.933
 8031TIP3    H124034   8.286   0.433   1.910
 8031TIP3    H224035   8.352   0.366   2.028
 8032TIP3   OH224036   4.376   6.206   2.270
 8032TIP3    H124037   4.351   6.124   2.228
 8032TIP3    H224038   4.469   6.194   2.292
 8033TIP3   OH224039   5.811   0.536   5.048
 8033TIP3    H124040   5.839   0.564   5.136
 8033TIP3    H224041   5.825   0.441   5.048
 8034TIP3   OH224042   0.822   6.672   0.913
 8034TIP3    H124043   0.799   6.642   1.001
 8034TIP3    H224044   0.807   6.597   0.857
 8035TIP3   OH224045   2.118   4.256   6.446
 8035TIP3    H124046   2.171   4.223   6.519
 8035TIP3    H224047   2.112   4.183   6.385
 8036TIP3   OH224048   8.048   4.765   6.621
 8036TIP3    H124049   8.052   4.682   6.669
 8036TIP3    H224050   8.103   4.750   6.543
 8037TIP3   OH224051   8.102   4.849   5.691
 8037TIP3    H124052   8.061   4.780   5.744
 8037TIP3    H224053   8.048   4.855   5.613
 8038TIP3   OH224054   3.111   4.431   3.531
 8038TIP3    H124055   3.187   4.391   3.573
 8038TIP3    H224056   3.036   4.393   3.576
 8039TIP3   OH224057   8.325   3.846   6.532
 8039TIP3    H124058   8.241   3.819   6.570
 8039TIP3    H224059   8.301   3.892   6.451
 8040TIP3   OH224060   5.560   4.987   5.640
 8040TIP3    H124061   5.654   4.979   5.657
 8040TIP3    H224062   5.527   4.897   5.646
 8041TIP3   OH224063   6.324   4.935   5.129
 8041TIP3    H124064   6.244   4.941   5.180
 8041TIP3    H224065   6.296   4.902   5.044
 8042TIP3   OH224066   5.274   5.418   3.375
 8042TIP3    H124067   5.323   5.336   3.379
 8042TIP3    H224068   5.333   5.478   3.328
 8043TIP3   OH224069   0.970   0.616   5.500
 8043TIP3    H124070   1.029   0.582   5.567
 8043TIP3    H224071   1.028   0.656   5.436
 8044TIP3   OH224072   7.341   6.706   4.841
 8044TIP3    H124073   7.319   6.623   4.799
 8044TIP3    H224074   7.417   6.686   4.895
 8045TIP3   OH224075   6.218   2.431   1.105
 8045TIP3    H124076   6.201   2.426   1.011
 8045TIP3    H224077   6.131   2.441   1.144
 8046TIP3   OH224078   0.399   5.921   3.658
 8046TIP3    H124079   0.365   5.832   3.663
 8046TIP3    H224080   0.423   5.943   3.748
 8047TIP3   OH224081   7.016   5.154   1.068
 8047TIP3    H124082   6.957   5.146   0.993
 8047TIP3    H224083   7.103   5.159   1.029
 8048TIP3   OH224084   0.862   6.980   6.221
 8048TIP3    H124085   0.931   7.007   6.282
 8048TIP3    H224086   0.864   6.884   6.222
 8049TIP3   OH224087   1.773   1.866   3.182
 8049TIP3    H124088   1.768   1.869   3.087
 8049TIP3    H224089   1.683   1.846   3.210
 8050TIP3   OH224090   4.565   7.080   0.467
 8050TIP3    H124091   4.627   7.016   0.503
 8050TIP3    H224092   4.620   7.141   0.417
 8051TIP3   OH224093   1.779   7.093   4.330
 8051TIP3    H124094   1.697   7.084   4.380
 8051TIP3    H224095   1.755   7.146   4.254
 8052TIP3   OH224096   4.604   4.469   6.308
 8052TIP3    H124097   4.562   4.403   6.364
 8052TIP3    H224098   4.561   4.459   6.223
 8053TIP3   OH224099   2.508   4.977   0.452
 8053TIP3    H124100   2.558   5.020   0.521
 8053TIP3    H224101   2.494   5.045   0.387
 8054TIP3   OH224102   3.858   3.566   0.334
 8054TIP3    H124103   3.922   3.524   0.277
 8054TIP3    H224104   3.907   3.590   0.412
 8055TIP3   OH224105   6.353   4.527   0.951
 8055TIP3    H124106   6.342   4.540   1.045
 8055TIP3    H224107   6.426   4.464   0.944
 8056TIP3   OH224108   3.744   5.472   0.452
 8056TIP3    H124109   3.686   5.529   0.401
 8056TIP3    H224110   3.685   5.421   0.507
 8057TIP3   OH224111   1.717   7.805   2.238
 8057TIP3    H124112   1.795   7.846   2.276
 8057TIP3    H224113   1.747   7.772   2.153
 8058TIP3   OH224114   5.654   5.513   2.001
 8058TIP3    H124115   5.747   5.495   2.012
 8058TIP3    H224116   5.623   5.534   2.090
 8059TIP3   OH224117   0.454   0.382   6.794
 8059TIP3    H124118   0.527   0.358   6.851
 8059TIP3    H224119   0.473   0.472   6.767
 8060TIP3   OH224120   0.190   5.877   3.379
 8060TIP3    H124121   0.112   5.915   3.338
 8060TIP3    H224122   0.159   5.839   3.461
 8061TIP3   OH224123   3.845   7.408   5.401
 8061TIP3    H124124   3.898   7.424   5.323
 8061TIP3    H224125   3.798   7.490   5.415
 8062TIP3   OH224126   1.411   0.933   5.936
 8062TIP3    H124127   1.503   0.905   5.934
 8062TIP3    H224128   1.361   0.852   5.937
 8063TIP3   OH224129   1.691   1.128   6.876
 8063TIP3    H124130   1.757   1.126   6.806
 8063TIP3    H224131   1.684   1.220   6.902
 8064TIP3   OH224132   2.566   7.355   4.910
 8064TIP3    H124133   2.549   7.431   4.854
 8064TIP3    H224134   2.556   7.280   4.852
 8065TIP3   OH224135   7.165   1.576   2.536
 8065TIP3    H124136   7.202   1.490   2.518
 8065TIP3    H224137   7.213   1.608   2.612
 8066TIP3   OH224138   5.496   2.432   2.185
 8066TIP3    H124139   5.579   2.451   2.140
 8066TIP3    H224140   5.523   2.388   2.266
 8067TIP3   OH224141   5.094   6.430   2.688
 8067TIP3    H124142   5.162   6.384   2.639
 8067TIP3    H224143   5.014   6.414   2.638
 8068TIP3   OH224144   2.696   1.915   3.080
 8068TIP3    H124145   2.662   1.894   3.167
 8068TIP3    H224146   2.785   1.945   3.096
 8069TIP3   OH224147   5.028   2.243   2.022
 8069TIP3    H124148   4.974   2.190   1.963
 8069TIP3    H224149   4.966   2.299   2.068
 8070TIP3   OH224150   6.941   4.920   1.587
 8070TIP3    H124151   7.028   4.945   1.618
 8070TIP3    H224152   6.920   4.840   1.636
 8071TIP3   OH224153   2.352   4.780   3.939
 8071TIP3    H124154   2.303   4.717   3.993
 8071TIP3    H224155   2.442   4.774   3.971
 8072TIP3   OH224156   1.758   2.006   0.108
 8072TIP3    H124157   1.778   1.933   0.166
 8072TIP3    H224158   1.704   2.064   0.161
 8073TIP3   OH224159   7.647   0.611   4.151
 8073TIP3    H124160   7.671   0.538   4.208
 8073TIP3    H224161   7.568   0.647   4.191
 8074TIP3   OH224162   7.993   6.494   0.637
 8074TIP3    H124163   7.905   6.456   0.643
 8074TIP3    H224164   7.994   6.541   0.554
 8075TIP3   OH224165   7.925   1.645   4.496
 8075TIP3    H124166   7.864   1.584   4.454
 8075TIP3    H224167   7.959   1.698   4.424
 8076TIP3   OH224168   5.946   3.079   6.700
 8076TIP3    H124169   5.858   3.042   6.693
 8076TIP3    H224170   6.004   3.005   6.682
 8077TIP3   OH224171   1.385   4.321   2.484
 8077TIP3    H124172   1.469   4.280   2.462
 8077TIP3    H224173   1.320   4.255   2.460
 8078TIP3   OH224174   6.927   1.354   6.608
 8078TIP3    H124175   6.890   1.352   6.520
 8078TIP3    H224176   6.902   1.440   6.643
 8079TIP3   OH224177   8.115   3.153   1.945
 8079TIP3    H124178   8.024   3.145   1.915
 8079TIP3    H224179   8.120   3.240   1.985
 8080TIP3   OH224180   3.559   5.538   0.229
 8080TIP3    H124181   3.598   5.575   0.149
 8080TIP3    H224182   3.557   5.444   0.214
 8081TIP3   OH224183   0.563   1.615   6.161
 8081TIP3    H124184   0.501   1.598   6.232
 8081TIP3    H224185   0.649   1.611   6.202
 8082TIP3   OH224186   0.147   7.228   1.945
 8082TIP3    H124187   0.095   7.172   2.004
 8082TIP3    H224188   0.227   7.246   1.994
 8083TIP3   OH224189   5.654   2.474   5.215
 8083TIP3    H124190   5.718   2.403   5.217
 8083TIP3    H224191   5.639   2.495   5.308
 8084TIP3   OH224192   7.466   5.185   3.914
 8084TIP3    H124193   7.512   5.268   3.929
 8084TIP3    H224194   7.389   5.190   3.971
 8085TIP3   OH224195   4.075   2.206   5.656
 8085TIP3    H124196   4.110   2.152   5.585
 8085TIP3    H224197   4.153   2.243   5.698
 8086TIP3   OH224198   6.330   4.047   4.434
 8086TIP3    H124199   6.327   4.058   4.529
 8086TIP3    H224200   6.323   4.136   4.399
 8087TIP3   OH224201   6.745   6.278   2.225
 8087TIP3    H124202   6.719   6.203   2.278
 8087TIP3    H224203   6.684   6.278   2.151
 8088TIP3   OH224204   2.732   7.572   5.083
 8088TIP3    H124205   2.745   7.665   5.104
 8088TIP3    H224206   2.638   7.557   5.097
 8089TIP3   OH224207   0.757   0.573   5.655
 8089TIP3    H124208   0.828   0.605   5.600
 8089TIP3    H224209   0.705   0.651   5.675
 8090TIP3   OH224210   6.693   1.653   2.830
 8090TIP3    H124211   6.785   1.645   2.805
 8090TIP3    H224212   6.660   1.563   2.828
 8091TIP3   OH224213   8.323   5.703   2.785
 8091TIP3    H124214   8.405   5.732   2.743
 8091TIP3    H224215   8.254   5.739   2.729
 8092TIP3   OH224216   7.554   4.117   6.721
 8092TIP3    H124217   7.581   4.191   6.668
 8092TIP3    H224218   7.542   4.045   6.659
 8093TIP3   OH224219   4.361   7.525   2.879
 8093TIP3    H124220   4.292   7.571   2.832
 8093TIP3    H224221   4.363   7.566   2.965
 8094TIP3   OH224222   4.786   6.801   5.696
 8094TIP3    H124223   4.756   6.783   5.608
 8094TIP3    H224224   4.713   6.777   5.753
 8095TIP3   OH224225   2.410   5.074   5.256
 8095TIP3    H124226   2.488   5.051   5.306
 8095TIP3    H224227   2.350   5.001   5.269
 8096TIP3   OH224228   7.450   4.392   0.783
 8096TIP3    H124229   7.506   4.463   0.817
 8096TIP3    H224230   7.424   4.422   0.696
 8097TIP3   OH224231   7.227   4.319   6.857
 8097TIP3    H124232   7.166   4.260   6.813
 8097TIP3    H224233   7.255   4.379   6.789
 8098TIP3   OH224234   5.369   5.165   2.231
 8098TIP3    H124235   5.401   5.094   2.176
 8098TIP3    H224236   5.448   5.214   2.256
 8099TIP3   OH224237   2.149   3.165   5.447
 8099TIP3    H124238   2.132   3.082   5.402
 8099TIP3    H224239   2.206   3.141   5.520
 8100TIP3   OH224240   6.557   3.469   6.349
 8100TIP3    H124241   6.518   3.517   6.276
 8100TIP3    H224242   6.562   3.379   6.320
 8101TIP3   OH224243   0.393   4.644   6.088
 8101TIP3    H124244   0.456   4.704   6.129
 8101TIP3    H224245   0.366   4.586   6.159
 8102TIP3   OH224246   5.388   7.677   4.315
 8102TIP3    H124247   5.408   7.711   4.402
 8102TIP3    H224248   5.447   7.725   4.256
 8103TIP3   OH224249   2.163   4.596   3.313
 8103TIP3    H124250   2.140   4.508   3.342
 8103TIP3    H224251   2.079   4.637   3.292
 8104TIP3   OH224252   3.327   5.083   6.302
 8104TIP3    H124253   3.336   5.105   6.395
 8104TIP3    H224254   3.251   5.133   6.272
 8105TIP3   OH224255   1.062   1.444   6.110
 8105TIP3    H124256   1.004   1.520   6.107
 8105TIP3    H224257   1.139   1.474   6.158
 8106TIP3   OH224258   6.529   0.599   4.720
 8106TIP3    H124259   6.440   0.614   4.751
 8106TIP3    H224260   6.519   0.571   4.629
 8107TIP3   OH224261   8.080   1.345   5.170
 8107TIP3    H124262   8.035   1.363   5.253
 8107TIP3    H224263   8.173   1.352   5.192
 8108TIP3   OH224264   1.732   3.303   0.283
 8108TIP3    H124265   1.768   3.268   0.201
 8108TIP3    H224266   1.677   3.232   0.316
 8109TIP3   OH224267   3.700   5.322   0.796
 8109TIP3    H124268   3.780   5.352   0.839
 8109TIP3    H224269   3.645   5.400   0.790
 8110TIP3   OH224270   5.646   1.491   3.505
 8110TIP3    H124271   5.572   1.543   3.474
 8110TIP3    H224272   5.697   1.551   3.558
 8111TIP3   OH224273   5.120   2.217   4.360
 8111TIP3    H124274   5.202   2.172   4.379
 8111TIP3    H224275   5.142   2.280   4.292
 8112TIP3   OH224276   1.216   0.461   3.713
 8112TIP3    H124277   1.237   0.371   3.738
 8112TIP3    H224278   1.250   0.514   3.785
 8113TIP3   OH224279   0.299   3.406   3.140
 8113TIP3    H124280   0.332   3.459   3.067
 8113TIP3    H224281   0.334   3.318   3.123
 8114TIP3   OH224282   6.023   3.206   5.171
 8114TIP3    H124283   6.109   3.214   5.211
 8114TIP3    H224284   5.964   3.253   5.230
 8115TIP3   OH224285   6.121   5.780   3.255
 8115TIP3    H124286   6.214   5.773   3.276
 8115TIP3    H224287   6.118   5.790   3.160
 8116TIP3   OH224288   1.003   7.828   5.200
 8116TIP3    H124289   0.963   7.888   5.263
 8116TIP3    H224290   0.988   7.870   5.115
 8117TIP3   OH224291   1.539   7.217   3.437
 8117TIP3    H124292   1.532   7.144   3.376
 8117TIP3    H224293   1.594   7.184   3.508
 8118TIP3   OH224294   5.122   3.226   2.869
 8118TIP3    H124295   5.209   3.221   2.829
 8118TIP3    H224296   5.095   3.135   2.880
 8119TIP3   OH224297   7.448   2.119   2.182
 8119TIP3    H124298   7.473   2.149   2.270
 8119TIP3    H224299   7.409   2.196   2.141
 8120TIP3   OH224300   6.796   5.892   4.749
 8120TIP3    H124301   6.771   5.973   4.793
 8120TIP3    H224302   6.731   5.881   4.679
 8121TIP3   OH224303   2.678   7.004   1.681
 8121TIP3    H124304   2.676   6.975   1.590
 8121TIP3    H224305   2.590   6.988   1.713
 8122TIP3   OH224306   5.293   2.185   5.882
 8122TIP3    H124307   5.248   2.262   5.918
 8122TIP3    H224308   5.224   2.120   5.869
 8123TIP3   OH224309   5.640   1.549   3.197
 8123TIP3    H124310   5.631   1.540   3.292
 8123TIP3    H224311   5.734   1.537   3.181
 8124TIP3   OH224312   1.988   5.749   4.424
 8124TIP3    H124313   1.982   5.742   4.519
 8124TIP3    H224314   1.901   5.726   4.392
 8125TIP3   OH224315   2.395   6.857   5.872
 8125TIP3    H124316   2.318   6.909   5.894
 8125TIP3    H224317   2.391   6.848   5.777
 8126TIP3   OH224318   6.295   3.820   0.552
 8126TIP3    H124319   6.278   3.873   0.475
 8126TIP3    H224320   6.208   3.805   0.591
 8127TIP3   OH224321   2.974   6.731   5.413
 8127TIP3    H124322   3.042   6.790   5.445
 8127TIP3    H224323   3.020   6.665   5.361
 8128TIP3   OH224324   3.461   6.047   1.381
 8128TIP3    H124325   3.382   6.093   1.411
 8128TIP3    H224326   3.469   6.070   1.289
 8129TIP3   OH224327   0.650   1.684   2.540
 8129TIP3    H124328   0.609   1.621   2.480
 8129TIP3    H224329   0.607   1.767   2.521
 8130TIP3   OH224330   1.892   3.338   3.882
 8130TIP3    H124331   1.971   3.330   3.830
 8130TIP3    H224332   1.923   3.361   3.970
 8131TIP3   OH224333   8.217   5.023   0.128
 8131TIP3    H124334   8.218   5.098   0.188
 8131TIP3    H224335   8.220   4.946   0.186
 8132TIP3   OH224336   7.608   5.295   4.716
 8132TIP3    H124337   7.528   5.261   4.755
 8132TIP3    H224338   7.655   5.216   4.687
 8133TIP3   OH224339   4.007   6.577   0.521
 8133TIP3    H124340   4.003   6.618   0.607
 8133TIP3    H224341   4.098   6.586   0.494
 8134TIP3   OH224342   6.405   6.852   2.261
 8134TIP3    H124343   6.489   6.817   2.290
 8134TIP3    H224344   6.412   6.855   2.166
 8135TIP3   OH224345   3.861   5.155   6.209
 8135TIP3    H124346   3.845   5.244   6.240
 8135TIP3    H224347   3.954   5.140   6.226
 8136TIP3   OH224348   2.868   5.725   0.829
 8136TIP3    H124349   2.838   5.804   0.783
 8136TIP3    H224350   2.959   5.743   0.850
 8137TIP3   OH224351   6.038   1.906   1.657
 8137TIP3    H124352   6.012   1.998   1.651
 8137TIP3    H224353   5.969   1.865   1.710
 8138TIP3   OH224354   3.003   3.058   0.533
 8138TIP3    H124355   3.021   3.151   0.530
 8138TIP3    H224356   2.954   3.040   0.452
 8139TIP3   OH224357   4.122   1.149   5.849
 8139TIP3    H124358   4.129   1.187   5.937
 8139TIP3    H224359   4.191   1.084   5.845
 8140TIP3   OH224360   0.101   3.767   3.501
 8140TIP3    H124361   0.154   3.838   3.538
 8140TIP3    H224362   0.151   3.688   3.521
 8141TIP3   OH224363   4.077   1.481   2.567
 8141TIP3    H124364   4.074   1.464   2.661
 8141TIP3    H224365   4.019   1.557   2.554
 8142TIP3   OH224366   2.829   3.716   5.234
 8142TIP3    H124367   2.841   3.775   5.308
 8142TIP3    H224368   2.886   3.752   5.166
 8143TIP3   OH224369   2.794   2.970   3.888
 8143TIP3    H124370   2.781   3.065   3.895
 8143TIP3    H224371   2.729   2.933   3.948
 8144TIP3   OH224372   8.308   1.412   1.170
 8144TIP3    H124373   8.349   1.497   1.185
 8144TIP3    H224374   8.250   1.426   1.095
 8145TIP3   OH224375   0.111   3.611   1.403
 8145TIP3    H124376   0.074   3.528   1.372
 8145TIP3    H224377   0.205   3.594   1.411
 8146TIP3   OH224378   5.768   3.390   3.323
 8146TIP3    H124379   5.795   3.449   3.253
 8146TIP3    H224380   5.697   3.436   3.368
 8147TIP3   OH224381   0.855   2.162   0.824
 8147TIP3    H124382   0.928   2.144   0.883
 8147TIP3    H224383   0.787   2.199   0.882
 8148TIP3   OH224384   7.443   0.276   5.213
 8148TIP3    H124385   7.521   0.240   5.256
 8148TIP3    H224386   7.388   0.199   5.196
 8149TIP3   OH224387   5.650   7.695   2.364
 8149TIP3    H124388   5.666   7.740   2.447
 8149TIP3    H224389   5.727   7.713   2.311
 8150TIP3   OH224390   5.764   1.474   1.177
 8150TIP3    H124391   5.737   1.565   1.189
 8150TIP3    H224392   5.831   1.478   1.109
 8151TIP3   OH224393   7.956   6.576   1.699
 8151TIP3    H124394   8.036   6.622   1.724
 8151TIP3    H224395   7.887   6.641   1.708
 8152TIP3   OH224396   3.697   3.932   5.470
 8152TIP3    H124397   3.769   3.995   5.477
 8152TIP3    H224398   3.680   3.924   5.376
 8153TIP3   OH224399   7.351   4.347   4.263
 8153TIP3    H124400   7.446   4.353   4.250
 8153TIP3    H224401   7.326   4.434   4.296
 8154TIP3   OH224402   1.088   4.061   0.467
 8154TIP3    H124403   0.993   4.059   0.462
 8154TIP3    H224404   1.116   3.972   0.448
 8155TIP3   OH224405   0.832   3.596   5.285
 8155TIP3    H124406   0.892   3.549   5.343
 8155TIP3    H224407   0.852   3.688   5.300
 8156TIP3   OH224408   7.758   5.253   1.583
 8156TIP3    H124409   7.688   5.241   1.647
 8156TIP3    H224410   7.730   5.202   1.507
 8157TIP3   OH224411   1.088   5.883   5.859
 8157TIP3    H124412   1.011   5.830   5.880
 8157TIP3    H224413   1.071   5.918   5.772
 8158TIP3   OH224414   4.284   1.638   3.012
 8158TIP3    H124415   4.288   1.731   3.030
 8158TIP3    H224416   4.202   1.609   3.051
 8159TIP3   OH224417   7.307   7.341   6.250
 8159TIP3    H124418   7.327   7.430   6.222
 8159TIP3    H224419   7.214   7.343   6.271
 8160TIP3   OH224420   4.277   0.786   4.177
 8160TIP3    H124421   4.263   0.849   4.248
 8160TIP3    H224422   4.367   0.803   4.147
 8161TIP3   OH224423   3.909   1.994   3.106
 8161TIP3    H124424   3.836   1.986   3.168
 8161TIP3    H224425   3.948   2.079   3.126
 8162TIP3   OH224426   3.462   2.074   2.629
 8162TIP3    H124427   3.515   2.142   2.670
 8162TIP3    H224428   3.479   2.084   2.535
 8163TIP3   OH224429   0.020   1.607   5.610
 8163TIP3    H124430   0.055   1.645   5.530
 8163TIP3    H224431   0.043   1.515   5.606
 8164TIP3   OH224432   5.634   5.600   4.856
 8164TIP3    H124433   5.694   5.561   4.919
 8164TIP3    H224434   5.558   5.543   4.857
 8165TIP3   OH224435   3.267   7.200   3.587
 8165TIP3    H124436   3.318   7.206   3.668
 8165TIP3    H224437   3.325   7.238   3.520
 8166TIP3   OH224438   2.520   5.153   3.303
 8166TIP3    H124439   2.462   5.174   3.230
 8166TIP3    H224440   2.482   5.198   3.378
 8167TIP3   OH224441   6.342   7.553   1.985
 8167TIP3    H124442   6.285   7.494   2.034
 8167TIP3    H224443   6.285   7.592   1.919
 8168TIP3   OH224444   0.157   5.572   6.285
 8168TIP3    H124445   0.072   5.615   6.285
 8168TIP3    H224446   0.155   5.516   6.208
 8169TIP3   OH224447   6.973   6.429   2.174
 8169TIP3    H124448   6.967   6.431   2.079
 8169TIP3    H224449   6.891   6.387   2.202
 8170TIP3   OH224450   0.175   1.326   3.837
 8170TIP3    H124451   0.206   1.334   3.746
 8170TIP3    H224452   0.081   1.344   3.832
 8171TIP3   OH224453   5.308   5.681   5.250
 8171TIP3    H124454   5.260   5.715   5.174
 8171TIP3    H224455   5.252   5.612   5.285
 8172TIP3   OH224456   3.712   1.338  -0.013
 8172TIP3    H124457   3.728   1.414  -0.070
 8172TIP3    H224458   3.728   1.370   0.075
 8173TIP3   OH224459   2.268   4.179   6.651
 8173TIP3    H124460   2.250   4.092   6.686
 8173TIP3    H224461   2.336   4.215   6.709
 8174TIP3   OH224462   0.910   1.636   6.223
 8174TIP3    H124463   0.954   1.611   6.304
 8174TIP3    H224464   0.924   1.730   6.215
 8175TIP3   OH224465   8.116   5.355   1.488
 8175TIP3    H124466   8.192   5.392   1.533
 8175TIP3    H224467   8.041   5.380   1.541
 8176TIP3   OH224468   5.025   4.331   2.584
 8176TIP3    H124469   5.089   4.364   2.647
 8176TIP3    H224470   4.970   4.271   2.633
 8177TIP3   OH224471   6.890   0.949   5.246
 8177TIP3    H124472   6.805   0.921   5.213
 8177TIP3    H224473   6.884   1.045   5.249
 8178TIP3   OH224474   7.414   3.950   0.648
 8178TIP3    H124475   7.338   3.996   0.611
 8178TIP3    H224476   7.488   3.981   0.596
 8179TIP3   OH224477   0.740   0.252   0.007
 8179TIP3    H124478   0.747   0.343   0.034
 8179TIP3    H224479   0.815   0.209   0.048
 8180TIP3   OH224480   4.939   3.317   4.654
 8180TIP3    H124481   4.920   3.302   4.746
 8180TIP3    H224482   4.854   3.315   4.611
 8181TIP3   OH224483   6.732   1.206   2.748
 8181TIP3    H124484   6.802   1.266   2.722
 8181TIP3    H224485   6.765   1.119   2.726
 8182TIP3   OH224486   0.133   3.842   1.261
 8182TIP3    H124487   0.050   3.888   1.277
 8182TIP3    H224488   0.126   3.762   1.312
 8183TIP3   OH224489   7.166   4.045   4.119
 8183TIP3    H124490   7.163   3.954   4.089
 8183TIP3    H224491   7.196   4.039   4.210
 8184TIP3   OH224492   3.239   5.022   5.316
 8184TIP3    H124493   3.297   4.948   5.334
 8184TIP3    H224494   3.237   5.072   5.397
 8185TIP3   OH224495   4.157   5.870   3.325
 8185TIP3    H124496   4.064   5.889   3.316
 8185TIP3    H224497   4.164   5.827   3.410
 8186TIP3   OH224498   3.327   1.831   5.011
 8186TIP3    H124499   3.383   1.777   5.068
 8186TIP3    H224500   3.297   1.902   5.068
 8187TIP3   OH224501   2.968   2.181   1.450
 8187TIP3    H124502   3.020   2.122   1.504
 8187TIP3    H224503   2.908   2.124   1.402
 8188TIP3   OH224504   4.451   3.911   2.749
 8188TIP3    H124505   4.371   3.922   2.802
 8188TIP3    H224506   4.426   3.944   2.663
 8189TIP3   OH224507   4.284   1.849   5.756
 8189TIP3    H124508   4.203   1.844   5.808
 8189TIP3    H224509   4.305   1.943   5.755
 8190TIP3   OH224510   4.552   5.589   5.704
 8190TIP3    H124511   4.496   5.545   5.766
 8190TIP3    H224512   4.640   5.554   5.721
 8191TIP3   OH224513   5.595   1.391   0.946
 8191TIP3    H124514   5.652   1.378   1.022
 8191TIP3    H224515   5.654   1.389   0.871
 8192TIP3   OH224516   0.477   5.699   0.594
 8192TIP3    H124517   0.398   5.752   0.591
 8192TIP3    H224518   0.492   5.684   0.688
 8193TIP3   OH224519   5.162   7.256   3.721
 8193TIP3    H124520   5.121   7.258   3.807
 8193TIP3    H224521   5.224   7.184   3.726
 8194TIP3   OH224522   8.155   1.783   1.676
 8194TIP3    H124523   8.208   1.704   1.688
 8194TIP3    H224524   8.081   1.771   1.735
 8195TIP3   OH224525   0.438   5.063   4.137
 8195TIP3    H124526   0.471   5.017   4.215
 8195TIP3    H224527   0.495   5.139   4.130
 8196TIP3   OH224528   4.528   5.755   3.402
 8196TIP3    H124529   4.567   5.770   3.489
 8196TIP3    H224530   4.463   5.825   3.393
 8197TIP3   OH224531   3.615   3.801   1.129
 8197TIP3    H124532   3.659   3.723   1.162
 8197TIP3    H224533   3.652   3.873   1.182
 8198TIP3   OH224534   7.515   0.902   0.532
 8198TIP3    H124535   7.536   0.923   0.441
 8198TIP3    H224536   7.561   0.820   0.549
 8199TIP3   OH224537   4.784   7.015   3.516
 8199TIP3    H124538   4.720   7.032   3.585
 8199TIP3    H224539   4.819   7.102   3.495
 8200TIP3   OH224540   4.565   0.127   0.060
 8200TIP3    H124541   4.639   0.129  -0.001
 8200TIP3    H224542   4.539   0.219   0.069
 8201TIP3   OH224543   0.920   4.608   0.677
 8201TIP3    H124544   1.005   4.641   0.707
 8201TIP3    H224545   0.874   4.685   0.645
 8202TIP3   OH224546   3.357   0.122   4.966
 8202TIP3    H124547   3.345   0.054   4.900
 8202TIP3    H224548   3.343   0.204   4.920
 8203TIP3   OH224549   1.641   5.802   2.771
 8203TIP3    H124550   1.650   5.819   2.677
 8203TIP3    H224551   1.711   5.854   2.811
 8204TIP3   OH224552   2.478   6.260   2.393
 8204TIP3    H124553   2.439   6.288   2.311
 8204TIP3    H224554   2.451   6.326   2.457
 8205TIP3   OH224555   2.469   2.454   3.275
 8205TIP3    H124556   2.425   2.535   3.302
 8205TIP3    H224557   2.488   2.467   3.182
 8206TIP3   OH224558   6.919   4.085   2.732
 8206TIP3    H124559   6.931   4.161   2.675
 8206TIP3    H224560   7.004   4.041   2.733
 8207TIP3   OH224561   8.361   6.059   4.661
 8207TIP3    H124562   8.380   5.973   4.699
 8207TIP3    H224563   8.274   6.049   4.621
 8208TIP3   OH224564   4.862   7.923   1.965
 8208TIP3    H124565   4.855   7.839   2.010
 8208TIP3    H224566   4.822   7.907   1.879
 8209TIP3   OH224567   1.002   7.681   4.564
 8209TIP3    H124568   1.069   7.748   4.577
 8209TIP3    H224569   0.932   7.726   4.517
 8210TIP3   OH224570   3.923   6.051   4.766
 8210TIP3    H124571   3.845   6.101   4.742
 8210TIP3    H224572   3.981   6.115   4.807
 8211TIP3   OH224573   6.250   7.833   6.699
 8211TIP3    H124574   6.207   7.748   6.690
 8211TIP3    H224575   6.342   7.812   6.718
 8212TIP3   OH224576   6.123   2.308   4.954
 8212TIP3    H124577   6.204   2.339   4.914
 8212TIP3    H224578   6.058   2.374   4.932
 8213TIP3   OH224579   1.144   4.818   3.349
 8213TIP3    H124580   1.218   4.813   3.409
 8213TIP3    H224581   1.067   4.817   3.406
 8214TIP3   OH224582   7.541   0.844   4.886
 8214TIP3    H124583   7.605   0.847   4.957
 8214TIP3    H224584   7.510   0.934   4.877
 8215TIP3   OH224585   6.706   1.342   5.063
 8215TIP3    H124586   6.641   1.410   5.081
 8215TIP3    H224587   6.659   1.279   5.008
 8216TIP3   OH224588   8.358   3.822   3.016
 8216TIP3    H124589   8.447   3.787   3.017
 8216TIP3    H224590   8.351   3.872   3.097
 8217TIP3   OH224591   0.446   6.514   4.288
 8217TIP3    H124592   0.429   6.520   4.194
 8217TIP3    H224593   0.525   6.461   4.294
 8218TIP3   OH224594   5.065   6.016   1.548
 8218TIP3    H124595   4.992   6.007   1.609
 8218TIP3    H224596   5.087   5.926   1.524
 8219TIP3   OH224597   3.560   0.444   0.337
 8219TIP3    H124598   3.554   0.350   0.317
 8219TIP3    H224599   3.612   0.480   0.266
 8220TIP3   OH224600   1.739   3.793   4.893
 8220TIP3    H124601   1.762   3.876   4.851
 8220TIP3    H224602   1.761   3.805   4.985
 8221TIP3   OH224603   0.888   3.388   6.665
 8221TIP3    H124604   0.902   3.389   6.760
 8221TIP3    H224605   0.821   3.454   6.650
 8222TIP3   OH224606   5.351   7.038   2.015
 8222TIP3    H124607   5.268   7.075   1.986
 8222TIP3    H224608   5.344   6.945   1.993
 8223TIP3   OH224609   2.449   0.399   5.659
 8223TIP3    H124610   2.512   0.329   5.641
 8223TIP3    H224611   2.374   0.354   5.697
 8224TIP3   OH224612   2.634   4.408   0.149
 8224TIP3    H124613   2.541   4.387   0.145
 8224TIP3    H224614   2.676   4.345   0.090
 8225TIP3   OH224615   4.676   5.771   6.694
 8225TIP3    H124616   4.705   5.759   6.785
 8225TIP3    H224617   4.705   5.859   6.672
 8226TIP3   OH224618   0.530   1.943   1.788
 8226TIP3    H124619   0.563   2.021   1.743
 8226TIP3    H224620   0.577   1.871   1.747
 8227TIP3   OH224621   6.294   3.854   2.821
 8227TIP3    H124622   6.288   3.822   2.731
 8227TIP3    H224623   6.351   3.930   2.815
 8228TIP3   OH224624   6.242   6.561   4.614
 8228TIP3    H124625   6.168   6.510   4.580
 8228TIP3    H224626   6.211   6.651   4.613
 8229TIP3   OH224627   4.791   6.545   4.813
 8229TIP3    H124628   4.818   6.543   4.905
 8229TIP3    H224629   4.856   6.600   4.770
 8230TIP3   OH224630   7.089   6.866   0.056
 8230TIP3    H124631   7.055   6.940   0.105
 8230TIP3    H224632   7.067   6.790   0.110
 8231TIP3   OH224633   0.755   7.232   5.319
 8231TIP3    H124634   0.761   7.140   5.293
 8231TIP3    H224635   0.786   7.281   5.243
 8232TIP3   OH224636   5.347   1.903   4.039
 8232TIP3    H124637   5.263   1.938   4.067
 8232TIP3    H224638   5.339   1.808   4.053
 8233TIP3   OH224639   4.057   0.058   4.093
 8233TIP3    H124640   3.997   0.062   4.167
 8233TIP3    H224641   4.140   0.091   4.127
 8234TIP3   OH224642   6.030   1.381   2.400
 8234TIP3    H124643   5.951   1.341   2.437
 8234TIP3    H224644   6.004   1.405   2.311
 8235TIP3   OH224645   5.370   7.327   5.192
 8235TIP3    H124646   5.315   7.253   5.164
 8235TIP3    H224647   5.451   7.316   5.142
 8236TIP3   OH224648   7.295   7.103   0.917
 8236TIP3    H124649   7.207   7.088   0.884
 8236TIP3    H224650   7.283   7.118   1.011
 8237TIP3   OH224651   2.585   7.252   3.486
 8237TIP3    H124652   2.648   7.195   3.443
 8237TIP3    H224653   2.533   7.289   3.415
 8238TIP3   OH224654   7.583   1.946   4.820
 8238TIP3    H124655   7.552   2.035   4.803
 8238TIP3    H224656   7.539   1.920   4.901
 8239TIP3   OH224657   8.285   5.344   3.168
 8239TIP3    H124658   8.281   5.394   3.087
 8239TIP3    H224659   8.376   5.312   3.171
 8240TIP3   OH224660   1.184   4.251   0.669
 8240TIP3    H124661   1.178   4.201   0.588
 8240TIP3    H224662   1.241   4.325   0.647
 8241TIP3   OH224663   7.002   7.567   2.660
 8241TIP3    H124664   6.924   7.533   2.703
 8241TIP3    H224665   6.971   7.596   2.574
 8242TIP3   OH224666   6.813   2.119   4.921
 8242TIP3    H124667   6.767   2.172   4.987
 8242TIP3    H224668   6.867   2.182   4.873
 8243TIP3   OH224669   8.009   2.769   2.995
 8243TIP3    H124670   7.932   2.758   3.052
 8243TIP3    H224671   8.062   2.835   3.040
 8244TIP3   OH224672   2.456   3.436   4.873
 8244TIP3    H124673   2.369   3.423   4.834
 8244TIP3    H224674   2.438   3.457   4.964
 8245TIP3   OH224675   6.414   1.761   0.045
 8245TIP3    H124676   6.386   1.812  -0.032
 8245TIP3    H224677   6.364   1.679   0.039
 8246TIP3   OH224678   1.973   6.758   2.048
 8246TIP3    H124679   1.963   6.668   2.079
 8246TIP3    H224680   2.063   6.781   2.073
 8247TIP3   OH224681   2.691   2.528   4.885
 8247TIP3    H124682   2.653   2.569   4.963
 8247TIP3    H224683   2.660   2.437   4.888
 8248TIP3   OH224684   7.969   1.637   6.593
 8248TIP3    H124685   7.989   1.640   6.687
 8248TIP3    H224686   7.875   1.654   6.588
 8249TIP3   OH224687   2.556   4.128   2.354
 8249TIP3    H124688   2.560   4.122   2.258
 8249TIP3    H224689   2.521   4.044   2.382
 8250TIP3   OH224690   0.961   0.064   2.111
 8250TIP3    H124691   0.915   0.009   2.048
 8250TIP3    H224692   0.987   0.141   2.062
 8251TIP3   OH224693   3.178   1.206   0.201
 8251TIP3    H124694   3.101   1.208   0.143
 8251TIP3    H224695   3.253   1.210   0.142
 8252TIP3   OH224696   7.106   1.685   0.957
 8252TIP3    H124697   7.088   1.645   1.042
 8252TIP3    H224698   7.066   1.772   0.963
 8253TIP3   OH224699   3.491   6.321   6.162
 8253TIP3    H124700   3.556   6.251   6.159
 8253TIP3    H224701   3.521   6.379   6.232
 8254TIP3   OH224702   1.793   4.104   6.036
 8254TIP3    H124703   1.798   4.021   5.988
 8254TIP3    H224704   1.826   4.169   5.974
 8255TIP3   OH224705   8.327   7.702   1.122
 8255TIP3    H124706   8.284   7.631   1.170
 8255TIP3    H224707   8.420   7.678   1.122
 8256TIP3   OH224708   6.801   1.946   3.035
 8256TIP3    H124709   6.755   2.024   3.005
 8256TIP3    H224710   6.893   1.971   3.038
 8257TIP3   OH224711   4.762   5.449   1.354
 8257TIP3    H124712   4.736   5.529   1.309
 8257TIP3    H224713   4.836   5.476   1.409
 8258TIP3   OH224714   4.775   0.711   4.814
 8258TIP3    H124715   4.743   0.639   4.761
 8258TIP3    H224716   4.696   0.754   4.848
 8259TIP3   OH224717   7.174   7.617   5.897
 8259TIP3    H124718   7.203   7.526   5.893
 8259TIP3    H224719   7.167   7.644   5.805
 8260TIP3   OH224720   5.152   2.536   4.042
 8260TIP3    H124721   5.244   2.556   4.059
 8260TIP3    H224722   5.103   2.607   4.082
 8261TIP3   OH224723   7.681   0.257   5.768
 8261TIP3    H124724   7.623   0.233   5.696
 8261TIP3    H224725   7.632   0.322   5.818
 8262TIP3   OH224726   1.958   5.927   0.081
 8262TIP3    H124727   1.987   5.844   0.120
 8262TIP3    H224728   1.885   5.955   0.137
 8263TIP3   OH224729   2.197   7.057   5.909
 8263TIP3    H124730   2.129   7.062   5.975
 8263TIP3    H224731   2.263   7.121   5.937
 8264TIP3   OH224732   8.209   7.353   5.135
 8264TIP3    H124733   8.117   7.328   5.125
 8264TIP3    H224734   8.225   7.416   5.065
 8265TIP3   OH224735   1.507   4.971   5.290
 8265TIP3    H124736   1.442   4.984   5.359
 8265TIP3    H224737   1.561   5.050   5.292
 8266TIP3   OH224738   6.229   4.670   0.510
 8266TIP3    H124739   6.234   4.615   0.588
 8266TIP3    H224740   6.249   4.758   0.541
 8267TIP3   OH224741   0.026   4.407   4.400
 8267TIP3    H124742  -0.052   4.354   4.412
 8267TIP3    H224743   0.097   4.355   4.437
 8268TIP3   OH224744   6.329   6.549   4.868
 8268TIP3    H124745   6.321   6.548   4.772
 8268TIP3    H224746   6.240   6.535   4.900
 8269TIP3   OH224747   6.892   1.012   1.151
 8269TIP3    H124748   6.813   1.033   1.202
 8269TIP3    H224749   6.912   1.093   1.103
 8270TIP3   OH224750   3.463   7.653   3.866
 8270TIP3    H124751   3.512   7.723   3.823
 8270TIP3    H224752   3.447   7.589   3.796
 8271TIP3   OH224753   3.728   4.646   4.598
 8271TIP3    H124754   3.739   4.718   4.661
 8271TIP3    H224755   3.658   4.676   4.540
 8272TIP3   OH224756   3.272   4.610   1.000
 8272TIP3    H124757   3.305   4.694   0.967
 8272TIP3    H224758   3.316   4.599   1.085
 8273TIP3   OH224759   1.435   1.393   4.516
 8273TIP3    H124760   1.427   1.382   4.421
 8273TIP3    H224761   1.405   1.482   4.532
 8274TIP3   OH224762   2.222   2.231   4.961
 8274TIP3    H124763   2.257   2.189   4.882
 8274TIP3    H224764   2.261   2.182   5.033
 8275TIP3   OH224765   7.508   4.562   2.109
 8275TIP3    H124766   7.462   4.592   2.187
 8275TIP3    H224767   7.566   4.635   2.086
 8276TIP3   OH224768   0.613   6.256   3.886
 8276TIP3    H124769   0.560   6.257   3.806
 8276TIP3    H224770   0.584   6.332   3.936
 8277TIP3   OH224771   2.348   3.208   1.247
 8277TIP3    H124772   2.256   3.202   1.272
 8277TIP3    H224773   2.360   3.143   1.179
 8278TIP3   OH224774   7.190   1.030   2.862
 8278TIP3    H124775   7.140   1.081   2.926
 8278TIP3    H224776   7.127   1.010   2.792
 8279TIP3   OH224777   2.776   3.886   4.559
 8279TIP3    H124778   2.719   3.900   4.483
 8279TIP3    H224779   2.785   3.791   4.564
 8280TIP3   OH224780   7.000   5.453   5.775
 8280TIP3    H124781   7.087   5.415   5.793
 8280TIP3    H224782   6.956   5.452   5.861
 8281TIP3   OH224783   3.541   3.994   3.637
 8281TIP3    H124784   3.543   4.068   3.576
 8281TIP3    H224785   3.454   3.956   3.627
 8282TIP3   OH224786   0.437   0.620   3.498
 8282TIP3    H124787   0.484   0.686   3.447
 8282TIP3    H224788   0.437   0.542   3.443
 8283TIP3   OH224789   3.824   7.620   0.153
 8283TIP3    H124790   3.781   7.680   0.092
 8283TIP3    H224791   3.807   7.656   0.240
 8284TIP3   OH224792   5.423   2.551   5.887
 8284TIP3    H124793   5.406   2.626   5.829
 8284TIP3    H224794   5.384   2.577   5.971
 8285TIP3   OH224795   1.738   0.139   3.476
 8285TIP3    H124796   1.764   0.052   3.448
 8285TIP3    H224797   1.704   0.127   3.565
 8286TIP3   OH224798   7.970   4.635   2.663
 8286TIP3    H124799   8.061   4.606   2.670
 8286TIP3    H224800   7.921   4.575   2.718
 8287TIP3   OH224801   2.328   6.425   2.566
 8287TIP3    H124802   2.249   6.474   2.542
 8287TIP3    H224803   2.357   6.464   2.648
 8288TIP3   OH224804   0.717   1.784   0.671
 8288TIP3    H124805   0.625   1.805   0.691
 8288TIP3    H224806   0.742   1.849   0.606
 8289TIP3   OH224807   1.709   7.413   4.603
 8289TIP3    H124808   1.659   7.331   4.608
 8289TIP3    H224809   1.790   7.395   4.651
 8290TIP3   OH224810   2.326   4.434   4.628
 8290TIP3    H124811   2.288   4.433   4.540
 8290TIP3    H224812   2.420   4.423   4.613
 8291TIP3   OH224813   4.709   3.645   2.144
 8291TIP3    H124814   4.697   3.604   2.059
 8291TIP3    H224815   4.650   3.721   2.142
 8292TIP3   OH224816   4.023   5.941   4.473
 8292TIP3    H124817   4.091   5.896   4.523
 8292TIP3    H224818   3.940   5.909   4.510
 8293TIP3   OH224819   7.795   2.583   2.473
 8293TIP3    H124820   7.741   2.597   2.551
 8293TIP3    H224821   7.752   2.511   2.426
 8294TIP3   OH224822   5.465   0.623   0.122
 8294TIP3    H124823   5.498   0.658   0.205
 8294TIP3    H224824   5.528   0.555   0.098
 8295TIP3   OH224825   2.706   1.446   6.298
 8295TIP3    H124826   2.793   1.430   6.261
 8295TIP3    H224827   2.660   1.497   6.232
 8296TIP3   OH224828   5.600   4.436   2.151
 8296TIP3    H124829   5.647   4.372   2.204
 8296TIP3    H224830   5.513   4.399   2.138
 8297TIP3   OH224831   0.826   3.219   0.211
 8297TIP3    H124832   0.829   3.314   0.199
 8297TIP3    H224833   0.790   3.207   0.299
 8298TIP3   OH224834   1.085   2.438   2.907
 8298TIP3    H124835   0.995   2.454   2.880
 8298TIP3    H224836   1.113   2.364   2.853
 8299TIP3   OH224837   5.593   3.294   4.850
 8299TIP3    H124838   5.648   3.371   4.866
 8299TIP3    H224839   5.647   3.220   4.879
 8300TIP3   OH224840   2.774   3.453   1.541
 8300TIP3    H124841   2.750   3.401   1.618
 8300TIP3    H224842   2.712   3.526   1.542
 8301TIP3   OH224843   3.004   7.391   6.376
 8301TIP3    H124844   2.999   7.485   6.390
 8301TIP3    H224845   2.919   7.358   6.403
 8302TIP3   OH224846   1.466   1.491   2.398
 8302TIP3    H124847   1.395   1.532   2.348
 8302TIP3    H224848   1.541   1.492   2.339
 8303TIP3   OH224849   4.070   3.738   3.068
 8303TIP3    H124850   4.000   3.744   3.133
 8303TIP3    H224851   4.048   3.806   3.003
 8304TIP3   OH224852   4.914   2.341   4.984
 8304TIP3    H124853   4.899   2.272   4.919
 8304TIP3    H224854   4.896   2.422   4.937
 8305TIP3   OH224855   7.414   1.535   1.199
 8305TIP3    H124856   7.506   1.560   1.200
 8305TIP3    H224857   7.392   1.521   1.291
 8306TIP3   OH224858   1.445   7.116   5.371
 8306TIP3    H124859   1.381   7.045   5.370
 8306TIP3    H224860   1.392   7.196   5.369
 8307TIP3   OH224861   5.102   4.582   3.411
 8307TIP3    H124862   5.143   4.514   3.464
 8307TIP3    H224863   5.134   4.566   3.322
 8308TIP3   OH224864   1.747   4.716   0.712
 8308TIP3    H124865   1.679   4.668   0.758
 8308TIP3    H224866   1.814   4.733   0.778
 8309TIP3   OH224867   5.260   7.387   0.045
 8309TIP3    H124868   5.297   7.475   0.042
 8309TIP3    H224869   5.297   7.348   0.125
 8310TIP3   OH224870   1.285   7.068   2.908
 8310TIP3    H124871   1.366   7.087   2.861
 8310TIP3    H224872   1.298   7.104   2.995
 8311TIP3   OH224873   1.473   0.513   2.431
 8311TIP3    H124874   1.382   0.493   2.450
 8311TIP3    H224875   1.469   0.581   2.364
 8312TIP3   OH224876   0.390   7.245   1.136
 8312TIP3    H124877   0.320   7.213   1.193
 8312TIP3    H224878   0.459   7.275   1.197
 8313TIP3   OH224879   8.190   6.983   0.731
 8313TIP3    H124880   8.220   7.042   0.801
 8313TIP3    H224881   8.258   6.916   0.726
 8314TIP3   OH224882   3.017   5.335   6.119
 8314TIP3    H124883   2.925   5.322   6.141
 8314TIP3    H224884   3.031   5.429   6.132
 8315TIP3   OH224885   5.332   2.188   6.201
 8315TIP3    H124886   5.311   2.125   6.270
 8315TIP3    H224887   5.363   2.134   6.128
 8316TIP3   OH224888   2.016   1.023   3.100
 8316TIP3    H124889   2.033   0.971   3.179
 8316TIP3    H224890   2.032   0.963   3.027
 8317TIP3   OH224891   4.431   6.456   1.942
 8317TIP3    H124892   4.477   6.372   1.938
 8317TIP3    H224893   4.342   6.433   1.968
 8318TIP3   OH224894   4.067   6.248   4.857
 8318TIP3    H124895   4.054   6.338   4.887
 8318TIP3    H224896   4.153   6.249   4.816
 8319TIP3   OH224897   1.295   1.753   2.991
 8319TIP3    H124898   1.368   1.693   2.974
 8319TIP3    H224899   1.278   1.744   3.085
 8320TIP3   OH224900   2.946   2.242   3.485
 8320TIP3    H124901   2.890   2.230   3.408
 8320TIP3    H224902   3.010   2.172   3.479
 8321TIP3   OH224903   1.070   2.070   4.134
 8321TIP3    H124904   1.087   2.101   4.045
 8321TIP3    H224905   1.016   1.992   4.122
 8322TIP3   OH224906   8.325   7.509   3.347
 8322TIP3    H124907   8.347   7.602   3.338
 8322TIP3    H224908   8.243   7.508   3.398
 8323TIP3   OH224909   7.492   3.428   0.834
 8323TIP3    H124910   7.465   3.505   0.783
 8323TIP3    H224911   7.583   3.447   0.859
 8324TIP3   OH224912   1.542   5.805   0.216
 8324TIP3    H124913   1.532   5.766   0.303
 8324TIP3    H224914   1.601   5.879   0.230
 8325TIP3   OH224915   8.392   0.668   6.471
 8325TIP3    H124916   8.373   0.758   6.446
 8325TIP3    H224917   8.403   0.621   6.389
 8326TIP3   OH224918   5.872   1.203   0.478
 8326TIP3    H124919   5.836   1.166   0.398
 8326TIP3    H224920   5.869   1.298   0.464
 8327TIP3   OH224921   4.482   0.966   1.799
 8327TIP3    H124922   4.475   0.992   1.891
 8327TIP3    H224923   4.453   0.874   1.798
 8328TIP3   OH224924   0.620   7.542   5.726
 8328TIP3    H124925   0.576   7.457   5.725
 8328TIP3    H224926   0.560   7.601   5.679
 8329TIP3   OH224927   0.229   5.378   2.882
 8329TIP3    H124928   0.192   5.387   2.794
 8329TIP3    H224929   0.185   5.446   2.933
 8330TIP3   OH224930   7.120   5.811   3.897
 8330TIP3    H124931   7.111   5.725   3.939
 8330TIP3    H224932   7.213   5.818   3.876
 8331TIP3   OH224933   7.660   2.760   4.971
 8331TIP3    H124934   7.566   2.758   4.959
 8331TIP3    H224935   7.684   2.852   4.965
 8332TIP3   OH224936   5.042   5.049   4.175
 8332TIP3    H124937   4.971   5.102   4.210
 8332TIP3    H224938   5.067   4.992   4.247
 8333TIP3   OH224939   2.186   6.112   4.031
 8333TIP3    H124940   2.118   6.051   4.002
 8333TIP3    H224941   2.141   6.175   4.087
 8334TIP3   OH224942   7.321   7.839   2.781
 8334TIP3    H124943   7.275   7.919   2.807
 8334TIP3    H224944   7.284   7.771   2.838
 8335TIP3   OH224945   7.756   4.070   4.549
 8335TIP3    H124946   7.697   4.062   4.625
 8335TIP3    H224947   7.818   4.138   4.574
 8336TIP3   OH224948   2.487   0.628   5.167
 8336TIP3    H124949   2.557   0.563   5.166
 8336TIP3    H224950   2.453   0.625   5.256
 8337TIP3   OH224951   0.265   6.573   3.225
 8337TIP3    H124952   0.302   6.485   3.227
 8337TIP3    H224953   0.226   6.581   3.137
 8338TIP3   OH224954   5.033   3.085   3.569
 8338TIP3    H124955   5.058   3.139   3.493
 8338TIP3    H224956   5.115   3.044   3.597
 8339TIP3   OH224957   7.167   1.974   5.094
 8339TIP3    H124958   7.170   2.047   5.156
 8339TIP3    H224959   7.075   1.948   5.092
 8340TIP3   OH224960   5.585   5.693   1.796
 8340TIP3    H124961   5.657   5.670   1.736
 8340TIP3    H224962   5.594   5.631   1.869
 8341TIP3   OH224963   6.804   0.239   1.413
 8341TIP3    H124964   6.807   0.144   1.399
 8341TIP3    H224965   6.894   0.268   1.399
 8342TIP3   OH224966   5.973   0.846   4.979
 8342TIP3    H124967   5.948   0.865   4.888
 8342TIP3    H224968   6.065   0.874   4.984
 8343TIP3   OH224969   8.368   7.760   4.283
 8343TIP3    H124970   8.393   7.762   4.191
 8343TIP3    H224971   8.279   7.796   4.284
 8344TIP3   OH224972   1.808   5.244   5.611
 8344TIP3    H124973   1.884   5.263   5.556
 8344TIP3    H224974   1.832   5.165   5.659
 8345TIP3   OH224975   4.546   2.284   3.605
 8345TIP3    H124976   4.491   2.243   3.672
 8345TIP3    H224977   4.600   2.346   3.654
 8346TIP3   OH224978   0.052   0.473   3.316
 8346TIP3    H124979  -0.028   0.491   3.364
 8346TIP3    H224980   0.121   0.520   3.364
 8347TIP3   OH224981   1.225   3.669   3.577
 8347TIP3    H124982   1.195   3.579   3.582
 8347TIP3    H224983   1.146   3.722   3.580
 8348TIP3   OH224984   6.688   5.625   3.550
 8348TIP3    H124985   6.710   5.560   3.616
 8348TIP3    H224986   6.749   5.609   3.479
 8349TIP3   OH224987   4.031   3.440   0.113
 8349TIP3    H124988   4.116   3.464   0.076
 8349TIP3    H224989   4.008   3.357   0.070
 8350TIP3   OH224990   2.031   6.487   2.579
 8350TIP3    H124991   1.978   6.510   2.503
 8350TIP3    H224992   2.067   6.570   2.609
 8351TIP3   OH224993   6.465   5.221   2.746
 8351TIP3    H124994   6.383   5.237   2.699
 8351TIP3    H224995   6.529   5.274   2.700
 8352TIP3   OH224996   6.714   0.812   6.487
 8352TIP3    H124997   6.629   0.770   6.481
 8352TIP3    H224998   6.697   0.895   6.532
 8353TIP3   OH224999   4.075   3.103   6.107
 8353TIP3    H125000   4.069   3.040   6.035
 8353TIP3    H225001   4.153   3.076   6.155
 8354TIP3   OH225002   7.890   0.542   1.872
 8354TIP3    H125003   7.822   0.526   1.938
 8354TIP3    H225004   7.843   0.576   1.796
 8355TIP3   OH225005   4.055   5.975   5.481
 8355TIP3    H125006   4.082   5.998   5.570
 8355TIP3    H225007   3.976   5.923   5.492
 8356TIP3   OH225008   2.543   5.743   1.620
 8356TIP3    H125009   2.546   5.678   1.690
 8356TIP3    H225010   2.579   5.823   1.659
 8357TIP3   OH225011   5.033   2.101   3.390
 8357TIP3    H125012   5.025   2.143   3.305
 8357TIP3    H225013   5.008   2.169   3.453
 8358TIP3   OH225014   2.761   0.989   1.437
 8358TIP3    H125015   2.797   1.072   1.406
 8358TIP3    H225016   2.701   0.961   1.368
 8359TIP3   OH225017   8.263   4.645   5.596
 8359TIP3    H125018   8.245   4.705   5.668
 8359TIP3    H225019   8.358   4.633   5.596
 8360TIP3   OH225020   1.683   6.472   3.828
 8360TIP3    H125021   1.728   6.551   3.859
 8360TIP3    H225022   1.668   6.488   3.735
 8361TIP3   OH225023   6.802   4.600   5.898
 8361TIP3    H125024   6.891   4.624   5.874
 8361TIP3    H225025   6.747   4.647   5.836
 8362TIP3   OH225026   1.959   2.310   0.308
 8362TIP3    H125027   1.866   2.318   0.288
 8362TIP3    H225028   1.997   2.271   0.229
 8363TIP3   OH225029   4.219   6.044   3.923
 8363TIP3    H125030   4.164   6.064   3.999
 8363TIP3    H225031   4.164   6.066   3.847
 8364TIP3   OH225032   4.830   1.940   1.262
 8364TIP3    H125033   4.903   1.951   1.201
 8364TIP3    H225034   4.863   1.976   1.344
 8365TIP3   OH225035   1.450   5.051   0.488
 8365TIP3    H125036   1.385   4.994   0.446
 8365TIP3    H225037   1.534   5.012   0.463
 8366TIP3   OH225038   5.164   4.904   4.395
 8366TIP3    H125039   5.082   4.857   4.384
 8366TIP3    H225040   5.231   4.842   4.366
 8367TIP3   OH225041   7.451   4.512   5.233
 8367TIP3    H125042   7.489   4.481   5.151
 8367TIP3    H225043   7.436   4.605   5.219
 8368TIP3   OH225044   6.558   5.909   0.891
 8368TIP3    H125045   6.615   5.876   0.960
 8368TIP3    H225046   6.617   5.947   0.826
 8369TIP3   OH225047   3.197   4.374   4.949
 8369TIP3    H125048   3.152   4.406   5.027
 8369TIP3    H225049   3.197   4.279   4.958
 8370TIP3   OH225050   1.475   2.336   2.763
 8370TIP3    H125051   1.570   2.349   2.758
 8370TIP3    H225052   1.457   2.330   2.857
 8371TIP3   OH225053   0.716   1.956   1.400
 8371TIP3    H125054   0.762   1.962   1.317
 8371TIP3    H225055   0.689   2.046   1.419
 8372TIP3   OH225056   4.381   1.191   1.682
 8372TIP3    H125057   4.427   1.124   1.733
 8372TIP3    H225058   4.442   1.263   1.675
 8373TIP3   OH225059   1.789   6.680   0.418
 8373TIP3    H125060   1.706   6.634   0.405
 8373TIP3    H225061   1.766   6.757   0.470
 8374TIP3   OH225062   2.274   3.708   0.706
 8374TIP3    H125063   2.314   3.629   0.742
 8374TIP3    H225064   2.185   3.708   0.742
 8375TIP3   OH225065   7.774   1.883   4.313
 8375TIP3    H125066   7.700   1.844   4.360
 8375TIP3    H225067   7.751   1.876   4.221
 8376TIP3   OH225068   0.364   5.292   5.522
 8376TIP3    H125069   0.398   5.234   5.454
 8376TIP3    H225070   0.290   5.337   5.481
 8377TIP3   OH225071   7.854   2.511   3.899
 8377TIP3    H125072   7.857   2.424   3.939
 8377TIP3    H225073   7.925   2.510   3.835
 8378TIP3   OH225074   0.605   1.658   4.792
 8378TIP3    H125075   0.519   1.675   4.754
 8378TIP3    H225076   0.659   1.732   4.763
 8379TIP3   OH225077   7.093   2.588   6.786
 8379TIP3    H125078   7.068   2.635   6.707
 8379TIP3    H225079   7.189   2.586   6.782
 8380TIP3   OH225080   7.057   1.013   6.641
 8380TIP3    H125081   7.067   0.937   6.583
 8380TIP3    H225082   7.116   1.079   6.606
 8381TIP3   OH225083   7.029   7.448   6.161
 8381TIP3    H125084   7.022   7.372   6.103
 8381TIP3    H225085   6.966   7.429   6.231
 8382TIP3   OH225086   5.197   0.033   6.549
 8382TIP3    H125087   5.261   0.101   6.565
 8382TIP3    H225088   5.125   0.077   6.505
 8383TIP3   OH225089   2.127   5.424   0.749
 8383TIP3    H125090   2.192   5.354   0.745
 8383TIP3    H225091   2.072   5.402   0.824
 8384TIP3   OH225092   6.844   7.201   4.005
 8384TIP3    H125093   6.827   7.139   4.076
 8384TIP3    H225094   6.791   7.277   4.026
 8385TIP3   OH225095   2.648   5.031   2.360
 8385TIP3    H125096   2.622   4.963   2.296
 8385TIP3    H225097   2.587   5.019   2.433
 8386TIP3   OH225098   4.064   1.696   4.031
 8386TIP3    H125099   4.139   1.714   4.088
 8386TIP3    H225100   4.060   1.772   3.973
 8387TIP3   OH225101   6.652   6.677   2.157
 8387TIP3    H125102   6.624   6.633   2.076
 8387TIP3    H225103   6.645   6.770   2.137
 8388TIP3   OH225104   5.861   0.680   4.060
 8388TIP3    H125105   5.826   0.661   3.973
 8388TIP3    H225106   5.904   0.599   4.087
 8389TIP3   OH225107   3.090   1.285   4.632
 8389TIP3    H125108   3.019   1.341   4.663
 8389TIP3    H225109   3.169   1.327   4.665
 8390TIP3   OH225110   4.075   7.561   2.611
 8390TIP3    H125111   4.134   7.631   2.639
 8390TIP3    H225112   3.992   7.580   2.656
 8391TIP3   OH225113   1.073   1.151   1.653
 8391TIP3    H125114   1.084   1.079   1.716
 8391TIP3    H225115   0.984   1.138   1.620
 8392TIP3   OH225116   3.044   3.729   6.834
 8392TIP3    H125117   3.136   3.724   6.858
 8392TIP3    H225118   3.042   3.793   6.762
 8393TIP3   OH225119   1.249   4.177   0.924
 8393TIP3    H125120   1.208   4.181   0.837
 8393TIP3    H225121   1.307   4.101   0.919
 8394TIP3   OH225122   2.077   4.164   4.979
 8394TIP3    H125123   2.116   4.107   4.913
 8394TIP3    H225124   2.152   4.191   5.033
 8395TIP3   OH225125   2.149   7.805   1.147
 8395TIP3    H125126   2.079   7.870   1.150
 8395TIP3    H225127   2.202   7.831   1.071
 8396TIP3   OH225128   6.559   6.744   3.528
 8396TIP3    H125129   6.626   6.765   3.594
 8396TIP3    H225130   6.603   6.756   3.444
 8397TIP3   OH225131   1.525   4.167   3.970
 8397TIP3    H125132   1.446   4.132   3.930
 8397TIP3    H225133   1.498   4.194   4.058
 8398TIP3   OH225134   4.412   3.383   4.294
 8398TIP3    H125135   4.502   3.354   4.309
 8398TIP3    H225136   4.397   3.369   4.201
 8399TIP3   OH225137   6.010   2.637   4.181
 8399TIP3    H125138   5.930   2.599   4.218
 8399TIP3    H225139   6.038   2.702   4.246
 8400TIP3   OH225140   6.311   4.713   3.637
 8400TIP3    H125141   6.367   4.708   3.559
 8400TIP3    H225142   6.372   4.706   3.710
 8401TIP3   OH225143   7.978   6.840   0.866
 8401TIP3    H125144   7.909   6.853   0.800
 8401TIP3    H225145   8.041   6.910   0.849
 8402TIP3   OH225146   1.570   5.688   0.459
 8402TIP3    H125147   1.494   5.634   0.482
 8402TIP3    H225148   1.601   5.724   0.542
 8403TIP3   OH225149   0.859   7.351   1.469
 8403TIP3    H125150   0.894   7.440   1.464
 8403TIP3    H225151   0.795   7.346   1.398
 8404TIP3   OH225152   1.408   2.822   3.714
 8404TIP3    H125153   1.338   2.851   3.772
 8404TIP3    H225154   1.432   2.735   3.747
 8405TIP3   OH225155   4.497   5.215   5.645
 8405TIP3    H125156   4.434   5.229   5.575
 8405TIP3    H225157   4.447   5.227   5.726
 8406TIP3   OH225158   3.756   2.535   0.008
 8406TIP3    H125159   3.826   2.486   0.050
 8406TIP3    H225160   3.688   2.470  -0.010
 8407TIP3   OH225161   7.047   6.609   5.002
 8407TIP3    H125162   7.100   6.557   4.942
 8407TIP3    H225163   6.972   6.553   5.023
 8408TIP3   OH225164   8.264   2.027   1.750
 8408TIP3    H125165   8.212   1.948   1.734
 8408TIP3    H225166   8.352   1.995   1.768
 8409TIP3   OH225167   0.599   4.113   4.411
 8409TIP3    H125168   0.574   4.198   4.375
 8409TIP3    H225169   0.560   4.112   4.498
 8410TIP3   OH225170   1.964   2.286   2.964
 8410TIP3    H125171   1.910   2.335   3.026
 8410TIP3    H225172   2.052   2.323   2.974
 8411TIP3   OH225173   6.338   1.474   3.053
 8411TIP3    H125174   6.288   1.393   3.060
 8411TIP3    H225175   6.365   1.494   3.142
 8412TIP3   OH225176   1.950   7.913   6.077
 8412TIP3    H125177   1.902   7.873   6.004
 8412TIP3    H225178   1.952   7.845   6.144
 8413TIP3   OH225179   6.614   6.140   0.292
 8413TIP3    H125180   6.693   6.163   0.342
 8413TIP3    H225181   6.596   6.217   0.238
 8414TIP3   OH225182   0.969   2.478   4.419
 8414TIP3    H125183   1.025   2.511   4.489
 8414TIP3    H225184   0.880   2.482   4.456
 8415TIP3   OH225185   1.037   4.149   5.478
 8415TIP3    H125186   1.065   4.105   5.558
 8415TIP3    H225187   1.082   4.233   5.479
 8416TIP3   OH225188   2.448   0.794   6.561
 8416TIP3    H125189   2.518   0.777   6.498
 8416TIP3    H225190   2.400   0.869   6.524
 8417TIP3   OH225191   3.807   0.998   0.591
 8417TIP3    H125192   3.723   0.954   0.595
 8417TIP3    H225193   3.788   1.082   0.549
 8418TIP3   OH225194   4.964   2.071   1.812
 8418TIP3    H125195   4.935   2.031   1.730
 8418TIP3    H225196   4.901   2.040   1.877
 8419TIP3   OH225197   7.733   1.677   1.663
 8419TIP3    H125198   7.775   1.601   1.622
 8419TIP3    H225199   7.644   1.647   1.682
 8420TIP3   OH225200   0.784   5.824   4.426
 8420TIP3    H125201   0.814   5.903   4.382
 8420TIP3    H225202   0.719   5.854   4.489
 8421TIP3   OH225203   6.640   7.227   0.441
 8421TIP3    H125204   6.645   7.204   0.348
 8421TIP3    H225205   6.731   7.237   0.468
 8422TIP3   OH225206   6.071   3.647   0.616
 8422TIP3    H125207   6.053   3.604   0.700
 8422TIP3    H225208   6.156   3.611   0.589
 8423TIP3   OH225209   3.424   0.563   3.460
 8423TIP3    H125210   3.363   0.503   3.417
 8423TIP3    H225211   3.421   0.537   3.552
 8424TIP3   OH225212   8.401   4.700   3.887
 8424TIP3    H125213   8.354   4.734   3.963
 8424TIP3    H225214   8.474   4.650   3.925
 8425TIP3   OH225215   6.545   6.174   2.555
 8425TIP3    H125216   6.502   6.097   2.592
 8425TIP3    H225217   6.591   6.142   2.478
 8426TIP3   OH225218   6.259   7.792   0.874
 8426TIP3    H125219   6.220   7.818   0.790
 8426TIP3    H225220   6.287   7.874   0.914
 8427TIP3   OH225221   1.231   6.389   1.640
 8427TIP3    H125222   1.294   6.451   1.602
 8427TIP3    H225223   1.275   6.304   1.632
 8428TIP3   OH225224   4.690   7.833   0.941
 8428TIP3    H125225   4.690   7.826   0.846
 8428TIP3    H225226   4.647   7.917   0.959
 8429TIP3   OH225227   7.154   0.553   3.471
 8429TIP3    H125228   7.207   0.585   3.544
 8429TIP3    H225229   7.196   0.471   3.445
 8430TIP3   OH225230   7.995   7.092   2.975
 8430TIP3    H125231   7.920   7.151   2.968
 8430TIP3    H225232   8.069   7.143   2.944
 8431TIP3   OH225233   8.005   3.190   2.926
 8431TIP3    H125234   8.092   3.226   2.944
 8431TIP3    H225235   7.964   3.181   3.012
 8432TIP3   OH225236   4.519   1.908   5.425
 8432TIP3    H125237   4.571   1.871   5.353
 8432TIP3    H225238   4.583   1.945   5.485
 8433TIP3   OH225239   0.174   1.558   0.136
 8433TIP3    H125240   0.109   1.501   0.093
 8433TIP3    H225241   0.129   1.642   0.146
 8434TIP3   OH225242   6.436   3.542   2.818
 8434TIP3    H125243   6.472   3.602   2.883
 8434TIP3    H225244   6.472   3.571   2.735
 8435TIP3   OH225245   1.280   3.349   6.168
 8435TIP3    H125246   1.283   3.331   6.074
 8435TIP3    H225247   1.194   3.390   6.182
 8436TIP3   OH225248   3.491   4.428   6.322
 8436TIP3    H125249   3.418   4.469   6.276
 8436TIP3    H225250   3.557   4.413   6.255
 8437TIP3   OH225251   5.648   4.968   0.074
 8437TIP3    H125252   5.580   4.948   0.009
 8437TIP3    H225253   5.631   5.058   0.100
 8438TIP3   OH225254   3.048   5.433   5.150
 8438TIP3    H125255   2.970   5.417   5.204
 8438TIP3    H225256   3.115   5.376   5.188
 8439TIP3   OH225257   7.639   7.712   5.882
 8439TIP3    H125258   7.620   7.798   5.919
 8439TIP3    H225259   7.564   7.658   5.907
 8440TIP3   OH225260   4.226   4.525   0.149
 8440TIP3    H125261   4.301   4.471   0.127
 8440TIP3    H225262   4.167   4.467   0.197
 8441TIP3   OH225263   3.569   4.228   3.118
 8441TIP3    H125264   3.521   4.296   3.071
 8441TIP3    H225265   3.606   4.272   3.195
 8442TIP3   OH225266   5.718   7.567   4.262
 8442TIP3    H125267   5.784   7.539   4.199
 8442TIP3    H225268   5.675   7.642   4.220
 8443TIP3   OH225269   7.263   4.084   6.448
 8443TIP3    H125270   7.208   4.132   6.387
 8443TIP3    H225271   7.318   4.029   6.393
 8444TIP3   OH225272   8.053   3.732   2.103
 8444TIP3    H125273   8.032   3.680   2.181
 8444TIP3    H225274   8.148   3.732   2.098
 8445TIP3   OH225275   8.241   2.679   5.502
 8445TIP3    H125276   8.328   2.670   5.464
 8445TIP3    H225277   8.198   2.594   5.485
 8446TIP3   OH225278   3.897   1.728   2.546
 8446TIP3    H125279   3.842   1.777   2.606
 8446TIP3    H225280   3.836   1.684   2.488
 8447TIP3   OH225281   0.344   6.031   0.362
 8447TIP3    H125282   0.414   6.094   0.347
 8447TIP3    H225283   0.275   6.057   0.300
 8448TIP3   OH225284   1.911   0.715   3.993
 8448TIP3    H125285   1.849   0.675   3.932
 8448TIP3    H225286   1.980   0.750   3.936
 8449TIP3   OH225287   8.222   4.529   3.279
 8449TIP3    H125288   8.276   4.606   3.296
 8449TIP3    H225289   8.141   4.564   3.241
 8450TIP3   OH225290   0.903   4.595   6.730
 8450TIP3    H125291   0.816   4.634   6.722
 8450TIP3    H225292   0.928   4.607   6.821
 8451TIP3   OH225293   5.747   6.397   2.071
 8451TIP3    H125294   5.780   6.480   2.104
 8451TIP3    H225295   5.660   6.418   2.035
 8452TIP3   OH225296   7.703   4.231   3.692
 8452TIP3    H125297   7.617   4.240   3.650
 8452TIP3    H225298   7.759   4.292   3.644
 8453TIP3   OH225299   5.866   4.708   0.345
 8453TIP3    H125300   5.807   4.763   0.397
 8453TIP3    H225301   5.872   4.753   0.261
 8454TIP3   OH225302   2.606   5.499   1.332
 8454TIP3    H125303   2.564   5.553   1.400
 8454TIP3    H225304   2.683   5.550   1.306
 8455TIP3   OH225305   4.994   4.870   5.397
 8455TIP3    H125306   5.079   4.910   5.377
 8455TIP3    H225307   4.932   4.919   5.343
 8456TIP3   OH225308   6.506   1.175   6.869
 8456TIP3    H125309   6.431   1.117   6.877
 8456TIP3    H225310   6.469   1.263   6.875
 8457TIP3   OH225311   0.339   2.901   4.267
 8457TIP3    H125312   0.295   2.864   4.190
 8457TIP3    H225313   0.273   2.958   4.307
 8458TIP3   OH225314   0.645   4.400   4.889
 8458TIP3    H125315   0.657   4.305   4.886
 8458TIP3    H225316   0.725   4.436   4.849
 8459TIP3   OH225317   0.229   4.588   2.744
 8459TIP3    H125318   0.301   4.526   2.741
 8459TIP3    H225319   0.212   4.609   2.652
 8460TIP3   OH225320   4.218   7.103   1.066
 8460TIP3    H125321   4.296   7.074   1.115
 8460TIP3    H225322   4.161   7.027   1.064
 8461TIP3   OH225323   2.183   0.477   1.341
 8461TIP3    H125324   2.248   0.420   1.299
 8461TIP3    H225325   2.135   0.419   1.400
 8462TIP3   OH225326   7.391   1.757   0.053
 8462TIP3    H125327   7.360   1.697  -0.015
 8462TIP3    H225328   7.319   1.818   0.066
 8463TIP3   OH225329   2.847   3.902  -0.026
 8463TIP3    H125330   2.818   3.943   0.056
 8463TIP3    H225331   2.942   3.902  -0.021
 8464TIP3   OH225332   5.331   6.354   2.611
 8464TIP3    H125333   5.356   6.275   2.659
 8464TIP3    H225334   5.381   6.349   2.530
 8465TIP3   OH225335   3.765   6.312   5.032
 8465TIP3    H125336   3.674   6.290   5.052
 8465TIP3    H225337   3.765   6.331   4.938
 8466TIP3   OH225338   1.784   1.545   2.769
 8466TIP3    H125339   1.816   1.473   2.824
 8466TIP3    H225340   1.751   1.610   2.832
 8467TIP3   OH225341   3.596   7.217   2.691
 8467TIP3    H125342   3.553   7.145   2.645
 8467TIP3    H225343   3.649   7.260   2.624
 8468TIP3   OH225344   7.788   7.879   1.926
 8468TIP3    H125345   7.777   7.816   1.997
 8468TIP3    H225346   7.736   7.955   1.953
 8469TIP3   OH225347   4.079   6.146   3.699
 8469TIP3    H125348   4.019   6.205   3.745
 8469TIP3    H225349   4.059   6.159   3.606
 8470TIP3   OH225350   5.492   2.336   0.855
 8470TIP3    H125351   5.421   2.369   0.910
 8470TIP3    H225352   5.492   2.393   0.779
 8471TIP3   OH225353   4.694   2.114   5.865
 8471TIP3    H125354   4.640   2.091   5.941
 8471TIP3    H225355   4.720   2.030   5.827
 8472TIP3   OH225356   6.165   2.018   4.675
 8472TIP3    H125357   6.187   2.001   4.767
 8472TIP3    H225358   6.238   2.071   4.643
 8473TIP3   OH225359   6.633   6.549   6.580
 8473TIP3    H125360   6.579   6.506   6.514
 8473TIP3    H225361   6.587   6.534   6.663
 8474TIP3   OH225362   5.647   2.685   3.808
 8474TIP3    H125363   5.620   2.777   3.814
 8474TIP3    H225364   5.699   2.680   3.728
 8475TIP3   OH225365   5.905   5.172   5.836
 8475TIP3    H125366   5.897   5.267   5.830
 8475TIP3    H225367   5.897   5.153   5.930
 8476TIP3   OH225368   2.316   5.318   1.063
 8476TIP3    H125369   2.302   5.225   1.046
 8476TIP3    H225370   2.229   5.357   1.055
 8477TIP3   OH225371   3.467   1.985   3.398
 8477TIP3    H125372   3.422   1.961   3.317
 8477TIP3    H225373   3.401   1.977   3.466
 8478TIP3   OH225374   8.302   0.168   2.344
 8478TIP3    H125375   8.310   0.095   2.283
 8478TIP3    H225376   8.242   0.229   2.301
 8479TIP3   OH225377   1.061   1.233   4.374
 8479TIP3    H125378   1.083   1.286   4.297
 8479TIP3    H225379   0.975   1.264   4.402
 8480TIP3   OH225380   7.641   3.054   6.253
 8480TIP3    H125381   7.593   2.990   6.201
 8480TIP3    H225382   7.685   3.003   6.321
 8481TIP3   OH225383   8.134   7.308   2.846
 8481TIP3    H125384   8.151   7.337   2.935
 8481TIP3    H225385   8.083   7.379   2.807
 8482TIP3   OH225386   0.347   7.182   3.758
 8482TIP3    H125387   0.332   7.126   3.681
 8482TIP3    H225388   0.300   7.139   3.829
 8483TIP3   OH225389   3.020   2.521   6.339
 8483TIP3    H125390   3.027   2.609   6.376
 8483TIP3    H225391   3.094   2.514   6.279
 8484TIP3   OH225392   8.165   2.806   3.708
 8484TIP3    H125393   8.225   2.880   3.711
 8484TIP3    H225394   8.219   2.730   3.726
 8485TIP3   OH225395   0.771   7.422   4.433
 8485TIP3    H125396   0.700   7.359   4.449
 8485TIP3    H225397   0.776   7.473   4.514
 8486TIP3   OH225398   1.394   3.943   1.659
 8486TIP3    H125399   1.338   3.984   1.725
 8486TIP3    H225400   1.347   3.956   1.576
 8487TIP3   OH225401   4.944   4.412   5.044
 8487TIP3    H125402   4.994   4.466   4.983
 8487TIP3    H225403   4.898   4.475   5.099
 8488TIP3   OH225404   5.764   1.976   0.083
 8488TIP3    H125405   5.840   1.953   0.136
 8488TIP3    H225406   5.758   1.907   0.017
 8489TIP3   OH225407   3.289   4.804   6.288
 8489TIP3    H125408   3.275   4.898   6.291
 8489TIP3    H225409   3.356   4.787   6.354
 8490TIP3   OH225410   0.562   1.462   3.413
 8490TIP3    H125411   0.644   1.421   3.440
 8490TIP3    H225412   0.529   1.505   3.492
 8491TIP3   OH225413   7.260   0.403   1.139
 8491TIP3    H125414   7.198   0.395   1.066
 8491TIP3    H225415   7.235   0.333   1.199
 8492TIP3   OH225416   5.137   4.939   4.675
 8492TIP3    H125417   5.226   4.969   4.692
 8492TIP3    H225418   5.137   4.916   4.582
 8493TIP3   OH225419   1.852   5.189   0.165
 8493TIP3    H125420   1.834   5.224   0.253
 8493TIP3    H225421   1.928   5.132   0.177
 8494TIP3   OH225422   6.450   6.037   0.487
 8494TIP3    H125423   6.516   6.032   0.418
 8494TIP3    H225424   6.479   5.973   0.553
 8495TIP3   OH225425   0.553   4.839   1.113
 8495TIP3    H125426   0.557   4.934   1.119
 8495TIP3    H225427   0.523   4.821   1.024
 8496TIP3   OH225428   1.124   4.063   2.670
 8496TIP3    H125429   1.146   4.129   2.604
 8496TIP3    H225430   1.206   4.017   2.687
 8497TIP3   OH225431   5.178   4.724   0.364
 8497TIP3    H125432   5.209   4.659   0.427
 8497TIP3    H225433   5.144   4.672   0.291
 8498TIP3   OH225434   5.918   3.662   0.351
 8498TIP3    H125435   5.937   3.664   0.445
 8498TIP3    H225436   5.936   3.751   0.321
 8499TIP3   OH225437   7.249   5.471   4.554
 8499TIP3    H125438   7.288   5.389   4.523
 8499TIP3    H225439   7.323   5.530   4.566
 8500TIP3   OH225440   0.793   5.745   5.687
 8500TIP3    H125441   0.710   5.793   5.677
 8500TIP3    H225442   0.803   5.733   5.781
 8501TIP3   OH225443   2.452   6.325   4.122
 8501TIP3    H125444   2.362   6.301   4.099
 8501TIP3    H225445   2.469   6.276   4.202
 8502TIP3   OH225446   1.579   2.474   6.375
 8502TIP3    H125447   1.513   2.421   6.421
 8502TIP3    H225448   1.606   2.540   6.439
 8503TIP3   OH225449   5.550   0.786   0.364
 8503TIP3    H125450   5.534   0.880   0.356
 8503TIP3    H225451   5.474   0.752   0.412
 8504TIP3   OH225452   8.305   2.674   6.795
 8504TIP3    H125453   8.233   2.713   6.845
 8504TIP3    H225454   8.383   2.693   6.847
 8505TIP3   OH225455   3.295   6.429   2.775
 8505TIP3    H125456   3.241   6.434   2.696
 8505TIP3    H225457   3.337   6.515   2.781
 8506TIP3   OH225458   1.485   0.722   0.726
 8506TIP3    H125459   1.491   0.787   0.796
 8506TIP3    H225460   1.483   0.638   0.771
 8507TIP3   OH225461   5.982   2.120   4.079
 8507TIP3    H125462   5.940   2.098   4.163
 8507TIP3    H225463   5.915   2.102   4.013
 8508TIP3   OH225464   5.698   7.797   6.189
 8508TIP3    H125465   5.716   7.814   6.097
 8508TIP3    H225466   5.603   7.782   6.192
 8509TIP3   OH225467   1.524   2.744   2.490
 8509TIP3    H125468   1.504   2.836   2.503
 8509TIP3    H225469   1.501   2.702   2.573
 8510TIP3   OH225470   4.929   7.733   2.586
 8510TIP3    H125471   4.885   7.663   2.539
 8510TIP3    H225472   5.004   7.756   2.531
 8511TIP3   OH225473   0.661   0.177   6.542
 8511TIP3    H125474   0.656   0.088   6.578
 8511TIP3    H225475   0.735   0.217   6.588
 8512TIP3   OH225476   3.928   0.397   1.480
 8512TIP3    H125477   4.006   0.393   1.425
 8512TIP3    H225478   3.870   0.459   1.435
 8513TIP3   OH225479   1.976   1.011   2.170
 8513TIP3    H125480   1.960   1.037   2.260
 8513TIP3    H225481   2.072   1.009   2.162
 8514TIP3   OH225482   4.103   0.831   0.609
 8514TIP3    H125483   4.122   0.901   0.547
 8514TIP3    H225484   4.038   0.777   0.564
 8515TIP3   OH225485   5.165   4.587   5.727
 8515TIP3    H125486   5.102   4.577   5.798
 8515TIP3    H225487   5.250   4.572   5.768
 8516TIP3   OH225488   3.673   4.901   4.747
 8516TIP3    H125489   3.633   4.869   4.828
 8516TIP3    H225490   3.724   4.977   4.774
 8517TIP3   OH225491   3.606   4.628   0.002
 8517TIP3    H125492   3.685   4.678   0.021
 8517TIP3    H225493   3.585   4.648  -0.089
 8518TIP3   OH225494   0.958   5.439   5.961
 8518TIP3    H125495   0.986   5.400   5.879
 8518TIP3    H225496   0.890   5.379   5.994
 8519TIP3   OH225497   0.649   1.983   6.456
 8519TIP3    H125498   0.612   1.950   6.375
 8519TIP3    H225499   0.575   1.986   6.517
 8520TIP3   OH225500   0.972   1.429   2.174
 8520TIP3    H125501   1.051   1.382   2.201
 8520TIP3    H225502   0.975   1.429   2.079
 8521TIP3   OH225503   8.055   2.493   1.557
 8521TIP3    H125504   8.087   2.414   1.515
 8521TIP3    H225505   8.049   2.557   1.486
 8522TIP3   OH225506   7.213   3.413   5.928
 8522TIP3    H125507   7.290   3.406   5.872
 8522TIP3    H225508   7.240   3.469   6.000
 8523TIP3   OH225509   2.838   7.395   0.121
 8523TIP3    H125510   2.878   7.311   0.101
 8523TIP3    H225511   2.841   7.443   0.038
 8524TIP3   OH225512   0.256   2.676   3.573
 8524TIP3    H125513   0.344   2.640   3.584
 8524TIP3    H225514   0.259   2.723   3.490
 8525TIP3   OH225515   8.407   1.135   4.348
 8525TIP3    H125516   8.444   1.050   4.374
 8525TIP3    H225517   8.371   1.171   4.429
 8526TIP3   OH225518   7.726   7.363   1.270
 8526TIP3    H125519   7.676   7.374   1.351
 8526TIP3    H225520   7.691   7.430   1.211
 8527TIP3   OH225521   8.189   5.447   3.693
 8527TIP3    H125522   8.129   5.486   3.630
 8527TIP3    H225523   8.147   5.365   3.719
 8528TIP3   OH225524   8.062   6.014   3.011
 8528TIP3    H125525   7.981   5.967   3.030
 8528TIP3    H225526   8.128   5.972   3.066
 8529TIP3   OH225527   1.321   3.602   5.305
 8529TIP3    H125528   1.373   3.571   5.379
 8529TIP3    H225529   1.316   3.526   5.246
 8530TIP3   OH225530   3.878   4.013   6.028
 8530TIP3    H125531   3.886   3.927   5.987
 8530TIP3    H225532   3.792   4.045   6.001
 8531TIP3   OH225533   7.276   5.517   6.457
 8531TIP3    H125534   7.195   5.468   6.442
 8531TIP3    H225535   7.345   5.454   6.436
 8532TIP3   OH225536   5.399   1.514   1.066
 8532TIP3    H125537   5.467   1.484   1.006
 8532TIP3    H225538   5.317   1.483   1.027
 8533TIP3   OH225539   6.777   2.013   1.419
 8533TIP3    H125540   6.707   2.043   1.362
 8533TIP3    H225541   6.766   1.918   1.423
 8534TIP3   OH225542   2.766   4.837   3.089
 8534TIP3    H125543   2.756   4.752   3.047
 8534TIP3    H225544   2.682   4.881   3.073
 8535TIP3   OH225545   1.544   0.559   0.416
 8535TIP3    H125546   1.535   0.648   0.450
 8535TIP3    H225547   1.586   0.511   0.486
 8536TIP3   OH225548   4.690   0.210   5.596
 8536TIP3    H125549   4.648   0.157   5.663
 8536TIP3    H225550   4.708   0.149   5.525
 8537TIP3   OH225551   7.459   3.294   0.338
 8537TIP3    H125552   7.530   3.231   0.334
 8537TIP3    H225553   7.501   3.377   0.360
 8538TIP3   OH225554   7.328   2.331   2.010
 8538TIP3    H125555   7.254   2.389   1.990
 8538TIP3    H225556   7.400   2.391   2.030
 8539TIP3   OH225557   3.608   4.957   2.632
 8539TIP3    H125558   3.590   4.976   2.724
 8539TIP3    H225559   3.550   5.016   2.584
 8540TIP3   OH225560   3.271   5.310   5.282
 8540TIP3    H125561   3.358   5.339   5.254
 8540TIP3    H225562   3.275   5.215   5.280
 8541TIP3   OH225563   5.367   1.159   3.016
 8541TIP3    H125564   5.433   1.160   2.947
 8541TIP3    H225565   5.411   1.197   3.092
 8542TIP3   OH225566   3.500   7.708   1.816
 8542TIP3    H125567   3.541   7.781   1.862
 8542TIP3    H225568   3.525   7.631   1.868
 8543TIP3   OH225569   0.147   0.072   1.611
 8543TIP3    H125570   0.099   0.045   1.533
 8543TIP3    H225571   0.239   0.071   1.584
 8544TIP3   OH225572   2.185   4.186   5.832
 8544TIP3    H125573   2.276   4.157   5.822
 8544TIP3    H225574   2.149   4.128   5.898
 8545TIP3   OH225575   3.919   2.539   1.508
 8545TIP3    H125576   3.950   2.456   1.472
 8545TIP3    H225577   4.000   2.588   1.526
 8546TIP3   OH225578   3.264   6.035   3.853
 8546TIP3    H125579   3.352   6.070   3.837
 8546TIP3    H225580   3.273   5.984   3.934
 8547TIP3   OH225581   7.097   6.148   3.135
 8547TIP3    H125582   7.019   6.106   3.170
 8547TIP3    H225583   7.169   6.089   3.158
 8548TIP3   OH225584   5.615   5.683   6.805
 8548TIP3    H125585   5.531   5.693   6.759
 8548TIP3    H225586   5.678   5.730   6.749
 8549TIP3   OH225587  -0.024   5.296   1.052
 8549TIP3    H125588   0.039   5.360   1.083
 8549TIP3    H225589  -0.077   5.343   0.987
 8550TIP3   OH225590   4.391   5.191   1.685
 8550TIP3    H125591   4.331   5.207   1.613
 8550TIP3    H225592   4.462   5.254   1.671
 8551TIP3   OH225593   3.892   2.888   0.264
 8551TIP3    H125594   3.933   2.842   0.336
 8551TIP3    H225595   3.799   2.866   0.271
 8552TIP3   OH225596   3.010   4.601   2.547
 8552TIP3    H125597   3.042   4.571   2.461
 8552TIP3    H225598   3.031   4.529   2.606
 8553TIP3   OH225599   7.138   0.363   2.522
 8553TIP3    H125600   7.046   0.384   2.541
 8553TIP3    H225601   7.145   0.371   2.427
 8554TIP3   OH225602   2.897   2.608   0.847
 8554TIP3    H125603   2.826   2.670   0.830
 8554TIP3    H225604   2.964   2.630   0.782
 8555TIP3   OH225605   6.752  -0.021   2.185
 8555TIP3    H125606   6.832   0.001   2.233
 8555TIP3    H225607   6.721   0.062   2.150
 8556TIP3   OH225608   1.221   3.400   2.690
 8556TIP3    H125609   1.200   3.366   2.604
 8556TIP3    H225610   1.182   3.487   2.693
 8557TIP3   OH225611   7.227   3.294   3.299
 8557TIP3    H125612   7.266   3.270   3.383
 8557TIP3    H225613   7.277   3.372   3.271
 8558TIP3   OH225614   4.585   1.200   4.605
 8558TIP3    H125615   4.631   1.117   4.618
 8558TIP3    H225616   4.639   1.264   4.653
 8559TIP3   OH225617   3.984   3.618   4.054
 8559TIP3    H125618   3.992   3.526   4.026
 8559TIP3    H225619   4.005   3.617   4.147
 8560TIP3   OH225620   0.239   1.833   0.865
 8560TIP3    H125621   0.247   1.788   0.949
 8560TIP3    H225622   0.313   1.801   0.813
 8561TIP3   OH225623   8.305   7.026   6.336
 8561TIP3    H125624   8.378   7.008   6.275
 8561TIP3    H225625   8.233   7.052   6.279
 8562TIP3   OH225626   2.253   2.192   3.778
 8562TIP3    H125627   2.268   2.127   3.709
 8562TIP3    H225628   2.161   2.184   3.800
 8563TIP3   OH225629   4.929   7.192   3.249
 8563TIP3    H125630   4.931   7.218   3.341
 8563TIP3    H225631   5.018   7.208   3.217
 8564TIP3   OH225632   7.736   3.870   4.823
 8564TIP3    H125633   7.725   3.780   4.851
 8564TIP3    H225634   7.686   3.922   4.886
 8565TIP3   OH225635   7.404   1.609   5.424
 8565TIP3    H125636   7.495   1.579   5.422
 8565TIP3    H225637   7.392   1.642   5.513
 8566TIP3   OH225638   7.752   7.019   1.706
 8566TIP3    H125639   7.793   7.029   1.620
 8566TIP3    H225640   7.824   6.996   1.764
 8567TIP3   OH225641   1.802   0.396   1.948
 8567TIP3    H125642   1.782   0.428   2.036
 8567TIP3    H225643   1.867   0.458   1.914
 8568TIP3   OH225644   0.319   5.393   0.527
 8568TIP3    H125645   0.410   5.408   0.502
 8568TIP3    H225646   0.282   5.481   0.540
 8569TIP3   OH225647   0.864   4.388   5.223
 8569TIP3    H125648   0.831   4.421   5.306
 8569TIP3    H225649   0.928   4.453   5.194
 8570TIP3   OH225650   5.508   5.709   4.544
 8570TIP3    H125651   5.577   5.644   4.561
 8570TIP3    H225652   5.431   5.656   4.523
 8571TIP3   OH225653   7.748   7.370   3.871
 8571TIP3    H125654   7.739   7.447   3.927
 8571TIP3    H225655   7.663   7.325   3.879
 8572TIP3   OH225656   0.432   6.866   2.678
 8572TIP3    H125657   0.400   6.776   2.684
 8572TIP3    H225658   0.363   6.918   2.718
 8573TIP3   OH225659   0.569   3.527   0.276
 8573TIP3    H125660   0.526   3.567   0.352
 8573TIP3    H225661   0.569   3.433   0.295
 8574TIP3   OH225662   6.346   1.897   4.146
 8574TIP3    H125663   6.306   1.983   4.161
 8574TIP3    H225664   6.386   1.904   4.060
 8575TIP3   OH225665   2.402   4.176   5.077
 8575TIP3    H125666   2.490   4.188   5.041
 8575TIP3    H225667   2.409   4.205   5.168
 8576TIP3   OH225668   4.989   4.282   0.973
 8576TIP3    H125669   5.000   4.363   1.023
 8576TIP3    H225670   4.962   4.218   1.038
 8577TIP3   OH225671   0.836   1.195   3.234
 8577TIP3    H125672   0.847   1.213   3.141
 8577TIP3    H225673   0.925   1.174   3.265
 8578TIP3   OH225674   3.489   5.644   3.054
 8578TIP3    H125675   3.425   5.715   3.048
 8578TIP3    H225676   3.569   5.680   3.014
 8579TIP3   OH225677   7.050   3.726   5.642
 8579TIP3    H125678   7.118   3.741   5.708
 8579TIP3    H225679   7.079   3.647   5.596
 8580TIP3   OH225680   3.998   4.184   3.750
 8580TIP3    H125681   3.980   4.095   3.780
 8580TIP3    H225682   3.912   4.226   3.746
 8581TIP3   OH225683   6.305   6.214   0.265
 8581TIP3    H125684   6.374   6.165   0.310
 8581TIP3    H225685   6.340   6.227   0.176
 8582TIP3   OH225686   6.641   4.868   1.885
 8582TIP3    H125687   6.563   4.922   1.869
 8582TIP3    H225688   6.684   4.911   1.960
 8583TIP3   OH225689   4.343   3.107   3.168
 8583TIP3    H125690   4.359   3.044   3.240
 8583TIP3    H225691   4.351   3.054   3.089
 8584TIP3   OH225692   3.710   6.765   0.914
 8584TIP3    H125693   3.713   6.789   0.822
 8584TIP3    H225694   3.713   6.670   0.915
 8585TIP3   OH225695   6.345   7.373   3.809
 8585TIP3    H125696   6.433   7.364   3.845
 8585TIP3    H225697   6.286   7.359   3.883
 8586TIP3   OH225698   8.263   7.862   4.034
 8586TIP3    H125699   8.180   7.868   3.987
 8586TIP3    H225700   8.327   7.837   3.968
 8587TIP3   OH225701   4.957   3.216   6.345
 8587TIP3    H125702   5.001   3.196   6.262
 8587TIP3    H225703   4.936   3.309   6.339
 8588TIP3   OH225704   6.772   7.442   6.625
 8588TIP3    H125705   6.734   7.529   6.631
 8588TIP3    H225706   6.704   7.383   6.657
 8589TIP3   OH225707   7.736   1.869   0.758
 8589TIP3    H125708   7.699   1.810   0.823
 8589TIP3    H225709   7.742   1.953   0.803
 8590TIP3   OH225710   5.025   2.356   6.358
 8590TIP3    H125711   4.936   2.340   6.327
 8590TIP3    H225712   5.044   2.446   6.332
 8591TIP3   OH225713   0.166   0.175   2.200
 8591TIP3    H125714   0.169   0.266   2.168
 8591TIP3    H225715   0.118   0.181   2.283
 8592TIP3   OH225716   4.392   2.706   5.410
 8592TIP3    H125717   4.384   2.799   5.431
 8592TIP3    H225718   4.346   2.661   5.481
 8593TIP3   OH225719   2.870   0.678   3.090
 8593TIP3    H125720   2.959   0.701   3.064
 8593TIP3    H225721   2.877   0.588   3.124
 8594TIP3   OH225722   5.321   0.009   4.161
 8594TIP3    H125723   5.283   0.096   4.171
 8594TIP3    H225724   5.415   0.022   4.173
 8595TIP3   OH225725   4.563   1.522   1.197
 8595TIP3    H125726   4.610   1.479   1.268
 8595TIP3    H225727   4.627   1.527   1.126
 8596TIP3   OH225728   7.908   2.775   3.844
 8596TIP3    H125729   7.895   2.694   3.893
 8596TIP3    H225730   7.995   2.767   3.806
 8597TIP3   OH225731   0.869   5.427   4.010
 8597TIP3    H125732   0.932   5.446   4.080
 8597TIP3    H225733   0.863   5.509   3.961
 8598TIP3   OH225734   4.016   2.443   2.261
 8598TIP3    H125735   3.944   2.439   2.323
 8598TIP3    H225736   4.084   2.494   2.306
 8599TIP3   OH225737   5.664   3.489   2.002
 8599TIP3    H125738   5.598   3.556   1.980
 8599TIP3    H225739   5.683   3.505   2.094
 8600TIP3   OH225740   1.591   1.189   0.641
 8600TIP3    H125741   1.549   1.135   0.707
 8600TIP3    H225742   1.580   1.279   0.671
 8601TIP3   OH225743   1.628   3.333   3.219
 8601TIP3    H125744   1.715   3.314   3.185
 8601TIP3    H225745   1.618   3.272   3.293
 8602TIP3   OH225746   6.787   0.309   3.038
 8602TIP3    H125747   6.711   0.367   3.029
 8602TIP3    H225748   6.762   0.248   3.107
 8603TIP3   OH225749   1.013   2.673   0.670
 8603TIP3    H125750   1.052   2.759   0.688
 8603TIP3    H225751   1.007   2.669   0.575
 8604TIP3   OH225752   5.734   7.177   4.565
 8604TIP3    H125753   5.743   7.272   4.565
 8604TIP3    H225754   5.812   7.145   4.609
 8605TIP3   OH225755   6.085   4.948   5.280
 8605TIP3    H125756   6.080   4.852   5.285
 8605TIP3    H225757   6.134   4.973   5.359
 8606TIP3   OH225758   4.715   1.191   1.524
 8606TIP3    H125759   4.704   1.285   1.541
 8606TIP3    H225760   4.636   1.165   1.477
 8607TIP3   OH225761   2.020   2.194   3.949
 8607TIP3    H125762   1.977   2.225   4.029
 8607TIP3    H225763   2.110   2.175   3.976
 8608TIP3   OH225764   7.156   4.069   5.403
 8608TIP3    H125765   7.110   4.089   5.484
 8608TIP3    H225766   7.240   4.033   5.431
 8609TIP3   OH225767   2.414   1.511   6.156
 8609TIP3    H125768   2.498   1.550   6.134
 8609TIP3    H225769   2.399   1.446   6.088
 8610TIP3   OH225770   4.439   5.010   2.392
 8610TIP3    H125771   4.361   5.049   2.432
 8610TIP3    H225772   4.513   5.049   2.439
 8611TIP3   OH225773   5.784   4.002   0.563
 8611TIP3    H125774   5.807   4.008   0.470
 8611TIP3    H225775   5.865   4.024   0.609
 8612TIP3   OH225776   0.765   5.289   6.068
 8612TIP3    H125777   0.718   5.211   6.038
 8612TIP3    H225778   0.705   5.331   6.129
 8613TIP3   OH225779   2.976   7.647   3.150
 8613TIP3    H125780   2.956   7.596   3.071
 8613TIP3    H225781   2.999   7.734   3.117
 8614TIP3   OH225782   3.335   6.339   5.137
 8614TIP3    H125783   3.287   6.417   5.163
 8614TIP3    H225784   3.304   6.318   5.049
 8615TIP3   OH225785   1.387   6.992   6.104
 8615TIP3    H125786   1.371   7.016   6.196
 8615TIP3    H225787   1.317   6.929   6.084
 8616TIP3   OH225788   4.555   5.407   2.488
 8616TIP3    H125789   4.541   5.477   2.552
 8616TIP3    H225790   4.467   5.376   2.467
 8617TIP3   OH225791   8.321   5.018   1.166
 8617TIP3    H125792   8.356   5.086   1.108
 8617TIP3    H225793   8.287   5.066   1.242
 8618TIP3   OH225794   1.482   1.299   1.644
 8618TIP3    H125795   1.535   1.372   1.612
 8618TIP3    H225796   1.464   1.246   1.567
 8619TIP3   OH225797   2.693   0.619   3.861
 8619TIP3    H125798   2.729   0.646   3.945
 8619TIP3    H225799   2.674   0.701   3.815
 8620TIP3   OH225800   3.585   3.265   5.157
 8620TIP3    H125801   3.590   3.353   5.194
 8620TIP3    H225802   3.542   3.213   5.224
 8621TIP3   OH225803   1.146   5.977   0.384
 8621TIP3    H125804   1.219   6.030   0.353
 8621TIP3    H225805   1.119   6.017   0.466
 8622TIP3   OH225806   5.689   7.389   5.208
 8622TIP3    H125807   5.635   7.385   5.130
 8622TIP3    H225808   5.725   7.301   5.217
 8623TIP3   OH225809   0.506   3.904   6.329
 8623TIP3    H125810   0.521   3.998   6.327
 8623TIP3    H225811   0.442   3.892   6.400
 8624TIP3   OH225812   2.700   4.398   5.158
 8624TIP3    H125813   2.683   4.453   5.081
 8624TIP3    H225814   2.613   4.382   5.195
 8625TIP3   OH225815   3.235   0.228   4.488
 8625TIP3    H125816   3.150   0.241   4.529
 8625TIP3    H225817   3.215   0.214   4.395
 8626TIP3   OH225818   7.893   0.685   3.984
 8626TIP3    H125819   7.849   0.714   3.904
 8626TIP3    H225820   7.822   0.660   4.043
 8627TIP3   OH225821   6.367   3.739   4.139
 8627TIP3    H125822   6.379   3.754   4.045
 8627TIP3    H225823   6.274   3.754   4.154
 8628TIP3   OH225824   3.874   6.496   0.955
 8628TIP3    H125825   3.887   6.559   1.025
 8628TIP3    H225826   3.872   6.410   0.998
 8629TIP3   OH225827   2.210   5.043   4.073
 8629TIP3    H125828   2.184   5.065   3.983
 8629TIP3    H225829   2.140   4.985   4.104
 8630TIP3   OH225830   2.229   5.186   0.641
 8630TIP3    H125831   2.147   5.223   0.610
 8630TIP3    H225832   2.296   5.248   0.612
 8631TIP3   OH225833   0.013   7.713   6.571
 8631TIP3    H125834  -0.081   7.729   6.559
 8631TIP3    H225835   0.020   7.618   6.583
 8632TIP3   OH225836   5.627   5.648   5.172
 8632TIP3    H125837   5.558   5.599   5.216
 8632TIP3    H225838   5.659   5.710   5.238
 8633TIP3   OH225839   4.191   5.074   3.856
 8633TIP3    H125840   4.271   5.028   3.830
 8633TIP3    H225841   4.134   5.005   3.891
 8634TIP3   OH225842   3.473   1.776   5.783
 8634TIP3    H125843   3.465   1.869   5.762
 8634TIP3    H225844   3.389   1.738   5.755
 8635TIP3   OH225845   1.352   7.221   4.983
 8635TIP3    H125846   1.430   7.244   5.032
 8635TIP3    H225847   1.341   7.127   4.998
 8636TIP3   OH225848   7.228   3.632   3.573
 8636TIP3    H125849   7.246   3.655   3.482
 8636TIP3    H225850   7.284   3.555   3.590
 8637TIP3   OH225851   8.143   6.314   2.070
 8637TIP3    H125852   8.104   6.361   2.144
 8637TIP3    H225853   8.149   6.223   2.099
 8638TIP3   OH225854   6.134   1.120   5.293
 8638TIP3    H125855   6.042   1.116   5.268
 8638TIP3    H225856   6.153   1.214   5.303
 8639TIP3   OH225857   6.089   6.824   4.608
 8639TIP3    H125858   6.096   6.870   4.524
 8639TIP3    H225859   5.998   6.836   4.634
 8640TIP3   OH225860   7.579   6.677   2.948
 8640TIP3    H125861   7.500   6.655   2.998
 8640TIP3    H225862   7.640   6.606   2.967
 8641TIP3   OH225863   1.565   1.885   1.602
 8641TIP3    H125864   1.509   1.864   1.678
 8641TIP3    H225865   1.517   1.848   1.527
 8642TIP3   OH225866   1.840   0.882   1.795
 8642TIP3    H125867   1.772   0.939   1.830
 8642TIP3    H225868   1.869   0.830   1.871
 8643TIP3   OH225869   0.017   1.002   2.304
 8643TIP3    H125870  -0.001   1.066   2.373
 8643TIP3    H225871   0.099   0.960   2.332
 8644TIP3   OH225872   2.182   4.167   1.375
 8644TIP3    H125873   2.237   4.180   1.452
 8644TIP3    H225874   2.241   4.182   1.300
 8645TIP3   OH225875   2.725   1.976   4.346
 8645TIP3    H125876   2.664   1.992   4.274
 8645TIP3    H225877   2.809   2.008   4.313
 8646TIP3   OH225878   7.796   0.957   2.412
 8646TIP3    H125879   7.701   0.968   2.412
 8646TIP3    H225880   7.811   0.881   2.357
 8647TIP3   OH225881   5.845   3.166   2.636
 8647TIP3    H125882   5.912   3.195   2.698
 8647TIP3    H225883   5.843   3.235   2.570
 8648TIP3   OH225884   4.874   6.351   4.649
 8648TIP3    H125885   4.869   6.416   4.579
 8648TIP3    H225886   4.840   6.396   4.726
 8649TIP3   OH225887   3.920   0.014   6.021
 8649TIP3    H125888   3.848   0.076   6.029
 8649TIP3    H225889   3.986   0.060   5.969
 8650TIP3   OH225890   7.245   0.472   4.109
 8650TIP3    H125891   7.310   0.503   4.046
 8650TIP3    H225892   7.296   0.458   4.189
 8651TIP3   OH225893   0.198   1.466   1.866
 8651TIP3    H125894   0.115   1.501   1.897
 8651TIP3    H225895   0.260   1.484   1.937
 8652TIP3   OH225896   7.616   5.703   3.022
 8652TIP3    H125897   7.602   5.772   2.956
 8652TIP3    H225898   7.570   5.627   2.987
 8653TIP3   OH225899   1.294   3.377   5.557
 8653TIP3    H125900   1.320   3.337   5.474
 8653TIP3    H225901   1.282   3.304   5.617
 8654TIP3   OH225902   6.867   4.218   1.735
 8654TIP3    H125903   6.893   4.277   1.806
 8654TIP3    H225904   6.772   4.228   1.729
 8655TIP3   OH225905   0.175   6.394   6.055
 8655TIP3    H125906   0.132   6.373   6.138
 8655TIP3    H225907   0.103   6.409   5.993
 8656TIP3   OH225908   4.944   3.208   0.255
 8656TIP3    H125909   5.037   3.218   0.234
 8656TIP3    H225910   4.909   3.154   0.184
 8657TIP3   OH225911   4.774   2.864   1.410
 8657TIP3    H125912   4.841   2.921   1.372
 8657TIP3    H225913   4.712   2.924   1.452
 8658TIP3   OH225914   6.270   4.063   5.769
 8658TIP3    H125915   6.270   4.142   5.823
 8658TIP3    H225916   6.309   4.092   5.686
 8659TIP3   OH225917   4.533   0.677   5.140
 8659TIP3    H125918   4.470   0.706   5.205
 8659TIP3    H225919   4.482   0.666   5.060
 8660TIP3   OH225920   0.665   2.886   6.799
 8660TIP3    H125921   0.736   2.868   6.739
 8660TIP3    H225922   0.612   2.806   6.800
 8661TIP3   OH225923   0.838   4.013   2.640
 8661TIP3    H125924   0.930   4.031   2.659
 8661TIP3    H225925   0.808   3.960   2.714
 8662TIP3   OH225926   4.963   1.913   5.289
 8662TIP3    H125927   5.050   1.947   5.268
 8662TIP3    H225928   4.936   1.867   5.210
 8663TIP3   OH225929   3.751   6.696   4.407
 8663TIP3    H125930   3.836   6.669   4.371
 8663TIP3    H225931   3.727   6.625   4.466
 8664TIP3   OH225932   6.909   6.077   0.259
 8664TIP3    H125933   6.975   6.124   0.310
 8664TIP3    H225934   6.876   6.142   0.197
 8665TIP3   OH225935   5.286   4.294   2.138
 8665TIP3    H125936   5.321   4.211   2.106
 8665TIP3    H225937   5.201   4.272   2.176
 8666TIP3   OH225938   7.591   6.336   3.565
 8666TIP3    H125939   7.606   6.397   3.493
 8666TIP3    H225940   7.551   6.389   3.634
 8667TIP3   OH225941   1.303   2.370   0.376
 8667TIP3    H125942   1.280   2.394   0.466
 8667TIP3    H225943   1.395   2.396   0.366
 8668TIP3   OH225944   8.280   1.817   4.786
 8668TIP3    H125945   8.262   1.773   4.869
 8668TIP3    H225946   8.206   1.796   4.731
 8669TIP3   OH225947   6.229   3.751   0.849
 8669TIP3    H125948   6.175   3.673   0.838
 8669TIP3    H225949   6.310   3.719   0.888
 8670TIP3   OH225950   3.214   5.855   0.529
 8670TIP3    H125951   3.289   5.882   0.475
 8670TIP3    H225952   3.168   5.937   0.549
 8671TIP3   OH225953   5.995   1.562   5.809
 8671TIP3    H125954   6.041   1.519   5.881
 8671TIP3    H225955   5.904   1.532   5.816
 8672TIP3   OH225956   4.340   6.835   0.501
 8672TIP3    H125957   4.302   6.760   0.456
 8672TIP3    H225958   4.360   6.897   0.431
 8673TIP3   OH225959   0.023   4.820   3.625
 8673TIP3    H125960   0.040   4.788   3.713
 8673TIP3    H225961   0.018   4.915   3.635
 8674TIP3   OH225962   3.987   1.314   0.899
 8674TIP3    H125963   3.982   1.386   0.962
 8674TIP3    H225964   3.903   1.270   0.906
 8675TIP3   OH225965   7.032   7.449   5.524
 8675TIP3    H125966   6.951   7.451   5.473
 8675TIP3    H225967   7.003   7.429   5.613
 8676TIP3   OH225968   7.451   1.319   0.750
 8676TIP3    H125969   7.459   1.232   0.789
 8676TIP3    H225970   7.411   1.372   0.818
 8677TIP3   OH225971   8.219   2.726   4.344
 8677TIP3    H125972   8.310   2.699   4.333
 8677TIP3    H225973   8.190   2.751   4.257
 8678TIP3   OH225974   3.829   0.142   2.750
 8678TIP3    H125975   3.737   0.117   2.744
 8678TIP3    H225976   3.827   0.236   2.769
 8679TIP3   OH225977   7.413   6.766   0.154
 8679TIP3    H125978   7.331   6.787   0.200
 8679TIP3    H225979   7.433   6.846   0.105
 8680TIP3   OH225980   0.797   2.541   0.835
 8680TIP3    H125981   0.846   2.611   0.791
 8680TIP3    H225982   0.709   2.547   0.798
 8681TIP3   OH225983   7.304   1.490   5.194
 8681TIP3    H125984   7.333   1.544   5.267
 8681TIP3    H225985   7.209   1.505   5.189
 8682TIP3   OH225986   7.219   5.172   1.451
 8682TIP3    H125987   7.239   5.254   1.497
 8682TIP3    H225988   7.220   5.105   1.520
 8683TIP3   OH225989   8.334   0.513   0.751
 8683TIP3    H125990   8.267   0.579   0.767
 8683TIP3    H225991   8.285   0.431   0.744
 8684TIP3   OH225992   2.728   7.827   1.092
 8684TIP3    H125993   2.709   7.733   1.096
 8684TIP3    H225994   2.815   7.832   1.053
 8685TIP3   OH225995   0.543   3.273   3.329
 8685TIP3    H125996   0.458   3.230   3.318
 8685TIP3    H225997   0.607   3.203   3.317
 8686TIP3   OH225998   0.262   3.423   1.656
 8686TIP3    H125999   0.320   3.367   1.708
 8686TIP3    H226000   0.249   3.375   1.575
 8687TIP3   OH226001   2.081   5.945   1.354
 8687TIP3    H126002   2.127   5.988   1.282
 8687TIP3    H226003   2.151   5.906   1.407
 8688TIP3   OH226004   7.341   0.230   6.550
 8688TIP3    H126005   7.315   0.165   6.486
 8688TIP3    H226006   7.409   0.187   6.602
 8689TIP3   OH226007   6.295   5.545   5.759
 8689TIP3    H126008   6.239   5.589   5.695
 8689TIP3    H226009   6.360   5.499   5.707
 8690TIP3   OH226010   4.798   6.962   2.328
 8690TIP3    H126011   4.728   6.938   2.267
 8690TIP3    H226012   4.876   6.969   2.273
 8691TIP3   OH226013   4.562   5.425   1.614
 8691TIP3    H126014   4.656   5.434   1.596
 8691TIP3    H226015   4.553   5.444   1.707
 8692TIP3   OH226016   2.245   3.512   4.354
 8692TIP3    H126017   2.300   3.586   4.378
 8692TIP3    H226018   2.290   3.472   4.279
 8693TIP3   OH226019   5.942   4.728   1.216
 8693TIP3    H126020   5.928   4.776   1.298
 8693TIP3    H226021   5.891   4.776   1.151
 8694TIP3   OH226022   5.293   1.118   1.142
 8694TIP3    H126023   5.216   1.113   1.084
 8694TIP3    H226024   5.317   1.026   1.157
 8695TIP3   OH226025   6.626   0.552   4.297
 8695TIP3    H126026   6.556   0.580   4.356
 8695TIP3    H226027   6.645   0.462   4.324
 8696TIP3   OH226028   0.140   4.803   2.097
 8696TIP3    H126029   0.131   4.726   2.041
 8696TIP3    H226030   0.067   4.860   2.072
 8697TIP3   OH226031   3.537   0.728   2.153
 8697TIP3    H126032   3.599   0.730   2.226
 8697TIP3    H226033   3.563   0.652   2.101
 8698TIP3   OH226034   2.209   3.359   4.803
 8698TIP3    H126035   2.193   3.265   4.802
 8698TIP3    H226036   2.122   3.399   4.806
 8699TIP3   OH226037   3.144   1.151   2.674
 8699TIP3    H126038   3.195   1.122   2.599
 8699TIP3    H226039   3.063   1.186   2.636
 8700TIP3   OH226040   2.864   1.042   0.656
 8700TIP3    H126041   2.913   1.083   0.585
 8700TIP3    H226042   2.775   1.037   0.624
 8701TIP3   OH226043   7.427   3.925   0.187
 8701TIP3    H126044   7.482   3.862   0.233
 8701TIP3    H226045   7.455   3.919   0.096
 8702TIP3   OH226046   5.609   2.003   3.606
 8702TIP3    H126047   5.517   1.991   3.632
 8702TIP3    H226048   5.659   1.966   3.678
 8703TIP3   OH226049   6.229   0.853   5.860
 8703TIP3    H126050   6.285   0.903   5.800
 8703TIP3    H226051   6.142   0.859   5.822
 8704TIP3   OH226052   0.902   6.435   5.496
 8704TIP3    H126053   0.976   6.387   5.460
 8704TIP3    H226054   0.828   6.374   5.489
 8705TIP3   OH226055   8.132   5.493   0.338
 8705TIP3    H126056   8.039   5.514   0.353
 8705TIP3    H226057   8.134   5.461   0.248
 8706TIP3   OH226058   7.408   2.720   3.575
 8706TIP3    H126059   7.408   2.676   3.660
 8706TIP3    H226060   7.469   2.793   3.585
 8707TIP3   OH226061   7.882   5.961   4.195
 8707TIP3    H126062   7.841   5.876   4.179
 8707TIP3    H226063   7.809   6.020   4.212
 8708TIP3   OH226064   0.001   3.248   3.959
 8708TIP3    H126065   0.043   3.163   3.972
 8708TIP3    H226066  -0.008   3.285   4.047
 8709TIP3   OH226067   6.720   6.267   0.642
 8709TIP3    H126068   6.816   6.278   0.643
 8709TIP3    H226069   6.705   6.183   0.685
 8710TIP3   OH226070   8.381   1.950   0.108
 8710TIP3    H126071   8.326   1.942   0.030
 8710TIP3    H226072   8.470   1.938   0.076
 8711TIP3   OH226073   1.534   3.864   5.452
 8711TIP3    H126074   1.464   3.926   5.430
 8711TIP3    H226075   1.593   3.867   5.377
 8712TIP3   OH226076   0.489   1.760   4.399
 8712TIP3    H126077   0.541   1.836   4.373
 8712TIP3    H226078   0.425   1.795   4.460
 8713TIP3   OH226079   7.118   3.498   5.027
 8713TIP3    H126080   7.174   3.420   5.031
 8713TIP3    H226081   7.123   3.535   5.115
 8714TIP3   OH226082   5.535   3.358   1.514
 8714TIP3    H126083   5.557   3.451   1.516
 8714TIP3    H226084   5.620   3.313   1.515
 8715TIP3   OH226085   5.124   2.442   3.740
 8715TIP3    H126086   5.088   2.466   3.826
 8715TIP3    H226087   5.070   2.489   3.677
 8716TIP3   OH226088   3.036   4.024   2.211
 8716TIP3    H126089   2.979   3.999   2.284
 8716TIP3    H226090   3.062   4.114   2.230
 8717TIP3   OH226091   1.166   7.789   0.896
 8717TIP3    H126092   1.129   7.839   0.969
 8717TIP3    H226093   1.238   7.844   0.864
 8718TIP3   OH226094   8.161   2.451   0.499
 8718TIP3    H126095   8.090   2.499   0.542
 8718TIP3    H226096   8.119   2.409   0.424
 8719TIP3   OH226097   3.539   6.600   0.164
 8719TIP3    H126098   3.560   6.559   0.080
 8719TIP3    H226099   3.556   6.693   0.149
 8720TIP3   OH226100   4.338   2.813   6.651
 8720TIP3    H126101   4.319   2.846   6.739
 8720TIP3    H226102   4.400   2.741   6.665
 8721TIP3   OH226103   7.977   4.213   6.067
 8721TIP3    H126104   7.900   4.167   6.099
 8721TIP3    H226105   8.027   4.234   6.146
 8722TIP3   OH226106   2.069   5.022   0.231
 8722TIP3    H126107   2.120   5.018   0.312
 8722TIP3    H226108   2.132   4.999   0.162
 8723TIP3   OH226109   2.441   6.852   0.454
 8723TIP3    H126110   2.396   6.898   0.384
 8723TIP3    H226111   2.450   6.916   0.524
 8724TIP3   OH226112   7.786   0.558   0.798
 8724TIP3    H126113   7.785   0.632   0.859
 8724TIP3    H226114   7.773   0.598   0.712
 8725TIP3   OH226115   1.190   2.599   4.584
 8725TIP3    H126116   1.263   2.630   4.531
 8725TIP3    H226117   1.188   2.658   4.659
 8726TIP3   OH226118   3.760   1.941   2.736
 8726TIP3    H126119   3.836   1.985   2.697
 8726TIP3    H226120   3.695   1.939   2.665
 8727TIP3   OH226121   3.703   5.748   4.808
 8727TIP3    H126122   3.707   5.752   4.712
 8727TIP3    H226123   3.619   5.707   4.827
 8728TIP3   OH226124   2.028   0.933   0.255
 8728TIP3    H126125   1.942   0.908   0.221
 8728TIP3    H226126   2.047   0.868   0.323
 8729TIP3   OH226127   0.479   3.375   5.189
 8729TIP3    H126128   0.498   3.301   5.130
 8729TIP3    H226129   0.456   3.447   5.130
 8730TIP3   OH226130   2.584   3.219   6.462
 8730TIP3    H126131   2.672   3.249   6.439
 8730TIP3    H226132   2.571   3.247   6.552
 8731TIP3   OH226133   6.550   2.208   6.408
 8731TIP3    H126134   6.523   2.283   6.461
 8731TIP3    H226135   6.637   2.231   6.377
 8732TIP3   OH226136   0.028   2.642   3.395
 8732TIP3    H126137   0.106   2.622   3.447
 8732TIP3    H226138   0.032   2.737   3.382
 8733TIP3   OH226139   2.952   5.277   1.744
 8733TIP3    H126140   2.944   5.186   1.716
 8733TIP3    H226141   2.995   5.273   1.830
 8734TIP3   OH226142   6.574   1.281   0.814
 8734TIP3    H126143   6.668   1.264   0.804
 8734TIP3    H226144   6.538   1.197   0.843
 8735TIP3   OH226145   2.144   1.437   2.222
 8735TIP3    H126146   2.239   1.435   2.206
 8735TIP3    H226147   2.109   1.365   2.169
 8736TIP3   OH226148   4.778   2.893   2.320
 8736TIP3    H126149   4.783   2.977   2.365
 8736TIP3    H226150   4.853   2.893   2.261
 8737TIP3   OH226151   8.234   3.062   0.146
 8737TIP3    H126152   8.312   3.114   0.169
 8737TIP3    H226153   8.195   3.039   0.230
 8738TIP3   OH226154   4.219   0.564   1.178
 8738TIP3    H126155   4.198   0.647   1.222
 8738TIP3    H226156   4.280   0.589   1.109
 8739TIP3   OH226157   4.526   3.585   6.145
 8739TIP3    H126158   4.569   3.564   6.228
 8739TIP3    H226159   4.534   3.681   6.137
 8740TIP3   OH226160   6.550   6.109   1.252
 8740TIP3    H126161   6.469   6.158   1.262
 8740TIP3    H226162   6.570   6.078   1.341
 8741TIP3   OH226163   3.189   1.640   1.498
 8741TIP3    H126164   3.239   1.593   1.564
 8741TIP3    H226165   3.122   1.687   1.548
 8742TIP3   OH226166   2.999   3.282   5.839
 8742TIP3    H126167   3.067   3.292   5.905
 8742TIP3    H226168   2.919   3.267   5.889
 8743TIP3   OH226169   3.574   2.745   4.721
 8743TIP3    H126170   3.554   2.731   4.814
 8743TIP3    H226171   3.615   2.831   4.718
 8744TIP3   OH226172   5.252   4.846   6.694
 8744TIP3    H126173   5.283   4.756   6.704
 8744TIP3    H226174   5.230   4.874   6.783
 8745TIP3   OH226175   4.836   5.582   0.555
 8745TIP3    H126176   4.924   5.610   0.528
 8745TIP3    H226177   4.850   5.504   0.608
 8746TIP3   OH226178   6.736   2.299   3.182
 8746TIP3    H126179   6.753   2.379   3.132
 8746TIP3    H226180   6.659   2.261   3.140
 8747TIP3   OH226181   4.196   6.171   2.820
 8747TIP3    H126182   4.102   6.162   2.805
 8747TIP3    H226183   4.205   6.186   2.914
 8748TIP3   OH226184   1.120   0.138   3.249
 8748TIP3    H126185   1.118   0.046   3.275
 8748TIP3    H226186   1.121   0.136   3.154
 8749TIP3   OH226187   3.361   2.506   1.532
 8749TIP3    H126188   3.278   2.458   1.538
 8749TIP3    H226189   3.345   2.573   1.465
 8750TIP3   OH226190   3.123   5.215   0.629
 8750TIP3    H126191   3.118   5.275   0.704
 8750TIP3    H226192   3.041   5.230   0.582
 8751TIP3   OH226193   5.400   0.610   1.193
 8751TIP3    H126194   5.403   0.546   1.121
 8751TIP3    H226195   5.405   0.695   1.149
 8752TIP3   OH226196   4.976   7.415   2.056
 8752TIP3    H126197   4.908   7.457   2.109
 8752TIP3    H226198   5.059   7.446   2.094
 8753TIP3   OH226199   0.363   1.265   5.790
 8753TIP3    H126200   0.413   1.191   5.756
 8753TIP3    H226201   0.393   1.276   5.880
 8754TIP3   OH226202   4.813   3.848   5.462
 8754TIP3    H126203   4.897   3.893   5.472
 8754TIP3    H226204   4.832   3.776   5.402
 8755TIP3   OH226205   0.792   0.522   0.542
 8755TIP3    H126206   0.786   0.535   0.447
 8755TIP3    H226207   0.850   0.592   0.572
 8756TIP3   OH226208   1.573   2.983   1.058
 8756TIP3    H126209   1.543   2.909   1.006
 8756TIP3    H226210   1.570   2.952   1.148
 8757TIP3   OH226211   3.420   7.196   0.589
 8757TIP3    H126212   3.497   7.143   0.569
 8757TIP3    H226213   3.404   7.180   0.682
 8758TIP3   OH226214   8.108   2.530   3.100
 8758TIP3    H126215   8.098   2.601   3.037
 8758TIP3    H226216   8.186   2.483   3.072
 8759TIP3   OH226217   7.812   2.692   4.263
 8759TIP3    H126218   7.722   2.677   4.291
 8759TIP3    H226219   7.842   2.766   4.316
 8760TIP3   OH226220   6.066   5.206   3.735
 8760TIP3    H126221   6.113   5.248   3.663
 8760TIP3    H226222   6.134   5.159   3.784
 8761TIP3   OH226223   3.638   4.603   6.780
 8761TIP3    H126224   3.555   4.650   6.773
 8761TIP3    H226225   3.639   4.544   6.705
 8762TIP3   OH226226   4.966   6.004   3.788
 8762TIP3    H126227   4.892   6.027   3.732
 8762TIP3    H226228   5.043   6.033   3.739
 8763TIP3   OH226229   0.631   6.483   0.367
 8763TIP3    H126230   0.581   6.406   0.340
 8763TIP3    H226231   0.619   6.486   0.462
 8764TIP3   OH226232   0.020   2.286   0.146
 8764TIP3    H126233   0.032   2.379   0.128
 8764TIP3    H226234  -0.018   2.283   0.234
 8765TIP3   OH226235   0.408   1.548   5.734
 8765TIP3    H126236   0.417   1.462   5.775
 8765TIP3    H226237   0.435   1.535   5.644
 8766TIP3   OH226238   3.969   2.087   2.376
 8766TIP3    H126239   3.969   2.074   2.470
 8766TIP3    H226240   4.057   2.118   2.355
 8767TIP3   OH226241   6.332   0.506   2.949
 8767TIP3    H126242   6.343   0.469   3.037
 8767TIP3    H226243   6.258   0.458   2.912
 8768TIP3   OH226244   6.566   5.561   4.574
 8768TIP3    H126245   6.615   5.499   4.627
 8768TIP3    H226246   6.631   5.598   4.514
 8769TIP3   OH226247   1.607   7.824   6.501
 8769TIP3    H126248   1.541   7.784   6.558
 8769TIP3    H226249   1.690   7.811   6.547
 8770TIP3   OH226250   3.493   0.708   4.652
 8770TIP3    H126251   3.477   0.682   4.562
 8770TIP3    H226252   3.539   0.791   4.645
 8771TIP3   OH226253   2.279   0.443   1.958
 8771TIP3    H126254   2.235   0.488   1.886
 8771TIP3    H226255   2.339   0.508   1.995
 8772TIP3   OH226256   3.110   5.088   6.642
 8772TIP3    H126257   3.189   5.053   6.683
 8772TIP3    H226258   3.125   5.183   6.639
 8773TIP3   OH226259   0.694   5.936   0.827
 8773TIP3    H126260   0.766   5.995   0.850
 8773TIP3    H226261   0.733   5.849   0.832
 8774TIP3   OH226262   4.143   6.224   1.649
 8774TIP3    H126263   4.182   6.312   1.645
 8774TIP3    H226264   4.075   6.225   1.581
 8775TIP3   OH226265   1.282   5.355   6.716
 8775TIP3    H126266   1.220   5.402   6.772
 8775TIP3    H226267   1.336   5.305   6.778
 8776TIP3   OH226268   5.562   1.634   3.838
 8776TIP3    H126269   5.581   1.659   3.929
 8776TIP3    H226270   5.647   1.637   3.794
 8777TIP3   OH226271   3.576   1.207   0.515
 8777TIP3    H126272   3.511   1.152   0.558
 8777TIP3    H226273   3.576   1.177   0.424
 8778TIP3   OH226274   0.361   6.249   2.593
 8778TIP3    H126275   0.361   6.323   2.654
 8778TIP3    H226276   0.405   6.178   2.641
 8779TIP3   OH226277   2.572   2.339   1.489
 8779TIP3    H126278   2.604   2.321   1.401
 8779TIP3    H226279   2.543   2.254   1.522
 8780TIP3   OH226280   2.196   4.478   1.746
 8780TIP3    H126281   2.137   4.526   1.688
 8780TIP3    H226282   2.165   4.388   1.742
 8781TIP3   OH226283   7.363   6.514   1.579
 8781TIP3    H126284   7.319   6.598   1.568
 8781TIP3    H226285   7.365   6.500   1.673
 8782TIP3   OH226286   7.148   7.348   0.736
 8782TIP3    H126287   7.215   7.285   0.709
 8782TIP3    H226288   7.140   7.335   0.831
 8783TIP3   OH226289   3.611   1.050   5.861
 8783TIP3    H126290   3.630   1.039   5.954
 8783TIP3    H226291   3.599   1.144   5.850
 8784TIP3   OH226292   6.145   4.238   6.285
 8784TIP3    H126293   6.061   4.193   6.279
 8784TIP3    H226294   6.122   4.325   6.320
 8785TIP3   OH226295   3.762   5.678   2.791
 8785TIP3    H126296   3.787   5.763   2.829
 8785TIP3    H226297   3.695   5.700   2.726
 8786TIP3   OH226298   1.883   3.473   3.539
 8786TIP3    H126299   1.942   3.533   3.494
 8786TIP3    H226300   1.814   3.530   3.574
 8787TIP3   OH226301   7.004   0.721   4.298
 8787TIP3    H126302   7.013   0.811   4.328
 8787TIP3    H226303   6.939   0.682   4.356
 8788TIP3   OH226304   3.426   7.376   5.500
 8788TIP3    H126305   3.477   7.308   5.456
 8788TIP3    H226306   3.339   7.339   5.509
 8789TIP3   OH226307   2.671   5.785   0.223
 8789TIP3    H126308   2.739   5.850   0.207
 8789TIP3    H226309   2.689   5.716   0.160
 8790TIP3   OH226310   5.888   0.476   5.573
 8790TIP3    H126311   5.806   0.457   5.529
 8790TIP3    H226312   5.882   0.430   5.657
 8791TIP3   OH226313   5.337   7.291   0.283
 8791TIP3    H126314   5.423   7.323   0.310
 8791TIP3    H226315   5.342   7.196   0.295
 8792TIP3   OH226316   1.601   5.533   5.320
 8792TIP3    H126317   1.638   5.513   5.406
 8792TIP3    H226318   1.614   5.627   5.309
 8793TIP3   OH226319   7.780   1.501   6.004
 8793TIP3    H126320   7.854   1.560   6.019
 8793TIP3    H226321   7.819   1.413   6.006
 8794TIP3   OH226322   0.570   2.086   0.234
 8794TIP3    H126323   0.482   2.117   0.256
 8794TIP3    H226324   0.629   2.141   0.286
 8795TIP3   OH226325   2.456   6.587   2.751
 8795TIP3    H126326   2.446   6.682   2.753
 8795TIP3    H226327   2.448   6.560   2.842
 8796TIP3   OH226328   1.136   6.658   4.392
 8796TIP3    H126329   1.048   6.691   4.376
 8796TIP3    H226330   1.192   6.709   4.333
 8797TIP3   OH226331   1.019   2.059   1.609
 8797TIP3    H126332   0.932   2.019   1.614
 8797TIP3    H226333   1.048   2.041   1.519
 8798TIP3   OH226334   1.350   5.134   0.714
 8798TIP3    H126335   1.404   5.127   0.635
 8798TIP3    H226336   1.371   5.056   0.765
 8799TIP3   OH226337   3.041   3.724   3.836
 8799TIP3    H126338   3.114   3.705   3.776
 8799TIP3    H226339   3.083   3.746   3.919
 8800TIP3   OH226340   3.224   6.874   2.203
 8800TIP3    H126341   3.178   6.849   2.122
 8800TIP3    H226342   3.266   6.957   2.182
 8801TIP3   OH226343   4.272   7.122   3.509
 8801TIP3    H126344   4.184   7.102   3.543
 8801TIP3    H226345   4.276   7.074   3.426
 8802TIP3   OH226346   6.784   1.274   3.191
 8802TIP3    H126347   6.695   1.270   3.157
 8802TIP3    H226348   6.832   1.327   3.127
 8803TIP3   OH226349   7.795   7.775   6.265
 8803TIP3    H126350   7.810   7.718   6.190
 8803TIP3    H226351   7.875   7.827   6.273
 8804TIP3   OH226352   2.405   0.826   2.604
 8804TIP3    H126353   2.394   0.838   2.699
 8804TIP3    H226354   2.348   0.893   2.565
 8805TIP3   OH226355   0.393   1.972   3.964
 8805TIP3    H126356   0.376   1.919   3.886
 8805TIP3    H226357   0.484   1.952   3.987
 8806TIP3   OH226358   7.114   7.160   4.673
 8806TIP3    H126359   7.126   7.067   4.692
 8806TIP3    H226360   7.064   7.161   4.591
 8807TIP3   OH226361   0.126   3.486   2.235
 8807TIP3    H126362   0.067   3.411   2.237
 8807TIP3    H226363   0.092   3.544   2.303
 8808TIP3   OH226364   6.287   7.310   1.647
 8808TIP3    H126365   6.279   7.382   1.585
 8808TIP3    H226366   6.229   7.241   1.612
 8809TIP3   OH226367   3.521   3.162   3.990
 8809TIP3    H126368   3.482   3.184   3.905
 8809TIP3    H226369   3.594   3.223   4.000
 8810TIP3   OH226370   6.771   3.925   3.845
 8810TIP3    H126371   6.848   3.885   3.885
 8810TIP3    H226372   6.733   3.856   3.791
 8811TIP3   OH226373   4.210   5.181   5.123
 8811TIP3    H126374   4.161   5.198   5.203
 8811TIP3    H226375   4.162   5.228   5.055
 8812TIP3   OH226376   0.878   3.229   2.810
 8812TIP3    H126377   0.786   3.234   2.782
 8812TIP3    H226378   0.922   3.179   2.741
 8813TIP3   OH226379   6.015   3.972   2.663
 8813TIP3    H126380   5.937   3.924   2.692
 8813TIP3    H226381   6.038   4.027   2.738
 8814TIP3   OH226382   0.985   3.789   1.341
 8814TIP3    H126383   1.047   3.747   1.282
 8814TIP3    H226384   0.915   3.724   1.352
 8815TIP3   OH226385   1.080   7.043   5.244
 8815TIP3    H126386   1.050   6.986   5.173
 8815TIP3    H226387   1.051   7.131   5.219
 8816TIP3   OH226388   7.258   5.389   0.467
 8816TIP3    H126389   7.332   5.353   0.418
 8816TIP3    H226390   7.296   5.458   0.521
 8817TIP3   OH226391   1.900   4.329   1.453
 8817TIP3    H126392   1.955   4.290   1.520
 8817TIP3    H226393   1.937   4.299   1.370
 8818TIP3   OH226394   2.474   7.103   5.612
 8818TIP3    H126395   2.532   7.094   5.687
 8818TIP3    H226396   2.473   7.016   5.572
 8819TIP3   OH226397   1.867   3.601   6.537
 8819TIP3    H126398   1.889   3.572   6.448
 8819TIP3    H226399   1.935   3.564   6.592
 8820TIP3   OH226400   2.003   4.605   4.939
 8820TIP3    H126401   2.085   4.558   4.954
 8820TIP3    H226402   2.027   4.679   4.884
 8821TIP3   OH226403   3.681   6.963   5.943
 8821TIP3    H126404   3.754   7.018   5.916
 8821TIP3    H226405   3.710   6.923   6.025
 8822TIP3   OH226406   4.796   6.981   3.162
 8822TIP3    H126407   4.834   7.066   3.185
 8822TIP3    H226408   4.809   6.974   3.067
 8823TIP3   OH226409   5.100   7.475   1.675
 8823TIP3    H126410   5.018   7.524   1.676
 8823TIP3    H226411   5.088   7.408   1.743
 8824TIP3   OH226412   2.272   7.479   1.022
 8824TIP3    H126413   2.251   7.549   0.961
 8824TIP3    H226414   2.210   7.409   1.001
 8825TIP3   OH226415   1.212   7.245   0.250
 8825TIP3    H126416   1.138   7.302   0.272
 8825TIP3    H226417   1.267   7.299   0.193
 8826TIP3   OH226418   0.674   2.092   3.738
 8826TIP3    H126419   0.660   2.008   3.782
 8826TIP3    H226420   0.759   2.083   3.696
 8827TIP3   OH226421   6.474   6.495   5.438
 8827TIP3    H126422   6.452   6.585   5.415
 8827TIP3    H226423   6.390   6.449   5.438
 8828TIP3   OH226424   5.883   6.187   1.097
 8828TIP3    H126425   5.905   6.196   1.004
 8828TIP3    H226426   5.965   6.161   1.139
 8829TIP3   OH226427   5.283   3.084   3.115
 8829TIP3    H126428   5.302   3.094   3.022
 8829TIP3    H226429   5.368   3.098   3.158
 8830TIP3   OH226430   6.768   0.736   3.513
 8830TIP3    H126431   6.677   0.763   3.500
 8830TIP3    H226432   6.805   0.735   3.425
 8831TIP3   OH226433   1.170   4.633   0.776
 8831TIP3    H126434   1.217   4.553   0.750
 8831TIP3    H226435   1.237   4.701   0.775
 8832TIP3   OH226436   4.175   4.219   4.699
 8832TIP3    H126437   4.182   4.288   4.633
 8832TIP3    H226438   4.083   4.218   4.724
 8833TIP3   OH226439   1.049   7.045   3.651
 8833TIP3    H126440   1.041   7.138   3.672
 8833TIP3    H226441   1.037   7.041   3.556
 8834TIP3   OH226442   3.260   3.508   5.248
 8834TIP3    H126443   3.355   3.510   5.258
 8834TIP3    H226444   3.228   3.557   5.324
 8835TIP3   OH226445   4.085   4.616   2.076
 8835TIP3    H126446   4.056   4.546   2.133
 8835TIP3    H226447   4.129   4.678   2.134
 8836TIP3   OH226448   3.822   0.244   5.770
 8836TIP3    H126449   3.764   0.282   5.836
 8836TIP3    H226450   3.856   0.319   5.722
 8837TIP3   OH226451   4.893   6.816   4.215
 8837TIP3    H126452   4.892   6.868   4.295
 8837TIP3    H226453   4.986   6.813   4.190
 8838TIP3   OH226454   5.789   1.727   2.499
 8838TIP3    H126455   5.871   1.723   2.450
 8838TIP3    H226456   5.812   1.769   2.582
 8839TIP3   OH226457   5.511   2.083   5.067
 8839TIP3    H126458   5.573   2.127   5.125
 8839TIP3    H226459   5.428   2.128   5.082
 8840TIP3   OH226460   0.888   4.020   0.815
 8840TIP3    H126461   0.847   4.103   0.841
 8840TIP3    H226462   0.872   4.014   0.721
 8841TIP3   OH226463   0.166   4.541   5.010
 8841TIP3    H126464   0.194   4.617   5.061
 8841TIP3    H226465   0.146   4.474   5.075
 8842TIP3   OH226466   4.553   5.861   6.238
 8842TIP3    H126467   4.619   5.856   6.169
 8842TIP3    H226468   4.592   5.811   6.310
 8843TIP3   OH226469   3.371   6.988   6.247
 8843TIP3    H126470   3.369   6.905   6.295
 8843TIP3    H226471   3.456   6.988   6.203
 8844TIP3   OH226472   0.386   6.805   5.630
 8844TIP3    H126473   0.427   6.853   5.559
 8844TIP3    H226474   0.425   6.842   5.710
 8845TIP3   OH226475   0.868   3.094   1.999
 8845TIP3    H126476   0.851   3.031   2.069
 8845TIP3    H226477   0.798   3.159   2.007
 8846TIP3   OH226478   2.369   0.326   6.133
 8846TIP3    H126479   2.443   0.374   6.098
 8846TIP3    H226480   2.320   0.390   6.184
 8847TIP3   OH226481   3.013   7.877   2.073
 8847TIP3    H126482   2.982   7.855   1.986
 8847TIP3    H226483   3.089   7.819   2.087
 8848TIP3   OH226484   5.158   5.497   1.736
 8848TIP3    H126485   5.143   5.414   1.691
 8848TIP3    H226486   5.244   5.488   1.777
 8849TIP3   OH226487   3.527   1.283   5.199
 8849TIP3    H126488   3.460   1.307   5.263
 8849TIP3    H226489   3.603   1.261   5.253
 8850TIP3   OH226490   7.861   2.815   0.808
 8850TIP3    H126491   7.915   2.878   0.761
 8850TIP3    H226492   7.855   2.850   0.897
 8851TIP3   OH226493   3.810   0.241   5.209
 8851TIP3    H126494   3.743   0.252   5.277
 8851TIP3    H226495   3.761   0.214   5.131
 8852TIP3   OH226496   4.855   3.389   6.809
 8852TIP3    H126497   4.927   3.326   6.804
 8852TIP3    H226498   4.898   3.474   6.819
 8853TIP3   OH226499   7.307   2.180   5.817
 8853TIP3    H126500   7.308   2.089   5.786
 8853TIP3    H226501   7.215   2.206   5.810
 8854TIP3   OH226502   0.198   0.726   6.692
 8854TIP3    H126503   0.284   0.742   6.654
 8854TIP3    H226504   0.140   0.716   6.617
 8855TIP3   OH226505   7.180   4.231   3.093
 8855TIP3    H126506   7.182   4.289   3.017
 8855TIP3    H226507   7.269   4.233   3.128
 8856TIP3   OH226508   5.612   2.253   6.527
 8856TIP3    H126509   5.558   2.176   6.506
 8856TIP3    H226510   5.658   2.272   6.445
 8857TIP3   OH226511   7.921   3.611   1.522
 8857TIP3    H126512   7.997   3.565   1.486
 8857TIP3    H226513   7.940   3.618   1.615
 8858TIP3   OH226514   1.664   2.538   3.489
 8858TIP3    H126515   1.737   2.538   3.427
 8858TIP3    H226516   1.704   2.551   3.574
 8859TIP3   OH226517   3.076   6.822   6.169
 8859TIP3    H126518   3.010   6.794   6.106
 8859TIP3    H226519   3.059   6.916   6.181
 8860TIP3   OH226520   7.437   5.398   6.829
 8860TIP3    H126521   7.467   5.469   6.771
 8860TIP3    H226522   7.415   5.442   6.911
 8861TIP3   OH226523   3.035   1.873   4.894
 8861TIP3    H126524   3.069   1.787   4.919
 8861TIP3    H226525   3.034   1.923   4.976
 8862TIP3   OH226526   7.110   5.048   5.728
 8862TIP3    H126527   7.126   5.020   5.818
 8862TIP3    H226528   7.016   5.035   5.716
 8863TIP3   OH226529   3.276   6.134   5.390
 8863TIP3    H126530   3.288   6.074   5.317
 8863TIP3    H226531   3.357   6.186   5.392
 8864TIP3   OH226532   5.480   3.742   5.242
 8864TIP3    H126533   5.492   3.779   5.154
 8864TIP3    H226534   5.491   3.648   5.229
 8865TIP3   OH226535   5.559   6.324   0.876
 8865TIP3    H126536   5.495   6.373   0.823
 8865TIP3    H226537   5.631   6.305   0.815
 8866TIP3   OH226538   7.502   2.235   4.765
 8866TIP3    H126539   7.469   2.323   4.782
 8866TIP3    H226540   7.539   2.206   4.848
 8867TIP3   OH226541   4.490   3.225   6.264
 8867TIP3    H126542   4.437   3.263   6.195
 8867TIP3    H226543   4.454   3.261   6.345
 8868TIP3   OH226544   8.444   2.250   5.700
 8868TIP3    H126545   8.368   2.219   5.650
 8868TIP3    H226546   8.452   2.186   5.771
 8869TIP3   OH226547   7.541   3.925   2.035
 8869TIP3    H126548   7.609   3.874   2.079
 8869TIP3    H226549   7.477   3.943   2.104
 8870TIP3   OH226550   3.144   1.221   2.925
 8870TIP3    H126551   3.124   1.313   2.908
 8870TIP3    H226552   3.162   1.184   2.838
 8871TIP3   OH226553   8.263   3.578   3.022
 8871TIP3    H126554   8.293   3.559   3.110
 8871TIP3    H226555   8.286   3.670   3.008
 8872TIP3   OH226556   2.178   5.391   4.782
 8872TIP3    H126557   2.111   5.456   4.804
 8872TIP3    H226558   2.253   5.443   4.753
 8873TIP3   OH226559   2.318   2.319   0.938
 8873TIP3    H126560   2.313   2.404   0.895
 8873TIP3    H226561   2.236   2.311   0.986
 8874TIP3   OH226562   1.781   2.351   5.250
 8874TIP3    H126563   1.695   2.362   5.290
 8874TIP3    H226564   1.821   2.439   5.255
 8875TIP3   OH226565   0.297   6.660   3.847
 8875TIP3    H126566   0.213   6.647   3.889
 8875TIP3    H226567   0.321   6.750   3.869
 8876TIP3   OH226568   6.150   0.452   1.743
 8876TIP3    H126569   6.245   0.460   1.758
 8876TIP3    H226570   6.139   0.365   1.706
 8877TIP3   OH226571   7.399   4.405   3.381
 8877TIP3    H126572   7.421   4.317   3.350
 8877TIP3    H226573   7.466   4.427   3.445
 8878TIP3   OH226574   7.300   6.811   2.139
 8878TIP3    H126575   7.261   6.752   2.204
 8878TIP3    H226576   7.272   6.775   2.055
 8879TIP3   OH226577   5.540   0.476   3.462
 8879TIP3    H126578   5.491   0.394   3.450
 8879TIP3    H226579   5.616   0.451   3.514
 8880TIP3   OH226580   2.477   2.009   5.588
 8880TIP3    H126581   2.549   2.027   5.648
 8880TIP3    H226582   2.453   1.918   5.605
 8881TIP3   OH226583   0.542   7.487   1.430
 8881TIP3    H126584   0.567   7.579   1.423
 8881TIP3    H226585   0.586   7.444   1.357
 8882TIP3   OH226586   7.802   1.797   5.716
 8882TIP3    H126587   7.867   1.846   5.666
 8882TIP3    H226588   7.784   1.720   5.663
 8883TIP3   OH226589   4.138   7.674   0.200
 8883TIP3    H126590   4.219   7.710   0.163
 8883TIP3    H226591   4.156   7.665   0.293
 8884TIP3   OH226592   4.032   4.773   6.479
 8884TIP3    H126593   3.966   4.736   6.538
 8884TIP3    H226594   3.999   4.754   6.391
 8885TIP3   OH226595   5.986   2.987   3.258
 8885TIP3    H126596   5.896   3.017   3.269
 8885TIP3    H226597   5.980   2.910   3.202
 8886TIP3   OH226598   0.493   2.313   4.492
 8886TIP3    H126599   0.518   2.389   4.439
 8886TIP3    H226600   0.410   2.283   4.455
 8887TIP3   OH226601   7.359   0.188   0.525
 8887TIP3    H126602   7.421   0.141   0.469
 8887TIP3    H226603   7.413   0.248   0.575
 8888TIP3   OH226604   1.799   5.028   0.653
 8888TIP3    H126605   1.779   4.935   0.661
 8888TIP3    H226606   1.746   5.070   0.721
 8889TIP3   OH226607   1.132   1.713   1.926
 8889TIP3    H126608   1.219   1.688   1.893
 8889TIP3    H226609   1.149   1.785   1.986
 8890TIP3   OH226610   5.469   2.471   0.594
 8890TIP3    H126611   5.390   2.460   0.541
 8890TIP3    H226612   5.485   2.566   0.593
 8891TIP3   OH226613   2.159   0.782   0.618
 8891TIP3    H126614   2.102   0.761   0.692
 8891TIP3    H226615   2.242   0.809   0.659
 8892TIP3   OH226616   4.067   0.565   6.098
 8892TIP3    H126617   4.113   0.533   6.176
 8892TIP3    H226618   4.118   0.642   6.071
 8893TIP3   OH226619   4.961   1.583   2.784
 8893TIP3    H126620   5.045   1.550   2.754
 8893TIP3    H226621   4.896   1.526   2.742
 8894TIP3   OH226622   0.026   6.681   1.513
 8894TIP3    H126623   0.042   6.775   1.527
 8894TIP3    H226624  -0.068   6.676   1.494
 8895TIP3   OH226625   3.732   7.197   3.693
 8895TIP3    H126626   3.786   7.205   3.614
 8895TIP3    H226627   3.765   7.118   3.736
 8896TIP3   OH226628   4.084   6.805   3.735
 8896TIP3    H126629   4.049   6.861   3.665
 8896TIP3    H226630   4.165   6.769   3.698
 8897TIP3   OH226631   3.097   7.759   3.567
 8897TIP3    H126632   3.007   7.788   3.581
 8897TIP3    H226633   3.121   7.793   3.481
 8898TIP3   OH226634   7.495   4.808   5.141
 8898TIP3    H126635   7.569   4.868   5.138
 8898TIP3    H226636   7.489   4.773   5.052
 8899TIP3   OH226637   0.510   2.537   2.433
 8899TIP3    H126638   0.533   2.475   2.363
 8899TIP3    H226639   0.497   2.620   2.387
 8900TIP3   OH226640   7.186   3.701   4.180
 8900TIP3    H126641   7.172   3.707   4.086
 8900TIP3    H226642   7.222   3.613   4.193
 8901TIP3   OH226643   3.721   3.364   2.633
 8901TIP3    H126644   3.744   3.363   2.540
 8901TIP3    H226645   3.802   3.342   2.679
 8902TIP3   OH226646   7.762   3.810   2.143
 8902TIP3    H126647   7.774   3.811   2.237
 8902TIP3    H226648   7.848   3.788   2.107
 8903TIP3   OH226649   4.722   7.165   6.031
 8903TIP3    H126650   4.763   7.251   6.048
 8903TIP3    H226651   4.643   7.185   5.981
 8904TIP3   OH226652   3.658   2.238   1.885
 8904TIP3    H126653   3.571   2.252   1.923
 8904TIP3    H226654   3.646   2.252   1.791
 8905TIP3   OH226655   5.043   3.896   4.239
 8905TIP3    H126656   5.120   3.854   4.278
 8905TIP3    H226657   5.073   3.985   4.218
 8906TIP3   OH226658   7.619   2.816   4.015
 8906TIP3    H126659   7.689   2.837   4.077
 8906TIP3    H226660   7.650   2.850   3.931
 8907TIP3   OH226661   1.350   3.013   2.951
 8907TIP3    H126662   1.439   3.043   2.971
 8907TIP3    H226663   1.312   2.993   3.037
 8908TIP3   OH226664   7.178   0.872   1.778
 8908TIP3    H126665   7.142   0.960   1.796
 8908TIP3    H226666   7.231   0.884   1.699
 8909TIP3   OH226667   3.417   4.926   3.549
 8909TIP3    H126668   3.374   4.854   3.502
 8909TIP3    H226669   3.366   5.003   3.526
 8910TIP3   OH226670   7.323   6.587   5.705
 8910TIP3    H126671   7.258   6.657   5.709
 8910TIP3    H226672   7.398   6.621   5.753
 8911TIP3   OH226673   1.517   1.258   2.234
 8911TIP3    H126674   1.506   1.173   2.192
 8911TIP3    H226675   1.610   1.263   2.254
 8912TIP3   OH226676   0.944   2.368   1.541
 8912TIP3    H126677   1.016   2.409   1.588
 8912TIP3    H226678   0.983   2.334   1.460
 8913TIP3   OH226679   5.780   4.142   1.700
 8913TIP3    H126680   5.847   4.210   1.706
 8913TIP3    H226681   5.781   4.115   1.608
 8914TIP3   OH226682   1.002   2.159   5.148
 8914TIP3    H126683   1.086   2.199   5.124
 8914TIP3    H226684   0.957   2.226   5.199
 8915TIP3   OH226685   2.549   0.884   5.816
 8915TIP3    H126686   2.496   0.960   5.794
 8915TIP3    H226687   2.603   0.913   5.889
 8916TIP3   OH226688   4.068   2.704   3.230
 8916TIP3    H126689   4.058   2.740   3.319
 8916TIP3    H226690   4.157   2.669   3.228
 8917TIP3   OH226691   3.948   2.136   1.608
 8917TIP3    H126692   4.020   2.199   1.615
 8917TIP3    H226693   3.928   2.113   1.699
 8918TIP3   OH226694   5.397   4.041   0.371
 8918TIP3    H126695   5.354   4.067   0.290
 8918TIP3    H226696   5.490   4.039   0.349
 8919TIP3   OH226697   4.304   0.708   5.297
 8919TIP3    H126698   4.304   0.631   5.240
 8919TIP3    H226699   4.211   0.725   5.313
 8920TIP3   OH226700   5.909   2.928   4.555
 8920TIP3    H126701   5.852   2.939   4.478
 8920TIP3    H226702   5.906   3.013   4.599
 8921TIP3   OH226703   5.139   4.096   1.224
 8921TIP3    H126704   5.043   4.096   1.221
 8921TIP3    H226705   5.161   4.016   1.271
 8922TIP3   OH226706   5.764   1.035   3.671
 8922TIP3    H126707   5.675   1.043   3.637
 8922TIP3    H226708   5.757   1.062   3.762
 8923TIP3   OH226709   6.849   6.537   5.815
 8923TIP3    H126710   6.916   6.549   5.747
 8923TIP3    H226711   6.768   6.569   5.774
 8924TIP3   OH226712   5.534   3.097   3.215
 8924TIP3    H126713   5.614   3.106   3.267
 8924TIP3    H226714   5.531   3.177   3.162
 8925TIP3   OH226715   1.558   0.194   0.876
 8925TIP3    H126716   1.586   0.165   0.962
 8925TIP3    H226717   1.469   0.228   0.889
 8926TIP3   OH226718   6.327   3.739   1.995
 8926TIP3    H126719   6.334   3.811   1.932
 8926TIP3    H226720   6.264   3.771   2.060
 8927TIP3   OH226721   7.856   5.117   4.056
 8927TIP3    H126722   7.915   5.131   3.983
 8927TIP3    H226723   7.857   5.200   4.105
 8928TIP3   OH226724   5.752   5.405   6.164
 8928TIP3    H126725   5.772   5.317   6.132
 8928TIP3    H226726   5.678   5.392   6.224
 8929TIP3   OH226727   3.940   5.222   6.767
 8929TIP3    H126728   3.974   5.142   6.726
 8929TIP3    H226729   4.017   5.263   6.806
 8930TIP3   OH226730   4.318   4.830   5.141
 8930TIP3    H126731   4.226   4.818   5.165
 8930TIP3    H226732   4.365   4.827   5.224
 8931TIP3   OH226733   4.715   3.103   2.918
 8931TIP3    H126734   4.746   3.017   2.946
 8931TIP3    H226735   4.688   3.147   2.999
 8932TIP3   OH226736   5.742   3.923   5.248
 8932TIP3    H126737   5.666   3.967   5.209
 8932TIP3    H226738   5.705   3.869   5.318
 8933TIP3   OH226739   4.116   4.451   5.649
 8933TIP3    H126740   4.199   4.461   5.601
 8933TIP3    H226741   4.096   4.539   5.679
 8934TIP3   OH226742   1.610   2.986   2.351
 8934TIP3    H126743   1.580   3.072   2.379
 8934TIP3    H226744   1.562   2.969   2.270
 8935TIP3   OH226745   0.310   3.389   1.158
 8935TIP3    H126746   0.349   3.459   1.211
 8935TIP3    H226747   0.288   3.431   1.075
 8936TIP3   OH226748   1.742   4.074   2.774
 8936TIP3    H126749   1.759   4.164   2.803
 8936TIP3    H226750   1.826   4.044   2.740
 8937TIP3   OH226751   5.387   2.799   2.567
 8937TIP3    H126752   5.327   2.823   2.497
 8937TIP3    H226753   5.456   2.749   2.524
 8938TIP3   OH226754   7.825   5.639   4.083
 8938TIP3    H126755   7.764   5.713   4.089
 8938TIP3    H226756   7.838   5.627   3.989
 8939TIP3   OH226757   0.441   2.158   2.673
 8939TIP3    H126758   0.531   2.164   2.640
 8939TIP3    H226759   0.405   2.245   2.661
 8940TIP3   OH226760   4.511   6.220   3.212
 8940TIP3    H126761   4.583   6.248   3.155
 8940TIP3    H226762   4.540   6.244   3.300
 8941TIP3   OH226763   5.353   2.611   3.790
 8941TIP3    H126764   5.448   2.613   3.789
 8941TIP3    H226765   5.330   2.520   3.808
 8942TIP3   OH226766   3.993   4.194   1.414
 8942TIP3    H126767   3.945   4.143   1.349
 8942TIP3    H226768   4.079   4.210   1.373
 8943TIP3   OH226769   5.395   7.128   3.311
 8943TIP3    H126770   5.390   7.186   3.386
 8943TIP3    H226771   5.408   7.041   3.348
 8944TIP3   OH226772   1.515   2.388   1.251
 8944TIP3    H126773   1.469   2.466   1.219
 8944TIP3    H226774   1.495   2.320   1.186
 8945TIP3   OH226775   5.287   1.805   0.426
 8945TIP3    H126776   5.347   1.839   0.492
 8945TIP3    H226777   5.327   1.723   0.397
 8946TIP3   OH226778   4.603   0.037   1.754
 8946TIP3    H126779   4.543  -0.007   1.815
 8946TIP3    H226780   4.584   0.130   1.765
 8947TIP3   OH226781   8.368   2.946   0.910
 8947TIP3    H126782   8.353   2.868   0.857
 8947TIP3    H226783   8.422   2.916   0.982
 8948TIP3   OH226784   6.473   6.664   6.017
 8948TIP3    H126785   6.409   6.615   6.068
 8948TIP3    H226786   6.542   6.601   5.998
 8949TIP3   OH226787   2.420   1.706   0.561
 8949TIP3    H126788   2.411   1.791   0.519
 8949TIP3    H226789   2.500   1.670   0.523
 8950TIP3   OH226790   1.687   2.601   6.166
 8950TIP3    H126791   1.646   2.682   6.197
 8950TIP3    H226792   1.648   2.532   6.220
 8951TIP3   OH226793   6.217   0.705   2.714
 8951TIP3    H126794   6.236   0.787   2.668
 8951TIP3    H226795   6.267   0.639   2.666
 8952TIP3   OH226796   1.497   3.236   0.848
 8952TIP3    H126797   1.528   3.179   0.917
 8952TIP3    H226798   1.418   3.277   0.883
 8953TIP3   OH226799   3.095   0.461   1.982
 8953TIP3    H126800   3.119   0.373   1.953
 8953TIP3    H226801   3.120   0.517   1.910
 8954TIP3   OH226802   4.079   6.495   4.962
 8954TIP3    H126803   4.021   6.489   5.037
 8954TIP3    H226804   4.166   6.507   5.000
 8955TIP3   OH226805   1.424   1.569   3.738
 8955TIP3    H126806   1.481   1.541   3.810
 8955TIP3    H226807   1.380   1.646   3.772
 8956TIP3   OH226808   1.306   7.475   1.524
 8956TIP3    H126809   1.236   7.410   1.527
 8956TIP3    H226810   1.335   7.474   1.432
 8957TIP3   OH226811   3.211   7.032   5.239
 8957TIP3    H126812   3.258   6.962   5.284
 8957TIP3    H226813   3.197   7.098   5.307
 8958TIP3   OH226814   1.675   2.654   3.161
 8958TIP3    H126815   1.735   2.582   3.181
 8958TIP3    H226816   1.691   2.719   3.229
 8959TIP3   OH226817   0.091   4.604   4.589
 8959TIP3    H126818   0.028   4.564   4.650
 8959TIP3    H226819   0.088   4.547   4.512
 8960TIP3   OH226820   1.988   5.484   3.875
 8960TIP3    H126821   1.931   5.422   3.828
 8960TIP3    H226822   2.074   5.472   3.836
 8961TIP3   OH226823   7.341   2.834   1.151
 8961TIP3    H126824   7.365   2.906   1.092
 8961TIP3    H226825   7.254   2.807   1.122
 8962TIP3   OH226826   6.591   0.949   2.880
 8962TIP3    H126827   6.564   0.860   2.905
 8962TIP3    H226828   6.513   0.986   2.837
 8963TIP3   OH226829   4.626   2.627   6.206
 8963TIP3    H126830   4.534   2.624   6.179
 8963TIP3    H226831   4.625   2.677   6.288
 8964TIP3   OH226832   7.627   5.168   6.730
 8964TIP3    H126833   7.616   5.263   6.739
 8964TIP3    H226834   7.555   5.140   6.674
 8965TIP3   OH226835   5.843   2.642   0.682
 8965TIP3    H126836   5.884   2.560   0.709
 8965TIP3    H226837   5.852   2.643   0.587
 8966TIP3   OH226838   2.164   3.895   6.547
 8966TIP3    H126839   2.120   3.920   6.466
 8966TIP3    H226840   2.102   3.918   6.616
 8967TIP3   OH226841   2.305   3.372   6.322
 8967TIP3    H126842   2.236   3.356   6.258
 8967TIP3    H226843   2.304   3.466   6.336
 8968TIP3   OH226844   6.779   6.602   3.667
 8968TIP3    H126845   6.723   6.548   3.611
 8968TIP3    H226846   6.830   6.538   3.718
 8969TIP3   OH226847   5.779   6.424   1.028
 8969TIP3    H126848   5.786   6.365   1.103
 8969TIP3    H226849   5.694   6.403   0.989
 8970TIP3   OH226850   8.248   5.999   1.838
 8970TIP3    H126851   8.158   5.979   1.861
 8970TIP3    H226852   8.301   5.947   1.899
 8971TIP3   OH226853   5.230   5.974   4.594
 8971TIP3    H126854   5.191   5.888   4.579
 8971TIP3    H226855   5.237   6.013   4.507
 8972TIP3   OH226856   4.860   1.775   4.557
 8972TIP3    H126857   4.900   1.711   4.616
 8972TIP3    H226858   4.896   1.754   4.471
 8973TIP3   OH226859   3.518   1.529   0.527
 8973TIP3    H126860   3.612   1.545   0.524
 8973TIP3    H226861   3.510   1.433   0.525
 8974TIP3   OH226862   3.280   0.490   0.275
 8974TIP3    H126863   3.298   0.564   0.333
 8974TIP3    H226864   3.267   0.416   0.334
 8975TIP3   OH226865   3.649   3.700   5.644
 8975TIP3    H126866   3.665   3.742   5.559
 8975TIP3    H226867   3.579   3.752   5.683
 8976TIP3   OH226868   0.402   2.952   2.692
 8976TIP3    H126869   0.312   2.977   2.673
 8976TIP3    H226870   0.439   2.926   2.608
 8977TIP3   OH226871   3.696   0.032   5.415
 8977TIP3    H126872   3.675   0.125   5.417
 8977TIP3    H226873   3.744   0.017   5.497
 8978TIP3   OH226874   7.439   6.510   6.351
 8978TIP3    H126875   7.438   6.574   6.422
 8978TIP3    H226876   7.363   6.454   6.369
 8979TIP3   OH226877   4.336   5.760   2.712
 8979TIP3    H126878   4.345   5.796   2.623
 8979TIP3    H226879   4.340   5.837   2.769
 8980TIP3   OH226880   7.464   5.663   0.248
 8980TIP3    H126881   7.473   5.722   0.323
 8980TIP3    H226882   7.547   5.673   0.202
 8981TIP3   OH226883   0.777   1.885   3.002
 8981TIP3    H126884   0.720   1.809   3.018
 8981TIP3    H226885   0.865   1.848   2.999
 8982TIP3   OH226886   4.509   7.428   2.679
 8982TIP3    H126887   4.448   7.476   2.736
 8982TIP3    H226888   4.458   7.410   2.600
 8983TIP3   OH226889   1.281   1.514   5.712
 8983TIP3    H126890   1.324   1.572   5.649
 8983TIP3    H226891   1.240   1.446   5.659
 8984TIP3   OH226892   6.454   1.340   4.641
 8984TIP3    H126893   6.461   1.431   4.612
 8984TIP3    H226894   6.438   1.291   4.561
 8985TIP3   OH226895   5.043   7.567   6.053
 8985TIP3    H126896   5.068   7.577   5.961
 8985TIP3    H226897   4.965   7.512   6.052
 8986TIP3   OH226898   8.036   7.842   1.740
 8986TIP3    H126899   7.943   7.831   1.760
 8986TIP3    H226900   8.039   7.851   1.644
 8987TIP3   OH226901   7.079   1.331   2.036
 8987TIP3    H126902   7.169   1.346   2.062
 8987TIP3    H226903   7.028   1.392   2.090
 8988TIP3   OH226904   0.777   1.398   2.367
 8988TIP3    H126905   0.822   1.360   2.442
 8988TIP3    H226906   0.842   1.401   2.297
 8989TIP3   OH226907   3.091   1.333   3.853
 8989TIP3    H126908   3.150   1.323   3.778
 8989TIP3    H226909   3.135   1.397   3.909
 8990TIP3   OH226910   6.136   3.230   6.001
 8990TIP3    H126911   6.129   3.188   5.916
 8990TIP3    H226912   6.046   3.231   6.035
 8991TIP3   OH226913   0.730   1.066   3.850
 8991TIP3    H126914   0.757   0.989   3.900
 8991TIP3    H226915   0.813   1.104   3.819
 8992TIP3   OH226916   2.632   7.413   4.211
 8992TIP3    H126917   2.728   7.410   4.206
 8992TIP3    H226918   2.613   7.395   4.303
 8993TIP3   OH226919   0.698   7.280   2.110
 8993TIP3    H126920   0.671   7.188   2.109
 8993TIP3    H226921   0.646   7.320   2.041
 8994TIP3   OH226922   5.644   4.733   4.444
 8994TIP3    H126923   5.710   4.787   4.488
 8994TIP3    H226924   5.604   4.792   4.380
 8995TIP3   OH226925   8.331   6.524   2.160
 8995TIP3    H126926   8.262   6.585   2.185
 8995TIP3    H226927   8.299   6.481   2.081
 8996TIP3   OH226928   1.979   2.423   1.334
 8996TIP3    H126929   2.028   2.407   1.414
 8996TIP3    H226930   1.888   2.404   1.358
 8997TIP3   OH226931   3.331   6.412   6.769
 8997TIP3    H126932   3.389   6.378   6.837
 8997TIP3    H226933   3.363   6.501   6.752
 8998TIP3   OH226934   0.443   7.272   4.765
 8998TIP3    H126935   0.439   7.255   4.859
 8998TIP3    H226936   0.537   7.268   4.745
 8999TIP3   OH226937   3.375   5.214   0.514
 8999TIP3    H126938   3.337   5.242   0.431
 8999TIP3    H226939   3.301   5.212   0.574
 9000TIP3   OH226940   2.418   2.421   6.309
 9000TIP3    H126941   2.419   2.514   6.332
 9000TIP3    H226942   2.346   2.384   6.361
 9001TIP3   OH226943   7.576   6.908   2.784
 9001TIP3    H126944   7.594   6.831   2.837
 9001TIP3    H226945   7.658   6.957   2.784
 9002TIP3   OH226946   1.016   4.740   6.470
 9002TIP3    H126947   1.021   4.645   6.462
 9002TIP3    H226948   0.922   4.758   6.475
 9003TIP3   OH226949   0.260   3.549   4.643
 9003TIP3    H126950   0.256   3.489   4.717
 9003TIP3    H226951   0.346   3.533   4.604
 9004TIP3   OH226952   3.600   5.621   0.975
 9004TIP3    H126953   3.641   5.661   1.051
 9004TIP3    H226954   3.665   5.631   0.905
 9005TIP3   OH226955   5.056   0.252   2.178
 9005TIP3    H126956   4.967   0.251   2.212
 9005TIP3    H226957   5.080   0.160   2.169
 9006TIP3   OH226958   5.657   7.852   2.625
 9006TIP3    H126959   5.623   7.814   2.705
 9006TIP3    H226960   5.751   7.861   2.641
 9007TIP3   OH226961   3.850   3.340   0.619
 9007TIP3    H126962   3.886   3.252   0.623
 9007TIP3    H226963   3.925   3.396   0.600
 9008TIP3   OH226964   4.194   4.402   3.763
 9008TIP3    H126965   4.119   4.344   3.752
 9008TIP3    H226966   4.211   4.402   3.857
 9009TIP3   OH226967   1.538   3.053   6.873
 9009TIP3    H126968   1.495   3.025   6.792
 9009TIP3    H226969   1.590   3.129   6.848
 9010TIP3   OH226970   1.043   4.872   6.211
 9010TIP3    H126971   1.078   4.961   6.206
 9010TIP3    H226972   1.043   4.851   6.304
 9011TIP3   OH226973   6.890   6.375   6.016
 9011TIP3    H126974   6.866   6.418   5.934
 9011TIP3    H226975   6.847   6.426   6.084
 9012TIP3   OH226976   2.372   0.229   6.728
 9012TIP3    H126977   2.281   0.222   6.699
 9012TIP3    H226978   2.411   0.295   6.671
 9013TIP3   OH226979   6.573   0.739   6.794
 9013TIP3    H126980   6.606   0.655   6.825
 9013TIP3    H226981   6.630   0.804   6.833
 9014TIP3   OH226982   4.676   0.012   0.306
 9014TIP3    H126983   4.627  -0.051   0.358
 9014TIP3    H226984   4.610   0.053   0.250
 9015TIP3   OH226985   4.330   3.092   3.595
 9015TIP3    H126986   4.260   3.154   3.573
 9015TIP3    H226987   4.322   3.080   3.690
 9016TIP3   OH226988   7.645   2.113   6.725
 9016TIP3    H126989   7.653   2.034   6.779
 9016TIP3    H226990   7.727   2.160   6.740
 9017TIP3   OH226991   5.754   0.676   1.035
 9017TIP3    H126992   5.743   0.622   0.957
 9017TIP3    H226993   5.812   0.625   1.092
 9018TIP3   OH226994   6.559   7.312   6.024
 9018TIP3    H126995   6.542   7.236   6.079
 9018TIP3    H226996   6.559   7.278   5.935
 9019TIP3   OH226997  -0.014   6.918   5.805
 9019TIP3    H126998   0.013   6.865   5.730
 9019TIP3    H226999   0.065   6.925   5.858
 9020TIP3   OH227000   6.319   1.363   4.170
 9020TIP3    H127001   6.255   1.324   4.110
 9020TIP3    H227002   6.338   1.449   4.133
 9021TIP3   OH227003   3.858   4.888   2.113
 9021TIP3    H127004   3.837   4.981   2.107
 9021TIP3    H227005   3.795   4.846   2.054
 9022TIP3   OH227006   5.457   6.899   5.673
 9022TIP3    H127007   5.396   6.825   5.679
 9022TIP3    H227008   5.487   6.912   5.763
 9023TIP3   OH227009   1.468   2.338   5.079
 9023TIP3    H127010   1.511   2.339   5.165
 9023TIP3    H227011   1.516   2.272   5.029
 9024TIP3   OH227012   4.670   0.800   1.539
 9024TIP3    H127013   4.624   0.880   1.566
 9024TIP3    H227014   4.720   0.826   1.462
 9025TIP3   OH227015   4.380   7.161   1.955
 9025TIP3    H127016   4.382   7.257   1.961
 9025TIP3    H227017   4.417   7.131   2.037
 9026TIP3   OH227018   7.342   6.168   2.602
 9026TIP3    H127019   7.380   6.244   2.646
 9026TIP3    H227020   7.270   6.141   2.659
 9027TIP3   OH227021   3.669   2.393   3.234
 9027TIP3    H127022   3.641   2.320   3.290
 9027TIP3    H227023   3.709   2.456   3.295
 9028TIP3   OH227024   1.266   2.401   6.384
 9028TIP3    H127025   1.199   2.369   6.324
 9028TIP3    H227026   1.323   2.455   6.330
 9029TIP3   OH227027   6.736   1.257   5.954
 9029TIP3    H127028   6.809   1.306   5.916
 9029TIP3    H227029   6.771   1.218   6.033
 9030TIP3   OH227030   6.650   7.377   4.963
 9030TIP3    H127031   6.561   7.342   4.968
 9030TIP3    H227032   6.652   7.426   4.881
 9031TIP3   OH227033   3.423   3.289   3.767
 9031TIP3    H127034   3.390   3.369   3.808
 9031TIP3    H227035   3.352   3.260   3.709
 9032TIP3   OH227036   6.736   3.072   0.596
 9032TIP3    H127037   6.674   3.104   0.531
 9032TIP3    H227038   6.818   3.064   0.549
 9033TIP3   OH227039   7.460   7.005   0.020
 9033TIP3    H127040   7.443   7.048  -0.064
 9033TIP3    H227041   7.413   7.058   0.084
 9034TIP3   OH227042   8.089   4.078   0.841
 9034TIP3    H127043   7.999   4.084   0.872
 9034TIP3    H227044   8.081   4.065   0.746
 9035TIP3   OH227045   3.946   4.457   2.882
 9035TIP3    H127046   4.005   4.492   2.815
 9035TIP3    H227047   3.863   4.444   2.837
 9036TIP3   OH227048   5.133   4.273   3.367
 9036TIP3    H127049   5.066   4.267   3.300
 9036TIP3    H227050   5.198   4.334   3.331
 9037TIP3   OH227051   0.246   4.541   3.037
 9037TIP3    H127052   0.316   4.577   3.091
 9037TIP3    H227053   0.189   4.495   3.098
 9038TIP3   OH227054   2.485   3.704   3.267
 9038TIP3    H127055   2.399   3.715   3.308
 9038TIP3    H227056   2.466   3.698   3.174
 9039TIP3   OH227057   3.943   6.448   5.189
 9039TIP3    H127058   3.945   6.400   5.272
 9039TIP3    H227059   3.870   6.410   5.140
 9040TIP3   OH227060   5.977   0.836   6.310
 9040TIP3    H127061   6.050   0.795   6.264
 9040TIP3    H227062   5.990   0.930   6.295
 9041TIP3   OH227063   4.135   1.098   1.000
 9041TIP3    H127064   4.126   1.187   0.966
 9041TIP3    H227065   4.137   1.108   1.095
 9042TIP3   OH227066   3.289   3.980   1.925
 9042TIP3    H127067   3.240   3.907   1.887
 9042TIP3    H227068   3.273   3.973   2.019
 9043TIP3   OH227069   8.327   7.026   0.279
 9043TIP3    H127070   8.234   7.013   0.298
 9043TIP3    H227071   8.368   7.036   0.365
 9044TIP3   OH227072   8.273   6.029   5.927
 9044TIP3    H127073   8.294   6.105   5.872
 9044TIP3    H227074   8.242   5.963   5.865
 9045TIP3   OH227075   8.289   0.077   4.408
 9045TIP3    H127076   8.334   0.013   4.353
 9045TIP3    H227077   8.350   0.150   4.414
 9046TIP3   OH227078   3.617   4.826   1.967
 9046TIP3    H127079   3.620   4.812   1.872
 9046TIP3    H227080   3.524   4.839   1.986
 9047TIP3   OH227081   2.390   2.880   5.455
 9047TIP3    H127082   2.462   2.819   5.470
 9047TIP3    H227083   2.405   2.914   5.367
 9048TIP3   OH227084   7.290   1.758   4.482
 9048TIP3    H127085   7.201   1.783   4.507
 9048TIP3    H227086   7.299   1.788   4.391
 9049TIP3   OH227087   2.984   7.741   0.708
 9049TIP3    H127088   3.029   7.806   0.762
 9049TIP3    H227089   3.025   7.748   0.622
 9050TIP3   OH227090   5.243   6.329   1.689
 9050TIP3    H127091   5.150   6.323   1.667
 9050TIP3    H227092   5.282   6.381   1.619
 9051TIP3   OH227093   5.452   6.513   0.368
 9051TIP3    H127094   5.413   6.461   0.298
 9051TIP3    H227095   5.390   6.585   0.382
 9052TIP3   OH227096   3.588   6.082   0.578
 9052TIP3    H127097   3.495   6.087   0.597
 9052TIP3    H227098   3.629   6.143   0.639
 9053TIP3   OH227099   3.305   0.293   6.260
 9053TIP3    H127100   3.228   0.275   6.314
 9053TIP3    H227101   3.329   0.383   6.281
 9054TIP3   OH227102   2.615   3.475   6.636
 9054TIP3    H127103   2.672   3.516   6.702
 9054TIP3    H227104   2.579   3.398   6.679
 9055TIP3   OH227105   2.492   7.710   0.059
 9055TIP3    H127106   2.576   7.756   0.064
 9055TIP3    H227107   2.514   7.619   0.079
 9056TIP3   OH227108   1.194   4.845   4.425
 9056TIP3    H127109   1.255   4.786   4.470
 9056TIP3    H227110   1.144   4.886   4.496
 9057TIP3   OH227111   6.957   2.718   0.025
 9057TIP3    H127112   6.975   2.709  -0.069
 9057TIP3    H227113   6.988   2.806   0.047
 9058TIP3   OH227114   5.172   5.980   2.097
 9058TIP3    H127115   5.122   5.914   2.048
 9058TIP3    H227116   5.263   5.965   2.072
 9059TIP3   OH227117   2.577   6.177   3.224
 9059TIP3    H127118   2.646   6.241   3.243
 9059TIP3    H227119   2.564   6.131   3.307
 9060TIP3   OH227120   2.180   3.916   0.396
 9060TIP3    H127121   2.126   3.861   0.340
 9060TIP3    H227122   2.242   3.957   0.336
 9061TIP3   OH227123   7.051   3.645   4.801
 9061TIP3    H127124   7.141   3.651   4.768
 9061TIP3    H227125   7.055   3.575   4.867
 9062TIP3   OH227126   7.673   3.339   1.073
 9062TIP3    H127127   7.584   3.311   1.092
 9062TIP3    H227128   7.689   3.310   0.984
 9063TIP3   OH227129   4.263   4.547   4.051
 9063TIP3    H127130   4.331   4.482   4.067
 9063TIP3    H227131   4.232   4.572   4.138
 9064TIP3   OH227132   4.044   4.194   5.489
 9064TIP3    H127133   4.002   4.139   5.555
 9064TIP3    H227134   4.070   4.273   5.537
 9065TIP3   OH227135   7.580   4.200   1.252
 9065TIP3    H127136   7.635   4.252   1.193
 9065TIP3    H227137   7.600   4.109   1.230
 9066TIP3   OH227138   0.195   1.941   0.490
 9066TIP3    H127139   0.179   2.021   0.539
 9066TIP3    H227140   0.284   1.951   0.455
 9067TIP3   OH227141   1.426   0.397   2.076
 9067TIP3    H127142   1.367   0.424   2.146
 9067TIP3    H227143   1.474   0.476   2.053
 9068TIP3   OH227144   3.293   2.905   4.658
 9068TIP3    H127145   3.377   2.860   4.654
 9068TIP3    H227146   3.308   2.977   4.719
 9069TIP3   OH227147   2.434   5.552   0.006
 9069TIP3    H127148   2.515   5.504   0.025
 9069TIP3    H227149   2.385   5.549   0.089
 9070TIP3   OH227150   6.384   6.305   2.361
 9070TIP3    H127151   6.429   6.258   2.431
 9070TIP3    H227152   6.435   6.385   2.349
 9071TIP3   OH227153   3.004   0.855   2.917
 9071TIP3    H127154   2.993   0.861   2.822
 9071TIP3    H227155   2.969   0.938   2.950
 9072TIP3   OH227156   4.015   1.844   2.257
 9072TIP3    H127157   3.999   1.929   2.299
 9072TIP3    H227158   3.958   1.783   2.304
 9073TIP3   OH227159   0.211   4.836   4.713
 9073TIP3    H127160   0.301   4.810   4.691
 9073TIP3    H227161   0.156   4.772   4.668
 9074TIP3   OH227162   4.885   2.595   6.565
 9074TIP3    H127163   4.846   2.639   6.640
 9074TIP3    H227164   4.924   2.515   6.602
 9075TIP3   OH227165   0.427   4.409   2.641
 9075TIP3    H127166   0.440   4.319   2.673
 9075TIP3    H227167   0.514   4.449   2.646
 9076TIP3   OH227168   5.958   1.870   2.183
 9076TIP3    H127169   5.994   1.805   2.243
 9076TIP3    H227170   6.003   1.951   2.207
 9077TIP3   OH227171   7.929   1.782   5.983
 9077TIP3    H127172   7.850   1.752   5.938
 9077TIP3    H227173   7.972   1.840   5.920
 9078TIP3   OH227174   1.704   1.279   3.800
 9078TIP3    H127175   1.748   1.219   3.740
 9078TIP3    H227176   1.772   1.343   3.824
 9079TIP3   OH227177   2.202   6.003   0.437
 9079TIP3    H127178   2.227   6.095   0.443
 9079TIP3    H227179   2.280   5.959   0.404
 9080TIP3   OH227180   2.214   0.034   5.955
 9080TIP3    H127181   2.269  -0.028   5.908
 9080TIP3    H227182   2.226   0.013   6.047
 9081TIP3   OH227183   5.024   1.905   4.755
 9081TIP3    H127184   5.093   1.956   4.713
 9081TIP3    H227185   4.973   1.869   4.682
 9082TIP3   OH227186   1.980   7.601   1.386
 9082TIP3    H127187   2.066   7.611   1.344
 9082TIP3    H227188   1.962   7.686   1.424
 9083TIP3   OH227189   7.932   3.582   2.590
 9083TIP3    H127190   7.903   3.498   2.626
 9083TIP3    H227191   7.892   3.585   2.502
 9084TIP3   OH227192   6.658   5.343   5.915
 9084TIP3    H127193   6.697   5.256   5.925
 9084TIP3    H227194   6.682   5.370   5.827
 9085TIP3   OH227195   1.103   7.273   5.674
 9085TIP3    H127196   1.156   7.220   5.734
 9085TIP3    H227197   1.118   7.363   5.702
 9086TIP3   OH227198   6.000   5.496   0.852
 9086TIP3    H127199   6.053   5.422   0.881
 9086TIP3    H227200   5.949   5.462   0.779
 9087TIP3   OH227201   4.130   5.710   0.862
 9087TIP3    H127202   4.113   5.801   0.837
 9087TIP3    H227203   4.184   5.675   0.791
 9088TIP3   OH227204   1.830   6.900   0.074
 9088TIP3    H127205   1.804   6.892  -0.017
 9088TIP3    H227206   1.869   6.815   0.096
 9089TIP3   OH227207   4.483   6.605   5.065
 9089TIP3    H127208   4.415   6.621   4.999
 9089TIP3    H227209   4.492   6.510   5.067
 9090TIP3   OH227210   4.659   6.552   5.832
 9090TIP3    H127211   4.568   6.524   5.819
 9090TIP3    H227212   4.658   6.594   5.918
 9091TIP3   OH227213   1.385   4.740   4.877
 9091TIP3    H127214   1.469   4.738   4.923
 9091TIP3    H227215   1.358   4.832   4.882
 9092TIP3   OH227216   7.537   5.321   0.823
 9092TIP3    H127217   7.612   5.318   0.763
 9092TIP3    H227218   7.524   5.230   0.849
 9093TIP3   OH227219   2.968   0.549   6.418
 9093TIP3    H127220   3.029   0.601   6.470
 9093TIP3    H227221   2.966   0.593   6.333
 9094TIP3   OH227222  -0.007   5.224   4.751
 9094TIP3    H127223  -0.003   5.277   4.831
 9094TIP3    H227224   0.037   5.277   4.685
 9095TIP3   OH227225   1.450   7.398   3.050
 9095TIP3    H127226   1.386   7.341   3.093
 9095TIP3    H227227   1.418   7.487   3.066
 9096TIP3   OH227228   4.838   5.445   0.184
 9096TIP3    H127229   4.884   5.512   0.133
 9096TIP3    H227230   4.817   5.376   0.121
 9097TIP3   OH227231   0.918   0.195   4.153
 9097TIP3    H127232   0.950   0.217   4.066
 9097TIP3    H227233   0.883   0.106   4.144
 9098TIP3   OH227234   5.576   0.784   4.664
 9098TIP3    H127235   5.531   0.839   4.728
 9098TIP3    H227236   5.589   0.701   4.710
 9099TIP3   OH227237   5.119   5.639   3.979
 9099TIP3    H127238   5.061   5.616   3.907
 9099TIP3    H227239   5.081   5.718   4.017
 9100TIP3   OH227240   7.736   7.765   3.195
 9100TIP3    H127241   7.715   7.722   3.112
 9100TIP3    H227242   7.766   7.694   3.252
 9101TIP3   OH227243   0.908   5.882   6.315
 9101TIP3    H127244   0.982   5.861   6.257
 9101TIP3    H227245   0.835   5.832   6.279
 9102TIP3   OH227246   1.965   3.287   0.440
 9102TIP3    H127247   1.927   3.257   0.523
 9102TIP3    H227248   1.906   3.252   0.373
 9103TIP3   OH227249   6.749   5.248   6.219
 9103TIP3    H127250   6.669   5.209   6.255
 9103TIP3    H227251   6.802   5.270   6.295
 9104TIP3   OH227252   6.436   5.137   1.680
 9104TIP3    H127253   6.368   5.203   1.664
 9104TIP3    H227254   6.411   5.097   1.764
 9105TIP3   OH227255   1.912   7.576   4.368
 9105TIP3    H127256   1.946   7.559   4.281
 9105TIP3    H227257   1.990   7.589   4.422
 9106TIP3   OH227258   2.637   4.022   4.151
 9106TIP3    H127259   2.659   3.984   4.065
 9106TIP3    H227260   2.714   4.074   4.174
 9107TIP3   OH227261   0.418   3.986   2.597
 9107TIP3    H127262   0.454   3.898   2.590
 9107TIP3    H227263   0.456   4.021   2.678
 9108TIP3   OH227264   1.653   2.155   2.126
 9108TIP3    H127265   1.562   2.182   2.137
 9108TIP3    H227266   1.701   2.203   2.193
 9109TIP3   OH227267   0.339   2.439   6.190
 9109TIP3    H127268   0.276   2.464   6.257
 9109TIP3    H227269   0.372   2.354   6.218
 9110TIP3   OH227270   0.083   6.956   3.657
 9110TIP3    H127271   0.174   6.959   3.629
 9110TIP3    H227272   0.074   7.029   3.719
 9111TIP3   OH227273   1.360   2.249   2.148
 9111TIP3    H127274   1.267   2.231   2.165
 9111TIP3    H227275   1.399   2.259   2.235
 9112TIP3   OH227276   7.764   5.334   5.111
 9112TIP3    H127277   7.854   5.304   5.120
 9112TIP3    H227278   7.741   5.316   5.019
 9113TIP3   OH227279   7.589   4.343   6.574
 9113TIP3    H127280   7.505   4.376   6.542
 9113TIP3    H227281   7.650   4.415   6.559
 9114TIP3   OH227282   3.564   3.708   6.012
 9114TIP3    H127283   3.649   3.711   5.968
 9114TIP3    H227284   3.577   3.759   6.092
 9115TIP3   OH227285   8.373   2.593   0.984
 9115TIP3    H127286   8.354   2.622   1.073
 9115TIP3    H227287   8.390   2.500   0.992
 9116TIP3   OH227288   0.186   7.258   2.766
 9116TIP3    H127289   0.267   7.266   2.818
 9116TIP3    H227290   0.158   7.349   2.753
 9117TIP3   OH227291   2.277   0.263   3.149
 9117TIP3    H127292   2.195   0.244   3.102
 9117TIP3    H227293   2.316   0.335   3.099
 9118TIP3   OH227294   7.358   4.631   2.996
 9118TIP3    H127295   7.340   4.609   3.087
 9118TIP3    H227296   7.439   4.682   2.999
 9119TIP3   OH227297   3.549   1.103   0.257
 9119TIP3    H127298   3.557   1.024   0.204
 9119TIP3    H227299   3.526   1.171   0.194
 9120TIP3   OH227300   1.995   0.145   0.030
 9120TIP3    H127301   1.934   0.089  -0.018
 9120TIP3    H227302   1.963   0.234   0.014
 9121TIP3   OH227303   0.722   2.866   4.198
 9121TIP3    H127304   0.788   2.870   4.267
 9121TIP3    H227305   0.639   2.852   4.244
 9122TIP3   OH227306   6.457   6.032   5.446
 9122TIP3    H127307   6.387   6.040   5.511
 9122TIP3    H227308   6.478   6.122   5.422
 9123TIP3   OH227309   5.858   2.771   0.993
 9123TIP3    H127310   5.930   2.708   0.998
 9123TIP3    H227311   5.834   2.773   0.901
 9124TIP3   OH227312   7.460   0.110   0.090
 9124TIP3    H127313   7.479   0.203   0.074
 9124TIP3    H227314   7.367   0.108   0.112
 9125TIP3   OH227315   5.785   5.338   2.915
 9125TIP3    H127316   5.708   5.321   2.860
 9125TIP3    H227317   5.856   5.292   2.869
 9126TIP3   OH227318   0.195   4.409   6.617
 9126TIP3    H127319   0.155   4.495   6.603
 9126TIP3    H227320   0.133   4.362   6.673
 9127TIP3   OH227321   5.534   2.519   2.638
 9127TIP3    H127322   5.534   2.551   2.547
 9127TIP3    H227323   5.611   2.462   2.643
 9128TIP3   OH227324   1.846   0.698   1.078
 9128TIP3    H127325   1.752   0.710   1.089
 9128TIP3    H227326   1.874   0.650   1.156
 9129TIP3   OH227327   4.567   4.293   4.857
 9129TIP3    H127328   4.498   4.289   4.923
 9129TIP3    H227329   4.648   4.284   4.907
 9130TIP3   OH227330   3.298   2.168   4.417
 9130TIP3    H127331   3.298   2.177   4.512
 9130TIP3    H227332   3.211   2.197   4.390
 9131TIP3   OH227333   6.294   4.949   1.439
 9131TIP3    H127334   6.304   5.032   1.486
 9131TIP3    H227335   6.282   4.974   1.348
 9132TIP3   OH227336   0.442   3.487   2.908
 9132TIP3    H127337   0.507   3.553   2.884
 9132TIP3    H227338   0.420   3.443   2.826
 9133TIP3   OH227339   2.336   6.109   0.125
 9133TIP3    H127340   2.246   6.122   0.156
 9133TIP3    H227341   2.364   6.028   0.166
 9134TIP3   OH227342   6.325   6.231   5.635
 9134TIP3    H127343   6.322   6.189   5.720
 9134TIP3    H227344   6.240   6.210   5.595
 9135TIP3   OH227345   3.167   5.998   2.852
 9135TIP3    H127346   3.159   6.027   2.761
 9135TIP3    H227347   3.077   5.978   2.879
 9136TIP3   OH227348   5.638   1.313   2.628
 9136TIP3    H127349   5.652   1.371   2.552
 9136TIP3    H227350   5.640   1.372   2.703
 9137TIP3   OH227351   8.365   7.586   5.404
 9137TIP3    H127352   8.359   7.490   5.397
 9137TIP3    H227353   8.408   7.613   5.323
 9138TIP3   OH227354   1.372   6.838   2.587
 9138TIP3    H127355   1.345   6.925   2.559
 9138TIP3    H227356   1.462   6.850   2.617
 9139TIP3   OH227357   1.842   3.141   4.212
 9139TIP3    H127358   1.870   3.072   4.272
 9139TIP3    H227359   1.922   3.188   4.190
 9140TIP3   OH227360   0.148   5.688   0.005
 9140TIP3    H127361   0.234   5.726  -0.007
 9140TIP3    H227362   0.122   5.714   0.094
 9141TIP3   OH227363   3.682   1.970   0.278
 9141TIP3    H127364   3.700   2.048   0.329
 9141TIP3    H227365   3.690   1.898   0.341
 9142TIP3   OH227366   7.876   3.667   3.630
 9142TIP3    H127367   7.940   3.599   3.611
 9142TIP3    H227368   7.924   3.733   3.680
 9143TIP3   OH227369   5.179   5.525   0.963
 9143TIP3    H127370   5.195   5.435   0.992
 9143TIP3    H227371   5.223   5.531   0.879
 9144TIP3   OH227372   4.789   1.514   3.640
 9144TIP3    H127373   4.708   1.469   3.616
 9144TIP3    H227374   4.841   1.516   3.560
 9145TIP3   OH227375   1.355   3.049   4.632
 9145TIP3    H127376   1.381   3.097   4.554
 9145TIP3    H227377   1.426   3.064   4.695
 9146TIP3   OH227378   5.598   7.137   0.042
 9146TIP3    H127379   5.595   7.153  -0.052
 9146TIP3    H227380   5.580   7.222   0.082
 9147TIP3   OH227381   0.490   5.387   0.295
 9147TIP3    H127382   0.409   5.438   0.287
 9147TIP3    H227383   0.490   5.330   0.219
 9148TIP3   OH227384   1.421   4.428   0.030
 9148TIP3    H127385   1.413   4.349   0.083
 9148TIP3    H227386   1.335   4.471   0.038
 9149TIP3   OH227387   2.232   5.980   2.977
 9149TIP3    H127388   2.279   5.913   2.928
 9149TIP3    H227389   2.222   6.052   2.915
 9150TIP3   OH227390   1.272   4.102   3.888
 9150TIP3    H127391   1.256   4.186   3.845
 9150TIP3    H227392   1.297   4.043   3.816
 9151TIP3   OH227393   2.466   3.178   1.834
 9151TIP3    H127394   2.499   3.091   1.811
 9151TIP3    H227395   2.410   3.203   1.761
 9152TIP3   OH227396   8.192   3.452   0.852
 9152TIP3    H127397   8.253   3.471   0.923
 9152TIP3    H227398   8.205   3.525   0.791
 9153TIP3   OH227399   4.736   5.275   2.905
 9153TIP3    H127400   4.738   5.185   2.938
 9153TIP3    H227401   4.763   5.328   2.980
 9154TIP3   OH227402   4.124   1.848   4.730
 9154TIP3    H127403   4.184   1.908   4.685
 9154TIP3    H227404   4.137   1.764   4.685
 9155TIP3   OH227405   5.244   1.259   4.848
 9155TIP3    H127406   5.261   1.238   4.940
 9155TIP3    H227407   5.182   1.191   4.819
 9156TIP3   OH227408   5.711   0.345   3.655
 9156TIP3    H127409   5.700   0.391   3.739
 9156TIP3    H227410   5.699   0.253   3.676
 9157TIP3   OH227411   4.970   3.886   0.702
 9157TIP3    H127412   4.979   3.791   0.692
 9157TIP3    H227413   5.023   3.923   0.631
 9158TIP3   OH227414   0.600   2.949   2.504
 9158TIP3    H127415   0.625   3.023   2.449
 9158TIP3    H227416   0.543   2.896   2.448
 9159TIP3   OH227417   5.316   7.028   3.731
 9159TIP3    H127418   5.280   6.968   3.797
 9159TIP3    H227419   5.310   6.980   3.649
 9160TIP3   OH227420   7.027   0.598   1.438
 9160TIP3    H127421   6.941   0.572   1.470
 9160TIP3    H227422   7.010   0.637   1.352
 9161TIP3   OH227423   0.324   1.083   6.067
 9161TIP3    H127424   0.408   1.120   6.095
 9161TIP3    H227425   0.300   1.022   6.137
 9162TIP3   OH227426   4.705   7.852   1.437
 9162TIP3    H127427   4.640   7.785   1.459
 9162TIP3    H227428   4.658   7.915   1.382
 9163TIP3   OH227429   4.837   5.391   2.673
 9163TIP3    H127430   4.749   5.415   2.645
 9163TIP3    H227431   4.825   5.358   2.763
 9164TIP3   OH227432   4.119   1.595   5.086
 9164TIP3    H127433   4.196   1.556   5.046
 9164TIP3    H227434   4.151   1.676   5.127
 9165TIP3   OH227435   1.157   6.494   4.938
 9165TIP3    H127436   1.184   6.496   5.029
 9165TIP3    H227437   1.177   6.582   4.905
 9166TIP3   OH227438   2.405   1.343   5.923
 9166TIP3    H127439   2.419   1.299   5.839
 9166TIP3    H227440   2.330   1.298   5.961
 9167TIP3   OH227441   5.173   2.053   0.375
 9167TIP3    H127442   5.202   1.962   0.387
 9167TIP3    H227443   5.243   2.106   0.413
 9168TIP3   OH227444   3.508   4.785   0.698
 9168TIP3    H127445   3.602   4.780   0.679
 9168TIP3    H227446   3.502   4.838   0.777
 9169TIP3   OH227447   3.187   0.968   5.948
 9169TIP3    H127448   3.125   0.962   5.876
 9169TIP3    H227449   3.135   0.998   6.023
 9170TIP3   OH227450   3.329   1.319   3.693
 9170TIP3    H127451   3.317   1.329   3.599
 9170TIP3    H227452   3.419   1.347   3.709
 9171TIP3   OH227453   6.519   1.075   0.442
 9171TIP3    H127454   6.444   1.017   0.452
 9171TIP3    H227455   6.587   1.036   0.497
 9172TIP3   OH227456   4.246   3.264   6.765
 9172TIP3    H127457   4.236   3.241   6.857
 9172TIP3    H227458   4.211   3.352   6.757
 9173TIP3   OH227459   7.141   3.031   6.755
 9173TIP3    H127460   7.141   3.126   6.742
 9173TIP3    H227461   7.150   3.020   6.850
 9174TIP3   OH227462   8.176   5.907   3.615
 9174TIP3    H127463   8.260   5.930   3.654
 9174TIP3    H227464   8.137   5.991   3.590
 9175TIP3   OH227465   5.659   0.075   6.350
 9175TIP3    H127466   5.582   0.025   6.321
 9175TIP3    H227467   5.718   0.072   6.275
 9176TIP3   OH227468   2.188   4.563   1.313
 9176TIP3    H127469   2.254   4.630   1.295
 9176TIP3    H227470   2.215   4.488   1.261
 9177TIP3   OH227471   7.895   4.051   2.831
 9177TIP3    H127472   7.877   4.017   2.744
 9177TIP3    H227473   7.977   4.009   2.857
 9178TIP3   OH227474   6.770   5.060   6.698
 9178TIP3    H127475   6.767   5.001   6.773
 9178TIP3    H227476   6.779   5.002   6.622
 9179TIP3   OH227477   3.249   6.129   3.279
 9179TIP3    H127478   3.283   6.140   3.191
 9179TIP3    H227479   3.311   6.175   3.335
 9180TIP3   OH227480   2.866   0.292   1.194
 9180TIP3    H127481   2.814   0.212   1.206
 9180TIP3    H227482   2.834   0.352   1.261
 9181TIP3   OH227483   6.429   3.595   4.511
 9181TIP3    H127484   6.499   3.531   4.501
 9181TIP3    H227485   6.462   3.674   4.469
 9182TIP3   OH227486   6.082   0.590   0.118
 9182TIP3    H127487   6.002   0.608   0.168
 9182TIP3    H227488   6.055   0.527   0.052
 9183TIP3   OH227489   6.644   1.624   5.910
 9183TIP3    H127490   6.635   1.653   6.000
 9183TIP3    H227491   6.738   1.615   5.896
 9184TIP3   OH227492   5.723   2.481   2.039
 9184TIP3    H127493   5.787   2.500   1.971
 9184TIP3    H227494   5.774   2.458   2.116
 9185TIP3   OH227495   5.247   6.053   2.544
 9185TIP3    H127496   5.295   6.048   2.626
 9185TIP3    H227497   5.314   6.045   2.476
 9186TIP3   OH227498   1.031  -0.027   5.313
 9186TIP3    H127499   0.963   0.039   5.327
 9186TIP3    H227500   1.013  -0.094   5.380
 9187TIP3   OH227501   0.923   0.184   2.347
 9187TIP3    H127502   0.897   0.141   2.265
 9187TIP3    H227503   1.013   0.213   2.330
 9188TIP3   OH227504   7.485   2.185   2.938
 9188TIP3    H127505   7.511   2.213   3.026
 9188TIP3    H227506   7.493   2.263   2.884
 9189TIP3   OH227507   4.058   6.263   3.407
 9189TIP3    H127508   4.128   6.318   3.374
 9189TIP3    H227509   3.991   6.324   3.439
 9190TIP3   OH227510   0.761   2.206   2.248
 9190TIP3    H127511   0.727   2.295   2.239
 9190TIP3    H227512   0.702   2.153   2.193
 9191TIP3   OH227513   6.998   0.372   6.047
 9191TIP3    H127514   6.989   0.300   6.110
 9191TIP3    H227515   6.950   0.444   6.087
 9192TIP3   OH227516   4.192   0.160   0.461
 9192TIP3    H127517   4.132   0.233   0.479
 9192TIP3    H227518   4.180   0.142   0.368
 9193TIP3   OH227519   1.030   7.899   1.393
 9193TIP3    H127520   1.090   7.831   1.424
 9193TIP3    H227521   0.957   7.896   1.455
 9194TIP3   OH227522   7.471   2.644   2.273
 9194TIP3    H127523   7.544   2.703   2.293
 9194TIP3    H227524   7.491   2.610   2.186
 9195TIP3   OH227525   1.568   2.730   5.721
 9195TIP3    H127526   1.643   2.787   5.703
 9195TIP3    H227527   1.594   2.678   5.797
 9196TIP3   OH227528   3.730   6.333   2.876
 9196TIP3    H127529   3.746   6.396   2.947
 9196TIP3    H227530   3.658   6.279   2.908
 9197TIP3   OH227531   6.274   0.673   2.277
 9197TIP3    H127532   6.207   0.742   2.267
 9197TIP3    H227533   6.324   0.677   2.196
 9198TIP3   OH227534   2.801   2.628   5.842
 9198TIP3    H127535   2.751   2.705   5.815
 9198TIP3    H227536   2.864   2.661   5.905
 9199TIP3   OH227537   8.383   7.347   2.438
 9199TIP3    H127538   8.400   7.349   2.532
 9199TIP3    H227539   8.295   7.383   2.429
 9200TIP3   OH227540   3.540   1.907   2.929
 9200TIP3    H127541   3.515   1.814   2.934
 9200TIP3    H227542   3.594   1.913   2.850
 9201TIP3   OH227543   2.362   0.961   3.389
 9201TIP3    H127544   2.446   0.990   3.425
 9201TIP3    H227545   2.333   1.034   3.335
 9202TIP3   OH227546   5.505   4.928   3.088
 9202TIP3    H127547   5.519   4.847   3.137
 9202TIP3    H227548   5.414   4.951   3.105
 9203TIP3   OH227549   0.840   7.645   5.453
 9203TIP3    H127550   0.891   7.720   5.422
 9203TIP3    H227551   0.753   7.658   5.416
 9204TIP3   OH227552   7.729   1.703   2.592
 9204TIP3    H127553   7.634   1.714   2.588
 9204TIP3    H227554   7.744   1.645   2.667
 9205TIP3   OH227555   5.778   0.331   6.213
 9205TIP3    H127556   5.873   0.315   6.217
 9205TIP3    H227557   5.769   0.426   6.220
 9206TIP3   OH227558   4.382   4.216   4.458
 9206TIP3    H127559   4.444   4.214   4.532
 9206TIP3    H227560   4.425   4.166   4.389
 9207TIP3   OH227561   2.466   5.156   0.800
 9207TIP3    H127562   2.486   5.129   0.890
 9207TIP3    H227563   2.376   5.128   0.786
 9208TIP3   OH227564   6.476   1.089   6.256
 9208TIP3    H127565   6.454   1.064   6.346
 9208TIP3    H227566   6.430   1.024   6.202
 9209TIP3   OH227567   1.277   4.303   5.519
 9209TIP3    H127568   1.320   4.291   5.604
 9209TIP3    H227569   1.301   4.226   5.468
 9210TIP3   OH227570   6.788   2.126   5.534
 9210TIP3    H127571   6.793   2.055   5.469
 9210TIP3    H227572   6.846   2.194   5.499
 9211TIP3   OH227573   2.451   5.676   2.931
 9211TIP3    H127574   2.438   5.636   2.845
 9211TIP3    H227575   2.371   5.654   2.979
 9212TIP3   OH227576   7.484   5.598   4.369
 9212TIP3    H127577   7.410   5.642   4.411
 9212TIP3    H227578   7.444   5.528   4.318
 9213TIP3   OH227579   3.381   4.351   6.659
 9213TIP3    H127580   3.456   4.292   6.657
 9213TIP3    H227581   3.407   4.425   6.603
 9214TIP3   OH227582   0.120   6.726   5.623
 9214TIP3    H127583   0.107   6.752   5.532
 9214TIP3    H227584   0.215   6.732   5.636
 9215TIP3   OH227585   1.429   0.104   5.612
 9215TIP3    H127586   1.430   0.144   5.525
 9215TIP3    H227587   1.364   0.155   5.661
 9216TIP3   OH227588   6.465   1.337   6.094
 9216TIP3    H127589   6.470   1.269   6.162
 9216TIP3    H227590   6.543   1.323   6.041
 9217TIP3   OH227591   4.440   7.936   4.396
 9217TIP3    H127592   4.432   7.967   4.486
 9217TIP3    H227593   4.365   7.878   4.384
 9218TIP3   OH227594   6.466   1.811   1.783
 9218TIP3    H127595   6.387   1.860   1.804
 9218TIP3    H227596   6.475   1.748   1.855
 9219TIP3   OH227597   7.591   2.976   2.284
 9219TIP3    H127598   7.670   2.925   2.301
 9219TIP3    H227599   7.548   2.983   2.370
 9220TIP3   OH227600   8.088   7.808   2.009
 9220TIP3    H127601   8.005   7.770   2.038
 9220TIP3    H227602   8.085   7.801   1.914
 9221TIP3   OH227603   5.769   5.126   1.406
 9221TIP3    H127604   5.682   5.143   1.442
 9221TIP3    H227605   5.769   5.033   1.386
 9222TIP3   OH227606   5.559   3.923   3.514
 9222TIP3    H127607   5.537   3.853   3.452
 9222TIP3    H227608   5.497   3.911   3.586
 9223TIP3   OH227609   1.932   3.466   1.020
 9223TIP3    H127610   1.916   3.519   1.098
 9223TIP3    H227611   1.962   3.382   1.055
 9224TIP3   OH227612   6.570   2.851   5.468
 9224TIP3    H127613   6.577   2.777   5.527
 9224TIP3    H227614   6.624   2.919   5.509
 9225TIP3   OH227615   3.753   6.730   2.940
 9225TIP3    H127616   3.832   6.757   2.988
 9225TIP3    H227617   3.693   6.699   3.008
 9226TIP3   OH227618   3.682   7.819   3.429
 9226TIP3    H127619   3.599   7.863   3.448
 9226TIP3    H227620   3.681   7.808   3.334
 9227TIP3   OH227621   4.674   3.712   3.212
 9227TIP3    H127622   4.737   3.777   3.242
 9227TIP3    H227623   4.606   3.711   3.279
 9228TIP3   OH227624   1.855   1.278   6.145
 9228TIP3    H127625   1.860   1.320   6.231
 9228TIP3    H227626   1.848   1.351   6.084
 9229TIP3   OH227627   3.131   7.194   5.439
 9229TIP3    H127628   3.141   7.148   5.522
 9229TIP3    H227629   3.094   7.279   5.463
 9230TIP3   OH227630   0.370   0.453   4.754
 9230TIP3    H127631   0.380   0.360   4.776
 9230TIP3    H227632   0.287   0.478   4.795
 9231TIP3   OH227633   0.506   3.616   3.223
 9231TIP3    H127634   0.488   3.679   3.154
 9231TIP3    H227635   0.461   3.536   3.197
 9232TIP3   OH227636   5.052   2.436   5.226
 9232TIP3    H127637   5.025   2.366   5.166
 9232TIP3    H227638   5.130   2.474   5.184
 9233TIP3   OH227639   4.096   7.547   3.313
 9233TIP3    H127640   4.119   7.459   3.286
 9233TIP3    H227641   4.114   7.549   3.407
 9234TIP3   OH227642   6.527   7.041   4.790
 9234TIP3    H127643   6.445   6.991   4.783
 9234TIP3    H227644   6.529   7.070   4.881
 9235TIP3   OH227645   1.283   5.784   1.905
 9235TIP3    H127646   1.308   5.864   1.858
 9235TIP3    H227647   1.350   5.720   1.881
 9236TIP3   OH227648   0.663   6.032   4.037
 9236TIP3    H127649   0.660   6.109   3.979
 9236TIP3    H227650   0.599   5.971   4.000
 9237TIP3   OH227651   0.009   2.540   2.180
 9237TIP3    H127652  -0.058   2.504   2.238
 9237TIP3    H227653   0.091   2.529   2.227
 9238TIP3   OH227654   0.262   5.609   5.750
 9238TIP3    H127655   0.192   5.574   5.805
 9238TIP3    H227656   0.334   5.547   5.761
 9239TIP3   OH227657   0.569   5.619   2.753
 9239TIP3    H127658   0.529   5.591   2.835
 9239TIP3    H227659   0.548   5.549   2.691
 9240TIP3   OH227660   6.454   2.676   5.155
 9240TIP3    H127661   6.411   2.669   5.239
 9240TIP3    H227662   6.389   2.647   5.091
 9241TIP3   OH227663   4.847   5.438   1.677
 9241TIP3    H127664   4.929   5.388   1.670
 9241TIP3    H227665   4.874   5.529   1.664
 9242TIP3   OH227666   2.813   4.074   0.186
 9242TIP3    H127667   2.727   4.058   0.225
 9242TIP3    H227668   2.871   4.087   0.261
 9243TIP3   OH227669   1.954   6.329   3.006
 9243TIP3    H127670   1.976   6.301   3.095
 9243TIP3    H227671   1.865   6.295   2.992
 9244TIP3   OH227672   3.303   1.909   2.140
 9244TIP3    H127673   3.271   1.980   2.083
 9244TIP3    H227674   3.224   1.867   2.172
 9245TIP3   OH227675   6.095   6.875   3.358
 9245TIP3    H127676   6.051   6.834   3.433
 9245TIP3    H227677   6.027   6.928   3.316
 9246TIP3   OH227678   6.193   4.349   0.199
 9246TIP3    H127679   6.276   4.303   0.190
 9246TIP3    H227680   6.209   4.414   0.268
 9247TIP3   OH227681   6.384   3.869   0.070
 9247TIP3    H127682   6.453   3.913   0.121
 9247TIP3    H227683   6.317   3.936   0.058
 9248TIP3   OH227684   2.286   7.595   1.584
 9248TIP3    H127685   2.272   7.578   1.491
 9248TIP3    H227686   2.320   7.685   1.587
 9249TIP3   OH227687   7.785   6.705   1.029
 9249TIP3    H127688   7.739   6.647   0.968
 9249TIP3    H227689   7.853   6.745   0.977
 9250TIP3   OH227690   6.575   7.167   1.903
 9250TIP3    H127691   6.587   7.182   1.997
 9250TIP3    H227692   6.481   7.176   1.889
 9251TIP3   OH227693   2.412   2.577   0.756
 9251TIP3    H127694   2.499   2.602   0.726
 9251TIP3    H227695   2.396   2.632   0.833
 9252TIP3   OH227696   7.364   5.161   1.873
 9252TIP3    H127697   7.452   5.197   1.861
 9252TIP3    H227698   7.375   5.067   1.860
 9253TIP3   OH227699   7.249   5.516   5.927
 9253TIP3    H127700   7.225   5.603   5.957
 9253TIP3    H227701   7.337   5.527   5.890
 9254TIP3   OH227702   3.186   7.854   3.333
 9254TIP3    H127703   3.277   7.879   3.346
 9254TIP3    H227704   3.175   7.853   3.238
 9255TIP3   OH227705   0.365   2.608   1.795
 9255TIP3    H127706   0.328   2.616   1.707
 9255TIP3    H227707   0.418   2.687   1.805
 9256TIP3   OH227708   7.532   2.514   4.310
 9256TIP3    H127709   7.519   2.460   4.232
 9256TIP3    H227710   7.522   2.453   4.383
 9257TIP3   OH227711   2.661   5.947   1.455
 9257TIP3    H127712   2.685   5.961   1.546
 9257TIP3    H227713   2.663   5.852   1.444
 9258TIP3   OH227714   8.128   4.346   4.575
 9258TIP3    H127715   8.141   4.438   4.600
 9258TIP3    H227716   8.215   4.307   4.583
 9259TIP3   OH227717   5.551   0.236   6.033
 9259TIP3    H127718   5.480   0.188   6.075
 9259TIP3    H227719   5.583   0.296   6.101
 9260TIP3   OH227720   4.419   2.634   5.802
 9260TIP3    H127721   4.418   2.576   5.726
 9260TIP3    H227722   4.411   2.722   5.766
 9261TIP3   OH227723   0.183   7.912   4.001
 9261TIP3    H127724   0.229   7.896   4.084
 9261TIP3    H227725   0.184   7.827   3.956
 9262TIP3   OH227726   3.620   2.708   1.732
 9262TIP3    H127727   3.709   2.692   1.762
 9262TIP3    H227728   3.592   2.787   1.779
 9263TIP3   OH227729   3.770   7.759   5.141
 9263TIP3    H127730   3.800   7.760   5.232
 9263TIP3    H227731   3.847   7.782   5.090
 9264TIP3   OH227732   4.610   4.100   6.166
 9264TIP3    H127733   4.525   4.126   6.131
 9264TIP3    H227734   4.654   4.054   6.094
 9265TIP3   OH227735   1.385   5.474   4.255
 9265TIP3    H127736   1.464   5.435   4.217
 9265TIP3    H227737   1.415   5.556   4.294
 9266TIP3   OH227738   6.275   4.626   1.772
 9266TIP3    H127739   6.214   4.670   1.713
 9266TIP3    H227740   6.361   4.637   1.732
 9267TIP3   OH227741   6.150   4.246   5.187
 9267TIP3    H127742   6.132   4.171   5.130
 9267TIP3    H227743   6.073   4.301   5.180
 9268TIP3   OH227744   0.228   5.368   1.816
 9268TIP3    H127745   0.238   5.422   1.737
 9268TIP3    H227746   0.262   5.282   1.790
 9269TIP3   OH227747   5.388   0.961   3.285
 9269TIP3    H127748   5.412   0.899   3.354
 9269TIP3    H227749   5.452   1.032   3.294
 9270TIP3   OH227750   7.283   5.888   4.229
 9270TIP3    H127751   7.297   5.802   4.269
 9270TIP3    H227752   7.191   5.907   4.245
 9271TIP3   OH227753   4.765   7.881   2.917
 9271TIP3    H127754   4.829   7.945   2.950
 9271TIP3    H227755   4.817   7.819   2.867
 9272TIP3   OH227756   4.354   0.065   2.697
 9272TIP3    H127757   4.433   0.111   2.724
 9272TIP3    H227758   4.386  -0.011   2.648
 9273TIP3   OH227759   0.411   3.130   4.717
 9273TIP3    H127760   0.440   3.164   4.633
 9273TIP3    H227761   0.343   3.066   4.695
 9274TIP3   OH227762   2.137   6.780   6.706
 9274TIP3    H127763   2.104   6.698   6.667
 9274TIP3    H227764   2.232   6.775   6.695
 9275TIP3   OH227765   0.350   1.519   0.655
 9275TIP3    H127766   0.315   1.455   0.717
 9275TIP3    H227767   0.274   1.548   0.604
 9276TIP3   OH227768   2.285   0.289   3.992
 9276TIP3    H127769   2.273   0.286   3.897
 9276TIP3    H227770   2.377   0.314   4.004
 9277TIP3   OH227771   1.587   3.376   1.568
 9277TIP3    H127772   1.632   3.304   1.613
 9277TIP3    H227773   1.578   3.345   1.478
 9278TIP3   OH227774   3.536   1.294   1.888
 9278TIP3    H127775   3.529   1.386   1.861
 9278TIP3    H227776   3.529   1.245   1.806
 9279TIP3   OH227777   4.460   4.012   5.242
 9279TIP3    H127778   4.448   3.920   5.221
 9279TIP3    H227779   4.551   4.031   5.218
 9280TIP3   OH227780   2.647   7.682   3.069
 9280TIP3    H127781   2.686   7.658   3.153
 9280TIP3    H227782   2.705   7.749   3.033
 9281TIP3   OH227783   2.110   3.213   6.099
 9281TIP3    H127784   2.021   3.216   6.133
 9281TIP3    H227785   2.101   3.171   6.013
 9282TIP3   OH227786   0.848   6.392   1.583
 9282TIP3    H127787   0.753   6.390   1.596
 9282TIP3    H227788   0.866   6.481   1.552
 9283TIP3   OH227789   6.653   5.627   6.031
 9283TIP3    H127790   6.674   5.677   5.953
 9283TIP3    H227791   6.563   5.597   6.017
 9284TIP3   OH227792   5.508   0.437   3.943
 9284TIP3    H127793   5.435   0.491   3.973
 9284TIP3    H227794   5.468   0.355   3.916
 9285TIP3   OH227795   1.962   2.576   5.121
 9285TIP3    H127796   1.991   2.498   5.169
 9285TIP3    H227797   1.914   2.628   5.185
 9286TIP3   OH227798   7.045   1.111   1.872
 9286TIP3    H127799   7.042   1.197   1.914
 9286TIP3    H227800   6.970   1.110   1.812
 9287TIP3   OH227801   4.679   5.926   4.257
 9287TIP3    H127802   4.753   5.928   4.317
 9287TIP3    H227803   4.685   6.009   4.209
 9288TIP3   OH227804   0.598   0.769   4.824
 9288TIP3    H127805   0.658   0.821   4.877
 9288TIP3    H227806   0.524   0.751   4.882
 9289TIP3   OH227807   7.587   3.474   3.574
 9289TIP3    H127808   7.633   3.517   3.646
 9289TIP3    H227809   7.621   3.516   3.495
 9290TIP3   OH227810   5.876   0.672   1.401
 9290TIP3    H127811   5.852   0.762   1.424
 9290TIP3    H227812   5.956   0.681   1.349
 9291TIP3   OH227813   1.065   0.612   3.539
 9291TIP3    H127814   1.007   0.623   3.614
 9291TIP3    H227815   1.148   0.584   3.577
 9292TIP3   OH227816   1.606   3.919   6.170
 9292TIP3    H127817   1.566   3.954   6.091
 9292TIP3    H227818   1.682   3.975   6.186
 9293TIP3   OH227819   7.947   7.227   4.169
 9293TIP3    H127820   8.037   7.194   4.173
 9293TIP3    H227821   7.919   7.211   4.079
 9294TIP3   OH227822   5.633   4.970   1.828
 9294TIP3    H127823   5.598   4.975   1.917
 9294TIP3    H227824   5.608   4.882   1.798
 9295TIP3   OH227825   4.491   3.413   2.948
 9295TIP3    H127826   4.443   3.341   2.907
 9295TIP3    H227827   4.528   3.374   3.027
 9296TIP3   OH227828   6.163   2.632   1.701
 9296TIP3    H127829   6.209   2.600   1.624
 9296TIP3    H227830   6.094   2.689   1.666
 9297TIP3   OH227831   6.459   0.541   5.270
 9297TIP3    H127832   6.486   0.531   5.361
 9297TIP3    H227833   6.364   0.556   5.274
 9298TIP3   OH227834   1.064   0.258   2.644
 9298TIP3    H127835   1.027   0.329   2.696
 9298TIP3    H227836   1.131   0.300   2.589
 9299TIP3   OH227837   2.368   5.059   6.271
 9299TIP3    H127838   2.425   5.013   6.333
 9299TIP3    H227839   2.293   5.001   6.260
 9300TIP3   OH227840   1.057   0.450   2.848
 9300TIP3    H127841   0.975   0.496   2.870
 9300TIP3    H227842   1.126   0.510   2.877
 9301TIP3   OH227843   4.575   7.583   1.944
 9301TIP3    H127844   4.566   7.639   1.867
 9301TIP3    H227845   4.498   7.603   1.997
 9302TIP3   OH227846   7.422   3.296   2.560
 9302TIP3    H127847   7.352   3.297   2.625
 9302TIP3    H227848   7.391   3.236   2.492
 9303TIP3   OH227849   3.307   7.470   0.040
 9303TIP3    H127850   3.372   7.445   0.105
 9303TIP3    H227851   3.249   7.394   0.033
 9304TIP3   OH227852   0.081   7.715   5.631
 9304TIP3    H127853   0.157   7.664   5.602
 9304TIP3    H227854   0.010   7.688   5.572
 9305TIP3   OH227855   5.031   3.708   1.345
 9305TIP3    H127856   5.098   3.721   1.412
 9305TIP3    H227857   4.948   3.713   1.393
 9306TIP3   OH227858   6.478   6.971   6.008
 9306TIP3    H127859   6.493   6.876   6.013
 9306TIP3    H227860   6.566   7.009   6.006
 9307TIP3   OH227861   5.028   5.744   1.977
 9307TIP3    H127862   5.051   5.728   2.069
 9307TIP3    H227863   5.072   5.674   1.929
 9308TIP3   OH227864   2.036   4.173   5.601
 9308TIP3    H127865   2.108   4.174   5.665
 9308TIP3    H227866   2.028   4.081   5.576
 9309TIP3   OH227867   5.161   2.462   3.396
 9309TIP3    H127868   5.078   2.509   3.407
 9309TIP3    H227869   5.163   2.440   3.303
 9310TIP3   OH227870   3.286   4.601   3.949
 9310TIP3    H127871   3.260   4.688   3.918
 9310TIP3    H227872   3.346   4.568   3.883
 9311TIP3   OH227873   7.392   2.750   4.954
 9311TIP3    H127874   7.320   2.717   5.007
 9311TIP3    H227875   7.367   2.840   4.934
 9312TIP3   OH227876   5.490   3.843   3.056
 9312TIP3    H127877   5.580   3.875   3.052
 9312TIP3    H227878   5.495   3.763   3.108
 9313TIP3   OH227879   6.234   1.501   0.061
 9313TIP3    H127880   6.149   1.545   0.059
 9313TIP3    H227881   6.265   1.512   0.150
 9314TIP3   OH227882   6.296   3.595   0.220
 9314TIP3    H127883   6.334   3.652   0.154
 9314TIP3    H227884   6.320   3.637   0.303
 9315TIP3   OH227885   1.637   0.310   0.005
 9315TIP3    H127886   1.718   0.359  -0.009
 9315TIP3    H227887   1.579   0.370   0.052
 9316TIP3   OH227888   0.314   6.936   3.907
 9316TIP3    H127889   0.396   6.965   3.946
 9316TIP3    H227890   0.251   6.938   3.979
 9317TIP3   OH227891   1.928   1.030   1.551
 9317TIP3    H127892   1.893   1.018   1.640
 9317TIP3    H227893   1.877   0.970   1.497
 9318TIP3   OH227894   0.057   4.012   6.706
 9318TIP3    H127895  -0.004   4.078   6.671
 9318TIP3    H227896   0.032   3.931   6.661
 9319TIP3   OH227897   1.047   4.547   1.105
 9319TIP3    H127898   1.066   4.629   1.060
 9319TIP3    H227899   1.082   4.559   1.193
 9320TIP3   OH227900   6.291   2.518   5.353
 9320TIP3    H127901   6.286   2.545   5.445
 9320TIP3    H227902   6.207   2.474   5.338
 9321TIP3   OH227903   8.221   7.547   0.826
 9321TIP3    H127904   8.303   7.550   0.875
 9321TIP3    H227905   8.163   7.493   0.881
 9322TIP3   OH227906   4.045   4.083   0.951
 9322TIP3    H127907   4.003   4.060   0.868
 9322TIP3    H227908   3.972   4.096   1.011
 9323TIP3   OH227909   1.360   7.835   6.118
 9323TIP3    H127910   1.363   7.776   6.043
 9323TIP3    H227911   1.277   7.882   6.108
 9324TIP3   OH227912   5.115   3.874   6.846
 9324TIP3    H127913   5.095   3.795   6.896
 9324TIP3    H227914   5.054   3.871   6.772
 9325TIP3   OH227915   2.132   0.545   5.484
 9325TIP3    H127916   2.081   0.558   5.404
 9325TIP3    H227917   2.186   0.624   5.492
 9326TIP3   OH227918   0.168   6.341   0.263
 9326TIP3    H127919   0.151   6.417   0.207
 9326TIP3    H227920   0.199   6.379   0.345
 9327TIP3   OH227921   6.639   1.557   5.318
 9327TIP3    H127922   6.589   1.625   5.363
 9327TIP3    H227923   6.672   1.501   5.388
 9328TIP3   OH227924   8.344   3.982   1.420
 9328TIP3    H127925   8.311   3.915   1.480
 9328TIP3    H227926   8.410   4.029   1.470
 9329TIP3   OH227927   7.945   5.103   6.017
 9329TIP3    H127928   7.856   5.136   6.007
 9329TIP3    H227929   7.941   5.013   5.985
 9330TIP3   OH227930   7.121   7.796   3.088
 9330TIP3    H127931   7.159   7.869   3.137
 9330TIP3    H227932   7.196   7.745   3.059
 9331TIP3   OH227933   4.882   0.851   5.079
 9331TIP3    H127934   4.976   0.860   5.061
 9331TIP3    H227935   4.844   0.828   4.994
 9332TIP3   OH227936   2.048   2.028   5.654
 9332TIP3    H127937   2.076   2.053   5.742
 9332TIP3    H227938   2.091   1.944   5.639
 9333TIP3   OH227939   1.503   5.704   4.369
 9333TIP3    H127940   1.525   5.757   4.445
 9333TIP3    H227941   1.587   5.689   4.325
 9334TIP3   OH227942   8.348   4.004   2.367
 9334TIP3    H127943   8.327   3.984   2.458
 9334TIP3    H227944   8.440   3.982   2.358
 9335TIP3   OH227945   2.101   5.711   2.594
 9335TIP3    H127946   2.193   5.738   2.587
 9335TIP3    H227947   2.056   5.789   2.628
 9336TIP3   OH227948   5.623   6.828   3.470
 9336TIP3    H127949   5.595   6.825   3.378
 9336TIP3    H227950   5.638   6.921   3.487
 9337TIP3   OH227951   7.145   7.608   1.581
 9337TIP3    H127952   7.136   7.638   1.491
 9337TIP3    H227953   7.080   7.659   1.630
 9338TIP3   OH227954   7.980   7.530   2.744
 9338TIP3    H127955   7.924   7.578   2.804
 9338TIP3    H227956   8.065   7.575   2.749
 9339TIP3   OH227957   0.930   3.403   4.220
 9339TIP3    H127958   0.913   3.317   4.260
 9339TIP3    H227959   0.845   3.447   4.221
 9340TIP3   OH227960   2.565   5.578   4.180
 9340TIP3    H127961   2.517   5.516   4.235
 9340TIP3    H227962   2.514   5.659   4.186
 9341TIP3   OH227963   1.289   4.599   2.510
 9341TIP3    H127964   1.213   4.612   2.453
 9341TIP3    H227965   1.320   4.511   2.488
 9342TIP3   OH227966   3.279   6.793   5.996
 9342TIP3    H127967   3.289   6.705   6.032
 9342TIP3    H227968   3.236   6.843   6.066
 9343TIP3   OH227969   0.841   7.453   2.611
 9343TIP3    H127970   0.930   7.417   2.607
 9343TIP3    H227971   0.823   7.481   2.521
 9344TIP3   OH227972   3.260   4.239   5.424
 9344TIP3    H127973   3.206   4.167   5.455
 9344TIP3    H227974   3.270   4.296   5.501
 9345TIP3   OH227975   7.187   7.853   4.521
 9345TIP3    H127976   7.101   7.892   4.504
 9345TIP3    H227977   7.184   7.828   4.613
 9346TIP3   OH227978   3.324   1.061   1.651
 9346TIP3    H127979   3.317   1.156   1.636
 9346TIP3    H227980   3.234   1.030   1.649
 9347TIP3   OH227981   7.917   0.050   2.871
 9347TIP3    H127982   7.924   0.129   2.924
 9347TIP3    H227983   7.974  -0.013   2.914
 9348TIP3   OH227984   6.221   6.493   3.906
 9348TIP3    H127985   6.247   6.453   3.824
 9348TIP3    H227986   6.140   6.448   3.931
 9349TIP3   OH227987   1.228   2.323   1.195
 9349TIP3    H127988   1.229   2.379   1.273
 9349TIP3    H227989   1.167   2.367   1.135
 9350TIP3   OH227990   0.288   3.770   0.755
 9350TIP3    H127991   0.306   3.849   0.704
 9350TIP3    H227992   0.279   3.801   0.845
 9351TIP3   OH227993   6.227   2.647   2.586
 9351TIP3    H127994   6.301   2.604   2.630
 9351TIP3    H227995   6.257   2.736   2.569
 9352TIP3   OH227996   5.422   1.487   2.374
 9352TIP3    H127997   5.327   1.488   2.385
 9352TIP3    H227998   5.443   1.394   2.360
 9353TIP3   OH227999   5.541   6.725   3.986
 9353TIP3    H128000   5.577   6.707   3.899
 9353TIP3    H228001   5.596   6.795   4.020
 9354TIP3   OH228002   5.921   1.064   4.399
 9354TIP3    H128003   5.982   1.103   4.462
 9354TIP3    H228004   5.843   1.045   4.451
 9355TIP3   OH228005   0.289   7.483   0.307
 9355TIP3    H128006   0.325   7.455   0.391
 9355TIP3    H228007   0.246   7.567   0.326
 9356TIP3   OH228008   0.141   3.376   6.155
 9356TIP3    H128009   0.086   3.326   6.094
 9356TIP3    H228010   0.138   3.325   6.236
 9357TIP3   OH228011   1.548   3.642   5.094
 9357TIP3    H128012   1.614   3.585   5.053
 9357TIP3    H228013   1.539   3.608   5.183
 9358TIP3   OH228014   5.928   0.576   6.827
 9358TIP3    H128015   5.910   0.666   6.799
 9358TIP3    H228016   5.865   0.523   6.778
 9359TIP3   OH228017   3.122   7.694   4.602
 9359TIP3    H128018   3.045   7.639   4.588
 9359TIP3    H228019   3.116   7.761   4.533
 9360TIP3   OH228020   7.170   5.615   2.900
 9360TIP3    H128021   7.160   5.633   2.807
 9360TIP3    H228022   7.200   5.524   2.905
 9361TIP3   OH228023   3.751   0.916   2.849
 9361TIP3    H128024   3.749   1.007   2.820
 9361TIP3    H228025   3.806   0.872   2.784
 9362TIP3   OH228026   3.299   2.027   3.640
 9362TIP3    H128027   3.240   2.079   3.696
 9362TIP3    H228028   3.317   1.948   3.691
 9363TIP3   OH228029   3.332   5.817   1.572
 9363TIP3    H128030   3.369   5.904   1.555
 9363TIP3    H228031   3.356   5.765   1.496
 9364TIP3   OH228032   7.570   6.927   4.752
 9364TIP3    H128033   7.649   6.888   4.789
 9364TIP3    H228034   7.587   7.021   4.755
 9365TIP3   OH228035   2.380   0.890   1.008
 9365TIP3    H128036   2.400   0.863   0.919
 9365TIP3    H228037   2.334   0.974   0.998
 9366TIP3   OH228038   7.371   6.781   3.665
 9366TIP3    H128039   7.463   6.803   3.652
 9366TIP3    H228040   7.339   6.760   3.577
 9367TIP3   OH228041   4.931   5.653   3.270
 9367TIP3    H128042   4.961   5.568   3.301
 9367TIP3    H228043   4.916   5.704   3.349
 9368TIP3   OH228044   8.167   7.045   3.914
 9368TIP3    H128045   8.195   6.954   3.902
 9368TIP3    H228046   8.201   7.070   4.000
 9369TIP3   OH228047   7.508   0.402   0.944
 9369TIP3    H128048   7.501   0.494   0.968
 9369TIP3    H228049   7.553   0.361   1.018
 9370TIP3   OH228050   3.501   4.342   4.477
 9370TIP3    H128051   3.579   4.296   4.507
 9370TIP3    H228052   3.528   4.387   4.397
 9371TIP3   OH228053   5.792   5.478   5.047
 9371TIP3    H128054   5.740   5.538   5.101
 9371TIP3    H228055   5.751   5.393   5.061
 9372TIP3   OH228056   3.189   1.215   6.757
 9372TIP3    H128057   3.264   1.241   6.811
 9372TIP3    H228058   3.115   1.219   6.818
 9373TIP3   OH228059   1.714   6.803   4.502
 9373TIP3    H128060   1.708   6.894   4.475
 9373TIP3    H228061   1.623   6.773   4.508
 9374TIP3   OH228062   3.349   4.544   2.026
 9374TIP3    H128063   3.375   4.626   1.983
 9374TIP3    H228064   3.254   4.542   2.017
 9375TIP3   OH228065   6.292   5.054   0.971
 9375TIP3    H128066   6.292   4.984   1.036
 9375TIP3    H228067   6.380   5.090   0.975
 9376TIP3   OH228068   0.554   1.326   5.993
 9376TIP3    H128069   0.589   1.411   5.967
 9376TIP3    H228070   0.518   1.341   6.081
 9377TIP3   OH228071   5.926   4.187   6.467
 9377TIP3    H128072   5.871   4.148   6.399
 9377TIP3    H228073   5.891   4.275   6.479
 9378TIP3   OH228074   6.928   1.303   3.874
 9378TIP3    H128075   6.939   1.249   3.796
 9378TIP3    H228076   6.847   1.352   3.858
 9379TIP3   OH228077   5.252   5.743   4.263
 9379TIP3    H128078   5.185   5.705   4.207
 9379TIP3    H228079   5.220   5.730   4.352
 9380TIP3   OH228080   4.012   6.410   3.024
 9380TIP3    H128081   4.036   6.404   2.932
 9380TIP3    H228082   4.089   6.450   3.066
 9381TIP3   OH228083   2.372   2.961   6.440
 9381TIP3    H128084   2.468   2.964   6.440
 9381TIP3    H228085   2.345   3.043   6.480
 9382TIP3   OH228086   1.083   7.733   6.709
 9382TIP3    H128087   1.093   7.764   6.619
 9382TIP3    H228088   1.066   7.639   6.700
 9383TIP3   OH228089   7.723   1.135   3.196
 9383TIP3    H128090   7.780   1.162   3.267
 9383TIP3    H228091   7.691   1.048   3.222
 9384TIP3   OH228092   0.772   6.156   5.221
 9384TIP3    H128093   0.817   6.078   5.254
 9384TIP3    H228094   0.762   6.140   5.127
 9385TIP3   OH228095   8.139   7.901   5.438
 9385TIP3    H128096   8.065   7.841   5.447
 9385TIP3    H228097   8.127   7.942   5.353
 9386TIP3   OH228098   5.624   4.704   2.240
 9386TIP3    H128099   5.576   4.624   2.218
 9386TIP3    H228100   5.714   4.686   2.213
 9387TIP3   OH228101   5.067   0.723   5.296
 9387TIP3    H128102   4.973   0.719   5.279
 9387TIP3    H228103   5.093   0.810   5.266
 9388TIP3   OH228104   2.428   5.739   2.468
 9388TIP3    H128105   2.455   5.707   2.381
 9388TIP3    H228106   2.456   5.830   2.470
 9389TIP3   OH228107   7.277   1.331   4.784
 9389TIP3    H128108   7.340   1.324   4.712
 9389TIP3    H228109   7.211   1.392   4.752
 9390TIP3   OH228110   2.254   3.795   1.781
 9390TIP3    H128111   2.207   3.845   1.847
 9390TIP3    H228112   2.213   3.708   1.782
 9391TIP3   OH228113   1.533   6.690   6.585
 9391TIP3    H128114   1.452   6.642   6.594
 9391TIP3    H228115   1.599   6.636   6.629
 9392TIP3   OH228116   2.456   2.126   1.821
 9392TIP3    H128117   2.377   2.072   1.814
 9392TIP3    H228118   2.495   2.121   1.734
 9393TIP3   OH228119   0.458   4.007   0.088
 9393TIP3    H128120   0.379   3.981   0.136
 9393TIP3    H228121   0.505   3.925   0.074
 9394TIP3   OH228122   6.972   1.061   1.464
 9394TIP3    H128123   6.922   1.118   1.405
 9394TIP3    H228124   6.943   1.087   1.552
 9395TIP3   OH228125   1.964   2.813   4.184
 9395TIP3    H128126   1.961   2.819   4.279
 9395TIP3    H228127   2.055   2.792   4.164
 9396TIP3   OH228128   2.198   4.550   3.784
 9396TIP3    H128129   2.263   4.559   3.855
 9396TIP3    H228130   2.138   4.482   3.816
 9397TIP3   OH228131   6.030   5.290   6.636
 9397TIP3    H128132   6.031   5.202   6.673
 9397TIP3    H228133   5.959   5.287   6.571
 9398TIP3   OH228134   0.156   7.136   4.420
 9398TIP3    H128135   0.075   7.098   4.454
 9398TIP3    H228136   0.129   7.186   4.343
 9399TIP3   OH228137   4.990   0.771   1.600
 9399TIP3    H128138   5.063   0.782   1.540
 9399TIP3    H228139   4.911   0.780   1.546
 9400TIP3   OH228140   5.085   1.481   1.756
 9400TIP3    H128141   5.141   1.525   1.819
 9400TIP3    H228142   5.059   1.550   1.694
 9401TIP3   OH228143   2.385   4.589   6.594
 9401TIP3    H128144   2.306   4.550   6.558
 9401TIP3    H228145   2.423   4.637   6.521
 9402TIP3   OH228146   6.995   4.875   3.893
 9402TIP3    H128147   7.024   4.788   3.868
 9402TIP3    H228148   6.954   4.862   3.979
 9403TIP3   OH228149   3.978   2.244   3.214
 9403TIP3    H128150   3.995   2.305   3.286
 9403TIP3    H228151   3.941   2.299   3.145
 9404TIP3   OH228152   3.696   7.121   6.686
 9404TIP3    H128153   3.701   7.117   6.590
 9404TIP3    H228154   3.630   7.188   6.704
 9405TIP3   OH228155   7.519   1.657   0.871
 9405TIP3    H128156   7.535   1.562   0.870
 9405TIP3    H228157   7.447   1.669   0.809
 9406TIP3   OH228158   8.255   2.418   4.426
 9406TIP3    H128159   8.249   2.323   4.419
 9406TIP3    H228160   8.179   2.451   4.379
 9407TIP3   OH228161   4.909   6.705   6.247
 9407TIP3    H128162   4.844   6.692   6.316
 9407TIP3    H228163   4.858   6.725   6.169
 9408TIP3   OH228164   7.523   0.578   3.453
 9408TIP3    H128165   7.488   0.651   3.401
 9408TIP3    H228166   7.472   0.580   3.534
 9409TIP3   OH228167   6.227   3.945   2.477
 9409TIP3    H128168   6.312   3.965   2.517
 9409TIP3    H228169   6.165   3.946   2.550
 9410TIP3   OH228170   7.507   5.054   0.860
 9410TIP3    H128171   7.540   4.979   0.811
 9410TIP3    H228172   7.467   5.015   0.938
 9411TIP3   OH228173   1.808   1.083   0.511
 9411TIP3    H128174   1.735   1.137   0.540
 9411TIP3    H228175   1.769   0.997   0.494
 9412TIP3   OH228176   5.912   1.938   1.354
 9412TIP3    H128177   5.834   1.896   1.390
 9412TIP3    H228178   5.965   1.959   1.431
 9413TIP3   OH228179   6.511   6.533   4.000
 9413TIP3    H128180   6.522   6.440   3.979
 9413TIP3    H228181   6.426   6.556   3.963
 9414TIP3   OH228182   7.657   5.980   5.829
 9414TIP3    H128183   7.694   5.945   5.910
 9414TIP3    H228184   7.568   5.944   5.826
 9415TIP3   OH228185   0.178   3.820   5.395
 9415TIP3    H128186   0.264   3.859   5.412
 9415TIP3    H228187   0.116   3.891   5.413
 9416TIP3   OH228188   6.540   4.804   0.512
 9416TIP3    H128189   6.574   4.719   0.540
 9416TIP3    H228190   6.598   4.830   0.441
 9417TIP3   OH228191   3.312   0.441   2.310
 9417TIP3    H128192   3.301   0.467   2.401
 9417TIP3    H228193   3.407   0.440   2.297
 9418TIP3   OH228194   2.507   2.761   2.254
 9418TIP3    H128195   2.413   2.778   2.243
 9418TIP3    H228196   2.537   2.827   2.316
 9419TIP3   OH228197   5.539   4.062   4.721
 9419TIP3    H128198   5.609   4.097   4.776
 9419TIP3    H228199   5.578   3.987   4.676
 9420TIP3   OH228200   7.573   2.153   5.024
 9420TIP3    H128201   7.572   2.099   5.103
 9420TIP3    H228202   7.666   2.164   5.005
 9421TIP3   OH228203   0.887   0.553   2.468
 9421TIP3    H128204   0.834   0.588   2.540
 9421TIP3    H228205   0.843   0.472   2.443
 9422TIP3   OH228206   6.201   4.767   0.257
 9422TIP3    H128207   6.130   4.725   0.210
 9422TIP3    H228208   6.188   4.742   0.349
 9423TIP3   OH228209   7.117   4.693   4.724
 9423TIP3    H128210   7.110   4.668   4.816
 9423TIP3    H228211   7.055   4.765   4.713
 9424TIP3   OH228212   7.778   4.873   4.004
 9424TIP3    H128213   7.838   4.946   4.023
 9424TIP3    H228214   7.730   4.902   3.926
 9425TIP3   OH228215   2.956   6.182   3.854
 9425TIP3    H128216   2.866   6.151   3.840
 9425TIP3    H228217   2.988   6.202   3.766
 9426TIP3   OH228218   2.901   3.957   6.346
 9426TIP3    H128219   2.934   4.045   6.360
 9426TIP3    H228220   2.864   3.932   6.431
 9427TIP3   OH228221   4.544   5.787   5.112
 9427TIP3    H128222   4.568   5.831   5.193
 9427TIP3    H228223   4.452   5.810   5.099
 9428TIP3   OH228224   2.356   0.512   2.989
 9428TIP3    H128225   2.410   0.539   2.915
 9428TIP3    H228226   2.350   0.591   3.043
 9429TIP3   OH228227   0.126   5.395   5.427
 9429TIP3    H128228   0.044   5.408   5.380
 9429TIP3    H228229   0.136   5.474   5.480
 9430TIP3   OH228230   2.126   5.988   1.717
 9430TIP3    H128231   2.171   5.904   1.711
 9430TIP3    H228232   2.184   6.050   1.671
 9431TIP3   OH228233   6.986   7.543   4.462
 9431TIP3    H128234   7.012   7.461   4.421
 9431TIP3    H228235   6.947   7.518   4.546
 9432TIP3   OH228236   8.283   2.885   4.690
 9432TIP3    H128237   8.334   2.813   4.728
 9432TIP3    H228238   8.348   2.944   4.653
 9433TIP3   OH228239   5.302   0.412   6.013
 9433TIP3    H128240   5.351   0.354   5.954
 9433TIP3    H228241   5.272   0.355   6.084
 9434TIP3   OH228242   6.020   6.445   4.393
 9434TIP3    H128243   5.971   6.525   4.411
 9434TIP3    H228244   5.961   6.374   4.418
 9435TIP3   OH228245   7.678   3.922   5.495
 9435TIP3    H128246   7.766   3.960   5.492
 9435TIP3    H228247   7.675   3.864   5.418
 9436TIP3   OH228248   4.824   4.519   2.494
 9436TIP3    H128249   4.879   4.454   2.537
 9436TIP3    H228250   4.735   4.484   2.501
 9437TIP3   OH228251   7.431   7.599   4.496
 9437TIP3    H128252   7.431   7.514   4.540
 9437TIP3    H228253   7.377   7.587   4.419
 9438TIP3   OH228254   7.636   3.819   6.786
 9438TIP3    H128255   7.554   3.780   6.818
 9438TIP3    H228256   7.609   3.903   6.749
 9439TIP3   OH228257   5.702   2.191   2.787
 9439TIP3    H128258   5.672   2.127   2.852
 9439TIP3    H228259   5.697   2.144   2.704
 9440TIP3   OH228260   8.283   5.458   5.283
 9440TIP3    H128261   8.227   5.515   5.229
 9440TIP3    H228262   8.310   5.389   5.223
 9441TIP3   OH228263   0.832   6.111   2.004
 9441TIP3    H128264   0.859   6.163   1.928
 9441TIP3    H228265   0.755   6.062   1.972
 9442TIP3   OH228266   4.579   0.963   6.523
 9442TIP3    H128267   4.599   0.912   6.601
 9442TIP3    H228268   4.595   0.903   6.450
 9443TIP3   OH228269   4.238   3.179   5.675
 9443TIP3    H128270   4.145   3.181   5.700
 9443TIP3    H228271   4.237   3.146   5.585
 9444TIP3   OH228272   3.728   5.247   1.108
 9444TIP3    H128273   3.766   5.277   1.026
 9444TIP3    H228274   3.675   5.321   1.138
 9445TIP3   OH228275   6.060   0.716   5.621
 9445TIP3    H128276   5.994   0.650   5.600
 9445TIP3    H228277   6.014   0.779   5.676
 9446TIP3   OH228278   0.241   7.592   3.213
 9446TIP3    H128279   0.172   7.657   3.223
 9446TIP3    H228280   0.301   7.609   3.286
 9447TIP3   OH228281   2.668   2.692   0.674
 9447TIP3    H128282   2.686   2.753   0.745
 9447TIP3    H228283   2.696   2.738   0.595
 9448TIP3   OH228284   4.109   4.736   0.049
 9448TIP3    H128285   4.130   4.642   0.051
 9448TIP3    H228286   4.188   4.777   0.013
 9449TIP3   OH228287   3.774   7.214   1.887
 9449TIP3    H128288   3.691   7.258   1.872
 9449TIP3    H228289   3.767   7.179   1.976
 9450TIP3   OH228290   0.642   6.118   4.314
 9450TIP3    H128291   0.672   6.082   4.230
 9450TIP3    H228292   0.695   6.196   4.328
 9451TIP3   OH228293   4.170   7.432   6.278
 9451TIP3    H128294   4.125   7.479   6.347
 9451TIP3    H228295   4.200   7.500   6.217
 9452TIP3   OH228296   5.888   6.722   3.462
 9452TIP3    H128297   5.900   6.629   3.478
 9452TIP3    H228298   5.801   6.729   3.423
 9453TIP3   OH228299   4.736   5.010   2.985
 9453TIP3    H128300   4.649   4.972   2.988
 9453TIP3    H228301   4.773   4.994   3.072
 9454TIP3   OH228302   4.522   0.673   6.110
 9454TIP3    H128303   4.427   0.670   6.111
 9454TIP3    H228304   4.549   0.593   6.065
 9455TIP3   OH228305   0.832   5.922   3.102
 9455TIP3    H128306   0.882   5.959   3.174
 9455TIP3    H228307   0.780   5.995   3.069
 9456TIP3   OH228308   5.313   3.290   5.432
 9456TIP3    H128309   5.232   3.240   5.423
 9456TIP3    H228310   5.288   3.366   5.486
 9457TIP3   OH228311   1.228   3.831   0.364
 9457TIP3    H128312   1.227   3.735   0.368
 9457TIP3    H228313   1.171   3.852   0.290
 9458TIP3   OH228314   5.881   7.139   0.075
 9458TIP3    H128315   5.895   7.087   0.154
 9458TIP3    H228316   5.787   7.133   0.059
 9459TIP3   OH228317   8.369   2.290   6.146
 9459TIP3    H128318   8.294   2.235   6.123
 9459TIP3    H228319   8.362   2.301   6.241
 9460TIP3   OH228320   1.946   3.611   1.648
 9460TIP3    H128321   1.859   3.617   1.688
 9460TIP3    H228322   2.007   3.623   1.720
 9461TIP3   OH228323   1.292   7.158   5.833
 9461TIP3    H128324   1.384   7.175   5.853
 9461TIP3    H228325   1.289   7.065   5.811
 9462TIP3   OH228326   7.026   5.607   3.469
 9462TIP3    H128327   6.971   5.566   3.403
 9462TIP3    H228328   7.012   5.701   3.457
 9463TIP3   OH228329   4.935   4.930   6.079
 9463TIP3    H128330   4.908   4.879   6.156
 9463TIP3    H228331   4.974   5.010   6.116
 9464TIP3   OH228332   1.735   0.692   0.593
 9464TIP3    H128333   1.669   0.746   0.551
 9464TIP3    H228334   1.776   0.750   0.657
 9465TIP3   OH228335   5.275   6.801   3.885
 9465TIP3    H128336   5.256   6.715   3.847
 9465TIP3    H228337   5.367   6.796   3.911
 9466TIP3   OH228338   0.845   4.439   3.554
 9466TIP3    H128339   0.797   4.368   3.597
 9466TIP3    H228340   0.847   4.509   3.618
 9467TIP3   OH228341   5.423   3.503   0.225
 9467TIP3    H128342   5.462   3.478   0.142
 9467TIP3    H228343   5.497   3.519   0.283
 9468TIP3   OH228344   0.817   5.108   0.506
 9468TIP3    H128345   0.877   5.178   0.478
 9468TIP3    H228346   0.751   5.104   0.437
 9469TIP3   OH228347   4.297   0.796   1.471
 9469TIP3    H128348   4.221   0.768   1.522
 9469TIP3    H228349   4.346   0.715   1.455
 9470TIP3   OH228350   2.928   4.957   2.426
 9470TIP3    H128351   2.934   4.952   2.521
 9470TIP3    H228352   2.840   4.988   2.408
 9471TIP3   OH228353   3.373   4.693   0.403
 9471TIP3    H128354   3.430   4.631   0.357
 9471TIP3    H228355   3.433   4.752   0.448
 9472TIP3   OH228356   7.049   7.056   0.837
 9472TIP3    H128357   7.000   7.137   0.818
 9472TIP3    H228358   6.988   7.003   0.888
 9473TIP3   OH228359   5.060   2.792   0.509
 9473TIP3    H128360   5.152   2.805   0.487
 9473TIP3    H228361   5.038   2.708   0.470
 9474TIP3   OH228362   0.810   1.977   3.486
 9474TIP3    H128363   0.764   1.897   3.512
 9474TIP3    H228364   0.754   2.016   3.419
 9475TIP3   OH228365   7.920   6.975   5.043
 9475TIP3    H128366   8.014   6.973   5.023
 9475TIP3    H228367   7.892   7.064   5.020
 9476TIP3   OH228368   2.566   5.293   6.879
 9476TIP3    H128369   2.570   5.241   6.799
 9476TIP3    H228370   2.473   5.292   6.904
 9477TIP3   OH228371   6.614   1.051   4.333
 9477TIP3    H128372   6.593   1.035   4.241
 9477TIP3    H228373   6.609   0.965   4.374
 9478TIP3   OH228374   2.180   2.483   0.636
 9478TIP3    H128375   2.272   2.496   0.660
 9478TIP3    H228376   2.132   2.541   0.696
 9479TIP3   OH228377   8.347   6.852   0.050
 9479TIP3    H128378   8.404   6.889  -0.017
 9479TIP3    H228379   8.393   6.870   0.132
 9480TIP3   OH228380   3.415   0.557   1.580
 9480TIP3    H128381   3.373   0.636   1.547
 9480TIP3    H228382   3.462   0.521   1.505
 9481TIP3   OH228383   1.738   4.544   1.453
 9481TIP3    H128384   1.776   4.457   1.463
 9481TIP3    H228385   1.813   4.602   1.437
 9482TIP3   OH228386   3.836   4.424   5.936
 9482TIP3    H128387   3.844   4.514   5.906
 9482TIP3    H228388   3.878   4.423   6.022
 9483TIP3   OH228389   1.987   5.196   2.979
 9483TIP3    H128390   1.977   5.141   3.056
 9483TIP3    H228391   2.058   5.257   3.002
 9484TIP3   OH228392   3.600   1.691   6.772
 9484TIP3    H128393   3.646   1.630   6.830
 9484TIP3    H228394   3.523   1.642   6.742
 9485TIP3   OH228395   2.441   5.523   3.385
 9485TIP3    H128396   2.531   5.515   3.354
 9485TIP3    H228397   2.450   5.546   3.478
 9486TIP3   OH228398   1.341   3.015   3.236
 9486TIP3    H128399   1.351   3.109   3.220
 9486TIP3    H228400   1.372   3.003   3.326
 9487TIP3   OH228401   3.696   1.098   1.697
 9487TIP3    H128402   3.646   1.017   1.686
 9487TIP3    H228403   3.742   1.087   1.780
 9488TIP3   OH228404   6.536   5.019   0.034
 9488TIP3    H128405   6.560   5.073   0.110
 9488TIP3    H228406   6.485   5.078  -0.022
 9489TIP3   OH228407   1.724   7.003   4.897
 9489TIP3    H128408   1.769   7.046   4.970
 9489TIP3    H228409   1.729   6.909   4.918
 9490TIP3   OH228410   6.406   5.112   6.160
 9490TIP3    H128411   6.424   5.060   6.238
 9490TIP3    H228412   6.312   5.130   6.164
 9491TIP3   OH228413   3.387   6.231   2.622
 9491TIP3    H128414   3.309   6.187   2.588
 9491TIP3    H228415   3.353   6.301   2.677
 9492TIP3   OH228416   0.140   1.040   0.028
 9492TIP3    H128417   0.128   1.081  -0.058
 9492TIP3    H228418   0.146   1.114   0.089
 9493TIP3   OH228419   0.447   0.226   4.315
 9493TIP3    H128420   0.521   0.177   4.349
 9493TIP3    H228421   0.433   0.192   4.227
 9494TIP3   OH228422   4.020   2.726   5.617
 9494TIP3    H128423   4.066   2.650   5.582
 9494TIP3    H228424   3.928   2.710   5.594
 9495TIP3   OH228425   2.631   4.080   1.005
 9495TIP3    H128426   2.610   4.032   1.085
 9495TIP3    H228427   2.620   4.172   1.028
 9496TIP3   OH228428   4.281   3.575   5.491
 9496TIP3    H128429   4.325   3.522   5.558
 9496TIP3    H228430   4.213   3.518   5.456
 9497TIP3   OH228431   1.754   0.310   6.391
 9497TIP3    H128432   1.746   0.217   6.413
 9497TIP3    H228433   1.695   0.322   6.316
 9498TIP3   OH228434   1.963   1.199   0.319
 9498TIP3    H128435   1.898   1.173   0.384
 9498TIP3    H228436   2.018   1.121   0.308
 9499TIP3   OH228437   2.482   3.653   1.421
 9499TIP3    H128438   2.464   3.564   1.454
 9499TIP3    H228439   2.431   3.659   1.341
 9500TIP3   OH228440   5.213   1.627   6.351
 9500TIP3    H128441   5.193   1.701   6.294
 9500TIP3    H228442   5.259   1.565   6.295
 9501TIP3   OH228443   3.592   3.998   2.638
 9501TIP3    H128444   3.628   4.080   2.603
 9501TIP3    H228445   3.578   4.017   2.731
 9502TIP3   OH228446   2.297   5.427   6.098
 9502TIP3    H128447   2.381   5.381   6.088
 9502TIP3    H228448   2.281   5.428   6.192
 9503TIP3   OH228449   0.638   0.373   3.658
 9503TIP3    H128450   0.643   0.359   3.563
 9503TIP3    H228451   0.671   0.461   3.671
 9504TIP3   OH228452   8.051   0.767   0.232
 9504TIP3    H128453   8.098   0.684   0.244
 9504TIP3    H228454   8.082   0.800   0.147
 9505TIP3   OH228455   7.649   1.688   4.740
 9505TIP3    H128456   7.644   1.771   4.786
 9505TIP3    H228457   7.609   1.705   4.655
 9506TIP3   OH228458   2.010   4.813   1.200
 9506TIP3    H128459   1.923   4.776   1.209
 9506TIP3    H228460   2.069   4.742   1.229
 9507TIP3   OH228461   8.211   6.520   6.103
 9507TIP3    H128462   8.154   6.444   6.096
 9507TIP3    H228463   8.206   6.562   6.017
 9508TIP3   OH228464   4.590   6.554   1.342
 9508TIP3    H128465   4.624   6.638   1.371
 9508TIP3    H228466   4.651   6.526   1.273
 9509TIP3   OH228467   7.694   3.610   5.752
 9509TIP3    H128468   7.779   3.570   5.735
 9509TIP3    H228469   7.711   3.673   5.823
 9510TIP3   OH228470   5.535   2.564   4.804
 9510TIP3    H128471   5.541   2.499   4.874
 9510TIP3    H228472   5.626   2.590   4.788
 9511TIP3   OH228473   8.360   4.940   1.561
 9511TIP3    H128474   8.310   4.990   1.496
 9511TIP3    H228475   8.438   4.993   1.577
 9512TIP3   OH228476   4.026   3.648   2.420
 9512TIP3    H128477   3.931   3.645   2.409
 9512TIP3    H228478   4.060   3.639   2.331
 9513TIP3   OH228479   2.107   7.645   0.245
 9513TIP3    H128480   2.022   7.645   0.202
 9513TIP3    H228481   2.137   7.555   0.240
 9514TIP3   OH228482   6.893   5.956   1.234
 9514TIP3    H128483   6.883   6.050   1.249
 9514TIP3    H228484   6.984   5.945   1.206
 9515TIP3   OH228485   3.534   2.732   0.717
 9515TIP3    H128486   3.464   2.681   0.676
 9515TIP3    H228487   3.489   2.806   0.758
 9516TIP3   OH228488   5.613   7.597   1.282
 9516TIP3    H128489   5.678   7.667   1.277
 9516TIP3    H228490   5.538   7.630   1.233
 9517TIP3   OH228491   6.735   3.357   3.030
 9517TIP3    H128492   6.717   3.379   3.121
 9517TIP3    H228493   6.680   3.280   3.013
 9518TIP3   OH228494   4.265   7.462   4.608
 9518TIP3    H128495   4.272   7.376   4.566
 9518TIP3    H228496   4.176   7.464   4.642
 9519TIP3   OH228497   5.856   5.461   1.436
 9519TIP3    H128498   5.899   5.390   1.484
 9519TIP3    H228499   5.867   5.437   1.344
 9520TIP3   OH228500   1.854   3.623   5.587
 9520TIP3    H128501   1.789   3.682   5.625
 9520TIP3    H228502   1.938   3.664   5.605
 9521TIP3   OH228503   3.993   0.964   0.099
 9521TIP3    H128504   3.958   0.918   0.175
 9521TIP3    H228505   4.035   0.897   0.046
 9522TIP3   OH228506   5.042   0.421   5.252
 9522TIP3    H128507   4.958   0.398   5.212
 9522TIP3    H228508   5.036   0.515   5.268
 9523TIP3   OH228509   2.250   1.894   3.277
 9523TIP3    H128510   2.177   1.833   3.290
 9523TIP3    H228511   2.256   1.904   3.182
 9524TIP3   OH228512   6.646   0.315   0.916
 9524TIP3    H128513   6.708   0.276   0.854
 9524TIP3    H228514   6.671   0.279   1.001
 9525TIP3   OH228515   8.388   5.249   5.788
 9525TIP3    H128516   8.470   5.227   5.832
 9525TIP3    H228517   8.396   5.209   5.701
 9526TIP3   OH228518   7.550   0.257   2.054
 9526TIP3    H128519   7.573   0.174   2.012
 9526TIP3    H228520   7.473   0.287   2.006
 9527TIP3   OH228521   0.491   7.850   1.123
 9527TIP3    H128522   0.463   7.926   1.174
 9527TIP3    H228523   0.513   7.886   1.037
 9528TIP3   OH228524   2.176   7.343   6.213
 9528TIP3    H128525   2.150   7.289   6.287
 9528TIP3    H228526   2.095   7.357   6.163
 9529TIP3   OH228527   0.750   6.292   2.563
 9529TIP3    H128528   0.702   6.248   2.634
 9529TIP3    H228529   0.728   6.385   2.574
 9530TIP3   OH228530   6.388   5.255   0.354
 9530TIP3    H128531   6.349   5.268   0.441
 9530TIP3    H228532   6.345   5.176   0.321
 9531TIP3   OH228533   2.823   7.683   4.762
 9531TIP3    H128534   2.866   7.602   4.734
 9531TIP3    H228535   2.730   7.662   4.764
 9532TIP3   OH228536   6.622   0.974   5.457
 9532TIP3    H128537   6.696   0.956   5.514
 9532TIP3    H228538   6.637   0.920   5.380
 9533TIP3   OH228539   4.039   2.624   5.197
 9533TIP3    H128540   4.023   2.717   5.179
 9533TIP3    H228541   4.101   2.597   5.129
 9534TIP3   OH228542   5.888   3.091   0.306
 9534TIP3    H128543   5.933   3.163   0.261
 9534TIP3    H228544   5.882   3.022   0.240
 9535TIP3   OH228545   6.835   7.562   0.796
 9535TIP3    H128546   6.807   7.471   0.802
 9535TIP3    H228547   6.850   7.577   0.703
 9536TIP3   OH228548   7.378   5.899   5.436
 9536TIP3    H128549   7.354   5.941   5.519
 9536TIP3    H228550   7.321   5.822   5.431
 9537TIP3   OH228551   2.599   7.898   6.144
 9537TIP3    H128552   2.574   7.905   6.052
 9537TIP3    H228553   2.624   7.807   6.156
 9538TIP3   OH228554   4.949   7.829   6.197
 9538TIP3    H128555   5.040   7.858   6.194
 9538TIP3    H228556   4.947   7.747   6.149
 9539TIP3   OH228557   5.866   3.815   1.977
 9539TIP3    H128558   5.898   3.905   1.966
 9539TIP3    H228559   5.835   3.812   2.067
 9540TIP3   OH228560   1.694   6.219   4.194
 9540TIP3    H128561   1.604   6.212   4.162
 9540TIP3    H228562   1.746   6.230   4.115
 9541TIP3   OH228563   2.445   1.251   3.846
 9541TIP3    H128564   2.480   1.166   3.872
 9541TIP3    H228565   2.380   1.272   3.913
 9542TIP3   OH228566   7.876   4.369   3.266
 9542TIP3    H128567   7.855   4.373   3.359
 9542TIP3    H228568   7.892   4.460   3.241
 9543TIP3   OH228569   6.864   0.222   0.738
 9543TIP3    H128570   6.894   0.228   0.647
 9543TIP3    H228571   6.854   0.129   0.754
 9544TIP3   OH228572   5.337   3.269   4.807
 9544TIP3    H128573   5.430   3.279   4.825
 9544TIP3    H228574   5.294   3.312   4.881
 9545TIP3   OH228575   6.253   6.275   3.297
 9545TIP3    H128576   6.289   6.358   3.327
 9545TIP3    H228577   6.315   6.245   3.231
 9546TIP3   OH228578   4.735   0.625   3.400
 9546TIP3    H128579   4.644   0.615   3.428
 9546TIP3    H228580   4.777   0.544   3.425
 9547TIP3   OH228581   0.101   7.359   3.135
 9547TIP3    H128582   0.018   7.334   3.176
 9547TIP3    H228583   0.117   7.448   3.167
 9548TIP3   OH228584   2.004   6.720   4.498
 9548TIP3    H128585   1.915   6.755   4.495
 9548TIP3    H228586   2.055   6.789   4.539
 9549TIP3   OH228587   1.063   0.844   3.870
 9549TIP3    H128588   0.997   0.895   3.916
 9549TIP3    H228589   1.031   0.754   3.873
 9550TIP3   OH228590   5.395   0.554   0.804
 9550TIP3    H128591   5.392   0.644   0.838
 9550TIP3    H228592   5.407   0.565   0.710
 9551TIP3   OH228593   0.706   0.631   3.569
 9551TIP3    H128594   0.635   0.688   3.597
 9551TIP3    H228595   0.771   0.690   3.531
 9552TIP3   OH228596   7.582   5.228   2.308
 9552TIP3    H128597   7.552   5.173   2.237
 9552TIP3    H228598   7.647   5.175   2.354
 9553TIP3   OH228599   3.975   6.456   2.172
 9553TIP3    H128600   4.030   6.405   2.232
 9553TIP3    H228601   3.914   6.393   2.136
 9554TIP3   OH228602   3.191   2.179   6.575
 9554TIP3    H128603   3.159   2.099   6.617
 9554TIP3    H228604   3.138   2.249   6.613
 9555TIP3   OH228605   1.136   1.121   5.382
 9555TIP3    H128606   1.100   1.051   5.436
 9555TIP3    H228607   1.070   1.135   5.314
 9556TIP3   OH228608   7.942   7.691   5.383
 9556TIP3    H128609   7.943   7.694   5.288
 9556TIP3    H228610   7.851   7.670   5.406
 9557TIP3   OH228611   6.718   6.848   5.010
 9557TIP3    H128612   6.679   6.765   4.981
 9557TIP3    H228613   6.644   6.902   5.037
 9558TIP3   OH228614   3.988   5.759   6.112
 9558TIP3    H128615   4.074   5.798   6.098
 9558TIP3    H228616   4.004   5.665   6.115
 9559TIP3   OH228617   4.130   5.224   1.136
 9559TIP3    H128618   4.132   5.164   1.062
 9559TIP3    H228619   4.222   5.245   1.152
 9560TIP3   OH228620   7.165   4.911   5.024
 9560TIP3    H128621   7.230   4.981   5.018
 9560TIP3    H228622   7.096   4.938   4.964
 9561TIP3   OH228623   1.594   6.648   5.341
 9561TIP3    H128624   1.584   6.661   5.435
 9561TIP3    H228625   1.568   6.732   5.302
 9562TIP3   OH228626   2.522   2.949   2.439
 9562TIP3    H128627   2.550   3.016   2.502
 9562TIP3    H228628   2.457   2.993   2.384
 9563TIP3   OH228629   1.537   1.831   3.334
 9563TIP3    H128630   1.484   1.910   3.341
 9563TIP3    H228631   1.486   1.763   3.377
 9564TIP3   OH228632   8.261   4.503   6.387
 9564TIP3    H128633   8.230   4.591   6.365
 9564TIP3    H228634   8.334   4.517   6.447
 9565TIP3   OH228635   1.564   0.650   1.856
 9565TIP3    H128636   1.487   0.655   1.913
 9565TIP3    H228637   1.638   0.646   1.917
 9566TIP3   OH228638   7.744   0.372   6.366
 9566TIP3    H128639   7.722   0.402   6.278
 9566TIP3    H228640   7.667   0.394   6.418
 9567TIP3   OH228641   1.331   5.175   2.687
 9567TIP3    H128642   1.370   5.123   2.757
 9567TIP3    H228643   1.243   5.140   2.677
 9568TIP3   OH228644   1.498   0.943   6.815
 9568TIP3    H128645   1.575   1.001   6.819
 9568TIP3    H228646   1.431   0.996   6.773
 9569TIP3   OH228647   1.494   1.767   0.728
 9569TIP3    H128648   1.455   1.799   0.646
 9569TIP3    H228649   1.586   1.750   0.706
 9570TIP3   OH228650   7.073   5.491   4.854
 9570TIP3    H128651   7.017   5.415   4.840
 9570TIP3    H228652   7.012   5.565   4.856
 9571TIP3   OH228653   5.056   6.331   5.809
 9571TIP3    H128654   5.003   6.388   5.752
 9571TIP3    H228655   5.016   6.244   5.799
 9572TIP3   OH228656   4.286   5.300   4.536
 9572TIP3    H128657   4.282   5.392   4.564
 9572TIP3    H228658   4.377   5.289   4.507
 9573TIP3   OH228659   6.986   0.913   0.017
 9573TIP3    H128660   6.904   0.881  -0.020
 9573TIP3    H228661   6.965   0.935   0.107
 9574TIP3   OH228662   1.033   3.415   5.392
 9574TIP3    H128663   1.104   3.353   5.408
 9574TIP3    H228664   0.985   3.377   5.318
 9575TIP3   OH228665   3.485   5.556   4.853
 9575TIP3    H128666   3.456   5.494   4.786
 9575TIP3    H228667   3.538   5.504   4.912
 9576TIP3   OH228668   6.293   4.012   1.548
 9576TIP3    H128669   6.232   4.013   1.474
 9576TIP3    H228670   6.339   4.096   1.542
 9577TIP3   OH228671   3.979   3.748   5.554
 9577TIP3    H128672   3.948   3.718   5.468
 9577TIP3    H228673   4.041   3.681   5.582
 9578TIP3   OH228674   8.328   7.285   5.875
 9578TIP3    H128675   8.414   7.275   5.833
 9578TIP3    H228676   8.276   7.332   5.810
 9579TIP3   OH228677   0.966   3.308   2.294
 9579TIP3    H128678   0.881   3.353   2.293
 9579TIP3    H228679   0.983   3.286   2.203
 9580TIP3   OH228680   1.896   3.334   5.536
 9580TIP3    H128681   1.986   3.323   5.507
 9580TIP3    H228682   1.883   3.429   5.538
 9581TIP3   OH228683   1.810   0.725   4.749
 9581TIP3    H128684   1.763   0.667   4.808
 9581TIP3    H228685   1.825   0.804   4.800
 9582TIP3   OH228686   0.672   1.196   2.637
 9582TIP3    H128687   0.614   1.219   2.710
 9582TIP3    H228688   0.756   1.236   2.660
 9583TIP3   OH228689   2.936   3.756   5.947
 9583TIP3    H128690   2.942   3.764   5.852
 9583TIP3    H228691   2.905   3.842   5.976
 9584TIP3   OH228692   7.803   5.954   3.778
 9584TIP3    H128693   7.773   5.932   3.691
 9584TIP3    H228694   7.833   6.045   3.771
 9585TIP3   OH228695   2.348   5.142   6.749
 9585TIP3    H128696   2.257   5.171   6.750
 9585TIP3    H228697   2.352   5.078   6.821
 9586TIP3   OH228698   6.616   6.270   1.639
 9586TIP3    H128699   6.709   6.278   1.661
 9586TIP3    H228700   6.594   6.354   1.598
 9587TIP3   OH228701   2.749   2.549   6.709
 9587TIP3    H128702   2.686   2.618   6.687
 9587TIP3    H228703   2.699   2.468   6.702
 9588TIP3   OH228704   6.701   4.031   4.791
 9588TIP3    H128705   6.792   4.004   4.794
 9588TIP3    H228706   6.671   4.008   4.703
 9589TIP3   OH228707   3.194   7.272   0.911
 9589TIP3    H128708   3.229   7.360   0.900
 9589TIP3    H228709   3.148   7.274   0.995
 9590TIP3   OH228710   1.718   1.883   2.149
 9590TIP3    H128711   1.668   1.824   2.093
 9590TIP3    H228712   1.715   1.967   2.103
 9591TIP3   OH228713   5.299   0.685   2.675
 9591TIP3    H128714   5.312   0.668   2.582
 9591TIP3    H228715   5.324   0.777   2.687
 9592TIP3   OH228716   2.614   3.556   5.786
 9592TIP3    H128717   2.606   3.645   5.819
 9592TIP3    H228718   2.616   3.565   5.691
 9593TIP3   OH228719   6.199   4.819   3.999
 9593TIP3    H128720   6.234   4.741   3.957
 9593TIP3    H228721   6.113   4.831   3.959
 9594TIP3   OH228722   6.139   2.578   2.963
 9594TIP3    H128723   6.102   2.638   3.027
 9594TIP3    H228724   6.064   2.530   2.928
 9595TIP3   OH228725   8.099   4.604   0.313
 9595TIP3    H128726   8.046   4.525   0.298
 9595TIP3    H228727   8.184   4.583   0.273
 9596TIP3   OH228728   1.328   3.373   1.007
 9596TIP3    H128729   1.319   3.387   1.101
 9596TIP3    H228730   1.358   3.457   0.973
 9597TIP3   OH228731   0.661   7.359   0.908
 9597TIP3    H128732   0.654   7.445   0.867
 9597TIP3    H228733   0.662   7.378   1.002
 9598TIP3   OH228734   2.201   1.922   0.014
 9598TIP3    H128735   2.213   1.911   0.109
 9598TIP3    H228736   2.220   1.835  -0.022
 9599TIP3   OH228737   0.881   1.825   6.501
 9599TIP3    H128738   0.803   1.787   6.460
 9599TIP3    H228739   0.852   1.912   6.530
 9600TIP3   OH228740   5.081   6.908   3.220
 9600TIP3    H128741   5.086   6.816   3.243
 9600TIP3    H228742   4.987   6.928   3.224
 9601TIP3   OH228743   3.548   1.923   2.050
 9601TIP3    H128744   3.460   1.899   2.076
 9601TIP3    H228745   3.546   2.019   2.046
 9602TIP3   OH228746   4.365   2.539   6.055
 9602TIP3    H128747   4.407   2.580   5.980
 9602TIP3    H228748   4.274   2.568   6.050
 9603TIP3   OH228749   2.384   4.977   0.979
 9603TIP3    H128750   2.297   5.004   0.948
 9603TIP3    H228751   2.367   4.903   1.037
 9604TIP3   OH228752   7.366   5.098   4.973
 9604TIP3    H128753   7.369   5.180   4.923
 9604TIP3    H228754   7.411   5.119   5.055
 9605TIP3   OH228755   8.104   5.065   2.164
 9605TIP3    H128756   8.182   5.082   2.216
 9605TIP3    H228757   8.079   4.976   2.187
 9606TIP3   OH228758   3.179   6.559   2.007
 9606TIP3    H128759   3.097   6.600   2.033
 9606TIP3    H228760   3.194   6.591   1.918
 9607TIP3   OH228761   4.800   3.543   5.048
 9607TIP3    H128762   4.712   3.564   5.016
 9607TIP3    H228763   4.858   3.600   4.998
 9608TIP3   OH228764   4.367   6.633   5.962
 9608TIP3    H128765   4.384   6.544   5.932
 9608TIP3    H228766   4.272   6.642   5.959
 9609TIP3   OH228767   6.088   0.415   3.291
 9609TIP3    H128768   6.005   0.400   3.335
 9609TIP3    H228769   6.076   0.380   3.203
 9610TIP3   OH228770   3.638   4.269   5.614
 9610TIP3    H128771   3.623   4.351   5.661
 9610TIP3    H228772   3.673   4.297   5.529
 9611TIP3   OH228773   5.146   7.273   2.533
 9611TIP3    H128774   5.190   7.331   2.595
 9611TIP3    H228775   5.069   7.241   2.579
 9612TIP3   OH228776   6.180   2.241   1.401
 9612TIP3    H128777   6.206   2.178   1.333
 9612TIP3    H228778   6.119   2.300   1.357
 9613TIP3   OH228779   7.787   7.746   0.372
 9613TIP3    H128780   7.706   7.754   0.321
 9613TIP3    H228781   7.844   7.815   0.337
 9614TIP3   OH228782   7.552   4.189   0.155
 9614TIP3    H128783   7.513   4.113   0.197
 9614TIP3    H228784   7.523   4.185   0.064
 9615TIP3   OH228785   4.779   2.726   1.649
 9615TIP3    H128786   4.784   2.772   1.565
 9615TIP3    H228787   4.870   2.712   1.674
 9616TIP3   OH228788   1.572   5.467   1.099
 9616TIP3    H128789   1.595   5.519   1.022
 9616TIP3    H228790   1.477   5.474   1.105
 9617TIP3   OH228791   2.829   4.637   6.541
 9617TIP3    H128792   2.907   4.610   6.589
 9617TIP3    H228793   2.861   4.664   6.455
 9618TIP3   OH228794   7.551   7.318   6.800
 9618TIP3    H128795   7.513   7.255   6.739
 9618TIP3    H228796   7.553   7.272   6.884
 9619TIP3   OH228797   7.755   2.889   5.634
 9619TIP3    H128798   7.810   2.890   5.556
 9619TIP3    H228799   7.770   2.974   5.676
 9620TIP3   OH228800   5.552   7.137   4.359
 9620TIP3    H128801   5.610   7.118   4.285
 9620TIP3    H228802   5.606   7.122   4.436
 9621TIP3   OH228803   3.703   6.485   0.668
 9621TIP3    H128804   3.645   6.493   0.592
 9621TIP3    H228805   3.777   6.542   0.647
 9622TIP3   OH228806   5.564   5.201   4.850
 9622TIP3    H128807   5.549   5.295   4.860
 9622TIP3    H228808   5.511   5.161   4.919
 9623TIP3   OH228809   4.602   3.075   2.054
 9623TIP3    H128810   4.661   3.042   2.121
 9623TIP3    H228811   4.535   3.007   2.045
 9624TIP3   OH228812   1.974   4.278   3.646
 9624TIP3    H128813   2.013   4.297   3.560
 9624TIP3    H228814   2.048   4.278   3.706
 9625TIP3   OH228815   5.741   6.498   3.383
 9625TIP3    H128816   5.786   6.419   3.353
 9625TIP3    H228817   5.692   6.528   3.307
 9626TIP3   OH228818   6.879   2.566   0.812
 9626TIP3    H128819   6.921   2.522   0.738
 9626TIP3    H228820   6.859   2.495   0.874
 9627TIP3   OH228821   0.058   7.777   3.315
 9627TIP3    H128822   0.121   7.807   3.381
 9627TIP3    H228823  -0.026   7.811   3.346
 9628TIP3   OH228824   4.770   1.999   6.417
 9628TIP3    H128825   4.812   1.944   6.482
 9628TIP3    H228826   4.746   2.079   6.464
 9629TIP3   OH228827   7.021   5.424   5.387
 9629TIP3    H128828   6.966   5.347   5.405
 9629TIP3    H228829   6.959   5.497   5.388
 9630TIP3   OH228830   0.355   6.919   1.815
 9630TIP3    H128831   0.406   6.841   1.792
 9630TIP3    H228832   0.289   6.888   1.876
 9631TIP3   OH228833   1.234   6.210   3.704
 9631TIP3    H128834   1.322   6.245   3.692
 9631TIP3    H228835   1.214   6.167   3.621
 9632TIP3   OH228836   2.356   1.797   2.240
 9632TIP3    H128837   2.404   1.837   2.168
 9632TIP3    H228838   2.354   1.865   2.308
 9633TIP3   OH228839   6.331   7.802   6.010
 9633TIP3    H128840   6.397   7.773   5.947
 9633TIP3    H228841   6.248   7.770   5.974
 9634TIP3   OH228842   5.839   6.007   3.134
 9634TIP3    H128843   5.858   6.099   3.117
 9634TIP3    H228844   5.904   5.980   3.199
 9635TIP3   OH228845   4.297   5.947   0.125
 9635TIP3    H128846   4.346   6.013   0.175
 9635TIP3    H228847   4.262   5.996   0.050
 9636TIP3   OH228848   5.313   6.366   6.169
 9636TIP3    H128849   5.334   6.310   6.095
 9636TIP3    H228850   5.217   6.365   6.173
 9637TIP3   OH228851   3.691   1.761   0.448
 9637TIP3    H128852   3.692   1.705   0.371
 9637TIP3    H228853   3.756   1.722   0.506
 9638TIP3   OH228854   3.624   5.156   6.606
 9638TIP3    H128855   3.616   5.250   6.587
 9638TIP3    H228856   3.593   5.148   6.697
 9639TIP3   OH228857   1.422   1.943   1.204
 9639TIP3    H128858   1.412   1.891   1.284
 9639TIP3    H228859   1.375   1.893   1.137
 9640TIP3   OH228860   1.322   3.948   2.083
 9640TIP3    H128861   1.369   4.023   2.045
 9640TIP3    H228862   1.233   3.980   2.098
 9641TIP3   OH228863   7.837   7.238   2.584
 9641TIP3    H128864   7.851   7.169   2.648
 9641TIP3    H228865   7.925   7.271   2.565
 9642TIP3   OH228866   2.356   6.919   2.351
 9642TIP3    H128867   2.335   6.992   2.409
 9642TIP3    H228868   2.291   6.852   2.371
 9643TIP3   OH228869   7.295   5.092   0.294
 9643TIP3    H128870   7.226   5.133   0.345
 9643TIP3    H228871   7.371   5.149   0.305
 9644TIP3   OH228872   4.871   0.858   1.331
 9644TIP3    H128873   4.897   0.823   1.246
 9644TIP3    H228874   4.905   0.947   1.331
 9645TIP3   OH228875   5.127   7.090   3.021
 9645TIP3    H128876   5.108   7.026   3.089
 9645TIP3    H228877   5.139   7.173   3.068
 9646TIP3   OH228878   4.762   4.883   5.157
 9646TIP3    H128879   4.700   4.876   5.083
 9646TIP3    H228880   4.706   4.881   5.234
 9647TIP3   OH228881   0.438   0.808   0.706
 9647TIP3    H128882   0.359   0.777   0.660
 9647TIP3    H228883   0.495   0.838   0.635
 9648TIP3   OH228884   0.474   4.714   1.451
 9648TIP3    H128885   0.487   4.764   1.531
 9648TIP3    H228886   0.380   4.720   1.434
 9649TIP3   OH228887   2.186   6.705   1.288
 9649TIP3    H128888   2.159   6.723   1.378
 9649TIP3    H228889   2.266   6.653   1.297
 9650TIP3   OH228890   2.770   2.297   3.842
 9650TIP3    H128891   2.814   2.223   3.799
 9650TIP3    H228892   2.815   2.374   3.809
 9651TIP3   OH228893   1.561   5.376   5.678
 9651TIP3    H128894   1.591   5.453   5.726
 9651TIP3    H228895   1.641   5.325   5.663
 9652TIP3   OH228896   6.741   5.283   6.515
 9652TIP3    H128897   6.741   5.223   6.590
 9652TIP3    H228898   6.707   5.365   6.550
 9653TIP3   OH228899   4.992   3.179   5.623
 9653TIP3    H128900   5.026   3.268   5.626
 9653TIP3    H228901   5.061   3.125   5.662
 9654TIP3   OH228902   1.139   5.547   6.826
 9654TIP3    H128903   1.115   5.601   6.751
 9654TIP3    H228904   1.056   5.516   6.862
 9655TIP3   OH228905   2.698   5.989   4.693
 9655TIP3    H128906   2.612   5.983   4.650
 9655TIP3    H228907   2.715   6.083   4.696
 9656TIP3   OH228908   3.186   2.864   0.487
 9656TIP3    H128909   3.138   2.938   0.527
 9656TIP3    H228910   3.241   2.905   0.421
 9657TIP3   OH228911   5.982   7.414   3.048
 9657TIP3    H128912   6.070   7.378   3.045
 9657TIP3    H228913   5.964   7.441   2.958
 9658TIP3   OH228914   4.444   2.750   1.392
 9658TIP3    H128915   4.479   2.701   1.467
 9658TIP3    H228916   4.423   2.836   1.428
 9659TIP3   OH228917   7.271   6.934   5.495
 9659TIP3    H128918   7.318   6.989   5.557
 9659TIP3    H228919   7.339   6.903   5.435
 9660TIP3   OH228920   0.157   7.008   4.133
 9660TIP3    H128921   0.121   6.941   4.192
 9660TIP3    H228922   0.170   7.084   4.190
 9661TIP3   OH228923   2.526   7.402   1.118
 9661TIP3    H128924   2.534   7.310   1.092
 9661TIP3    H228925   2.439   7.428   1.089
 9662TIP3   OH228926   7.072   7.273   3.301
 9662TIP3    H128927   7.080   7.279   3.396
 9662TIP3    H228928   7.050   7.361   3.272
 9663TIP3   OH228929   5.297   1.855   2.002
 9663TIP3    H128930   5.349   1.854   1.921
 9663TIP3    H228931   5.288   1.947   2.024
 9664TIP3   OH228932   4.632   1.632   6.286
 9664TIP3    H128933   4.588   1.696   6.342
 9664TIP3    H228934   4.561   1.579   6.249
 9665TIP3   OH228935   0.871   1.541   5.270
 9665TIP3    H128936   0.822   1.571   5.194
 9665TIP3    H228937   0.942   1.488   5.234
 9666TIP3   OH228938   7.588   7.141   5.433
 9666TIP3    H128939   7.618   7.151   5.524
 9666TIP3    H228940   7.553   7.052   5.429
 9667TIP3   OH228941   5.505   3.276   0.391
 9667TIP3    H128942   5.568   3.318   0.450
 9667TIP3    H228943   5.469   3.348   0.340
 9668TIP3   OH228944   7.688   0.714   6.034
 9668TIP3    H128945   7.694   0.809   6.043
 9668TIP3    H228946   7.671   0.701   5.941
 9669TIP3   OH228947   5.879   6.338   6.478
 9669TIP3    H128948   5.919   6.418   6.513
 9669TIP3    H228949   5.870   6.354   6.384
 9670TIP3   OH228950   6.165   5.476   1.821
 9670TIP3    H128951   6.124   5.411   1.877
 9670TIP3    H228952   6.122   5.559   1.845
 9671TIP3   OH228953   1.381   5.275   1.410
 9671TIP3    H128954   1.461   5.240   1.448
 9671TIP3    H228955   1.361   5.352   1.463
 9672TIP3   OH228956   4.457   7.734   5.188
 9672TIP3    H128957   4.427   7.713   5.100
 9672TIP3    H228958   4.509   7.659   5.214
 9673TIP3   OH228959   1.816   4.304   6.631
 9673TIP3    H128960   1.884   4.249   6.669
 9673TIP3    H228961   1.845   4.320   6.541
 9674TIP3   OH228962   3.759   1.909   3.997
 9674TIP3    H128963   3.772   1.815   4.004
 9674TIP3    H228964   3.664   1.921   3.997
 9675TIP3   OH228965   3.949  -0.008   4.505
 9675TIP3    H128966   4.033   0.030   4.481
 9675TIP3    H228967   3.905  -0.024   4.422
 9676TIP3   OH228968   4.005   0.730   3.134
 9676TIP3    H128969   4.014   0.814   3.089
 9676TIP3    H228970   4.065   0.672   3.088
 9677TIP3   OH228971   0.468   3.607   0.533
 9677TIP3    H128972   0.487   3.524   0.577
 9677TIP3    H228973   0.373   3.607   0.521
 9678TIP3   OH228974   7.044   7.421   6.508
 9678TIP3    H128975   6.971   7.463   6.552
 9678TIP3    H228976   7.121   7.445   6.560
 9679TIP3   OH228977   0.866   4.213   0.001
 9679TIP3    H128978   0.921   4.150   0.048
 9679TIP3    H228979   0.797   4.235   0.064
 9680TIP3   OH228980   1.509   3.479   3.017
 9680TIP3    H128981   1.584   3.443   3.064
 9680TIP3    H228982   1.533   3.472   2.925
 9681TIP3   OH228983   7.817   2.081   2.637
 9681TIP3    H128984   7.823   1.989   2.662
 9681TIP3    H228985   7.788   2.126   2.716
 9682TIP3   OH228986   1.957   3.832   3.746
 9682TIP3    H128987   1.906   3.794   3.675
 9682TIP3    H228988   1.920   3.794   3.826
 9683TIP3   OH228989   0.476   7.401   4.148
 9683TIP3    H128990   0.572   7.393   4.148
 9683TIP3    H228991   0.457   7.461   4.221
 9684TIP3   OH228992   2.695   0.941   6.046
 9684TIP3    H128993   2.734   1.024   6.018
 9684TIP3    H228994   2.664   0.958   6.135
 9685TIP3   OH228995   2.044   4.819   6.725
 9685TIP3    H128996   1.979   4.750   6.738
 9685TIP3    H228997   2.122   4.787   6.769
 9686TIP3   OH228998   4.194   3.815   5.206
 9686TIP3    H128999   4.262   3.820   5.273
 9686TIP3    H229000   4.191   3.723   5.181
 9687TIP3   OH229001   1.772   5.360   5.889
 9687TIP3    H129002   1.780   5.324   5.800
 9687TIP3    H229003   1.750   5.453   5.875
 9688TIP3   OH229004   1.377   1.591   1.856
 9688TIP3    H129005   1.432   1.583   1.778
 9688TIP3    H229006   1.330   1.507   1.861
 9689TIP3   OH229007   0.436   7.278   2.841
 9689TIP3    H129008   0.507   7.261   2.778
 9689TIP3    H229009   0.456   7.220   2.915
 9690TIP3   OH229010   1.917   7.052   0.833
 9690TIP3    H129011   1.951   6.971   0.796
 9690TIP3    H229012   1.889   7.029   0.921
 9691TIP3   OH229013   2.896   5.067   1.108
 9691TIP3    H129014   2.946   5.064   1.026
 9691TIP3    H229015   2.927   5.147   1.151
 9692TIP3   OH229016   4.757   5.120   6.401
 9692TIP3    H129017   4.664   5.142   6.392
 9692TIP3    H229018   4.758   5.027   6.423
 9693TIP3   OH229019   3.481   4.471   1.768
 9693TIP3    H129020   3.401   4.473   1.715
 9693TIP3    H229021   3.450   4.484   1.858
 9694TIP3   OH229022   4.585   0.941   6.123
 9694TIP3    H129023   4.568   0.969   6.033
 9694TIP3    H229024   4.584   0.846   6.119
 9695TIP3   OH229025   4.294   6.602   3.621
 9695TIP3    H129026   4.384   6.594   3.589
 9695TIP3    H229027   4.278   6.518   3.665
 9696TIP3   OH229028   6.460   7.634   6.393
 9696TIP3    H129029   6.408   7.710   6.367
 9696TIP3    H229030   6.442   7.624   6.486
 9697TIP3   OH229031   5.745   3.522   2.705
 9697TIP3    H129032   5.679   3.567   2.652
 9697TIP3    H229033   5.819   3.508   2.645
 9698TIP3   OH229034   3.559   4.655   2.924
 9698TIP3    H129035   3.472   4.695   2.917
 9698TIP3    H229036   3.591   4.683   3.009
 9699TIP3   OH229037   1.531   3.128   0.366
 9699TIP3    H129038   1.531   3.104   0.459
 9699TIP3    H229039   1.469   3.068   0.326
 9700TIP3   OH229040   3.024   2.859   4.825
 9700TIP3    H129041   3.102   2.873   4.772
 9700TIP3    H229042   2.976   2.789   4.780
 9701TIP3   OH229043   4.063   6.962   0.558
 9701TIP3    H129044   4.137   6.904   0.579
 9701TIP3    H229045   4.042   7.005   0.641
 9702TIP3   OH229046   3.751   4.187   4.458
 9702TIP3    H129047   3.767   4.092   4.452
 9702TIP3    H229048   3.828   4.227   4.417
 9703TIP3   OH229049   7.895   4.893   4.374
 9703TIP3    H129050   7.853   4.979   4.367
 9703TIP3    H229051   7.917   4.884   4.466
 9704TIP3   OH229052   3.222   0.676   6.016
 9704TIP3    H129053   3.201   0.762   5.979
 9704TIP3    H229054   3.138   0.642   6.048
 9705TIP3   OH229055   2.282   7.164   1.205
 9705TIP3    H129056   2.339   7.129   1.137
 9705TIP3    H229057   2.211   7.100   1.212
 9706TIP3   OH229058   2.118   7.407   0.485
 9706TIP3    H129059   2.145   7.328   0.437
 9706TIP3    H229060   2.031   7.426   0.452
 9707TIP3   OH229061   6.716   6.738   4.039
 9707TIP3    H129062   6.662   6.662   4.019
 9707TIP3    H229063   6.799   6.701   4.068
 9708TIP3   OH229064   5.667   2.874   5.017
 9708TIP3    H129065   5.593   2.874   4.956
 9708TIP3    H229066   5.627   2.890   5.103
 9709TIP3   OH229067   1.061   3.508   4.446
 9709TIP3    H129068   1.036   3.474   4.361
 9709TIP3    H229069   1.054   3.603   4.437
 9710TIP3   OH229070   7.286   5.099   3.634
 9710TIP3    H129071   7.285   5.066   3.545
 9710TIP3    H229072   7.353   5.167   3.634
 9711TIP3   OH229073   5.099   3.137   5.367
 9711TIP3    H129074   5.030   3.138   5.301
 9711TIP3    H229075   5.053   3.139   5.451
 9712TIP3   OH229076   7.898   1.884   6.243
 9712TIP3    H129077   7.810   1.848   6.246
 9712TIP3    H229078   7.931   1.861   6.155
 9713TIP3   OH229079   6.074   1.782   6.105
 9713TIP3    H129080   6.146   1.720   6.092
 9713TIP3    H229081   6.023   1.745   6.177
 9714TIP3   OH229082   8.004   5.885   1.923
 9714TIP3    H129083   7.911   5.865   1.938
 9714TIP3    H229084   8.014   5.883   1.828
 9715TIP3   OH229085   0.139   5.880   4.367
 9715TIP3    H129086   0.176   5.904   4.452
 9715TIP3    H229087   0.089   5.957   4.340
 9716TIP3   OH229088   4.689   4.215   0.461
 9716TIP3    H129089   4.601   4.252   0.452
 9716TIP3    H229090   4.687   4.137   0.405
 9717TIP3   OH229091   1.846   4.084   1.815
 9717TIP3    H129092   1.793   4.111   1.890
 9717TIP3    H229093   1.784   4.037   1.758
 9718TIP3   OH229094   3.005   0.555   2.618
 9718TIP3    H129095   2.911   0.563   2.636
 9718TIP3    H229096   3.012   0.478   2.561
 9719TIP3   OH229097   7.858   2.256   3.198
 9719TIP3    H129098   7.898   2.190   3.254
 9719TIP3    H229099   7.804   2.309   3.257
 9720TIP3   OH229100   5.039   0.214   0.978
 9720TIP3    H129101   5.016   0.199   0.886
 9720TIP3    H229102   5.128   0.249   0.975
 9721TIP3   OH229103   7.238   2.211   3.270
 9721TIP3    H129104   7.308   2.255   3.221
 9721TIP3    H229105   7.161   2.218   3.214
 9722TIP3   OH229106   2.312   3.923   5.040
 9722TIP3    H129107   2.363   3.873   5.103
 9722TIP3    H229108   2.347   4.012   5.045
 9723TIP3   OH229109   1.548   7.868   3.139
 9723TIP3    H129110   1.628   7.913   3.165
 9723TIP3    H229111   1.530   7.808   3.211
 9724TIP3   OH229112   4.575   3.766   4.281
 9724TIP3    H129113   4.494   3.716   4.293
 9724TIP3    H229114   4.585   3.773   4.186
 9725TIP3   OH229115   6.922   2.312   6.000
 9725TIP3    H129116   6.893   2.233   6.046
 9725TIP3    H229117   6.946   2.282   5.913
 9726TIP3   OH229118   5.216   0.959   1.969
 9726TIP3    H129119   5.130   0.955   1.926
 9726TIP3    H229120   5.278   0.972   1.897
 9727TIP3   OH229121   5.159   1.016   0.591
 9727TIP3    H129122   5.191   1.081   0.529
 9727TIP3    H229123   5.231   1.005   0.653
 9728TIP3   OH229124   6.127   2.366   0.232
 9728TIP3    H129125   6.157   2.279   0.207
 9728TIP3    H229126   6.038   2.353   0.264
 9729TIP3   OH229127   0.829   4.258   4.293
 9729TIP3    H129128   0.781   4.215   4.222
 9729TIP3    H229129   0.798   4.348   4.291
 9730TIP3   OH229130   0.523   7.587   1.145
 9730TIP3    H129131   0.511   7.681   1.161
 9730TIP3    H229132   0.616   7.571   1.161
 9731TIP3   OH229133   7.831   7.015   2.728
 9731TIP3    H129134   7.875   7.020   2.813
 9731TIP3    H229135   7.861   6.933   2.689
 9732TIP3   OH229136   0.252   3.382   4.904
 9732TIP3    H129137   0.313   3.315   4.937
 9732TIP3    H229138   0.166   3.342   4.913
 9733TIP3   OH229139   4.808   4.884   3.329
 9733TIP3    H129140   4.795   4.835   3.248
 9733TIP3    H229141   4.892   4.853   3.362
 9734TIP3   OH229142   1.208   0.445   2.496
 9734TIP3    H129143   1.129   0.495   2.516
 9734TIP3    H229144   1.192   0.410   2.409
 9735TIP3   OH229145   2.959   6.403   2.291
 9735TIP3    H129146   2.931   6.460   2.220
 9735TIP3    H229147   2.882   6.350   2.311
 9736TIP3   OH229148   0.191   0.185   1.291
 9736TIP3    H129149   0.256   0.255   1.288
 9736TIP3    H229150   0.124   0.212   1.228
 9737TIP3   OH229151   0.865   2.544   5.014
 9737TIP3    H129152   0.813   2.605   5.066
 9737TIP3    H229153   0.808   2.468   5.002
 9738TIP3   OH229154   4.039   5.875   2.188
 9738TIP3    H129155   4.027   5.856   2.282
 9738TIP3    H229156   4.019   5.792   2.145
 9739TIP3   OH229157   4.762   4.925   2.371
 9739TIP3    H129158   4.732   5.006   2.412
 9739TIP3    H229159   4.683   4.889   2.331
 9740TIP3   OH229160   2.251   2.592   3.753
 9740TIP3    H129161   2.293   2.535   3.688
 9740TIP3    H229162   2.185   2.536   3.794
 9741TIP3   OH229163   1.997   6.230   2.678
 9741TIP3    H129164   2.003   6.319   2.642
 9741TIP3    H229165   1.917   6.230   2.730
 9742TIP3   OH229166   2.923   7.380   6.023
 9742TIP3    H129167   2.829   7.396   6.034
 9742TIP3    H229168   2.965   7.460   6.054
 9743TIP3   OH229169   1.391   5.665   0.659
 9743TIP3    H129170   1.337   5.586   0.670
 9743TIP3    H229171   1.339   5.722   0.603
 9744TIP3   OH229172   2.643   6.101   6.509
 9744TIP3    H129173   2.580   6.164   6.544
 9744TIP3    H229174   2.708   6.091   6.580
 9745TIP3   OH229175   4.157   4.184   6.468
 9745TIP3    H129176   4.222   4.165   6.536
 9745TIP3    H229177   4.120   4.269   6.493
 9746TIP3   OH229178   4.518   2.063   1.508
 9746TIP3    H129179   4.428   2.095   1.511
 9746TIP3    H229180   4.526   2.021   1.422
 9747TIP3   OH229181   3.422   1.267   4.941
 9747TIP3    H129182   3.392   1.177   4.931
 9747TIP3    H229183   3.456   1.271   5.030
 9748TIP3   OH229184   4.969   0.178   0.076
 9748TIP3    H129185   4.923   0.159  -0.006
 9748TIP3    H229186   5.026   0.102   0.090
 9749TIP3   OH229187   4.624   2.222   1.019
 9749TIP3    H129188   4.699   2.164   1.031
 9749TIP3    H229189   4.630   2.285   1.091
 9750TIP3   OH229190   5.518   1.265   5.807
 9750TIP3    H129191   5.455   1.327   5.842
 9750TIP3    H229192   5.598   1.316   5.795
 9751TIP3   OH229193   4.593   6.571   4.513
 9751TIP3    H129194   4.500   6.553   4.502
 9751TIP3    H229195   4.597   6.631   4.587
 9752TIP3   OH229196   1.397   6.039   2.392
 9752TIP3    H129197   1.485   6.075   2.386
 9752TIP3    H229198   1.386   5.988   2.312
 9753TIP3   OH229199   7.976   0.112   3.505
 9753TIP3    H129200   8.071   0.110   3.500
 9753TIP3    H229201   7.951   0.193   3.461
 9754TIP3   OH229202   1.069   5.127   2.620
 9754TIP3    H129203   1.012   5.189   2.575
 9754TIP3    H229204   1.009   5.069   2.667
 9755TIP3   OH229205   1.363   7.859   0.049
 9755TIP3    H129206   1.299   7.804   0.095
 9755TIP3    H229207   1.409   7.799  -0.009
 9756TIP3   OH229208   7.929   6.750   5.719
 9756TIP3    H129209   7.913   6.841   5.692
 9756TIP3    H229210   8.002   6.755   5.780
 9757TIP3   OH229211   4.327   7.419   1.990
 9757TIP3    H129212   4.311   7.484   1.921
 9757TIP3    H229213   4.354   7.471   2.066
 9758TIP3   OH229214   7.979   1.795   3.893
 9758TIP3    H129215   7.941   1.711   3.918
 9758TIP3    H229216   8.017   1.829   3.974
 9759TIP3   OH229217   5.060   0.263   1.671
 9759TIP3    H129218   4.965   0.268   1.665
 9759TIP3    H229219   5.092   0.330   1.611
 9760TIP3   OH229220   1.337   2.108   4.424
 9760TIP3    H129221   1.373   2.138   4.508
 9760TIP3    H229222   1.287   2.182   4.392
 9761TIP3   OH229223   5.174   4.538   1.705
 9761TIP3    H129224   5.165   4.495   1.620
 9761TIP3    H229225   5.117   4.614   1.699
 9762TIP3   OH229226   3.133   0.359   6.612
 9762TIP3    H129227   3.228   0.355   6.604
 9762TIP3    H229228   3.101   0.296   6.547
 9763TIP3   OH229229   7.295   1.431   0.229
 9763TIP3    H129230   7.263   1.521   0.235
 9763TIP3    H229231   7.309   1.417   0.136
 9764TIP3   OH229232   0.464   3.222   1.792
 9764TIP3    H129233   0.553   3.191   1.806
 9764TIP3    H229234   0.416   3.194   1.870
 9765TIP3   OH229235   0.847   1.354   5.667
 9765TIP3    H129236   0.763   1.311   5.686
 9765TIP3    H229237   0.913   1.294   5.702
 9766TIP3   OH229238   0.243   2.739   4.058
 9766TIP3    H129239   0.309   2.674   4.036
 9766TIP3    H229240   0.232   2.790   3.977
 9767TIP3   OH229241   0.781   7.194   4.746
 9767TIP3    H129242   0.772   7.154   4.832
 9767TIP3    H229243   0.869   7.232   4.746
 9768TIP3   OH229244   4.071   7.211   2.821
 9768TIP3    H129245   4.101   7.217   2.731
 9768TIP3    H229246   3.999   7.274   2.827
 9769TIP3   OH229247   6.757   1.473   0.457
 9769TIP3    H129248   6.666   1.453   0.480
 9769TIP3    H229249   6.788   1.395   0.411
 9770TIP3   OH229250   5.423   5.106   5.096
 9770TIP3    H129251   5.344   5.155   5.072
 9770TIP3    H229252   5.408   5.018   5.061
 9771TIP3   OH229253   3.561   6.498   0.430
 9771TIP3    H129254   3.558   6.403   0.423
 9771TIP3    H229255   3.541   6.529   0.341
 9772TIP3   OH229256   6.407   0.517   3.479
 9772TIP3    H129257   6.326   0.566   3.470
 9772TIP3    H229258   6.398   0.471   3.563
 9773TIP3   OH229259   4.914   5.581   0.902
 9773TIP3    H129260   4.918   5.486   0.890
 9773TIP3    H229261   4.990   5.601   0.956
 9774TIP3   OH229262   6.729   4.606   4.238
 9774TIP3    H129263   6.661   4.543   4.215
 9774TIP3    H229264   6.796   4.553   4.283
 9775TIP3   OH229265   6.761   5.292   2.914
 9775TIP3    H129266   6.841   5.243   2.892
 9775TIP3    H229267   6.789   5.356   2.979
 9776TIP3   OH229268   5.257   2.362   6.504
 9776TIP3    H129269   5.265   2.312   6.585
 9776TIP3    H229270   5.171   2.340   6.470
 9777TIP3   OH229271   2.527   1.855   5.169
 9777TIP3    H129272   2.608   1.828   5.126
 9777TIP3    H229273   2.490   1.774   5.205
 9778TIP3   OH229274   5.452   2.382   3.269
 9778TIP3    H129275   5.407   2.424   3.195
 9778TIP3    H229276   5.437   2.440   3.343
 9779TIP3   OH229277   1.834   7.380   1.372
 9779TIP3    H129278   1.757   7.424   1.335
 9779TIP3    H229279   1.890   7.451   1.403
 9780TIP3   OH229280   1.087   1.036   6.268
 9780TIP3    H129281   1.038   1.083   6.337
 9780TIP3    H229282   1.066   1.084   6.188
 9781TIP3   OH229283   5.330   6.718   2.708
 9781TIP3    H129284   5.355   6.763   2.627
 9781TIP3    H229285   5.237   6.740   2.720
 9782TIP3   OH229286   7.501   1.243   5.456
 9782TIP3    H129287   7.420   1.200   5.485
 9782TIP3    H229288   7.532   1.290   5.533
 9783TIP3   OH229289   3.453   6.944   4.616
 9783TIP3    H129290   3.383   6.982   4.563
 9783TIP3    H229291   3.518   7.014   4.622
 9784TIP3   OH229292   8.117   5.730   4.906
 9784TIP3    H129293   8.137   5.788   4.980
 9784TIP3    H229294   8.128   5.642   4.940
 9785TIP3   OH229295   0.489   4.606   4.153
 9785TIP3    H129296   0.553   4.676   4.140
 9785TIP3    H229297   0.456   4.619   4.242
 9786TIP3   OH229298   4.526   3.715   1.917
 9786TIP3    H129299   4.563   3.628   1.935
 9786TIP3    H229300   4.438   3.711   1.954
 9787TIP3   OH229301   0.615   1.131   5.677
 9787TIP3    H129302   0.638   1.091   5.761
 9787TIP3    H229303   0.665   1.082   5.612
 9788TIP3   OH229304   1.904   4.500   2.325
 9788TIP3    H129305   1.826   4.517   2.377
 9788TIP3    H229306   1.974   4.547   2.371
 9789TIP3   OH229307   8.180   2.103   4.343
 9789TIP3    H129308   8.242   2.052   4.395
 9789TIP3    H229309   8.099   2.103   4.394
 9790TIP3   OH229310   0.766   6.079   0.104
 9790TIP3    H129311   0.809   6.041   0.026
 9790TIP3    H229312   0.777   6.012   0.172
 9791TIP3   OH229313   1.111   0.527   6.784
 9791TIP3    H129314   1.021   0.495   6.779
 9791TIP3    H229315   1.124   0.548   6.876
 9792TIP3   OH229316   4.355   1.648   2.510
 9792TIP3    H129317   4.415   1.586   2.468
 9792TIP3    H229318   4.404   1.730   2.513
 9793TIP3   OH229319   8.067   2.675   1.347
 9793TIP3    H129320   8.108   2.747   1.396
 9793TIP3    H229321   7.999   2.718   1.296
 9794TIP3   OH229322   0.164   5.747   2.596
 9794TIP3    H129323   0.188   5.825   2.546
 9794TIP3    H229324   0.222   5.748   2.672
 9795TIP3   OH229325   5.376   3.363   2.686
 9795TIP3    H129326   5.324   3.442   2.703
 9795TIP3    H229327   5.336   3.325   2.607
 9796TIP3   OH229328   1.707   6.748   4.193
 9796TIP3    H129329   1.699   6.792   4.278
 9796TIP3    H229330   1.736   6.659   4.214
 9797TIP3   OH229331   7.316   4.137   6.157
 9797TIP3    H129332   7.328   4.060   6.101
 9797TIP3    H229333   7.238   4.180   6.123
 9798TIP3   OH229334   4.721   6.163   2.139
 9798TIP3    H129335   4.722   6.084   2.193
 9798TIP3    H229336   4.670   6.138   2.062
 9799TIP3   OH229337   0.148   1.888   2.977
 9799TIP3    H129338   0.109   1.927   2.899
 9799TIP3    H229339   0.242   1.883   2.958
 9800TIP3   OH229340   7.117   3.779   6.224
 9800TIP3    H129341   7.043   3.792   6.283
 9800TIP3    H229342   7.084   3.806   6.139
 9801TIP3   OH229343   3.993   7.090   0.798
 9801TIP3    H129344   4.035   7.167   0.837
 9801TIP3    H229345   3.992   7.025   0.868
 9802TIP3   OH229346   1.588   5.164   1.630
 9802TIP3    H129347   1.619   5.245   1.670
 9802TIP3    H229348   1.534   5.123   1.698
 9803TIP3   OH229349   4.482   3.723   3.414
 9803TIP3    H129350   4.401   3.726   3.364
 9803TIP3    H229351   4.471   3.791   3.481
 9804TIP3   OH229352   4.051   1.725   1.769
 9804TIP3    H129353   4.074   1.802   1.821
 9804TIP3    H229354   4.123   1.664   1.785
 9805TIP3   OH229355   6.956   2.827   5.818
 9805TIP3    H129356   7.016   2.872   5.878
 9805TIP3    H229357   6.953   2.737   5.850
 9806TIP3   OH229358   6.570   4.792   6.082
 9806TIP3    H129359   6.542   4.838   6.003
 9806TIP3    H229360   6.541   4.701   6.068
 9807TIP3   OH229361   3.237   3.448   0.931
 9807TIP3    H129362   3.170   3.515   0.915
 9807TIP3    H229363   3.313   3.477   0.881
 9808TIP3   OH229364   0.807   3.229   0.530
 9808TIP3    H129365   0.755   3.152   0.507
 9808TIP3    H229366   0.793   3.240   0.624
 9809TIP3   OH229367   2.110   4.318   3.938
 9809TIP3    H129368   2.020   4.288   3.929
 9809TIP3    H229369   2.112   4.366   4.020
 9810TIP3   OH229370   4.874   3.607   0.297
 9810TIP3    H129371   4.944   3.580   0.237
 9810TIP3    H229372   4.840   3.525   0.333
 9811TIP3   OH229373   2.388   4.487   5.142
 9811TIP3    H129374   2.346   4.454   5.063
 9811TIP3    H229375   2.335   4.452   5.214
 9812TIP3   OH229376   5.483   6.454   0.636
 9812TIP3    H129377   5.470   6.479   0.544
 9812TIP3    H229378   5.394   6.439   0.669
 9813TIP3   OH229379   5.079   4.273   6.556
 9813TIP3    H129380   5.092   4.239   6.644
 9813TIP3    H229381   4.984   4.273   6.544
 9814TIP3   OH229382   3.331   3.462   3.155
 9814TIP3    H129383   3.292   3.549   3.141
 9814TIP3    H229384   3.406   3.460   3.096
 9815TIP3   OH229385   1.316   5.216   5.761
 9815TIP3    H129386   1.353   5.131   5.735
 9815TIP3    H229387   1.391   5.275   5.764
 9816TIP3   OH229388   5.359   1.431   3.247
 9816TIP3    H129389   5.336   1.476   3.166
 9816TIP3    H229390   5.295   1.463   3.311
 9817TIP3   OH229391   2.582   7.202   3.005
 9817TIP3    H129392   2.512   7.165   2.950
 9817TIP3    H229393   2.549   7.289   3.029
 9818TIP3   OH229394   6.520   0.345   1.448
 9818TIP3    H129395   6.552   0.260   1.476
 9818TIP3    H229396   6.425   0.337   1.450
 9819TIP3   OH229397   5.191   6.626   3.011
 9819TIP3    H129398   5.105   6.624   2.970
 9819TIP3    H229399   5.252   6.645   2.940
 9820TIP3   OH229400   0.499   0.440   5.356
 9820TIP3    H129401   0.595   0.435   5.360
 9820TIP3    H229402   0.472   0.448   5.447
 9821TIP3   OH229403   2.627   4.943   3.677
 9821TIP3    H129404   2.578   5.011   3.631
 9821TIP3    H229405   2.689   4.910   3.611
 9822TIP3   OH229406   3.174   1.121   1.201
 9822TIP3    H129407   3.199   1.033   1.231
 9822TIP3    H229408   3.104   1.105   1.138
 9823TIP3   OH229409   7.854   3.417   3.295
 9823TIP3    H129410   7.916   3.463   3.237
 9823TIP3    H229411   7.897   3.416   3.380
 9824TIP3   OH229412   1.330   1.015   6.411
 9824TIP3    H129413   1.361   0.925   6.404
 9824TIP3    H229414   1.251   1.018   6.356
 9825TIP3   OH229415   7.884   4.946   0.088
 9825TIP3    H129416   7.971   4.957   0.051
 9825TIP3    H229417   7.831   4.913   0.016
 9826TIP3   OH229418   2.241   7.610   2.581
 9826TIP3    H129419   2.155   7.617   2.621
 9826TIP3    H229420   2.301   7.596   2.654
 9827TIP3   OH229421   6.851   3.468   5.453
 9827TIP3    H129422   6.917   3.471   5.522
 9827TIP3    H229423   6.893   3.422   5.381
 9828TIP3   OH229424   4.841   5.867   1.326
 9828TIP3    H129425   4.767   5.928   1.318
 9828TIP3    H229426   4.888   5.875   1.243
 9829TIP3   OH229427   7.268   5.249   0.968
 9829TIP3    H129428   7.299   5.336   0.940
 9829TIP3    H229429   7.273   5.251   1.063
 9830TIP3   OH229430   5.323   2.741   0.911
 9830TIP3    H129431   5.229   2.760   0.916
 9830TIP3    H229432   5.364   2.809   0.964
 9831TIP3   OH229433   1.374   4.215   5.780
 9831TIP3    H129434   1.461   4.249   5.803
 9831TIP3    H229435   1.384   4.120   5.786
 9832TIP3   OH229436   6.653   3.687   6.468
 9832TIP3    H129437   6.633   3.599   6.438
 9832TIP3    H229438   6.734   3.711   6.422
 9833TIP3   OH229439   3.569   0.627   0.543
 9833TIP3    H129440   3.492   0.682   0.527
 9833TIP3    H229441   3.565   0.561   0.473
 9834TIP3   OH229442   1.619   6.995   5.688
 9834TIP3    H129443   1.582   6.935   5.623
 9834TIP3    H229444   1.590   6.961   5.772
 9835TIP3   OH229445   8.011   2.833   4.723
 9835TIP3    H129446   8.054   2.832   4.809
 9835TIP3    H229447   8.077   2.869   4.664
 9836TIP3   OH229448   3.695   5.839   0.564
 9836TIP3    H129449   3.660   5.928   0.556
 9836TIP3    H229450   3.632   5.784   0.517
 9837TIP3   OH229451   0.076   4.272   0.791
 9837TIP3    H129452  -0.010   4.277   0.831
 9837TIP3    H229453   0.062   4.221   0.711
 9838TIP3   OH229454   1.006   3.046   2.645
 9838TIP3    H129455   1.014   3.038   2.550
 9838TIP3    H229456   0.981   2.958   2.674
 9839TIP3   OH229457   7.990   0.023   2.343
 9839TIP3    H129458   7.948   0.099   2.303
 9839TIP3    H229459   8.004   0.049   2.434
 9840TIP3   OH229460   2.719   5.771   5.997
 9840TIP3    H129461   2.752   5.844   5.943
 9840TIP3    H229462   2.683   5.709   5.933
 9841TIP3   OH229463   3.711   0.217   1.504
 9841TIP3    H129464   3.741   0.153   1.569
 9841TIP3    H229465   3.784   0.277   1.494
 9842TIP3   OH229466   4.398   4.202   5.453
 9842TIP3    H129467   4.437   4.161   5.376
 9842TIP3    H229468   4.336   4.136   5.486
 9843TIP3   OH229469   7.568   3.529   5.377
 9843TIP3    H129470   7.656   3.530   5.339
 9843TIP3    H229471   7.549   3.620   5.398
 9844TIP3   OH229472   0.188   4.995   5.529
 9844TIP3    H129473   0.176   4.901   5.522
 9844TIP3    H229474   0.228   5.021   5.446
 9845TIP3   OH229475   4.227   0.297   6.222
 9845TIP3    H129476   4.252   0.211   6.255
 9845TIP3    H229477   4.136   0.287   6.194
 9846TIP3   OH229478   5.190   2.222   0.867
 9846TIP3    H129479   5.189   2.284   0.793
 9846TIP3    H229480   5.197   2.278   0.944
 9847TIP3   OH229481   2.725   2.834   0.891
 9847TIP3    H129482   2.734   2.790   0.975
 9847TIP3    H229483   2.720   2.927   0.913
 9848TIP3   OH229484   2.463  -0.014   6.791
 9848TIP3    H129485   2.508   0.014   6.870
 9848TIP3    H229486   2.435   0.068   6.749
 9849TIP3   OH229487   5.889   3.556   6.521
 9849TIP3    H129488   5.856   3.574   6.609
 9849TIP3    H229489   5.947   3.629   6.503
 9850TIP3   OH229490   2.624   4.813   2.757
 9850TIP3    H129491   2.580   4.827   2.841
 9850TIP3    H229492   2.611   4.720   2.738
 9851TIP3   OH229493   6.991   2.224   3.080
 9851TIP3    H129494   6.903   2.246   3.109
 9851TIP3    H229495   7.030   2.307   3.056
 9852TIP3   OH229496   4.876   0.964   0.912
 9852TIP3    H129497   4.861   0.969   0.817
 9852TIP3    H229498   4.812   0.900   0.943
 9853TIP3   OH229499   8.140   5.749   4.469
 9853TIP3    H129500   8.215   5.694   4.443
 9853TIP3    H229501   8.064   5.697   4.445
 9854TIP3   OH229502   2.035   2.681   1.235
 9854TIP3    H129503   2.109   2.726   1.276
 9854TIP3    H229504   2.040   2.591   1.266
 9855TIP3   OH229505   4.911   4.790   1.888
 9855TIP3    H129506   4.921   4.703   1.928
 9855TIP3    H229507   4.980   4.794   1.822
 9856TIP3   OH229508   6.923   3.271   6.283
 9856TIP3    H129509   6.939   3.286   6.376
 9856TIP3    H229510   6.923   3.358   6.244
 9857TIP3   OH229511   3.531   5.048   1.354
 9857TIP3    H129512   3.586   5.029   1.429
 9857TIP3    H229513   3.493   5.134   1.373
 9858TIP3   OH229514   7.674   4.630   4.029
 9858TIP3    H129515   7.732   4.704   4.014
 9858TIP3    H229516   7.601   4.667   4.079
 9859TIP3   OH229517   7.884   1.479   2.088
 9859TIP3    H129518   7.835   1.405   2.052
 9859TIP3    H229519   7.955   1.438   2.138
 9860TIP3   OH229520   1.327   4.272   6.620
 9860TIP3    H129521   1.253   4.276   6.681
 9860TIP3    H229522   1.402   4.298   6.673
 9861TIP3   OH229523   2.105   1.856   2.520
 9861TIP3    H129524   2.084   1.945   2.550
 9861TIP3    H229525   2.116   1.864   2.426
 9862TIP3   OH229526   2.574   4.273   1.557
 9862TIP3    H129527   2.483   4.244   1.557
 9862TIP3    H229528   2.578   4.336   1.485
 9863TIP3   OH229529   7.745   1.035   0.807
 9863TIP3    H129530   7.737   1.071   0.895
 9863TIP3    H229531   7.662   1.058   0.765
 9864TIP3   OH229532   4.534   1.843   1.002
 9864TIP3    H129533   4.587   1.763   1.001
 9864TIP3    H229534   4.479   1.837   0.923
 9865TIP3   OH229535   7.320   5.458   3.227
 9865TIP3    H129536   7.309   5.547   3.192
 9865TIP3    H229537   7.408   5.433   3.200
 9866TIP3   OH229538   3.095   0.349   0.732
 9866TIP3    H129539   3.000   0.360   0.742
 9866TIP3    H229540   3.132   0.432   0.762
 9867TIP3   OH229541   6.838   0.475   3.631
 9867TIP3    H129542   6.792   0.476   3.715
 9867TIP3    H229543   6.793   0.543   3.579
 9868TIP3   OH229544   7.188   3.887   0.317
 9868TIP3    H129545   7.173   3.796   0.342
 9868TIP3    H229546   7.276   3.887   0.279
 9869TIP3   OH229547   6.228   1.744   2.654
 9869TIP3    H129548   6.230   1.662   2.604
 9869TIP3    H229549   6.294   1.731   2.723
 9870TIP3   OH229550   4.479   4.051   2.465
 9870TIP3    H129551   4.522   3.975   2.425
 9870TIP3    H229552   4.550   4.114   2.478
 9871TIP3   OH229553   6.886   3.847   5.473
 9871TIP3    H129554   6.854   3.789   5.404
 9871TIP3    H229555   6.929   3.788   5.535
 9872TIP3   OH229556   2.981   7.194   2.327
 9872TIP3    H129557   3.054   7.255   2.316
 9872TIP3    H229558   2.971   7.153   2.241
 9873TIP3   OH229559   3.861   7.692   0.444
 9873TIP3    H129560   3.876   7.609   0.490
 9873TIP3    H229561   3.789   7.732   0.492
 9874TIP3   OH229562   8.036   6.544   1.071
 9874TIP3    H129563   8.086   6.523   0.992
 9874TIP3    H229564   7.944   6.536   1.045
 9875TIP3   OH229565   4.522   4.730   2.672
 9875TIP3    H129566   4.455   4.666   2.696
 9875TIP3    H229567   4.521   4.731   2.577
 9876TIP3   OH229568   4.942   6.618   3.959
 9876TIP3    H129569   4.965   6.542   3.905
 9876TIP3    H229570   5.022   6.639   4.006
 9877TIP3   OH229571   5.781   2.932   3.038
 9877TIP3    H129572   5.790   3.022   3.007
 9877TIP3    H229573   5.689   2.923   3.062
 9878TIP3   OH229574   6.916   5.911   3.728
 9878TIP3    H129575   6.979   5.876   3.791
 9878TIP3    H229576   6.833   5.869   3.751
 9879TIP3   OH229577   5.577   2.548   6.829
 9879TIP3    H129578   5.523   2.581   6.901
 9879TIP3    H229579   5.631   2.623   6.804
 9880TIP3   OH229580   3.541   2.656   2.643
 9880TIP3    H129581   3.573   2.663   2.553
 9880TIP3    H229582   3.619   2.633   2.694
 9881TIP3   OH229583   7.549   1.964   6.125
 9881TIP3    H129584   7.575   1.930   6.040
 9881TIP3    H229585   7.455   1.976   6.119
 9882TIP3   OH229586   5.705   4.322   4.613
 9882TIP3    H129587   5.619   4.359   4.590
 9882TIP3    H229588   5.710   4.240   4.563
 9883TIP3   OH229589   2.616   6.713   3.007
 9883TIP3    H129590   2.520   6.719   3.009
 9883TIP3    H229591   2.646   6.786   3.062
 9884TIP3   OH229592   4.846   2.235   0.017
 9884TIP3    H129593   4.806   2.168  -0.038
 9884TIP3    H229594   4.857   2.192   0.102
 9885TIP3   OH229595   7.501   7.715   1.622
 9885TIP3    H129596   7.421   7.665   1.633
 9885TIP3    H229597   7.506   7.733   1.528
 9886TIP3   OH229598   7.309   0.846   5.084
 9886TIP3    H129599   7.356   0.877   5.007
 9886TIP3    H229600   7.232   0.903   5.090
 9887TIP3   OH229601   4.194   6.932   2.725
 9887TIP3    H129602   4.240   6.943   2.808
 9887TIP3    H229603   4.131   7.004   2.723
 9888TIP3   OH229604   7.098   4.937   5.297
 9888TIP3    H129605   7.127   4.946   5.206
 9888TIP3    H229606   7.004   4.958   5.294
 9889TIP3   OH229607   7.699   0.987   6.223
 9889TIP3    H129608   7.735   1.010   6.138
 9889TIP3    H229609   7.729   1.057   6.282
 9890TIP3   OH229610   8.330   4.083   1.909
 9890TIP3    H129611   8.268   4.088   1.983
 9890TIP3    H229612   8.338   3.990   1.891
 9891TIP3   OH229613   5.973   7.478   1.097
 9891TIP3    H129614   5.942   7.391   1.072
 9891TIP3    H229615   5.961   7.481   1.192
 9892TIP3   OH229616   5.365   2.080   4.361
 9892TIP3    H129617   5.360   1.986   4.346
 9892TIP3    H229618   5.354   2.118   4.274
 9893TIP3   OH229619   3.083   2.027   0.482
 9893TIP3    H129620   3.014   2.041   0.547
 9893TIP3    H229621   3.158   1.999   0.533
 9894TIP3   OH229622   0.632   7.822   1.766
 9894TIP3    H129623   0.605   7.867   1.846
 9894TIP3    H229624   0.558   7.764   1.746
 9895TIP3   OH229625   1.964   5.199   3.390
 9895TIP3    H129626   1.886   5.254   3.386
 9895TIP3    H229627   2.035   5.261   3.408
 9896TIP3   OH229628   0.837   5.002   2.770
 9896TIP3    H129629   0.809   5.011   2.679
 9896TIP3    H229630   0.776   5.057   2.819
 9897TIP3   OH229631   5.406   6.308   3.711
 9897TIP3    H129632   5.460   6.387   3.702
 9897TIP3    H229633   5.418   6.261   3.629
 9898TIP3   OH229634   4.910   7.417   0.250
 9898TIP3    H129635   4.968   7.429   0.325
 9898TIP3    H229636   4.967   7.384   0.180
 9899TIP3   OH229637   6.165   4.253   2.374
 9899TIP3    H129638   6.243   4.252   2.318
 9899TIP3    H229639   6.195   4.216   2.457
 9900TIP3   OH229640   3.275   6.284   2.307
 9900TIP3    H129641   3.293   6.378   2.300
 9900TIP3    H229642   3.202   6.278   2.369
 9901TIP3   OH229643   4.520   7.574   6.434
 9901TIP3    H129644   4.508   7.572   6.529
 9901TIP3    H229645   4.598   7.629   6.421
 9902TIP3   OH229646   0.523   4.117   4.932
 9902TIP3    H129647   0.445   4.114   4.987
 9902TIP3    H229648   0.596   4.107   4.993
 9903TIP3   OH229649   0.726   1.241   6.657
 9903TIP3    H129650   0.654   1.218   6.598
 9903TIP3    H229651   0.730   1.337   6.652
 9904TIP3   OH229652   7.554   7.741   2.691
 9904TIP3    H129653   7.540   7.720   2.598
 9904TIP3    H229654   7.468   7.770   2.722
 9905TIP3   OH229655   5.892   4.431   5.250
 9905TIP3    H129656   5.814   4.408   5.301
 9905TIP3    H229657   5.956   4.456   5.316
 9906TIP3   OH229658   4.682   3.599   5.576
 9906TIP3    H129659   4.600   3.555   5.601
 9906TIP3    H229660   4.725   3.537   5.517
 9907TIP3   OH229661   8.384   2.681   3.910
 9907TIP3    H129662   8.405   2.599   3.865
 9907TIP3    H229663   8.363   2.656   3.999
 9908TIP3   OH229664   7.353   0.227   2.651
 9908TIP3    H129665   7.272   0.268   2.622
 9908TIP3    H229666   7.348   0.228   2.747
 9909TIP3   OH229667   7.378   2.798   0.471
 9909TIP3    H129668   7.358   2.811   0.564
 9909TIP3    H229669   7.436   2.722   0.470
 9910TIP3   OH229670   8.197   1.956   5.726
 9910TIP3    H129671   8.285   1.946   5.762
 9910TIP3    H229672   8.150   2.011   5.789
 9911TIP3   OH229673   3.722   0.196   6.117
 9911TIP3    H129674   3.666   0.270   6.094
 9911TIP3    H229675   3.695   0.173   6.206
 9912TIP3   OH229676   5.185   7.306   3.168
 9912TIP3    H129677   5.210   7.346   3.251
 9912TIP3    H229678   5.177   7.380   3.107
 9913TIP3   OH229679   5.357   0.083   5.465
 9913TIP3    H129680   5.263   0.091   5.476
 9913TIP3    H229681   5.381   0.008   5.520
 9914TIP3   OH229682   8.415   2.480   6.618
 9914TIP3    H129683   8.328   2.441   6.629
 9914TIP3    H229684   8.400   2.574   6.628
 9915TIP3   OH229685   0.463   7.838   5.095
 9915TIP3    H129686   0.505   7.923   5.080
 9915TIP3    H229687   0.370   7.854   5.078
 9916TIP3   OH229688   1.506   7.607   2.101
 9916TIP3    H129689   1.583   7.648   2.063
 9916TIP3    H229690   1.446   7.679   2.119
 9917TIP3   OH229691   2.591   0.333   2.492
 9917TIP3    H129692   2.555   0.255   2.534
 9917TIP3    H229693   2.515   0.378   2.455
 9918TIP3   OH229694   5.320   2.224   4.122
 9918TIP3    H129695   5.351   2.315   4.129
 9918TIP3    H229696   5.309   2.210   4.028
 9919TIP3   OH229697   2.785   3.334   5.119
 9919TIP3    H129698   2.837   3.414   5.120
 9919TIP3    H229699   2.819   3.283   5.046
 9920TIP3   OH229700   8.329   7.335   6.829
 9920TIP3    H129701   8.351   7.364   6.741
 9920TIP3    H229702   8.292   7.248   6.818
 9921TIP3   OH229703   2.012   1.370   4.512
 9921TIP3    H129704   2.053   1.451   4.483
 9921TIP3    H229705   2.082   1.304   4.507
 9922TIP3   OH229706   3.995   3.899   5.021
 9922TIP3    H129707   4.040   3.853   5.092
 9922TIP3    H229708   4.061   3.959   4.986
 9923TIP3   OH229709   6.206   1.317   1.743
 9923TIP3    H129710   6.158   1.354   1.817
 9923TIP3    H229711   6.279   1.378   1.729
 9924TIP3   OH229712   1.988   1.882   2.267
 9924TIP3    H129713   2.021   1.854   2.182
 9924TIP3    H229714   1.903   1.922   2.248
 9925TIP3   OH229715   4.284   2.485   0.748
 9925TIP3    H129716   4.303   2.521   0.662
 9925TIP3    H229717   4.370   2.468   0.787
 9926TIP3   OH229718   7.211   1.332   4.481
 9926TIP3    H129719   7.157   1.398   4.524
 9926TIP3    H229720   7.148   1.275   4.436
 9927TIP3   OH229721   4.866   6.077   5.744
 9927TIP3    H129722   4.812   5.999   5.757
 9927TIP3    H229723   4.952   6.053   5.777
 9928TIP3   OH229724   0.972   1.527   0.176
 9928TIP3    H129725   0.966   1.616   0.213
 9928TIP3    H229726   0.972   1.470   0.253
 9929TIP3   OH229727   4.825   1.200   3.448
 9929TIP3    H129728   4.747   1.144   3.451
 9929TIP3    H229729   4.809   1.258   3.374
 9930TIP3   OH229730   7.461   2.242   6.257
 9930TIP3    H129731   7.505   2.161   6.234
 9930TIP3    H229732   7.411   2.221   6.336
 9931TIP3   OH229733   0.110   6.525   1.158
 9931TIP3    H129734   0.172   6.495   1.225
 9931TIP3    H229735   0.029   6.479   1.179
 9932TIP3   OH229736   0.781   0.467   5.334
 9932TIP3    H129737   0.852   0.443   5.274
 9932TIP3    H229738   0.818   0.538   5.387
 9933TIP3   OH229739   1.993   7.392   5.210
 9933TIP3    H129740   1.942   7.402   5.290
 9933TIP3    H229741   2.046   7.471   5.206
 9934TIP3   OH229742   6.122   2.801   4.689
 9934TIP3    H129743   6.061   2.762   4.752
 9934TIP3    H229744   6.069   2.864   4.641
 9935TIP3   OH229745   0.524   2.691   3.507
 9935TIP3    H129746   0.524   2.732   3.593
 9935TIP3    H229747   0.589   2.740   3.457
 9936TIP3   OH229748   6.359   3.686   3.071
 9936TIP3    H129749   6.306   3.713   2.995
 9936TIP3    H229750   6.294   3.661   3.137
 9937TIP3   OH229751   8.245   5.751   5.739
 9937TIP3    H129752   8.201   5.708   5.813
 9937TIP3    H229753   8.174   5.782   5.684
 9938TIP3   OH229754  -0.009   3.425   0.641
 9938TIP3    H129755   0.079   3.430   0.604
 9938TIP3    H229756   0.005   3.394   0.731
 9939TIP3   OH229757   7.627   7.031   5.118
 9939TIP3    H129758   7.689   7.094   5.155
 9939TIP3    H229759   7.678   6.980   5.055
 9940TIP3   OH229760   5.759   7.398   0.879
 9940TIP3    H129761   5.754   7.494   0.886
 9940TIP3    H229762   5.846   7.381   0.844
 9941TIP3   OH229763   0.727   2.140   4.089
 9941TIP3    H129764   0.786   2.152   4.164
 9941TIP3    H229765   0.785   2.125   4.015
 9942TIP3   OH229766   6.164   5.409   6.080
 9942TIP3    H129767   6.249   5.453   6.077
 9942TIP3    H229768   6.120   5.437   6.000
 9943TIP3   OH229769   3.798   6.257   2.031
 9943TIP3    H129770   3.813   6.265   1.937
 9943TIP3    H229771   3.723   6.197   2.038
 9944TIP3   OH229772   3.476   7.880   5.932
 9944TIP3    H129773   3.518   7.819   5.993
 9944TIP3    H229774   3.549   7.928   5.893
 9945TIP3   OH229775   0.659   5.970   0.558
 9945TIP3    H129776   0.731   6.021   0.522
 9945TIP3    H229777   0.695   5.929   0.637
 9946TIP3   OH229778   3.965   2.987   1.264
 9946TIP3    H129779   4.054   2.952   1.262
 9946TIP3    H229780   3.977   3.082   1.251
 9947TIP3   OH229781   3.226   5.490   3.934
 9947TIP3    H129782   3.220   5.585   3.949
 9947TIP3    H229783   3.315   5.477   3.900
 9948TIP3   OH229784   5.164   0.127   1.897
 9948TIP3    H129785   5.131   0.180   1.825
 9948TIP3    H229786   5.161   0.037   1.864
 9949TIP3   OH229787   4.552   7.466   6.164
 9949TIP3    H129788   4.529   7.488   6.255
 9949TIP3    H229789   4.514   7.380   6.149
 9950TIP3   OH229790   1.469   3.603   2.738
 9950TIP3    H129791   1.521   3.683   2.738
 9950TIP3    H229792   1.398   3.620   2.800
 9951TIP3   OH229793   3.140   2.127   0.774
 9951TIP3    H129794   3.108   2.038   0.792
 9951TIP3    H229795   3.068   2.184   0.799
 9952TIP3   OH229796   5.615   6.492   5.658
 9952TIP3    H129797   5.593   6.564   5.599
 9952TIP3    H229798   5.530   6.463   5.692
 9953TIP3   OH229799   4.734   0.546   1.628
 9953TIP3    H129800   4.693   0.495   1.559
 9953TIP3    H229801   4.749   0.632   1.589
 9954TIP3   OH229802   7.818   5.134   4.619
 9954TIP3    H129803   7.910   5.121   4.642
 9954TIP3    H229804   7.820   5.159   4.526
 9955TIP3   OH229805   5.816   4.304   3.438
 9955TIP3    H129806   5.834   4.269   3.525
 9955TIP3    H229807   5.739   4.359   3.450
 9956TIP3   OH229808   3.243   2.267   3.414
 9956TIP3    H129809   3.282   2.310   3.339
 9956TIP3    H229810   3.266   2.323   3.489
 9957TIP3   OH229811   4.757   2.192   3.409
 9957TIP3    H129812   4.752   2.107   3.454
 9957TIP3    H229813   4.706   2.251   3.464
 9958TIP3   OH229814   0.535   5.984   6.235
 9958TIP3    H129815   0.543   6.079   6.225
 9958TIP3    H229816   0.497   5.972   6.322
 9959TIP3   OH229817   2.841   3.498   3.877
 9959TIP3    H129818   2.908   3.439   3.910
 9959TIP3    H229819   2.889   3.578   3.854
 9960TIP3   OH229820   4.811   3.288   4.902
 9960TIP3    H129821   4.741   3.225   4.921
 9960TIP3    H229822   4.789   3.364   4.955
 9961TIP3   OH229823   6.477   7.250   0.743
 9961TIP3    H129824   6.392   7.243   0.786
 9961TIP3    H229825   6.496   7.343   0.741
 9962TIP3   OH229826   2.863   7.025   5.883
 9962TIP3    H129827   2.908   7.057   5.805
 9962TIP3    H229828   2.771   7.047   5.868
 9963TIP3   OH229829   4.693   3.842   5.782
 9963TIP3    H129830   4.660   3.813   5.697
 9963TIP3    H229831   4.761   3.778   5.805
 9964TIP3   OH229832   0.809   7.880   4.528
 9964TIP3    H129833   0.832   7.870   4.620
 9964TIP3    H229834   0.795   7.974   4.517
 9965TIP3   OH229835   4.087   3.364   4.468
 9965TIP3    H129836   4.013   3.418   4.494
 9965TIP3    H229837   4.071   3.345   4.375
 9966TIP3   OH229838   5.237   0.862   1.227
 9966TIP3    H129839   5.143   0.844   1.218
 9966TIP3    H229840   5.261   0.821   1.311
 9967TIP3   OH229841   4.962   7.395   1.349
 9967TIP3    H129842   5.024   7.460   1.317
 9967TIP3    H229843   4.923   7.435   1.427
 9968TIP3   OH229844   0.907   6.980   3.068
 9968TIP3    H129845   0.947   6.987   2.981
 9968TIP3    H229846   0.842   6.910   3.059
 9969TIP3   OH229847   0.231   0.382   2.574
 9969TIP3    H129848   0.303   0.400   2.634
 9969TIP3    H229849   0.166   0.336   2.627
 9970TIP3   OH229850   7.511   0.144   5.585
 9970TIP3    H129851   7.456   0.072   5.555
 9970TIP3    H229852   7.554   0.175   5.506
 9971TIP3   OH229853   8.217   2.110   2.444
 9971TIP3    H129854   8.224   2.153   2.530
 9971TIP3    H229855   8.249   2.176   2.382
 9972TIP3   OH229856   3.701   1.712   1.948
 9972TIP3    H129857   3.655   1.778   2.000
 9972TIP3    H229858   3.638   1.685   1.882
 9973TIP3   OH229859   7.348   0.617   0.858
 9973TIP3    H129860   7.317   0.537   0.900
 9973TIP3    H229861   7.314   0.611   0.769
 9974TIP3   OH229862   6.234   4.694   5.568
 9974TIP3    H129863   6.201   4.781   5.545
 9974TIP3    H229864   6.303   4.676   5.504
 9975TIP3   OH229865   7.272   1.666   2.113
 9975TIP3    H129866   7.251   1.758   2.093
 9975TIP3    H229867   7.266   1.661   2.209
 9976TIP3   OH229868   1.676   1.635   4.246
 9976TIP3    H129869   1.719   1.617   4.330
 9976TIP3    H229870   1.742   1.682   4.195
 9977TIP3   OH229871   4.102   3.727   6.319
 9977TIP3    H129872   4.154   3.794   6.276
 9977TIP3    H229873   4.033   3.705   6.257
 9978TIP3   OH229874   7.797   6.662   2.485
 9978TIP3    H129875   7.851   6.724   2.436
 9978TIP3    H229876   7.744   6.619   2.418
 9979TIP3   OH229877   7.128   2.654   1.079
 9979TIP3    H129878   7.159   2.566   1.057
 9979TIP3    H229879   7.053   2.638   1.138
 9980TIP3   OH229880   4.044   0.886   0.859
 9980TIP3    H129881   4.051   0.865   0.766
 9980TIP3    H229882   4.092   0.968   0.869
 9981TIP3   OH229883   5.986   0.889   0.272
 9981TIP3    H129884   5.942   0.807   0.250
 9981TIP3    H229885   6.036   0.869   0.351
 9982TIP3   OH229886   4.356   5.983   3.632
 9982TIP3    H129887   4.373   6.011   3.542
 9982TIP3    H229888   4.384   6.056   3.686
 9983TIP3   OH229889   8.404   5.880   2.071
 9983TIP3    H129890   8.377   5.810   2.130
 9983TIP3    H229891   8.476   5.923   2.118
 9984TIP3   OH229892   3.621   4.828   4.416
 9984TIP3    H129893   3.618   4.860   4.325
 9984TIP3    H229894   3.696   4.874   4.454
 9985TIP3   OH229895   0.056   6.680   6.102
 9985TIP3    H129896  -0.031   6.651   6.130
 9985TIP3    H229897   0.100   6.600   6.073
 9986TIP3   OH229898   3.648   7.733   0.608
 9986TIP3    H129899   3.608   7.768   0.528
 9986TIP3    H229900   3.650   7.806   0.668
 9987TIP3   OH229901   4.019   0.440   5.409
 9987TIP3    H129902   4.048   0.349   5.408
 9987TIP3    H229903   3.967   0.448   5.489
 9988TIP3   OH229904   6.773   6.802   0.277
 9988TIP3    H129905   6.709   6.866   0.305
 9988TIP3    H229906   6.824   6.782   0.355
 9989TIP3   OH229907   3.057   6.277   5.275
 9989TIP3    H129908   3.145   6.240   5.285
 9989TIP3    H229909   3.071   6.371   5.265
 9990TIP3   OH229910   2.136   6.459   0.545
 9990TIP3    H129911   2.157   6.534   0.489
 9990TIP3    H229912   2.088   6.399   0.488
 9991TIP3   OH229913   6.268   2.023   2.540
 9991TIP3    H129914   6.242   1.962   2.608
 9991TIP3    H229915   6.316   2.092   2.587
 9992TIP3   OH229916   1.092   2.905   5.520
 9992TIP3    H129917   1.133   2.939   5.440
 9992TIP3    H229918   1.165   2.878   5.575
 9993TIP3   OH229919   7.116   6.599   1.145
 9993TIP3    H129920   7.136   6.692   1.150
 9993TIP3    H229921   7.064   6.590   1.065
 9994TIP3   OH229922   3.508   0.087   1.318
 9994TIP3    H129923   3.599   0.109   1.338
 9994TIP3    H229924   3.460   0.103   1.399
 9995TIP3   OH229925   7.772   3.785   6.354
 9995TIP3    H129926   7.714   3.734   6.410
 9995TIP3    H229927   7.860   3.763   6.384
 9996TIP3   OH229928   6.339   0.983   3.020
 9996TIP3    H129929   6.293   0.899   3.012
 9996TIP3    H229930   6.272   1.049   3.004
 9997TIP3   OH229931   0.627   3.699   0.828
 9997TIP3    H129932   0.610   3.754   0.905
 9997TIP3    H229933   0.582   3.743   0.756
 9998TIP3   OH229934   3.782   4.511   2.473
 9998TIP3    H129935   3.783   4.572   2.400
 9998TIP3    H229936   3.762   4.565   2.550
 9999TIP3   OH229937   7.569   6.508   1.947
 9999TIP3    H129938   7.569   6.595   1.986
 9999TIP3    H229939   7.480   6.497   1.912
10000TIP3   OH229940   7.978   3.246   6.548
10000TIP3    H129941   8.054   3.265   6.603
10000TIP3    H229942   7.967   3.151   6.555
10001TIP3   OH229943   2.738   3.701   1.355
10001TIP3    H129944   2.645   3.688   1.374
10001TIP3    H229945   2.763   3.625   1.303
10002TIP3   OH229946   1.326   1.966   2.845
10002TIP3    H129947   1.282   1.900   2.898
10002TIP3    H229948   1.286   2.049   2.870
10003TIP3   OH229949   2.492   2.969   6.753
10003TIP3    H129950   2.485   2.874   6.740
10003TIP3    H229951   2.457   2.984   6.840
10004TIP3   OH229952   1.643   3.628   6.144
10004TIP3    H129953   1.702   3.620   6.069
10004TIP3    H229954   1.631   3.723   6.155
10005TIP3   OH229955   5.132   1.079   4.485
10005TIP3    H129956   5.062   1.145   4.485
10005TIP3    H229957   5.156   1.071   4.392
10006TIP3   OH229958   2.970   0.367   4.425
10006TIP3    H129959   2.900   0.405   4.478
10006TIP3    H229960   2.938   0.280   4.402
10007TIP3   OH229961   2.515   2.394   5.728
10007TIP3    H129962   2.506   2.478   5.774
10007TIP3    H229963   2.523   2.418   5.636
10008TIP3   OH229964   0.161   4.938   2.331
10008TIP3    H129965   0.140   4.915   2.241
10008TIP3    H229966   0.194   4.857   2.369
10009TIP3   OH229967   2.725   1.169   0.298
10009TIP3    H129968   2.796   1.221   0.260
10009TIP3    H229969   2.659   1.235   0.323
10010TIP3   OH229970   6.208   6.133   6.798
10010TIP3    H129971   6.221   6.050   6.843
10010TIP3    H229972   6.283   6.141   6.740
10011TIP3   OH229973   1.311   4.618   6.694
10011TIP3    H129974   1.368   4.642   6.621
10011TIP3    H229975   1.254   4.693   6.705
10012TIP3   OH229976   4.787   6.225   2.790
10012TIP3    H129977   4.867   6.181   2.759
10012TIP3    H229978   4.720   6.157   2.787
10013TIP3   OH229979   0.592   5.624   0.118
10013TIP3    H129980   0.676   5.662   0.144
10013TIP3    H229981   0.541   5.623   0.199
10014TIP3   OH229982   4.741   6.003   3.306
10014TIP3    H129983   4.786   6.008   3.221
10014TIP3    H229984   4.660   5.956   3.287
10015TIP3   OH229985   1.703   5.891   2.491
10015TIP3    H129986   1.771   5.954   2.514
10015TIP3    H229987   1.651   5.934   2.424
10016TIP3   OH229988   4.005   1.273   1.967
10016TIP3    H129989   3.992   1.353   1.916
10016TIP3    H229990   3.918   1.234   1.974
10017TIP3   OH229991   6.897   7.916   1.061
10017TIP3    H129992   6.855   7.853   1.120
10017TIP3    H229993   6.866   7.891   0.974
10018TIP3   OH229994   2.540   0.583   6.731
10018TIP3    H129995   2.507   0.657   6.681
10018TIP3    H229996   2.616   0.617   6.778
10019TIP3   OH229997   6.563   6.855   5.304
10019TIP3    H129998   6.655   6.837   5.327
10019TIP3    H229999   6.518   6.860   5.388
10020TIP3   OH230000   3.923   4.595   0.452
10020TIP3    H130001   3.920   4.675   0.505
10020TIP3    H230002   3.976   4.534   0.502
10021TIP3   OH230003   2.350   5.835   1.448
10021TIP3    H130004   2.398   5.789   1.518
10021TIP3    H230005   2.406   5.827   1.371
10022TIP3   OH230006   1.681   6.626   1.536
10022TIP3    H130007   1.755   6.567   1.522
10022TIP3    H230008   1.702   6.671   1.618
10023TIP3   OH230009   8.093   0.535   2.233
10023TIP3    H130010   8.127   0.509   2.318
10023TIP3    H230011   8.137   0.476   2.171
10024TIP3   OH230012   4.778   2.416   3.998
10024TIP3    H130013   4.691   2.439   3.965
10024TIP3    H230014   4.806   2.494   4.046
10025TIP3   OH230015   6.043   6.435   0.129
10025TIP3    H130016   6.095   6.516   0.135
10025TIP3    H230017   6.062   6.402   0.041
10026TIP3   OH230018   3.706   0.083   3.201
10026TIP3    H130019   3.702   0.028   3.122
10026TIP3    H230020   3.705   0.172   3.167
10027TIP3   OH230021   2.540   4.157   5.595
10027TIP3    H130022   2.600   4.225   5.624
10027TIP3    H230023   2.530   4.100   5.671
10028TIP3   OH230024   1.721   4.342   1.155
10028TIP3    H130025   1.690   4.316   1.068
10028TIP3    H230026   1.642   4.373   1.200
10029TIP3   OH230027   7.098   7.716   6.793
10029TIP3    H130028   7.192   7.733   6.790
10029TIP3    H230029   7.091   7.627   6.826
10030TIP3   OH230030   3.766   7.511   6.397
10030TIP3    H130031   3.765   7.436   6.337
10030TIP3    H230032   3.834   7.490   6.461
10031TIP3   OH230033   4.999   6.970   0.431
10031TIP3    H130034   4.941   7.022   0.486
10031TIP3    H230035   5.086   6.980   0.470
10032TIP3   OH230036   6.767   3.827   0.700
10032TIP3    H130037   6.679   3.864   0.697
10032TIP3    H230038   6.805   3.845   0.614
10033TIP3   OH230039   7.951   0.720   2.668
10033TIP3    H130040   8.026   0.694   2.614
10033TIP3    H230041   7.964   0.814   2.682
10034TIP3   OH230042   0.388   0.983   2.775
10034TIP3    H130043   0.438   1.038   2.715
10034TIP3    H230044   0.358   0.910   2.721
10035TIP3   OH230045   6.268   2.557   1.445
10035TIP3    H130046   6.324   2.563   1.368
10035TIP3    H230047   6.240   2.465   1.447
10036TIP3   OH230048   1.955   5.074   6.652
10036TIP3    H130049   1.999   5.158   6.664
10036TIP3    H230050   2.021   5.008   6.672
10037TIP3   OH230051   3.719   7.851   2.026
10037TIP3    H130052   3.764   7.872   1.944
10037TIP3    H230053   3.783   7.870   2.094
10038TIP3   OH230054   3.859   6.702   6.419
10038TIP3    H130055   3.895   6.723   6.332
10038TIP3    H230056   3.891   6.614   6.437
10039TIP3   OH230057   7.354   5.849   1.450
10039TIP3    H130058   7.336   5.771   1.503
10039TIP3    H230059   7.393   5.912   1.512
10040TIP3   OH230060   7.863   0.784   3.711
10040TIP3    H130061   7.848   0.715   3.646
10040TIP3    H230062   7.949   0.821   3.688
10041TIP3   OH230063   5.271   5.048   3.040
10041TIP3    H130064   5.288   5.139   3.017
10041TIP3    H230065   5.232   5.011   2.960
10042TIP3   OH230066   7.194   7.116   3.735
10042TIP3    H130067   7.280   7.152   3.711
10042TIP3    H230068   7.215   7.041   3.790
10043TIP3   OH230069   1.909   5.648   3.401
10043TIP3    H130070   1.997   5.648   3.438
10043TIP3    H230071   1.853   5.620   3.473
10044TIP3   OH230072   2.057   2.353   6.743
10044TIP3    H130073   2.018   2.329   6.658
10044TIP3    H230074   2.132   2.407   6.720
10045TIP3   OH230075   5.628   0.458   2.958
10045TIP3    H130076   5.627   0.520   3.031
10045TIP3    H230077   5.537   0.453   2.929
10046TIP3   OH230078   5.607   2.131   0.240
10046TIP3    H130079   5.624   2.087   0.323
10046TIP3    H230080   5.655   2.078   0.175
10047TIP3   OH230081   2.665   6.294   6.003
10047TIP3    H130082   2.760   6.286   6.010
10047TIP3    H230083   2.650   6.383   5.971
10048TIP3   OH230084   4.984   0.846   0.386
10048TIP3    H130085   5.043   0.880   0.453
10048TIP3    H230086   5.024   0.764   0.358
10049TIP3   OH230087   1.671   4.744   0.446
10049TIP3    H130088   1.687   4.656   0.412
10049TIP3    H230089   1.695   4.739   0.539
10050TIP3   OH230090   0.926   3.028   0.060
10050TIP3    H130091   0.897   3.093   0.124
10050TIP3    H230092   0.942   3.078  -0.020
10051TIP3   OH230093   4.754   4.141   4.322
10051TIP3    H130094   4.765   4.233   4.301
10051TIP3    H230095   4.807   4.128   4.400
10052TIP3   OH230096   1.089   4.848   4.070
10052TIP3    H130097   1.104   4.935   4.035
10052TIP3    H230098   1.171   4.801   4.054
10053TIP3   OH230099   2.563   2.498   4.529
10053TIP3    H130100   2.645   2.525   4.571
10053TIP3    H230101   2.494   2.536   4.584
10054TIP3   OH230102   2.975   3.923   0.644
10054TIP3    H130103   2.924   3.860   0.593
10054TIP3    H230104   2.965   3.893   0.735
10055TIP3   OH230105   1.670   1.288   5.217
10055TIP3    H130106   1.677   1.257   5.307
10055TIP3    H230107   1.622   1.370   5.223
10056TIP3   OH230108   2.471   6.566   6.027
10056TIP3    H130109   2.521   6.633   5.979
10056TIP3    H230110   2.457   6.604   6.114
10057TIP3   OH230111   6.156   4.438   2.750
10057TIP3    H130112   6.121   4.441   2.661
10057TIP3    H230113   6.215   4.514   2.755
10058TIP3   OH230114   1.341   7.490   1.263
10058TIP3    H130115   1.316   7.474   1.172
10058TIP3    H230116   1.429   7.526   1.257
10059TIP3   OH230117   6.345   7.506   1.254
10059TIP3    H130118   6.302   7.539   1.175
10059TIP3    H230119   6.284   7.527   1.325
10060TIP3   OH230120   3.975   2.285   1.360
10060TIP3    H130121   4.026   2.252   1.285
10060TIP3    H230122   3.939   2.206   1.400
10061TIP3   OH230123   2.925   4.618   5.713
10061TIP3    H130124   2.913   4.706   5.749
10061TIP3    H230125   2.955   4.633   5.624
10062TIP3   OH230126   1.644   3.087   4.019
10062TIP3    H130127   1.719   3.126   4.064
10062TIP3    H230128   1.682   3.015   3.969
10063TIP3   OH230129   2.393   4.048   5.870
10063TIP3    H130130   2.479   4.089   5.868
10063TIP3    H230131   2.408   3.963   5.912
10064TIP3   OH230132   2.056   7.265   6.483
10064TIP3    H130133   1.962   7.251   6.477
10064TIP3    H230134   2.092   7.179   6.506
10065TIP3   OH230135   1.643   3.703   3.262
10065TIP3    H130136   1.622   3.768   3.195
10065TIP3    H230137   1.559   3.658   3.278
10066TIP3   OH230138   1.569   5.145   4.891
10066TIP3    H130139   1.651   5.106   4.920
10066TIP3    H230140   1.549   5.212   4.957
10067TIP3   OH230141   0.204   3.369   4.230
10067TIP3    H130142   0.119   3.401   4.260
10067TIP3    H230143   0.224   3.423   4.153
10068TIP3   OH230144   7.453   3.685   5.655
10068TIP3    H130145   7.465   3.774   5.688
10068TIP3    H230146   7.530   3.638   5.687
10069TIP3   OH230147   8.234   6.434   3.034
10069TIP3    H130148   8.159   6.476   2.993
10069TIP3    H230149   8.295   6.505   3.051
10070TIP3   OH230150   5.948   5.906   4.631
10070TIP3    H130151   5.977   5.937   4.717
10070TIP3    H230152   5.858   5.935   4.624
10071TIP3   OH230153   6.460   7.889   1.185
10071TIP3    H130154   6.520   7.815   1.181
10071TIP3    H230155   6.476   7.938   1.104
10072TIP3   OH230156   7.040   5.463   1.336
10072TIP3    H130157   6.945   5.448   1.340
10072TIP3    H230158   7.053   5.516   1.258
10073TIP3   OH230159   2.555   3.068   1.419
10073TIP3    H130160   2.502   3.041   1.494
10073TIP3    H230161   2.636   3.017   1.427
10074TIP3   OH230162   7.935   6.471   3.358
10074TIP3    H130163   7.973   6.439   3.440
10074TIP3    H230164   7.917   6.564   3.375
10075TIP3   OH230165   6.294   0.765   4.834
10075TIP3    H130166   6.217   0.709   4.820
10075TIP3    H230167   6.274   0.845   4.786
10076TIP3   OH230168   0.256   4.326   0.513
10076TIP3    H130169   0.168   4.289   0.521
10076TIP3    H230170   0.243   4.421   0.511
10077TIP3   OH230171   2.149   2.865   3.189
10077TIP3    H130172   2.105   2.782   3.170
10077TIP3    H230173   2.077   2.926   3.210
10078TIP3   OH230174   4.744   7.844   4.210
10078TIP3    H130175   4.665   7.863   4.260
10078TIP3    H230176   4.816   7.871   4.267
10079TIP3   OH230177   5.395   4.385   3.317
10079TIP3    H130178   5.441   4.424   3.391
10079TIP3    H230179   5.424   4.294   3.316
10080TIP3   OH230180   3.399   0.235   3.603
10080TIP3    H130181   3.415   0.310   3.661
10080TIP3    H230182   3.309   0.210   3.620
10081TIP3   OH230183   4.524   4.630   0.310
10081TIP3    H130184   4.488   4.717   0.292
10081TIP3    H230185   4.486   4.606   0.394
10082TIP3   OH230186   6.704   2.729   2.405
10082TIP3    H130187   6.738   2.699   2.321
10082TIP3    H230188   6.749   2.812   2.420
10083TIP3   OH230189   7.526   3.572   0.226
10083TIP3    H130190   7.461   3.549   0.160
10083TIP3    H230191   7.476   3.580   0.307
10084TIP3   OH230192   4.451   7.546   6.720
10084TIP3    H130193   4.379   7.487   6.744
10084TIP3    H230194   4.525   7.515   6.772
10085TIP3   OH230195   3.549   1.304   5.860
10085TIP3    H130196   3.552   1.340   5.772
10085TIP3    H230197   3.459   1.276   5.872
10086TIP3   OH230198   6.530   2.186   2.986
10086TIP3    H130199   6.519   2.114   2.924
10086TIP3    H230200   6.449   2.236   2.980
10087TIP3   OH230201   5.851   3.836   3.352
10087TIP3    H130202   5.899   3.855   3.433
10087TIP3    H230203   5.850   3.919   3.304
10088TIP3   OH230204   6.051   0.897   1.066
10088TIP3    H130205   5.996   0.953   1.120
10088TIP3    H230206   6.100   0.958   1.010
10089TIP3   OH230207   5.518   7.219   3.782
10089TIP3    H130208   5.536   7.217   3.876
10089TIP3    H230209   5.468   7.140   3.765
10090TIP3   OH230210   1.346   6.546   6.227
10090TIP3    H130211   1.400   6.524   6.303
10090TIP3    H230212   1.302   6.463   6.205
10091TIP3   OH230213   4.580   2.605   5.241
10091TIP3    H130214   4.497   2.636   5.276
10091TIP3    H230215   4.591   2.518   5.278
10092TIP3   OH230216   7.767   0.563   0.308
10092TIP3    H130217   7.790   0.528   0.222
10092TIP3    H230218   7.851   0.576   0.352
10093TIP3   OH230219   4.247   1.933   6.410
10093TIP3    H130220   4.337   1.914   6.381
10093TIP3    H230221   4.199   1.852   6.391
10094TIP3   OH230222   5.117   2.086   0.097
10094TIP3    H130223   5.076   2.040   0.024
10094TIP3    H230224   5.093   2.034   0.174
10095TIP3   OH230225   4.538   3.117   5.380
10095TIP3    H130226   4.571   3.031   5.353
10095TIP3    H230227   4.608   3.178   5.358
10096TIP3   OH230228   7.938   1.798   0.277
10096TIP3    H130229   7.893   1.882   0.269
10096TIP3    H230230   7.871   1.733   0.257
10097TIP3   OH230231   4.583   1.038   5.865
10097TIP3    H130232   4.565   1.109   5.803
10097TIP3    H230233   4.635   0.975   5.816
10098TIP3   OH230234   0.577   4.481   4.624
10098TIP3    H130235   0.569   4.473   4.719
10098TIP3    H230236   0.657   4.532   4.611
10099TIP3   OH230237   5.523   0.350   6.363
10099TIP3    H130238   5.595   0.292   6.339
10099TIP3    H230239   5.447   0.315   6.318
10100TIP3   OH230240   1.174   0.865   1.133
10100TIP3    H130241   1.124   0.895   1.210
10100TIP3    H230242   1.144   0.922   1.062
10101TIP3   OH230243   7.846   2.325   6.769
10101TIP3    H130244   7.783   2.393   6.792
10101TIP3    H230245   7.909   2.326   6.841
10102TIP3   OH230246   5.627   4.924   1.087
10102TIP3    H130247   5.564   4.909   1.017
10102TIP3    H230248   5.580   4.899   1.167
10103TIP3   OH230249   3.811   1.025   5.007
10103TIP3    H130250   3.875   1.051   4.941
10103TIP3    H230251   3.815   1.094   5.073
10104TIP3   OH230252   6.734   3.606   1.267
10104TIP3    H130253   6.680   3.653   1.331
10104TIP3    H230254   6.727   3.659   1.187
10105TIP3   OH230255   3.092   4.426   1.220
10105TIP3    H130256   3.175   4.428   1.267
10105TIP3    H230257   3.108   4.367   1.146
10106TIP3   OH230258   0.760   7.193   3.316
10106TIP3    H130259   0.726   7.112   3.280
10106TIP3    H230260   0.704   7.262   3.279
10107TIP3   OH230261   1.926   5.505   6.670
10107TIP3    H130262   1.966   5.590   6.688
10107TIP3    H230263   1.894   5.511   6.581
10108TIP3   OH230264   6.807   7.440   2.039
10108TIP3    H130265   6.821   7.532   2.016
10108TIP3    H230266   6.870   7.392   1.984
10109TIP3   OH230267   6.045   0.060   3.725
10109TIP3    H130268   6.012  -0.022   3.688
10109TIP3    H230269   6.140   0.055   3.711
10110TIP3   OH230270   5.438   7.787   3.240
10110TIP3    H130271   5.496   7.713   3.259
10110TIP3    H230272   5.486   7.863   3.273
10111TIP3   OH230273   2.226   1.694   3.570
10111TIP3    H130274   2.277   1.620   3.538
10111TIP3    H230275   2.225   1.683   3.665
10112TIP3   OH230276   1.164   7.930   4.863
10112TIP3    H130277   1.169   7.875   4.785
10112TIP3    H230278   1.140   8.017   4.830
10113TIP3   OH230279   6.303   4.514   4.153
10113TIP3    H130280   6.276   4.591   4.202
10113TIP3    H230281   6.252   4.518   4.072
10114TIP3   OH230282   7.929   5.432   1.695
10114TIP3    H130283   7.855   5.383   1.658
10114TIP3    H230284   7.921   5.520   1.658
10115TIP3   OH230285   5.531   4.045   5.764
10115TIP3    H130286   5.596   4.106   5.799
10115TIP3    H230287   5.467   4.101   5.720
10116TIP3   OH230288   4.728   5.053   6.835
10116TIP3    H130289   4.790   5.011   6.776
10116TIP3    H230290   4.771   5.051   6.921
10117TIP3   OH230291   0.960   5.836   3.407
10117TIP3    H130292   0.936   5.762   3.352
10117TIP3    H230293   0.877   5.871   3.439
10118TIP3   OH230294   2.294   7.631   1.944
10118TIP3    H130295   2.369   7.676   1.905
10118TIP3    H230296   2.242   7.602   1.869
10119TIP3   OH230297   4.300   3.574   0.649
10119TIP3    H130298   4.375   3.580   0.590
10119TIP3    H230299   4.338   3.564   0.736
10120TIP3   OH230300   0.961   3.323   1.840
10120TIP3    H130301   0.952   3.242   1.889
10120TIP3    H230302   1.050   3.319   1.804
10121TIP3   OH230303   6.420   4.588   5.414
10121TIP3    H130304   6.438   4.543   5.497
10121TIP3    H230305   6.404   4.517   5.351
10122TIP3   OH230306   3.868   3.994   1.584
10122TIP3    H130307   3.945   3.939   1.567
10122TIP3    H230308   3.880   4.069   1.527
10123TIP3   OH230309   7.038   7.730   0.345
10123TIP3    H130310   7.005   7.819   0.332
10123TIP3    H230311   7.018   7.685   0.262
10124TIP3   OH230312   1.964   4.615   4.392
10124TIP3    H130313   1.913   4.542   4.426
10124TIP3    H230314   1.939   4.689   4.447
10125TIP3   OH230315   4.083   3.397   6.085
10125TIP3    H130316   4.177   3.406   6.104
10125TIP3    H230317   4.066   3.303   6.097
10126TIP3   OH230318   1.444   1.521   4.262
10126TIP3    H130319   1.401   1.600   4.228
10126TIP3    H230320   1.529   1.551   4.292
10127TIP3   OH230321   1.730   3.523   5.850
10127TIP3    H130322   1.809   3.472   5.832
10127TIP3    H230323   1.735   3.598   5.791
10128TIP3   OH230324   0.356   7.398   0.867
10128TIP3    H130325   0.416   7.466   0.835
10128TIP3    H230326   0.399   7.361   0.943
10129TIP3   OH230327   0.130   1.661   0.550
10129TIP3    H130328   0.150   1.745   0.509
10129TIP3    H230329   0.039   1.644   0.529
10130TIP3   OH230330   2.635   6.968   4.414
10130TIP3    H130331   2.648   7.043   4.355
10130TIP3    H230332   2.709   6.911   4.398
10131TIP3   OH230333   5.450   7.597   0.671
10131TIP3    H130334   5.508   7.651   0.617
10131TIP3    H230335   5.435   7.649   0.750
10132TIP3   OH230336   3.075   5.634   2.785
10132TIP3    H130337   3.170   5.642   2.800
10132TIP3    H230338   3.042   5.591   2.864
10133TIP3   OH230339   1.585   4.165   2.410
10133TIP3    H130340   1.679   4.163   2.390
10133TIP3    H230341   1.564   4.076   2.436
10134TIP3   OH230342   7.803   7.681   0.788
10134TIP3    H130343   7.812   7.654   0.696
10134TIP3    H230344   7.722   7.732   0.790
10135TIP3   OH230345   6.174   4.865   6.544
10135TIP3    H130346   6.261   4.845   6.577
10135TIP3    H230347   6.125   4.783   6.553
10136TIP3   OH230348   4.463   7.858   4.785
10136TIP3    H130349   4.491   7.944   4.756
10136TIP3    H230350   4.506   7.797   4.725
10137TIP3   OH230351   4.128   4.367   5.001
10137TIP3    H130352   4.184   4.414   5.062
10137TIP3    H230353   4.175   4.286   4.982
10138TIP3   OH230354   1.869   4.297   5.233
10138TIP3    H130355   1.846   4.385   5.264
10138TIP3    H230356   1.895   4.309   5.142
10139TIP3   OH230357   2.682   7.362   6.139
10139TIP3    H130358   2.599   7.392   6.175
10139TIP3    H230359   2.734   7.337   6.216
10140TIP3   OH230360   0.866   3.907   2.972
10140TIP3    H130361   0.898   3.827   3.014
10140TIP3    H230362   0.916   3.977   3.012
10141TIP3   OH230363   1.314   6.776   2.886
10141TIP3    H130364   1.370   6.851   2.867
10141TIP3    H230365   1.232   6.796   2.841
10142TIP3   OH230366   8.370   6.284   5.823
10142TIP3    H130367   8.360   6.243   5.737
10142TIP3    H230368   8.333   6.372   5.812
10143TIP3   OH230369   6.520   7.767   6.814
10143TIP3    H130370   6.530   7.677   6.845
10143TIP3    H230371   6.571   7.769   6.732
10144TIP3   OH230372   7.633   3.022   4.965
10144TIP3    H130373   7.547   3.043   4.931
10144TIP3    H230374   7.630   3.049   5.057
10145TIP3   OH230375   0.459   5.840   3.930
10145TIP3    H130376   0.418   5.758   3.957
10145TIP3    H230377   0.388   5.903   3.926
10146TIP3   OH230378   1.833   6.304   1.664
10146TIP3    H130379   1.920   6.344   1.671
10146TIP3    H230380   1.838   6.226   1.719
10147TIP3   OH230381   8.156   0.265   2.127
10147TIP3    H130382   8.073   0.222   2.149
10147TIP3    H230383   8.214   0.193   2.102
10148TIP3   OH230384   5.566   1.680   5.686
10148TIP3    H130385   5.616   1.758   5.709
10148TIP3    H230386   5.475   1.705   5.699
10149TIP3   OH230387   8.149   2.252   0.296
10149TIP3    H130388   8.171   2.176   0.350
10149TIP3    H230389   8.077   2.221   0.241
10150TIP3   OH230390   1.282   0.603   2.909
10150TIP3    H130391   1.360   0.549   2.919
10150TIP3    H230392   1.282   0.660   2.986
10151TIP3   OH230393   3.159   3.239   5.636
10151TIP3    H130394   3.104   3.250   5.714
10151TIP3    H230395   3.230   3.301   5.648
10152TIP3   OH230396   2.245   6.552   3.704
10152TIP3    H130397   2.291   6.468   3.709
10152TIP3    H230398   2.291   6.608   3.766
10153TIP3   OH230399   3.172   5.242   5.903
10153TIP3    H130400   3.223   5.318   5.929
10153TIP3    H230401   3.094   5.244   5.958
10154TIP3   OH230402   2.930   5.510   5.900
10154TIP3    H130403   2.960   5.593   5.863
10154TIP3    H230404   2.946   5.519   5.994
10155TIP3   OH230405   1.529   1.085   3.300
10155TIP3    H130406   1.610   1.126   3.269
10155TIP3    H230407   1.505   1.137   3.377
10156TIP3   OH230408   4.505   3.618   0.451
10156TIP3    H130409   4.594   3.645   0.473
10156TIP3    H230410   4.482   3.669   0.374
10157TIP3   OH230411   5.612   1.581   1.576
10157TIP3    H130412   5.671   1.539   1.638
10157TIP3    H230413   5.535   1.524   1.573
10158TIP3   OH230414   7.316   3.014   3.375
10158TIP3    H130415   7.358   3.087   3.329
10158TIP3    H230416   7.223   3.036   3.374
10159TIP3   OH230417   8.051   4.952   3.459
10159TIP3    H130418   8.057   4.893   3.533
10159TIP3    H230419   8.138   4.949   3.419
10160TIP3   OH230420   3.712   1.332   2.325
10160TIP3    H130421   3.743   1.378   2.247
10160TIP3    H230422   3.672   1.252   2.290
10161TIP3   OH230423   7.098   3.403   5.599
10161TIP3    H130424   7.184   3.440   5.577
10161TIP3    H230425   7.117   3.321   5.644
10162TIP3   OH230426   5.794   5.750   6.449
10162TIP3    H130427   5.764   5.691   6.381
10162TIP3    H230428   5.857   5.808   6.405
10163TIP3   OH230429   0.967   5.170   1.882
10163TIP3    H130430   1.042   5.137   1.932
10163TIP3    H230431   1.003   5.192   1.796
10164TIP3   OH230432   7.394   1.136   3.055
10164TIP3    H130433   7.420   1.137   3.147
10164TIP3    H230434   7.342   1.056   3.045
10165TIP3   OH230435   1.696   7.501   2.641
10165TIP3    H130436   1.695   7.469   2.551
10165TIP3    H230437   1.605   7.522   2.660
10166TIP3   OH230438   6.615   2.467   5.032
10166TIP3    H130439   6.599   2.517   5.112
10166TIP3    H230440   6.698   2.500   4.998
10167TIP3   OH230441   0.854   2.203   1.911
10167TIP3    H130442   0.908   2.173   1.984
10167TIP3    H230443   0.796   2.268   1.950
10168TIP3   OH230444   5.623   4.368   5.115
10168TIP3    H130445   5.688   4.344   5.048
10168TIP3    H230446   5.627   4.463   5.120
10169TIP3   OH230447   5.500   6.641   4.892
10169TIP3    H130448   5.468   6.692   4.818
10169TIP3    H230449   5.485   6.697   4.969
10170TIP3   OH230450   3.441   7.412   1.163
10170TIP3    H130451   3.399   7.411   1.077
10170TIP3    H230452   3.524   7.458   1.149
10171TIP3   OH230453   6.246   7.677   2.583
10171TIP3    H130454   6.293   7.619   2.643
10171TIP3    H230455   6.224   7.620   2.509
10172TIP3   OH230456   2.842   4.525   4.661
10172TIP3    H130457   2.936   4.527   4.678
10172TIP3    H230458   2.809   4.606   4.700
10173TIP3   OH230459   8.087   0.398   0.751
10173TIP3    H130460   8.090   0.493   0.743
10173TIP3    H230461   8.035   0.369   0.676
10174TIP3   OH230462   3.262   0.621   5.237
10174TIP3    H130463   3.223   0.551   5.290
10174TIP3    H230464   3.304   0.575   5.164
10175TIP3   OH230465   1.491   0.541   0.135
10175TIP3    H130466   1.522   0.523   0.224
10175TIP3    H230467   1.456   0.629   0.139
10176TIP3   OH230468   8.113   4.930   3.767
10176TIP3    H130469   8.102   4.857   3.828
10176TIP3    H230470   8.025   4.946   3.733
10177TIP3   OH230471   5.792   7.381   4.065
10177TIP3    H130472   5.751   7.442   4.004
10177TIP3    H230473   5.718   7.340   4.111
10178TIP3   OH230474   6.705   6.150   1.033
10178TIP3    H130475   6.685   6.067   0.988
10178TIP3    H230476   6.676   6.136   1.123
10179TIP3   OH230477   4.169   1.030   4.624
10179TIP3    H130478   4.256   1.016   4.586
10179TIP3    H230479   4.119   1.072   4.555
10180TIP3   OH230480   2.624   4.275   1.827
10180TIP3    H130481   2.600   4.257   1.736
10180TIP3    H230482   2.564   4.345   1.854
10181TIP3   OH230483   1.951   6.518   2.193
10181TIP3    H130484   2.037   6.521   2.234
10181TIP3    H230485   1.895   6.476   2.258
10182TIP3   OH230486   4.357   6.834   1.135
10182TIP3    H130487   4.392   6.786   1.060
10182TIP3    H230488   4.333   6.766   1.198
10183TIP3   OH230489   2.889   7.154   4.417
10183TIP3    H130490   2.847   7.214   4.356
10183TIP3    H230491   2.921   7.209   4.488
10184TIP3   OH230492   1.378   6.127   0.951
10184TIP3    H130493   1.459   6.097   0.909
10184TIP3    H230494   1.352   6.204   0.900
10185TIP3   OH230495   1.137   6.968   1.534
10185TIP3    H130496   1.194   7.020   1.477
10185TIP3    H230497   1.059   7.023   1.547
10186TIP3   OH230498   3.544   1.039   5.374
10186TIP3    H130499   3.583   0.952   5.364
10186TIP3    H230500   3.450   1.024   5.367
10187TIP3   OH230501   8.106   3.349   1.716
10187TIP3    H130502   8.198   3.375   1.709
10187TIP3    H230503   8.108   3.263   1.757
10188TIP3   OH230504   7.301   3.198   3.031
10188TIP3    H130505   7.392   3.193   3.060
10188TIP3    H230506   7.252   3.222   3.110
10189TIP3   OH230507   3.900   0.027   2.410
10189TIP3    H130508   3.971   0.050   2.470
10189TIP3    H230509   3.860  -0.051   2.449
10190TIP3   OH230510   5.422   3.798   4.533
10190TIP3    H130511   5.390   3.780   4.622
10190TIP3    H230512   5.345   3.786   4.477
10191TIP3   OH230513   4.555   3.844   2.276
10191TIP3    H130514   4.508   3.889   2.206
10191TIP3    H230515   4.492   3.782   2.311
10192TIP3   OH230516   4.734   0.192   3.005
10192TIP3    H130517   4.830   0.191   3.002
10192TIP3    H230518   4.710   0.269   2.952
10193TIP3   OH230519   4.330   7.145   5.016
10193TIP3    H130520   4.331   7.096   4.933
10193TIP3    H230521   4.257   7.206   5.007
10194TIP3   OH230522   8.260   1.599   0.477
10194TIP3    H130523   8.270   1.505   0.462
10194TIP3    H230524   8.277   1.639   0.392
10195TIP3   OH230525   0.421   6.092   0.675
10195TIP3    H130526   0.482   6.020   0.655
10195TIP3    H230527   0.411   6.138   0.592
10196TIP3   OH230528   3.816   1.491   1.351
10196TIP3    H130529   3.757   1.423   1.318
10196TIP3    H230530   3.762   1.570   1.356
10197TIP3   OH230531   6.468   1.975   3.879
10197TIP3    H130532   6.461   1.995   3.786
10197TIP3    H230533   6.525   2.043   3.915
10198TIP3   OH230534   7.488   2.014   1.522
10198TIP3    H130535   7.473   1.942   1.584
10198TIP3    H230536   7.412   2.012   1.463
10199TIP3   OH230537   0.647   4.217   6.808
10199TIP3    H130538   0.661   4.207   6.714
10199TIP3    H230539   0.555   4.243   6.816
10200TIP3   OH230540   6.625   1.655   2.308
10200TIP3    H130541   6.561   1.699   2.364
10200TIP3    H230542   6.651   1.578   2.357
10201TIP3   OH230543   7.518   7.515   2.060
10201TIP3    H130544   7.591   7.470   2.019
10201TIP3    H230545   7.459   7.446   2.089
10202TIP3   OH230546   4.428   3.882   1.182
10202TIP3    H130547   4.501   3.822   1.169
10202TIP3    H230548   4.407   3.915   1.095
10203TIP3   OH230549   1.007   2.114   1.047
10203TIP3    H130550   1.091   2.084   1.082
10203TIP3    H230551   0.952   2.126   1.125
10204TIP3   OH230552   6.669   7.664   6.197
10204TIP3    H130553   6.596   7.664   6.259
10204TIP3    H230554   6.708   7.752   6.207
10205TIP3   OH230555   5.017   3.586   6.522
10205TIP3    H130556   4.933   3.556   6.486
10205TIP3    H230557   5.029   3.534   6.601
10206TIP3   OH230558   6.556   7.453   1.834
10206TIP3    H130559   6.599   7.377   1.874
10206TIP3    H230560   6.472   7.459   1.881
10207TIP3   OH230561   6.551   1.951   1.232
10207TIP3    H130562   6.505   2.003   1.298
10207TIP3    H230563   6.484   1.896   1.192
10208TIP3   OH230564   1.916   6.970   5.676
10208TIP3    H130565   1.829   7.006   5.692
10208TIP3    H230566   1.960   7.035   5.622
10209TIP3   OH230567   7.932   2.072   3.728
10209TIP3    H130568   8.014   2.066   3.680
10209TIP3    H230569   7.914   1.983   3.757
10210TIP3   OH230570   0.646   3.491   4.209
10210TIP3    H130571   0.648   3.504   4.115
10210TIP3    H230572   0.594   3.412   4.222
10211TIP3   OH230573   7.894   6.727   3.366
10211TIP3    H130574   7.917   6.783   3.292
10211TIP3    H230575   7.805   6.754   3.389
10212TIP3   OH230576   3.548   7.600   2.517
10212TIP3    H130577   3.537   7.694   2.501
10212TIP3    H230578   3.642   7.587   2.524
10213TIP3   OH230579   1.146   4.197   2.417
10213TIP3    H130580   1.134   4.157   2.331
10213TIP3    H230581   1.094   4.278   2.413
10214TIP3   OH230582   6.536   2.086   1.891
10214TIP3    H130583   6.440   2.090   1.894
10214TIP3    H230584   6.559   2.021   1.957
10215TIP3   OH230585   4.266   3.714   1.392
10215TIP3    H130586   4.316   3.748   1.318
10215TIP3    H230587   4.310   3.632   1.414
10216TIP3   OH230588   2.226   5.462   5.130
10216TIP3    H130589   2.267   5.392   5.079
10216TIP3    H230590   2.216   5.424   5.218
10217TIP3   OH230591   1.458   0.044   2.295
10217TIP3    H130592   1.519   0.114   2.270
10217TIP3    H230593   1.514  -0.027   2.325
10218TIP3   OH230594   6.976   7.523   0.166
10218TIP3    H130595   7.004   7.501   0.077
10218TIP3    H230596   7.039   7.478   0.222
10219TIP3   OH230597   8.152   2.199   6.466
10219TIP3    H130598   8.061   2.172   6.466
10219TIP3    H230599   8.171   2.220   6.558
10220TIP3   OH230600   6.600   2.200   5.131
10220TIP3    H130601   6.570   2.236   5.215
10220TIP3    H230602   6.592   2.272   5.070
10221TIP3   OH230603   3.977   0.223   1.956
10221TIP3    H130604   3.958   0.314   1.975
10221TIP3    H230605   3.937   0.174   2.028
10222TIP3   OH230606   5.673   7.389   0.182
10222TIP3    H130607   5.754   7.436   0.200
10222TIP3    H230608   5.626   7.390   0.266
10223TIP3   OH230609   4.880   2.268   1.100
10223TIP3    H130610   4.830   2.307   1.171
10223TIP3    H230611   4.921   2.343   1.055
10224TIP3   OH230612   5.456   4.544   4.507
10224TIP3    H130613   5.474   4.525   4.599
10224TIP3    H230614   5.518   4.614   4.484
10225TIP3   OH230615   6.605   3.223   0.392
10225TIP3    H130616   6.656   3.287   0.342
10225TIP3    H230617   6.515   3.252   0.384
10226TIP3   OH230618   5.411   3.652   1.251
10226TIP3    H130619   5.425   3.618   1.163
10226TIP3    H230620   5.368   3.736   1.238
10227TIP3   OH230621   3.206   2.071   4.049
10227TIP3    H130622   3.160   2.098   3.969
10227TIP3    H230623   3.142   2.086   4.119
10228TIP3   OH230624   4.620   6.848   2.166
10228TIP3    H130625   4.557   6.777   2.174
10228TIP3    H230626   4.620   6.870   2.073
10229TIP3   OH230627   6.500   7.509   5.716
10229TIP3    H130628   6.502   7.425   5.670
10229TIP3    H230629   6.577   7.508   5.772
10230TIP3   OH230630   1.311   6.282   4.835
10230TIP3    H130631   1.363   6.258   4.912
10230TIP3    H230632   1.229   6.317   4.871
10231TIP3   OH230633   6.443   1.431   1.838
10231TIP3    H130634   6.463   1.370   1.909
10231TIP3    H230635   6.408   1.508   1.883
10232TIP3   OH230636   3.793   0.710   4.367
10232TIP3    H130637   3.825   0.652   4.297
10232TIP3    H230638   3.868   0.718   4.427
10233TIP3   OH230639   1.110   1.703   6.551
10233TIP3    H130640   1.065   1.621   6.573
10233TIP3    H230641   1.039   1.766   6.538
10234TIP3   OH230642   7.697   0.293   4.934
10234TIP3    H130643   7.703   0.368   4.993
10234TIP3    H230644   7.604   0.286   4.913
10235TIP3   OH230645   0.420   6.243   6.209
10235TIP3    H130646   0.417   6.297   6.131
10235TIP3    H230647   0.334   6.201   6.213
10236TIP3   OH230648   7.118   6.300   0.061
10236TIP3    H130649   7.154   6.388   0.051
10236TIP3    H230650   7.095   6.293   0.154
10237TIP3   OH230651   3.263   5.296   6.513
10237TIP3    H130652   3.347   5.328   6.546
10237TIP3    H230653   3.250   5.344   6.431
10238TIP3   OH230654   1.310   0.644   5.381
10238TIP3    H130655   1.308   0.703   5.306
10238TIP3    H230656   1.350   0.564   5.348
10239TIP3   OH230657   6.942   1.546   3.717
10239TIP3    H130658   6.970   1.563   3.627
10239TIP3    H230659   6.919   1.453   3.718
10240TIP3   OH230660   6.173   0.811   6.777
10240TIP3    H130661   6.094   0.783   6.822
10240TIP3    H230662   6.229   0.733   6.776
10241TIP3   OH230663   3.143   6.475   5.575
10241TIP3    H130664   3.118   6.384   5.564
10241TIP3    H230665   3.171   6.503   5.488
10242TIP3   OH230666   3.346   5.483   0.635
10242TIP3    H130667   3.408   5.547   0.600
10242TIP3    H230668   3.339   5.417   0.566
10243TIP3   OH230669   6.804   4.184   5.153
10243TIP3    H130670   6.814   4.151   5.242
10243TIP3    H230671   6.769   4.272   5.164
10244TIP3   OH230672   3.191   0.239   3.170
10244TIP3    H130673   3.167   0.152   3.202
10244TIP3    H230674   3.273   0.259   3.214
10245TIP3   OH230675   2.113   0.200   5.633
10245TIP3    H130676   2.146   0.159   5.713
10245TIP3    H230677   2.023   0.167   5.624
10246TIP3   OH230678   3.063   4.030   5.412
10246TIP3    H130679   3.106   3.979   5.344
10246TIP3    H230680   2.969   4.016   5.397
10247TIP3   OH230681   2.459   7.043   1.855
10247TIP3    H130682   2.367   7.041   1.828
10247TIP3    H230683   2.457   7.080   1.943
10248TIP3   OH230684   4.286   7.634   1.798
10248TIP3    H130685   4.244   7.718   1.779
10248TIP3    H230686   4.345   7.620   1.724
10249TIP3   OH230687   7.017   3.836   1.542
10249TIP3    H130688   6.923   3.853   1.539
10249TIP3    H230689   7.024   3.748   1.581
10250TIP3   OH230690   5.178   5.519   5.644
10250TIP3    H130691   5.258   5.490   5.601
10250TIP3    H230692   5.207   5.545   5.732
10251TIP3   OH230693   5.203   2.052   1.352
10251TIP3    H130694   5.161   2.007   1.279
10251TIP3    H230695   5.287   2.006   1.363
10252TIP3   OH230696   5.534   1.051   0.991
10252TIP3    H130697   5.473   1.119   1.019
10252TIP3    H230698   5.573   1.020   1.073
10253TIP3   OH230699   5.474   0.781   0.933
10253TIP3    H130700   5.566   0.780   0.957
10253TIP3    H230701   5.452   0.874   0.926
10254TIP3   OH230702   5.715   1.007   2.008
10254TIP3    H130703   5.773   0.938   1.974
10254TIP3    H230704   5.636   0.999   1.954
10255TIP3   OH230705   7.910   0.337   4.111
10255TIP3    H130706   7.825   0.344   4.068
10255TIP3    H230707   7.910   0.250   4.150
10256TIP3   OH230708   8.270   6.414   1.767
10256TIP3    H130709   8.237   6.501   1.792
10256TIP3    H230710   8.365   6.421   1.775
10257TIP3   OH230711   0.759   5.276   4.362
10257TIP3    H130712   0.747   5.295   4.455
10257TIP3    H230713   0.714   5.347   4.317
10258TIP3   OH230714   3.073   7.684   1.496
10258TIP3    H130715   2.993   7.693   1.445
10258TIP3    H230716   3.130   7.629   1.442
10259TIP3   OH230717   7.688   6.605   4.649
10259TIP3    H130718   7.715   6.653   4.727
10259TIP3    H230719   7.597   6.631   4.636
10260TIP3   OH230720   5.076   7.291   4.224
10260TIP3    H130721   5.000   7.263   4.275
10260TIP3    H230722   5.151   7.249   4.267
10261TIP3   OH230723   6.207   5.710   0.939
10261TIP3    H130724   6.162   5.646   0.883
10261TIP3    H230725   6.288   5.667   0.965
10262TIP3   OH230726   6.226   1.171   1.279
10262TIP3    H130727   6.149   1.168   1.223
10262TIP3    H230728   6.212   1.247   1.336
10263TIP3   OH230729   0.286   4.168   2.119
10263TIP3    H130730   0.237   4.127   2.190
10263TIP3    H230731   0.378   4.148   2.139
10264TIP3   OH230732   1.037   7.014   0.317
10264TIP3    H130733   1.102   7.082   0.302
10264TIP3    H230734   1.076   6.934   0.283
10265TIP3   OH230735   0.757   1.616   4.478
10265TIP3    H130736   0.802   1.559   4.415
10265TIP3    H230737   0.670   1.630   4.440
10266TIP3   OH230738   6.876   5.455   6.040
10266TIP3    H130739   6.843   5.383   6.094
10266TIP3    H230740   6.803   5.517   6.036
10267TIP3   OH230741   0.122   2.106   6.688
10267TIP3    H130742   0.126   2.087   6.595
10267TIP3    H230743   0.207   2.079   6.722
10268TIP3   OH230744   0.657   0.632   1.054
10268TIP3    H130745   0.671   0.552   1.003
10268TIP3    H230746   0.730   0.688   1.030
10269TIP3   OH230747   0.901   5.619   3.158
10269TIP3    H130748   0.924   5.685   3.093
10269TIP3    H230749   0.938   5.538   3.123
10270TIP3   OH230750   3.366   1.528   4.469
10270TIP3    H130751   3.295   1.509   4.408
10270TIP3    H230752   3.323   1.540   4.554
10271TIP3   OH230753   8.024   5.845   5.589
10271TIP3    H130754   7.930   5.858   5.602
10271TIP3    H230755   8.030   5.805   5.502
10272TIP3   OH230756   5.711   3.758   5.440
10272TIP3    H130757   5.668   3.775   5.524
10272TIP3    H230758   5.669   3.678   5.407
10273TIP3   OH230759   3.502   4.761   3.158
10273TIP3    H130760   3.550   4.839   3.185
10273TIP3    H230761   3.411   4.790   3.148
10274TIP3   OH230762   0.292   6.454   0.499
10274TIP3    H130763   0.382   6.483   0.482
10274TIP3    H230764   0.299   6.405   0.581
10275TIP3   OH230765   0.916   2.264   1.275
10275TIP3    H130766   0.820   2.267   1.281
10275TIP3    H230767   0.938   2.332   1.212
10276TIP3   OH230768   2.521   4.855   3.302
10276TIP3    H130769   2.481   4.798   3.236
10276TIP3    H230770   2.489   4.942   3.280
10277TIP3   OH230771   5.094   2.752   3.326
10277TIP3    H130772   5.018   2.694   3.330
10277TIP3    H230773   5.064   2.827   3.273
10278TIP3   OH230774   8.024   3.734   3.295
10278TIP3    H130775   8.093   3.694   3.347
10278TIP3    H230776   8.029   3.692   3.209
10279TIP3   OH230777   1.189   0.411   3.315
10279TIP3    H130778   1.096   0.435   3.321
10279TIP3    H230779   1.188   0.320   3.285
10280TIP3   OH230780   4.107   4.558   2.669
10280TIP3    H130781   4.200   4.535   2.676
10280TIP3    H230782   4.084   4.538   2.578
10281TIP3   OH230783   4.407   6.149   0.304
10281TIP3    H130784   4.436   6.227   0.351
10281TIP3    H230785   4.431   6.077   0.362
10282TIP3   OH230786   5.160   5.862   6.657
10282TIP3    H130787   5.116   5.888   6.739
10282TIP3    H230788   5.184   5.945   6.615
10283TIP3   OH230789   6.698   7.817   2.280
10283TIP3    H130790   6.660   7.733   2.255
10283TIP3    H230791   6.642   7.883   2.241
10284TIP3   OH230792   8.314   5.077   2.918
10284TIP3    H130793   8.340   5.083   3.010
10284TIP3    H230794   8.390   5.038   2.875
10285TIP3   OH230795   2.114   4.352   2.033
10285TIP3    H130796   2.131   4.385   2.121
10285TIP3    H230797   2.021   4.366   2.019
10286TIP3   OH230798   5.827   4.555   4.603
10286TIP3    H130799   5.755   4.595   4.554
10286TIP3    H230800   5.795   4.468   4.627
10287TIP3   OH230801   7.947   5.051   4.912
10287TIP3    H130802   7.982   5.054   5.001
10287TIP3    H230803   7.948   5.142   4.882
10288TIP3   OH230804   3.295   3.801   6.330
10288TIP3    H130805   3.336   3.743   6.394
10288TIP3    H230806   3.310   3.889   6.365
10289TIP3   OH230807   7.984   3.164   1.400
10289TIP3    H130808   7.936   3.207   1.471
10289TIP3    H230809   7.920   3.160   1.328
10290TIP3   OH230810   4.125   3.996   1.993
10290TIP3    H130811   4.124   3.908   1.955
10290TIP3    H230812   4.038   4.032   1.971
10291TIP3   OH230813   7.850   1.831   1.236
10291TIP3    H130814   7.814   1.903   1.288
10291TIP3    H230815   7.918   1.793   1.292
10292TIP3   OH230816   0.317   2.300   5.010
10292TIP3    H130817   0.232   2.262   4.987
10292TIP3    H230818   0.366   2.300   4.928
10293TIP3   OH230819   5.738   1.474   2.423
10293TIP3    H130820   5.772   1.559   2.449
10293TIP3    H230821   5.738   1.476   2.327
10294TIP3   OH230822   1.680   6.049   2.271
10294TIP3    H130823   1.642   6.015   2.191
10294TIP3    H230824   1.747   6.111   2.241
10295TIP3   OH230825   4.251   3.051   2.229
10295TIP3    H130826   4.250   3.147   2.229
10295TIP3    H230827   4.233   3.027   2.320
10296TIP3   OH230828   6.345   5.908   2.003
10296TIP3    H130829   6.329   6.001   1.993
10296TIP3    H230830   6.420   5.902   2.062
10297TIP3   OH230831   4.010   3.333   1.933
10297TIP3    H130832   3.992   3.415   1.886
10297TIP3    H230833   4.106   3.327   1.933
10298TIP3   OH230834   0.256   4.839   6.818
10298TIP3    H130835   0.308   4.913   6.848
10298TIP3    H230836   0.249   4.782   6.894
10299TIP3   OH230837   3.890   1.680   3.351
10299TIP3    H130838   3.836   1.745   3.307
10299TIP3    H230839   3.919   1.723   3.431
10300TIP3   OH230840   0.499   2.422   6.510
10300TIP3    H130841   0.574   2.371   6.541
10300TIP3    H230842   0.534   2.509   6.493
10301TIP3   OH230843   6.943   6.648   2.324
10301TIP3    H130844   6.952   6.571   2.267
10301TIP3    H230845   6.871   6.698   2.285
10302TIP3   OH230846   5.965   1.576   2.987
10302TIP3    H130847   5.949   1.512   3.057
10302TIP3    H230848   5.980   1.659   3.034
10303TIP3   OH230849   7.238   7.250   0.473
10303TIP3    H130850   7.309   7.292   0.521
10303TIP3    H230851   7.197   7.321   0.424
10304TIP3   OH230852   4.620   2.756   6.458
10304TIP3    H130853   4.589   2.700   6.530
10304TIP3    H230854   4.651   2.836   6.502
10305TIP3   OH230855   1.590   5.215   3.537
10305TIP3    H130856   1.584   5.285   3.471
10305TIP3    H230857   1.518   5.156   3.515
10306TIP3   OH230858   2.636   5.495   3.051
10306TIP3    H130859   2.681   5.427   3.000
10306TIP3    H230860   2.587   5.545   2.986
10307TIP3   OH230861   0.584   0.301   5.004
10307TIP3    H130862   0.565   0.256   5.086
10307TIP3    H230863   0.521   0.265   4.942
10308TIP3   OH230864   3.417   3.762   5.358
10308TIP3    H130865   3.396   3.711   5.436
10308TIP3    H230866   3.340   3.817   5.344
10309TIP3   OH230867   3.189   6.509   6.480
10309TIP3    H130868   3.135   6.577   6.520
10309TIP3    H230869   3.274   6.517   6.522
10310TIP3   OH230870   8.107   3.394   2.084
10310TIP3    H130871   8.174   3.443   2.038
10310TIP3    H230872   8.123   3.412   2.177
10311TIP3   OH230873   3.895   1.720   0.193
10311TIP3    H130874   3.942   1.723   0.276
10311TIP3    H230875   3.913   1.805   0.152
10312TIP3   OH230876   1.127   1.193   6.002
10312TIP3    H130877   1.222   1.194   5.994
10312TIP3    H230878   1.104   1.283   6.026
10313TIP3   OH230879   6.475   1.223   2.018
10313TIP3    H130880   6.393   1.179   2.041
10313TIP3    H230881   6.510   1.254   2.101
10314TIP3   OH230882   4.407   0.280   2.491
10314TIP3    H130883   4.446   0.334   2.560
10314TIP3    H230884   4.481   0.232   2.454
10315TIP3   OH230885   6.028   5.644   4.700
10315TIP3    H130886   6.071   5.650   4.785
10315TIP3    H230887   6.041   5.731   4.661
10316TIP3   OH230888   3.407   2.042   5.751
10316TIP3    H130889   3.467   2.114   5.767
10316TIP3    H230890   3.412   2.026   5.657
10317TIP3   OH230891   7.999   7.517   0.202
10317TIP3    H130892   8.060   7.486   0.135
10317TIP3    H230893   8.042   7.592   0.242
10318TIP3   OH230894   5.143   5.064   3.378
10318TIP3    H130895   5.233   5.091   3.395
10318TIP3    H230896   5.096   5.085   3.459
10319TIP3   OH230897   6.419   5.893   4.338
10319TIP3    H130898   6.332   5.855   4.347
10319TIP3    H230899   6.406   5.971   4.285
10320TIP3   OH230900   5.184   2.964   5.881
10320TIP3    H130901   5.210   2.897   5.944
10320TIP3    H230902   5.247   2.956   5.810
10321TIP3   OH230903   4.708   6.690   6.471
10321TIP3    H130904   4.746   6.608   6.503
10321TIP3    H230905   4.623   6.665   6.437
10322TIP3   OH230906   6.623   7.842   4.571
10322TIP3    H130907   6.623   7.774   4.504
10322TIP3    H230908   6.554   7.816   4.632
10323TIP3   OH230909   1.580   4.553   0.841
10323TIP3    H130910   1.505   4.522   0.892
10323TIP3    H230911   1.586   4.491   0.768
10324TIP3   OH230912   3.776   5.656   3.854
10324TIP3    H130913   3.833   5.731   3.837
10324TIP3    H230914   3.783   5.642   3.949
10325TIP3   OH230915   2.422   2.633   5.813
10325TIP3    H130916   2.349   2.662   5.867
10325TIP3    H230917   2.472   2.714   5.795
10326TIP3   OH230918   2.731   7.607   5.419
10326TIP3    H130919   2.766   7.594   5.330
10326TIP3    H230920   2.719   7.702   5.426
10327TIP3   OH230921   6.826   5.857   2.473
10327TIP3    H130922   6.854   5.768   2.453
10327TIP3    H230923   6.906   5.909   2.464
10328TIP3   OH230924   6.833   2.974   6.546
10328TIP3    H130925   6.777   2.971   6.468
10328TIP3    H230926   6.777   2.943   6.617
10329TIP3   OH230927   6.585   1.479   1.041
10329TIP3    H130928   6.574   1.390   1.006
10329TIP3    H230929   6.504   1.524   1.016
10330TIP3   OH230930   2.132   7.464   1.776
10330TIP3    H130931   2.080   7.386   1.757
10330TIP3    H230932   2.205   7.459   1.715
10331TIP3   OH230933   6.372   0.264   0.182
10331TIP3    H130934   6.397   0.356   0.189
10331TIP3    H230935   6.325   0.259   0.099
10332TIP3   OH230936   4.579   0.589   0.699
10332TIP3    H130937   4.525   0.518   0.735
10332TIP3    H230938   4.626   0.548   0.626
10333TIP3   OH230939   7.808   5.436   0.745
10333TIP3    H130940   7.808   5.497   0.819
10333TIP3    H230941   7.899   5.432   0.717
10334TIP3   OH230942   0.504   5.102   0.484
10334TIP3    H130943   0.487   5.019   0.440
10334TIP3    H230944   0.585   5.134   0.444
10335TIP3   OH230945   5.680   6.540   3.070
10335TIP3    H130946   5.765   6.583   3.065
10335TIP3    H230947   5.642   6.553   2.983
10336TIP3   OH230948   3.961   2.574   1.056
10336TIP3    H130949   4.021   2.558   1.129
10336TIP3    H230950   3.998   2.526   0.983
10337TIP3   OH230951   5.778   1.083   3.938
10337TIP3    H130952   5.828   1.032   4.002
10337TIP3    H230953   5.806   1.173   3.952
10338TIP3   OH230954   8.365   6.677   3.649
10338TIP3    H130955   8.369   6.648   3.558
10338TIP3    H230956   8.370   6.772   3.644
10339TIP3   OH230957   2.632   1.392   1.869
10339TIP3    H130958   2.684   1.469   1.845
10339TIP3    H230959   2.561   1.391   1.805
10340TIP3   OH230960   1.437   6.791   1.310
10340TIP3    H130961   1.506   6.800   1.244
10340TIP3    H230962   1.372   6.735   1.268
10341TIP3   OH230963   4.135   2.908   0.936
10341TIP3    H130964   4.110   2.895   1.028
10341TIP3    H230965   4.070   2.970   0.903
10342TIP3   OH230966   3.916   6.787   5.642
10342TIP3    H130967   3.964   6.869   5.638
10342TIP3    H230968   3.824   6.812   5.636
10343TIP3   OH230969   4.535   5.003   4.636
10343TIP3    H130970   4.490   5.026   4.717
10343TIP3    H230971   4.470   4.955   4.585
10344TIP3   OH230972   1.592   3.861   2.360
10344TIP3    H130973   1.618   3.856   2.268
10344TIP3    H230974   1.673   3.845   2.408
10345TIP3   OH230975   4.049   7.239   5.569
10345TIP3    H130976   4.052   7.300   5.643
10345TIP3    H230977   4.058   7.294   5.492
10346TIP3   OH230978   6.646   0.264   4.124
10346TIP3    H130979   6.676   0.339   4.175
10346TIP3    H230980   6.724   0.210   4.113
10347TIP3   OH230981   5.275   5.501   2.969
10347TIP3    H130982   5.183   5.480   2.985
10347TIP3    H230983   5.323   5.422   2.994
10348TIP3   OH230984   5.383   3.190   2.185
10348TIP3    H130985   5.410   3.137   2.260
10348TIP3    H230986   5.398   3.280   2.213
10349TIP3   OH230987   6.022   6.190   2.798
10349TIP3    H130988   5.997   6.166   2.709
10349TIP3    H230989   6.105   6.145   2.813
10350TIP3   OH230990   2.632   0.109   4.914
10350TIP3    H130991   2.633   0.149   4.827
10350TIP3    H230992   2.554   0.144   4.956
10351TIP3   OH230993   2.764   6.769   1.342
10351TIP3    H130994   2.730   6.858   1.351
10351TIP3    H230995   2.726   6.737   1.260
10352TIP3   OH230996   2.974   0.732   4.439
10352TIP3    H130997   2.908   0.708   4.374
10352TIP3    H230998   2.991   0.825   4.422
10353TIP3   OH230999   6.992   2.309   3.994
10353TIP3    H131000   7.065   2.341   3.941
10353TIP3    H231001   7.020   2.224   4.027
10354TIP3   OH231002   7.208   5.346   5.568
10354TIP3    H131003   7.159   5.385   5.495
10354TIP3    H231004   7.143   5.291   5.613
10355TIP3   OH231005   5.194   1.260   1.649
10355TIP3    H131006   5.134   1.191   1.622
10355TIP3    H231007   5.137   1.333   1.674
10356TIP3   OH231008   3.890   4.065   6.572
10356TIP3    H131009   3.928   4.138   6.524
10356TIP3    H231010   3.872   3.999   6.505
10357TIP3   OH231011   8.179   1.484   5.863
10357TIP3    H131012   8.190   1.557   5.803
10357TIP3    H231013   8.265   1.444   5.869
10358TIP3   OH231014   2.787   2.994   6.630
10358TIP3    H131015   2.713   2.947   6.669
10358TIP3    H231016   2.804   2.947   6.548
10359TIP3   OH231017   4.627   7.217   0.773
10359TIP3    H131018   4.623   7.165   0.853
10359TIP3    H231019   4.543   7.201   0.730
10360TIP3   OH231020   8.383   5.726   4.939
10360TIP3    H131021   8.414   5.747   4.851
10360TIP3    H231022   8.288   5.731   4.932
10361TIP3   OH231023   4.608   6.617   0.326
10361TIP3    H131024   4.572   6.666   0.252
10361TIP3    H231025   4.681   6.670   0.356
10362TIP3   OH231026   7.358   0.170   4.696
10362TIP3    H131027   7.449   0.152   4.672
10362TIP3    H231028   7.364   0.246   4.754
10363TIP3   OH231029   0.596   6.506   5.486
10363TIP3    H131030   0.550   6.502   5.402
10363TIP3    H231031   0.645   6.424   5.489
10364TIP3   OH231032   2.466   6.900   0.929
10364TIP3    H131033   2.376   6.931   0.926
10364TIP3    H231034   2.490   6.885   0.837
10365TIP3   OH231035   0.743   3.261   2.529
10365TIP3    H131036   0.705   3.242   2.443
10365TIP3    H231037   0.809   3.193   2.542
10366TIP3   OH231038   3.784   6.512   1.921
10366TIP3    H131039   3.699   6.514   1.876
10366TIP3    H231040   3.764   6.477   2.008
10367TIP3   OH231041   0.771   2.038  -0.007
10367TIP3    H131042   0.830   2.106   0.025
10367TIP3    H231043   0.792   1.960   0.045
10368TIP3   OH231044   2.422   3.565   5.095
10368TIP3    H131045   2.481   3.641   5.090
10368TIP3    H231046   2.409   3.550   5.188
10369TIP3   OH231047   3.688   6.629   6.738
10369TIP3    H131048   3.723   6.591   6.657
10369TIP3    H231049   3.755   6.691   6.766
10370TIP3   OH231050   2.105   1.781   6.162
10370TIP3    H131051   2.012   1.777   6.185
10370TIP3    H231052   2.138   1.692   6.181
10371TIP3   OH231053   7.243   6.282   5.063
10371TIP3    H131054   7.162   6.243   5.031
10371TIP3    H231055   7.296   6.208   5.093
10372TIP3   OH231056   4.386   0.171   2.108
10372TIP3    H131057   4.297   0.202   2.128
10372TIP3    H231058   4.420   0.141   2.192
10373TIP3   OH231059   8.343   4.216   4.615
10373TIP3    H131060   8.392   4.224   4.696
10373TIP3    H231061   8.338   4.122   4.599
10374TIP3   OH231062   1.458   5.054   4.322
10374TIP3    H131063   1.517   5.035   4.249
10374TIP3    H231064   1.493   5.005   4.396
10375TIP3   OH231065   2.025   0.945   5.641
10375TIP3    H131066   1.965   1.016   5.621
10375TIP3    H231067   1.977   0.865   5.621
10376TIP3   OH231068   0.940   6.113   3.268
10376TIP3    H131069   0.958   6.114   3.363
10376TIP3    H231070   0.961   6.202   3.240
10377TIP3   OH231071   4.608   5.413   6.104
10377TIP3    H131072   4.696   5.381   6.122
10377TIP3    H231073   4.619   5.506   6.085
10378TIP3   OH231074   6.894   7.654   1.682
10378TIP3    H131075   6.855   7.579   1.638
10378TIP3    H231076   6.866   7.647   1.773
10379TIP3   OH231077   5.205   5.835   3.158
10379TIP3    H131078   5.109   5.840   3.151
10379TIP3    H231079   5.227   5.901   3.225
10380TIP3   OH231080   7.116   5.238   6.669
10380TIP3    H131081   7.073   5.275   6.593
10380TIP3    H231082   7.045   5.205   6.724
10381TIP3   OH231083   6.104   4.002   1.356
10381TIP3    H131084   6.058   4.085   1.359
10381TIP3    H231085   6.035   3.936   1.344
10382TIP3   OH231086   0.187   2.142   6.245
10382TIP3    H131087   0.121   2.184   6.190
10382TIP3    H231088   0.188   2.051   6.215
10383TIP3   OH231089   4.832   4.417   3.022
10383TIP3    H131090   4.836   4.326   2.993
10383TIP3    H231091   4.805   4.466   2.944
10384TIP3   OH231092   8.021   1.626   6.304
10384TIP3    H131093   7.976   1.708   6.281
10384TIP3    H231094   8.008   1.617   6.398
10385TIP3   OH231095   3.196   0.868   2.443
10385TIP3    H131096   3.119   0.886   2.389
10385TIP3    H231097   3.269   0.903   2.393
10386TIP3   OH231098   3.330   0.550   1.203
10386TIP3    H131099   3.257   0.608   1.179
10386TIP3    H231100   3.290   0.486   1.262
10387TIP3   OH231101   1.146   1.415   1.594
10387TIP3    H131102   1.119   1.332   1.635
10387TIP3    H231103   1.198   1.459   1.661
10388TIP3   OH231104   6.524   3.486   2.229
10388TIP3    H131105   6.431   3.505   2.225
10388TIP3    H231106   6.546   3.453   2.142
10389TIP3   OH231107   6.859   4.459   4.961
10389TIP3    H131108   6.944   4.496   4.985
10389TIP3    H231109   6.879   4.373   4.923
10390TIP3   OH231110   3.031   2.437   0.096
10390TIP3    H131111   2.978   2.455   0.173
10390TIP3    H231112   3.102   2.501   0.101
10391TIP3   OH231113   2.899   6.856   2.305
10391TIP3    H131114   2.934   6.924   2.248
10391TIP3    H231115   2.974   6.827   2.357
10392TIP3   OH231116   4.526   1.269   5.715
10392TIP3    H131117   4.562   1.246   5.629
10392TIP3    H231118   4.466   1.342   5.697
10393TIP3   OH231119   2.815   1.017   2.292
10393TIP3    H131120   2.776   1.020   2.380
10393TIP3    H231121   2.881   0.948   2.298
10394TIP3   OH231122   6.009   3.253   1.886
10394TIP3    H131123   5.914   3.251   1.892
10394TIP3    H231124   6.034   3.337   1.925
10395TIP3   OH231125   0.273   5.590   0.275
10395TIP3    H131126   0.346   5.651   0.287
10395TIP3    H231127   0.198   5.647   0.254
10396TIP3   OH231128   7.554   1.997   5.242
10396TIP3    H131129   7.526   1.924   5.187
10396TIP3    H231130   7.560   1.960   5.330
10397TIP3   OH231131   1.078   1.625   1.357
10397TIP3    H131132   1.142   1.694   1.339
10397TIP3    H231133   1.130   1.550   1.385
10398TIP3   OH231134   1.222   4.296   4.969
10398TIP3    H131135   1.190   4.264   5.054
10398TIP3    H231136   1.179   4.381   4.958
10399TIP3   OH231137   5.158   6.663   4.580
10399TIP3    H131138   5.183   6.600   4.647
10399TIP3    H231139   5.088   6.715   4.620
10400TIP3   OH231140   7.952   4.994   3.189
10400TIP3    H131141   8.009   5.061   3.228
10400TIP3    H231142   7.921   4.943   3.264
10401TIP3   OH231143   4.375   4.476   2.711
10401TIP3    H131144   4.421   4.410   2.660
10401TIP3    H231145   4.393   4.452   2.802
10402TIP3   OH231146   2.621   4.801   6.546
10402TIP3    H131147   2.700   4.747   6.549
10402TIP3    H231148   2.612   4.825   6.454
10403TIP3   OH231149   6.304   7.821   4.285
10403TIP3    H131150   6.298   7.898   4.341
10403TIP3    H231151   6.313   7.748   4.345
10404TIP3   OH231152   5.552   2.398   0.157
10404TIP3    H131153   5.583   2.318   0.199
10404TIP3    H231154   5.458   2.383   0.144
10405TIP3   OH231155   2.195   3.824   2.594
10405TIP3    H131156   2.185   3.789   2.505
10405TIP3    H231157   2.255   3.763   2.637
10406TIP3   OH231158   7.898   6.910   4.438
10406TIP3    H131159   7.868   6.821   4.416
10406TIP3    H231160   7.891   6.915   4.533
10407TIP3   OH231161   3.705   2.699   1.349
10407TIP3    H131162   3.769   2.669   1.414
10407TIP3    H231163   3.696   2.625   1.289
10408TIP3   OH231164   6.474   3.492   2.517
10408TIP3    H131165   6.513   3.508   2.431
10408TIP3    H231166   6.394   3.544   2.518
10409TIP3   OH231167   2.567   3.952   1.219
10409TIP3    H131168   2.581   3.860   1.198
10409TIP3    H231169   2.607   3.963   1.306
10410TIP3   OH231170   6.660   4.763   3.521
10410TIP3    H131171   6.645   4.858   3.524
10410TIP3    H231172   6.632   4.732   3.608
10411TIP3   OH231173   6.988   4.275   4.144
10411TIP3    H131174   6.956   4.209   4.206
10411TIP3    H231175   6.969   4.359   4.186
10412TIP3   OH231176   7.279   7.307   5.438
10412TIP3    H131177   7.208   7.366   5.464
10412TIP3    H231178   7.268   7.297   5.343
10413TIP3   OH231179   7.577   0.991   4.525
10413TIP3    H131180   7.514   1.029   4.463
10413TIP3    H231181   7.556   0.897   4.524
10414TIP3   OH231182   2.683   1.721   2.485
10414TIP3    H131183   2.601   1.674   2.472
10414TIP3    H231184   2.656   1.809   2.513
10415TIP3   OH231185   8.284   3.354   4.482
10415TIP3    H131186   8.251   3.327   4.568
10415TIP3    H231187   8.347   3.423   4.501
10416TIP3   OH231188   7.287   0.055   5.098
10416TIP3    H131189   7.270  -0.007   5.169
10416TIP3    H231190   7.357   0.014   5.047
10417TIP3   OH231191   5.474   3.265   5.225
10417TIP3    H131192   5.412   3.273   5.298
10417TIP3    H231193   5.464   3.174   5.196
10418TIP3   OH231194   3.185   4.641   5.473
10418TIP3    H131195   3.251   4.695   5.429
10418TIP3    H231196   3.101   4.669   5.436
10419TIP3   OH231197   3.896   4.787   4.155
10419TIP3    H131198   3.855   4.830   4.230
10419TIP3    H231199   3.960   4.727   4.194
10420TIP3   OH231200   7.094   5.937   6.670
10420TIP3    H131201   7.181   5.951   6.633
10420TIP3    H231202   7.109   5.883   6.747
10421TIP3   OH231203   1.290   2.788   1.780
10421TIP3    H131204   1.311   2.782   1.873
10421TIP3    H231205   1.202   2.750   1.773
10422TIP3   OH231206   6.957   0.743   5.835
10422TIP3    H131207   6.895   0.700   5.893
10422TIP3    H231208   6.978   0.677   5.768
10423TIP3   OH231209   3.293   3.843   0.751
10423TIP3    H131210   3.272   3.936   0.760
10423TIP3    H231211   3.301   3.812   0.841
10424TIP3   OH231212   5.243   2.267   5.018
10424TIP3    H131213   5.208   2.300   4.936
10424TIP3    H231214   5.325   2.315   5.030
10425TIP3   OH231215   4.421   2.845   4.881
10425TIP3    H131216   4.473   2.924   4.895
10425TIP3    H231217   4.480   2.773   4.903
10426TIP3   OH231218   7.192   4.813   3.600
10426TIP3    H131219   7.122   4.875   3.620
10426TIP3    H231220   7.226   4.842   3.515
10427TIP3   OH231221   8.011   5.544   3.501
10427TIP3    H131222   8.023   5.525   3.408
10427TIP3    H231223   7.928   5.591   3.506
10428TIP3   OH231224   2.019   5.804   6.818
10428TIP3    H131225   2.038   5.889   6.858
10428TIP3    H231226   1.927   5.788   6.839
10429TIP3   OH231227   4.483   7.332   4.207
10429TIP3    H131228   4.509   7.376   4.127
10429TIP3    H231229   4.390   7.353   4.218
10430TIP3   OH231230   7.545   3.324   6.308
10430TIP3    H131231   7.587   3.243   6.279
10430TIP3    H231232   7.599   3.354   6.381
10431TIP3   OH231233   6.797   2.323   3.467
10431TIP3    H131234   6.772   2.315   3.375
10431TIP3    H231235   6.822   2.414   3.478
10432TIP3   OH231236   6.231   4.556   1.474
10432TIP3    H131237   6.263   4.611   1.403
10432TIP3    H231238   6.195   4.617   1.538
10433TIP3   OH231239   4.661   1.672   4.984
10433TIP3    H131240   4.615   1.693   4.902
10433TIP3    H231241   4.651   1.577   4.994
10434TIP3   OH231242   0.772   7.123   0.351
10434TIP3    H131243   0.716   7.048   0.330
10434TIP3    H231244   0.861   7.089   0.344
10435TIP3   OH231245   4.932   0.229   5.738
10435TIP3    H131246   4.852   0.246   5.688
10435TIP3    H231247   5.000   0.279   5.693
10436TIP3   OH231248   3.814   7.086   1.450
10436TIP3    H131249   3.759   7.028   1.397
10436TIP3    H231250   3.808   7.050   1.539
10437TIP3   OH231251   6.664   7.003   1.561
10437TIP3    H131252   6.631   7.092   1.570
10437TIP3    H231253   6.675   6.972   1.651
10438TIP3   OH231254   4.368   4.121   6.629
10438TIP3    H131255   4.434   4.096   6.565
10438TIP3    H231256   4.414   4.180   6.689
10439TIP3   OH231257   5.754   1.237   6.242
10439TIP3    H131258   5.667   1.264   6.271
10439TIP3    H231259   5.790   1.188   6.315
10440TIP3   OH231260   6.634   3.997   4.547
10440TIP3    H131261   6.584   3.943   4.485
10440TIP3    H231262   6.649   4.079   4.501
10441TIP3   OH231263   3.320   6.937   3.609
10441TIP3    H131264   3.293   7.025   3.585
10441TIP3    H231265   3.304   6.931   3.703
10442TIP3   OH231266   7.396   0.940   1.962
10442TIP3    H131267   7.426   0.974   1.878
10442TIP3    H231268   7.338   0.867   1.939
10443TIP3   OH231269   3.815   3.015   5.802
10443TIP3    H131270   3.856   2.962   5.870
10443TIP3    H231271   3.777   2.951   5.741
10444TIP3   OH231272   0.949   2.819   4.387
10444TIP3    H131273   1.044   2.814   4.397
10444TIP3    H231274   0.918   2.859   4.468
10445TIP3   OH231275   7.802   6.452   6.122
10445TIP3    H131276   7.737   6.393   6.159
10445TIP3    H231277   7.796   6.532   6.175
10446TIP3   OH231278   6.225   1.835   6.544
10446TIP3    H131279   6.164   1.878   6.603
10446TIP3    H231280   6.246   1.901   6.478
10447TIP3   OH231281   1.789   1.749   3.482
10447TIP3    H131282   1.712   1.706   3.444
10447TIP3    H231283   1.794   1.833   3.435
10448TIP3   OH231284   7.209   4.332   4.953
10448TIP3    H131285   7.188   4.322   5.046
10448TIP3    H231286   7.124   4.337   4.910
10449TIP3   OH231287   1.329   0.997   4.193
10449TIP3    H131288   1.376   0.951   4.123
10449TIP3    H231289   1.385   1.072   4.215
10450TIP3   OH231290   6.663   2.921   6.782
10450TIP3    H131291   6.589   2.903   6.840
10450TIP3    H231292   6.740   2.894   6.832
10451TIP3   OH231293   3.774   3.800   3.558
10451TIP3    H131294   3.680   3.801   3.542
10451TIP3    H231295   3.800   3.892   3.552
10452TIP3   OH231296   3.737   0.081   4.087
10452TIP3    H131297   3.737   0.030   4.006
10452TIP3    H231298   3.767   0.168   4.061
10453TIP3   OH231299   2.807   0.652   4.244
10453TIP3    H131300   2.737   0.709   4.213
10453TIP3    H231301   2.767   0.565   4.246
10454TIP3   OH231302   2.767   3.709   3.333
10454TIP3    H131303   2.673   3.701   3.317
10454TIP3    H231304   2.791   3.794   3.296
10455TIP3   OH231305   6.984   5.207   2.277
10455TIP3    H131306   6.932   5.143   2.228
10455TIP3    H231307   6.994   5.168   2.364
10456TIP3   OH231308   1.407   5.929   2.967
10456TIP3    H131309   1.331   5.982   2.990
10456TIP3    H231310   1.445   5.973   2.890
10457TIP3   OH231311   4.734   6.453   4.206
10457TIP3    H131312   4.822   6.484   4.187
10457TIP3    H231313   4.692   6.527   4.250
10458TIP3   OH231314   8.369   6.537   4.923
10458TIP3    H131315   8.349   6.628   4.901
10458TIP3    H231316   8.436   6.511   4.861
10459TIP3   OH231317   6.831   4.149   1.264
10459TIP3    H131318   6.763   4.083   1.251
10459TIP3    H231319   6.802   4.225   1.214
10460TIP3   OH231320   4.336   4.902   5.773
10460TIP3    H131321   4.382   4.951   5.841
10460TIP3    H231322   4.404   4.868   5.716
10461TIP3   OH231323   7.569   4.659   0.850
10461TIP3    H131324   7.616   4.730   0.806
10461TIP3    H231325   7.591   4.670   0.943
10462TIP3   OH231326   6.558   0.365   5.557
10462TIP3    H131327   6.639   0.372   5.506
10462TIP3    H231328   6.565   0.433   5.623
10463TIP3   OH231329   6.420   1.286   3.771
10463TIP3    H131330   6.330   1.304   3.800
10463TIP3    H231331   6.418   1.299   3.676
10464TIP3   OH231332   5.072   3.211   2.430
10464TIP3    H131333   5.126   3.279   2.471
10464TIP3    H231334   5.059   3.146   2.499
10465TIP3   OH231335   5.395   7.779   6.608
10465TIP3    H131336   5.384   7.685   6.590
10465TIP3    H231337   5.317   7.820   6.571
10466TIP3   OH231338   0.419   0.358   2.798
10466TIP3    H131339   0.375   0.302   2.861
10466TIP3    H231340   0.474   0.298   2.747
10467TIP3   OH231341   5.276   7.173   4.379
10467TIP3    H131342   5.368   7.154   4.361
10467TIP3    H231343   5.267   7.155   4.473
10468TIP3   OH231344   6.003   6.579   1.017
10468TIP3    H131345   5.976   6.624   0.936
10468TIP3    H231346   5.932   6.518   1.035
10469TIP3   OH231347   7.540   6.272   0.706
10469TIP3    H131348   7.491   6.294   0.785
10469TIP3    H231349   7.571   6.182   0.721
10470TIP3   OH231350   2.100   2.852   2.158
10470TIP3    H131351   2.034   2.903   2.204
10470TIP3    H231352   2.144   2.801   2.226
10471TIP3   OH231353   4.731   0.617   3.860
10471TIP3    H131354   4.696   0.607   3.772
10471TIP3    H231355   4.781   0.699   3.856
10472TIP3   OH231356   6.478   6.400   1.017
10472TIP3    H131357   6.386   6.402   1.043
10472TIP3    H231358   6.484   6.459   0.943
10473TIP3   OH231359   3.485   3.696   6.566
10473TIP3    H131360   3.553   3.722   6.504
10473TIP3    H231361   3.531   3.685   6.649
10474TIP3   OH231362   0.183   2.655   5.807
10474TIP3    H131363   0.174   2.589   5.876
10474TIP3    H231364   0.117   2.630   5.742
10475TIP3   OH231365   2.718   4.712   0.144
10475TIP3    H131366   2.627   4.731   0.167
10475TIP3    H231367   2.719   4.620   0.120
10476TIP3   OH231368   4.226   7.681   6.153
10476TIP3    H131369   4.178   7.760   6.129
10476TIP3    H231370   4.294   7.673   6.086
10477TIP3   OH231371   0.172   1.123   3.268
10477TIP3    H131372   0.126   1.200   3.237
10477TIP3    H231373   0.105   1.055   3.274
10478TIP3   OH231374   7.961   4.308   1.266
10478TIP3    H131375   7.916   4.304   1.182
10478TIP3    H231376   8.054   4.303   1.243
10479TIP3   OH231377   7.642   2.091   3.987
10479TIP3    H131378   7.622   1.998   4.000
10479TIP3    H231379   7.663   2.097   3.893
10480TIP3   OH231380   7.160   2.637   1.648
10480TIP3    H131381   7.184   2.696   1.576
10480TIP3    H231382   7.131   2.557   1.605
10481TIP3   OH231383   2.270   4.713   5.885
10481TIP3    H131384   2.359   4.729   5.854
10481TIP3    H231385   2.273   4.625   5.922
10482TIP3   OH231386   6.031   7.346   0.795
10482TIP3    H131387   6.105   7.344   0.855
10482TIP3    H231388   6.051   7.279   0.730
10483TIP3   OH231389   0.604   7.752   6.612
10483TIP3    H131390   0.630   7.672   6.567
10483TIP3    H231391   0.552   7.723   6.686
10484TIP3   OH231392   6.682   3.767   2.855
10484TIP3    H131393   6.764   3.803   2.822
10484TIP3    H231394   6.672   3.802   2.943
10485TIP3   OH231395   1.717   3.593   0.654
10485TIP3    H131396   1.809   3.570   0.672
10485TIP3    H231397   1.673   3.509   0.646
10486TIP3   OH231398   3.533   7.861   1.538
10486TIP3    H131399   3.514   7.842   1.446
10486TIP3    H231400   3.523   7.776   1.582
10487TIP3   OH231401   0.729   7.745   6.226
10487TIP3    H131402   0.824   7.740   6.220
10487TIP3    H231403   0.711   7.838   6.240
10488TIP3   OH231404   0.460   4.101   4.657
10488TIP3    H131405   0.469   4.111   4.752
10488TIP3    H231406   0.475   4.008   4.642
10489TIP3   OH231407   2.729   6.025   3.792
10489TIP3    H131408   2.703   5.933   3.799
10489TIP3    H231409   2.670   6.072   3.851
10490TIP3   OH231410   3.066   1.561   5.498
10490TIP3    H131411   3.107   1.595   5.419
10490TIP3    H231412   3.106   1.475   5.511
10491TIP3   OH231413   7.176   1.305   1.402
10491TIP3    H131414   7.172   1.280   1.494
10491TIP3    H231415   7.177   1.222   1.354
10492TIP3   OH231416   2.229   3.284   0.443
10492TIP3    H131417   2.141   3.320   0.439
10492TIP3    H231418   2.286   3.359   0.459
10493TIP3   OH231419   4.871   5.317   6.117
10493TIP3    H131420   4.910   5.237   6.152
10493TIP3    H231421   4.922   5.388   6.156
10494TIP3   OH231422   2.418   3.798   5.997
10494TIP3    H131423   2.375   3.815   6.081
10494TIP3    H231424   2.505   3.767   6.020
10495TIP3   OH231425   1.961   1.657   3.117
10495TIP3    H131426   1.998   1.658   3.205
10495TIP3    H231427   1.913   1.739   3.110
10496TIP3   OH231428   6.046   5.418   6.346
10496TIP3    H131429   5.991   5.345   6.318
10496TIP3    H231430   6.090   5.447   6.265
10497TIP3   OH231431   3.327   5.292   1.139
10497TIP3    H131432   3.338   5.361   1.074
10497TIP3    H231433   3.388   5.316   1.209
10498TIP3   OH231434   3.830   4.153   5.305
10498TIP3    H131435   3.911   4.180   5.348
10498TIP3    H231436   3.795   4.234   5.267
10499TIP3   OH231437   0.391   5.296   1.031
10499TIP3    H131438   0.341   5.309   0.950
10499TIP3    H231439   0.376   5.204   1.053
10500TIP3   OH231440   0.691   2.462   1.628
10500TIP3    H131441   0.771   2.414   1.606
10500TIP3    H231442   0.626   2.430   1.565
10501TIP3   OH231443   1.527   2.751   0.888
10501TIP3    H131444   1.462   2.772   0.821
10501TIP3    H231445   1.595   2.703   0.840
10502TIP3   OH231446   2.510   4.510   2.565
10502TIP3    H131447   2.573   4.569   2.524
10502TIP3    H231448   2.554   4.479   2.644
10503TIP3   OH231449   2.130   3.023   1.851
10503TIP3    H131450   2.199   2.980   1.901
10503TIP3    H231451   2.110   3.102   1.901
10504TIP3   OH231452   4.027   3.627   5.891
10504TIP3    H131453   4.034   3.540   5.929
10504TIP3    H231454   4.116   3.649   5.865
10505TIP3   OH231455   0.438   6.297   3.336
10505TIP3    H131456   0.433   6.231   3.405
10505TIP3    H231457   0.521   6.342   3.351
10506TIP3   OH231458   6.650   2.079   6.050
10506TIP3    H131459   6.620   1.989   6.054
10506TIP3    H231460   6.699   2.085   5.968
10507TIP3   OH231461   2.916   7.357   5.045
10507TIP3    H131462   2.857   7.416   5.092
10507TIP3    H231463   2.878   7.270   5.058
10508TIP3   OH231464   1.200   5.152   4.312
10508TIP3    H131465   1.194   5.195   4.227
10508TIP3    H231466   1.290   5.119   4.317
10509TIP3   OH231467   2.867   3.942   3.965
10509TIP3    H131468   2.879   3.899   3.880
10509TIP3    H231469   2.929   4.015   3.963
10510TIP3   OH231470   4.477   4.890   0.214
10510TIP3    H131471   4.481   4.939   0.132
10510TIP3    H231472   4.557   4.913   0.260
10511TIP3   OH231473   6.195   1.088   2.060
10511TIP3    H131474   6.124   1.149   2.080
10511TIP3    H231475   6.168   1.045   1.979
10512TIP3   OH231476   0.498   6.409   1.169
10512TIP3    H131477   0.449   6.491   1.158
10512TIP3    H231478   0.434   6.340   1.156
10513TIP3   OH231479   1.525   5.347   5.071
10513TIP3    H131480   1.494   5.429   5.033
10513TIP3    H231481   1.555   5.370   5.159
10514TIP3   OH231482   1.618   1.526   4.922
10514TIP3    H131483   1.582   1.494   5.005
10514TIP3    H231484   1.607   1.621   4.927
10515TIP3   OH231485   7.821   6.652   4.425
10515TIP3    H131486   7.856   6.580   4.372
10515TIP3    H231487   7.789   6.609   4.504
10516TIP3   OH231488   0.860   6.177   5.712
10516TIP3    H131489   0.809   6.160   5.633
10516TIP3    H231490   0.794   6.185   5.781
10517TIP3   OH231491   2.231   7.638   3.443
10517TIP3    H131492   2.176   7.696   3.389
10517TIP3    H231493   2.240   7.685   3.526
10518TIP3   OH231494   2.758   1.084   4.887
10518TIP3    H131495   2.793   1.002   4.921
10518TIP3    H231496   2.669   1.062   4.858
10519TIP3   OH231497   7.201   2.497   5.709
10519TIP3    H131498   7.234   2.556   5.777
10519TIP3    H231499   7.269   2.500   5.641
10520TIP3   OH231500   5.350   6.694   0.073
10520TIP3    H131501   5.260   6.723   0.056
10520TIP3    H231502   5.341   6.603   0.101
10521TIP3   OH231503   3.175   0.574   1.752
10521TIP3    H131504   3.177   0.512   1.680
10521TIP3    H231505   3.262   0.614   1.752
10522TIP3   OH231506   4.852   5.133   0.308
10522TIP3    H131507   4.879   5.195   0.375
10522TIP3    H231508   4.929   5.078   0.294
10523TIP3   OH231509   6.660   4.615   5.104
10523TIP3    H131510   6.610   4.661   5.037
10523TIP3    H231511   6.714   4.553   5.056
10524TIP3   OH231512   6.497   0.088   4.465
10524TIP3    H131513   6.419   0.143   4.465
10524TIP3    H231514   6.464  -0.002   4.465
10525TIP3   OH231515   2.237   0.789   4.295
10525TIP3    H131516   2.192   0.708   4.271
10525TIP3    H231517   2.176   0.858   4.271
10526TIP3   OH231518   1.936   5.916   0.471
10526TIP3    H131519   2.027   5.923   0.441
10526TIP3    H231520   1.885   5.965   0.407
10527TIP3   OH231521   2.106   1.748   1.566
10527TIP3    H131522   2.023   1.790   1.542
10527TIP3    H231523   2.148   1.809   1.626
10528TIP3   OH231524   4.166   5.098   5.956
10528TIP3    H131525   4.199   5.187   5.941
10528TIP3    H231526   4.242   5.049   5.986
10529TIP3   OH231527   4.685   2.016   0.832
10529TIP3    H131528   4.616   2.083   0.833
10529TIP3    H231529   4.657   1.952   0.898
10530TIP3   OH231530   4.664   4.851   6.518
10530TIP3    H131531   4.595   4.884   6.577
10530TIP3    H231532   4.734   4.823   6.577
10531TIP3   OH231533   6.987   6.186   6.796
10531TIP3    H131534   6.991   6.263   6.740
10531TIP3    H231535   7.016   6.114   6.739
10532TIP3   OH231536   7.498   2.385   5.734
10532TIP3    H131537   7.417   2.340   5.754
10532TIP3    H231538   7.473   2.476   5.718
10533TIP3   OH231539   0.347   3.763   1.632
10533TIP3    H131540   0.401   3.691   1.665
10533TIP3    H231541   0.356   3.757   1.537
10534TIP3   OH231542   4.952   2.150   5.939
10534TIP3    H131543   4.954   2.128   6.032
10534TIP3    H231544   4.859   2.155   5.918
10535TIP3   OH231545   3.416   2.235   2.211
10535TIP3    H131546   3.406   2.260   2.119
10535TIP3    H231547   3.450   2.314   2.253
10536TIP3   OH231548   6.637   5.833   1.711
10536TIP3    H131549   6.554   5.840   1.758
10536TIP3    H231550   6.635   5.905   1.647
10537TIP3   OH231551   0.116   7.326   4.968
10537TIP3    H131552   0.114   7.285   4.881
10537TIP3    H231553   0.032   7.370   4.976
10538TIP3   OH231554   3.615   0.832   0.758
10538TIP3    H131555   3.692   0.803   0.806
10538TIP3    H231556   3.563   0.753   0.744
10539TIP3   OH231557   0.471   6.457   6.390
10539TIP3    H131558   0.529   6.504   6.330
10539TIP3    H231559   0.461   6.371   6.350
10540TIP3   OH231560   8.204   5.822   2.323
10540TIP3    H131561   8.112   5.827   2.345
10540TIP3    H231562   8.212   5.740   2.273
10541TIP3   OH231563   2.634   3.443   3.406
10541TIP3    H131564   2.580   3.439   3.486
10541TIP3    H231565   2.671   3.531   3.406
10542TIP3   OH231566   3.798   7.197   3.426
10542TIP3    H131567   3.857   7.161   3.359
10542TIP3    H231568   3.720   7.224   3.378
10543TIP3   OH231569   5.188   0.444   4.352
10543TIP3    H131570   5.211   0.395   4.431
10543TIP3    H231571   5.165   0.531   4.383
10544TIP3   OH231572   2.274   5.574   0.280
10544TIP3    H131573   2.291   5.482   0.259
10544TIP3    H231574   2.280   5.579   0.375
10545TIP3   OH231575   2.877   1.183   1.804
10545TIP3    H131576   2.839   1.098   1.781
10545TIP3    H231577   2.805   1.245   1.792
10546TIP3   OH231578   2.469   5.998   5.805
10546TIP3    H131579   2.493   6.082   5.765
10546TIP3    H231580   2.485   6.011   5.899
10547TIP3   OH231581   2.385   4.234   3.432
10547TIP3    H131582   2.466   4.280   3.411
10547TIP3    H231583   2.404   4.143   3.411
10548TIP3   OH231584   0.036   1.372   5.287
10548TIP3    H131585   0.117   1.386   5.336
10548TIP3    H231586   0.049   1.419   5.204
10549TIP3   OH231587   4.305   4.243   2.310
10549TIP3    H131588   4.372   4.312   2.302
10549TIP3    H231589   4.262   4.244   2.224
10550TIP3   OH231590   6.934   0.604   2.933
10550TIP3    H131591   6.903   0.694   2.946
10550TIP3    H231592   6.865   0.550   2.971
10551TIP3   OH231593   4.276   5.967   2.118
10551TIP3    H131594   4.187   5.946   2.145
10551TIP3    H231595   4.268   5.988   2.025
10552TIP3   OH231596   2.957   6.609   3.774
10552TIP3    H131597   3.023   6.630   3.708
10552TIP3    H231598   2.954   6.687   3.830
10553TIP3   OH231599   6.072   3.230   2.804
10553TIP3    H131600   6.074   3.323   2.782
10553TIP3    H231601   6.159   3.211   2.840
10554TIP3   OH231602   4.395   7.795   3.599
10554TIP3    H131603   4.452   7.776   3.524
10554TIP3    H231604   4.449   7.850   3.656
10555TIP3   OH231605   0.547   2.567   5.611
10555TIP3    H131606   0.636   2.532   5.614
10555TIP3    H231607   0.508   2.543   5.695
10556TIP3   OH231608   0.436   7.350   5.325
10556TIP3    H131609   0.398   7.416   5.266
10556TIP3    H231610   0.500   7.304   5.270
10557TIP3   OH231611   0.829   0.053   3.332
10557TIP3    H131612   0.912   0.011   3.354
10557TIP3    H231613   0.816   0.034   3.239
10558TIP3   OH231614   7.371   4.519   0.551
10558TIP3    H131615   7.288   4.566   0.545
10558TIP3    H231616   7.427   4.561   0.487
10559TIP3   OH231617   5.954   2.774   1.586
10559TIP3    H131618   5.934   2.859   1.546
10559TIP3    H231619   5.899   2.771   1.664
10560TIP3   OH231620   0.640   5.316   4.628
10560TIP3    H131621   0.583   5.393   4.621
10560TIP3    H231622   0.650   5.303   4.722
10561TIP3   OH231623   1.273   0.945   3.267
10561TIP3    H131624   1.230   1.031   3.271
10561TIP3    H231625   1.363   0.963   3.293
10562TIP3   OH231626   8.122   7.801   5.997
10562TIP3    H131627   8.177   7.757   6.062
10562TIP3    H231628   8.033   7.793   6.030
10563TIP3   OH231629   4.459   2.985   4.070
10563TIP3    H131630   4.499   3.068   4.045
10563TIP3    H231631   4.465   2.983   4.166
10564TIP3   OH231632   5.133   5.033   2.329
10564TIP3    H131633   5.165   4.945   2.347
10564TIP3    H231634   5.211   5.083   2.308
10565TIP3   OH231635   5.036   0.805   4.845
10565TIP3    H131636   4.949   0.765   4.835
10565TIP3    H231637   5.097   0.735   4.819
10566TIP3   OH231638   3.807   1.035   1.180
10566TIP3    H131639   3.731   0.987   1.145
10566TIP3    H231640   3.878   0.971   1.179
10567TIP3   OH231641   3.794   4.906   6.644
10567TIP3    H131642   3.745   4.839   6.596
10567TIP3    H231643   3.744   4.986   6.632
10568TIP3   OH231644   1.297   0.104   2.491
10568TIP3    H131645   1.369   0.097   2.428
10568TIP3    H231646   1.225   0.145   2.442
10569TIP3   OH231647   4.305   0.128   5.475
10569TIP3    H131648   4.333   0.042   5.445
10569TIP3    H231649   4.218   0.140   5.435
10570TIP3   OH231650   0.610   5.167   2.819
10570TIP3    H131651   0.568   5.130   2.741
10570TIP3    H231652   0.537   5.184   2.879
10571TIP3   OH231653   0.449   7.165   5.504
10571TIP3    H131654   0.544   7.166   5.512
10571TIP3    H231655   0.430   7.231   5.437
10572TIP3   OH231656   1.410   4.238   3.233
10572TIP3    H131657   1.445   4.232   3.144
10572TIP3    H231658   1.400   4.147   3.261
10573TIP3   OH231659   2.414   0.874   2.919
10573TIP3    H131660   2.421   0.836   3.006
10573TIP3    H231661   2.368   0.957   2.932
10574TIP3   OH231662   4.771   3.073   4.281
10574TIP3    H131663   4.832   3.031   4.341
10574TIP3    H231664   4.808   3.058   4.194
10575TIP3   OH231665   6.909   7.770   4.294
10575TIP3    H131666   6.902   7.865   4.286
10575TIP3    H231667   6.923   7.754   4.387
10576TIP3   OH231668   5.128   2.592   5.520
10576TIP3    H131669   5.124   2.683   5.549
10576TIP3    H231670   5.183   2.549   5.585
10577TIP3   OH231671   6.880   3.688   0.131
10577TIP3    H131672   6.863   3.644   0.047
10577TIP3    H231673   6.827   3.767   0.128
10578TIP3   OH231674   3.795   6.703   6.112
10578TIP3    H131675   3.814   6.618   6.153
10578TIP3    H231676   3.765   6.680   6.024
10579TIP3   OH231677   4.289   0.895   1.214
10579TIP3    H131678   4.309   0.886   1.307
10579TIP3    H231679   4.368   0.932   1.176
10580TIP3   OH231680   8.004   5.228   5.361
10580TIP3    H131681   7.967   5.146   5.393
10580TIP3    H231682   8.057   5.261   5.433
10581TIP3   OH231683   4.261   5.437   2.607
10581TIP3    H131684   4.283   5.345   2.624
10581TIP3    H231685   4.221   5.468   2.688
10582TIP3   OH231686   5.763   6.158   1.356
10582TIP3    H131687   5.823   6.167   1.282
10582TIP3    H231688   5.758   6.245   1.394
10583TIP3   OH231689   4.550   7.200   4.651
10583TIP3    H131690   4.546   7.255   4.573
10583TIP3    H231691   4.501   7.121   4.627
10584TIP3   OH231692   1.684   6.265   2.641
10584TIP3    H131693   1.610   6.209   2.665
10584TIP3    H231694   1.643   6.349   2.619
10585TIP3   OH231695   4.029   5.637   5.026
10585TIP3    H131696   4.039   5.688   5.106
10585TIP3    H231697   4.001   5.700   4.960
10586TIP3   OH231698   6.186   2.621   6.546
10586TIP3    H131699   6.275   2.589   6.560
10586TIP3    H231700   6.150   2.563   6.479
10587TIP3   OH231701   3.844   4.147   6.846
10587TIP3    H131702   3.864   4.097   6.767
10587TIP3    H231703   3.895   4.227   6.837
10588TIP3   OH231704   2.743   6.762   1.964
10588TIP3    H131705   2.671   6.818   1.992
10588TIP3    H231706   2.722   6.739   1.873
10589TIP3   OH231707   5.805   3.144   1.223
10589TIP3    H131708   5.815   3.107   1.136
10589TIP3    H231709   5.754   3.223   1.211
10590TIP3   OH231710   2.980   7.085   2.092
10590TIP3    H131711   2.922   7.141   2.040
10590TIP3    H231712   2.991   7.007   2.039
10591TIP3   OH231713   3.177   3.666   4.892
10591TIP3    H131714   3.160   3.611   4.815
10591TIP3    H231715   3.235   3.735   4.860
10592TIP3   OH231716   3.566   0.978   4.832
10592TIP3    H131717   3.621   1.022   4.897
10592TIP3    H231718   3.481   0.966   4.875
10593TIP3   OH231719   6.439   5.747   1.193
10593TIP3    H131720   6.402   5.728   1.279
10593TIP3    H231721   6.371   5.799   1.149
10594TIP3   OH231722   2.232   7.540   1.283
10594TIP3    H131723   2.287   7.616   1.264
10594TIP3    H231724   2.235   7.488   1.203
10595TIP3   OH231725   2.808   1.593   2.703
10595TIP3    H131726   2.896   1.627   2.717
10595TIP3    H231727   2.780   1.632   2.621
10596TIP3   OH231728   2.291   4.176   1.931
10596TIP3    H131729   2.224   4.242   1.946
10596TIP3    H231730   2.326   4.158   2.018
10597TIP3   OH231731   4.217   3.298   0.863
10597TIP3    H131732   4.280   3.365   0.837
10597TIP3    H231733   4.271   3.221   0.882
10598TIP3   OH231734   4.813   0.644   2.809
10598TIP3    H131735   4.815   0.682   2.897
10598TIP3    H231736   4.735   0.683   2.768
10599TIP3   OH231737   1.020   3.188   1.532
10599TIP3    H131738   1.019   3.115   1.593
10599TIP3    H231739   0.931   3.192   1.498
10600TIP3   OH231740   0.493   6.071   1.338
10600TIP3    H131741   0.418   6.130   1.349
10600TIP3    H231742   0.457   5.984   1.357
10601TIP3   OH231743   4.537   2.436   3.365
10601TIP3    H131744   4.561   2.412   3.454
10601TIP3    H231745   4.596   2.508   3.343
10602TIP3   OH231746   3.020   1.151   5.059
10602TIP3    H131747   2.933   1.110   5.056
10602TIP3    H231748   3.018   1.216   4.989
10603TIP3   OH231749   2.274   1.113   2.889
10603TIP3    H131750   2.301   1.193   2.935
10603TIP3    H231751   2.184   1.130   2.861
10604TIP3   OH231752   4.199   3.359   1.657
10604TIP3    H131753   4.282   3.407   1.660
10604TIP3    H231754   4.207   3.303   1.580
10605TIP3   OH231755   2.356   6.959   6.445
10605TIP3    H131756   2.417   6.935   6.515
10605TIP3    H231757   2.405   6.942   6.365
10606TIP3   OH231758   4.324   4.730   6.728
10606TIP3    H131759   4.298   4.738   6.636
10606TIP3    H231760   4.246   4.694   6.772
10607TIP3   OH231761   0.494   3.054   6.670
10607TIP3    H131762   0.512   3.019   6.757
10607TIP3    H231763   0.566   3.022   6.616
10608TIP3   OH231764   7.234   0.771   5.870
10608TIP3    H131765   7.254   0.780   5.963
10608TIP3    H231766   7.138   0.764   5.867
10609TIP3   OH231767   1.375   6.210   3.028
10609TIP3    H131768   1.293   6.241   3.066
10609TIP3    H231769   1.441   6.272   3.059
10610TIP3   OH231770   4.553   2.625   3.627
10610TIP3    H131771   4.504   2.669   3.557
10610TIP3    H231772   4.595   2.696   3.675
10611TIP3   OH231773   6.859   3.585   5.772
10611TIP3    H131774   6.775   3.630   5.774
10611TIP3    H231775   6.915   3.642   5.719
10612TIP3   OH231776   1.823   6.038   3.850
10612TIP3    H131777   1.731   6.012   3.857
10612TIP3    H231778   1.869   5.956   3.832
10613TIP3   OH231779   2.160   1.254   5.574
10613TIP3    H131780   2.232   1.251   5.511
10613TIP3    H231781   2.082   1.230   5.523
10614TIP3   OH231782   5.080   0.596   4.568
10614TIP3    H131783   5.144   0.663   4.594
10614TIP3    H231784   5.071   0.540   4.644
10615TIP3   OH231785   1.816   2.111   0.725
10615TIP3    H131786   1.889   2.090   0.783
10615TIP3    H231787   1.739   2.108   0.783
10616TIP3   OH231788   7.643   2.976   4.610
10616TIP3    H131789   7.615   3.041   4.546
10616TIP3    H231790   7.602   3.004   4.692
10617TIP3   OH231791   2.275   5.941   1.968
10617TIP3    H131792   2.332   5.919   1.895
10617TIP3    H231793   2.234   6.024   1.943
10618TIP3   OH231794   2.769   3.382   3.050
10618TIP3    H131795   2.781   3.288   3.042
10618TIP3    H231796   2.675   3.393   3.067
10619TIP3   OH231797   3.389   0.929   2.240
10619TIP3    H131798   3.314   0.919   2.181
10619TIP3    H231799   3.445   0.854   2.221
10620TIP3   OH231800   4.049   3.637   2.079
10620TIP3    H131801   3.989   3.699   2.038
10620TIP3    H231802   3.992   3.572   2.120
10621TIP3   OH231803   1.132   2.047   6.376
10621TIP3    H131804   1.219   2.071   6.345
10621TIP3    H231805   1.137   2.055   6.472
10622TIP3   OH231806   2.143   0.952   5.997
10622TIP3    H131807   2.189   0.962   5.914
10622TIP3    H231808   2.051   0.945   5.972
10623TIP3   OH231809   6.080   2.929   1.214
10623TIP3    H131810   6.021   3.000   1.242
10623TIP3    H231811   6.159   2.974   1.185
10624TIP3   OH231812   2.419   1.555   4.997
10624TIP3    H131813   2.490   1.586   4.942
10624TIP3    H231814   2.416   1.461   4.982
10625TIP3   OH231815   4.007   3.583   1.443
10625TIP3    H131816   4.018   3.544   1.356
10625TIP3    H231817   4.081   3.643   1.452
10626TIP3   OH231818   1.719   1.873   0.914
10626TIP3    H131819   1.801   1.853   0.869
10626TIP3    H231820   1.702   1.797   0.969
10627TIP3   OH231821   7.467   4.241   3.135
10627TIP3    H131822   7.495   4.262   3.047
10627TIP3    H231823   7.547   4.217   3.181
10628TIP3   OH231824   5.787   4.417   4.228
10628TIP3    H131825   5.760   4.507   4.206
10628TIP3    H231826   5.871   4.427   4.272
10629TIP3   OH231827   5.044   5.987   0.066
10629TIP3    H131828   5.077   5.973   0.155
10629TIP3    H231829   4.951   5.964   0.071
10630TIP3   OH231830   3.338   3.846   4.254
10630TIP3    H131831   3.261   3.865   4.307
10630TIP3    H231832   3.403   3.911   4.281
10631TIP3   OH231833   3.623   4.605   5.410
10631TIP3    H131834   3.644   4.538   5.345
10631TIP3    H231835   3.682   4.587   5.483
10632TIP3   OH231836   7.380   0.794   6.108
10632TIP3    H131837   7.360   0.719   6.164
10632TIP3    H231838   7.475   0.796   6.104
10633TIP3   OH231839   1.827   2.409   3.185
10633TIP3    H131840   1.761   2.340   3.191
10633TIP3    H231841   1.854   2.423   3.275
10634TIP3   OH231842   7.584   1.173   0.495
10634TIP3    H131843   7.518   1.112   0.529
10634TIP3    H231844   7.537   1.255   0.483
10635TIP3   OH231845   3.265   6.990   0.085
10635TIP3    H131846   3.357   6.962   0.090
10635TIP3    H231847   3.249   7.035   0.168
10636TIP3   OH231848   2.448   7.888   3.045
10636TIP3    H131849   2.497   7.808   3.061
10636TIP3    H231850   2.487   7.925   2.966
10637TIP3   OH231851   5.211   0.518   3.415
10637TIP3    H131852   5.259   0.505   3.497
10637TIP3    H231853   5.259   0.466   3.350
10638TIP3   OH231854   1.857   6.176   3.560
10638TIP3    H131855   1.846   6.081   3.561
10638TIP3    H231856   1.919   6.194   3.631
10639TIP3   OH231857   1.499   1.359   5.483
10639TIP3    H131858   1.495   1.414   5.561
10639TIP3    H231859   1.584   1.316   5.488
10640TIP3   OH231860   3.059   4.750   2.289
10640TIP3    H131861   3.117   4.796   2.229
10640TIP3    H231862   3.011   4.819   2.334
10641TIP3   OH231863   5.881   5.547   6.680
10641TIP3    H131864   5.856   5.638   6.664
10641TIP3    H231865   5.921   5.518   6.598
10642TIP3   OH231866   0.875   6.835   0.699
10642TIP3    H131867   0.876   6.781   0.778
10642TIP3    H231868   0.954   6.889   0.705
10643TIP3   OH231869   5.224   0.968   4.199
10643TIP3    H131870   5.293   0.902   4.200
10643TIP3    H231871   5.269   1.049   4.176
10644TIP3   OH231872   2.687   4.837   1.720
10644TIP3    H131873   2.699   4.771   1.652
10644TIP3    H231874   2.594   4.859   1.717
10645TIP3   OH231875   1.859   3.346   2.586
10645TIP3    H131876   1.792   3.307   2.642
10645TIP3    H231877   1.935   3.354   2.643
10646TIP3   OH231878   3.693   4.348   3.393
10646TIP3    H131879   3.683   4.437   3.359
10646TIP3    H231880   3.787   4.340   3.411
10647TIP3   OH231881   3.417   0.553   0.808
10647TIP3    H131882   3.446   0.497   0.736
10647TIP3    H231883   3.322   0.559   0.797
10648TIP3   OH231884   1.757   0.355   3.939
10648TIP3    H131885   1.756   0.447   3.913
10648TIP3    H231886   1.843   0.323   3.913
10649TIP3   OH231887   1.761   4.459   6.120
10649TIP3    H131888   1.702   4.527   6.087
10649TIP3    H231889   1.848   4.492   6.101
10650TIP3   OH231890   0.176   0.213   1.866
10650TIP3    H131891   0.113   0.281   1.890
10650TIP3    H231892   0.130   0.160   1.800
10651TIP3   OH231893   7.688   6.055   2.711
10651TIP3    H131894   7.773   6.055   2.756
10651TIP3    H231895   7.689   6.133   2.657
10652TIP3   OH231896   4.885   1.367   0.600
10652TIP3    H131897   4.798   1.406   0.593
10652TIP3    H231898   4.889   1.304   0.528
10653TIP3   OH231899   6.833   0.041   2.714
10653TIP3    H131900   6.830   0.137   2.721
10653TIP3    H231901   6.888   0.014   2.787
10654TIP3   OH231902   4.203   1.530   4.647
10654TIP3    H131903   4.122   1.523   4.596
10654TIP3    H231904   4.265   1.473   4.602
10655TIP3   OH231905   4.757   4.046   1.432
10655TIP3    H131906   4.714   3.964   1.457
10655TIP3    H231907   4.686   4.111   1.432
10656TIP3   OH231908   1.729   7.905   4.544
10656TIP3    H131909   1.789   7.978   4.556
10656TIP3    H231910   1.755   7.842   4.611
10657TIP3   OH231911   5.492   0.009   1.879
10657TIP3    H131912   5.496   0.071   1.806
10657TIP3    H231913   5.493   0.065   1.957
10658TIP3   OH231914   4.059   4.250   6.079
10658TIP3    H131915   4.106   4.185   6.131
10658TIP3    H231916   3.969   4.216   6.073
10659TIP3   OH231917   6.798   2.712   1.571
10659TIP3    H131918   6.819   2.785   1.629
10659TIP3    H231919   6.705   2.695   1.587
10660TIP3   OH231920   1.388   7.883   1.672
10660TIP3    H131921   1.441   7.905   1.748
10660TIP3    H231922   1.373   7.967   1.628
10661TIP3   OH231923   3.253   5.627   0.064
10661TIP3    H131924   3.270   5.610   0.156
10661TIP3    H231925   3.158   5.642   0.060
10662TIP3   OH231926   5.582   6.173   5.623
10662TIP3    H131927   5.502   6.207   5.584
10662TIP3    H231928   5.551   6.104   5.683
10663TIP3   OH231929   0.762   3.582   3.928
10663TIP3    H131930   0.822   3.634   3.982
10663TIP3    H231931   0.757   3.630   3.846
10664TIP3   OH231932   1.090   3.538   5.633
10664TIP3    H131933   1.174   3.495   5.618
10664TIP3    H231934   1.031   3.498   5.568
10665TIP3   OH231935   2.920   5.462   6.580
10665TIP3    H131936   2.861   5.406   6.631
10665TIP3    H231937   2.882   5.462   6.492
10666TIP3   OH231938   7.629   3.009   3.314
10666TIP3    H131939   7.650   3.060   3.393
10666TIP3    H231940   7.573   2.938   3.346
10667TIP3   OH231941   0.677   5.223   6.616
10667TIP3    H131942   0.629   5.246   6.696
10667TIP3    H231943   0.747   5.289   6.611
10668TIP3   OH231944   5.938   2.407   0.624
10668TIP3    H131945   5.973   2.445   0.544
10668TIP3    H231946   5.869   2.347   0.594
10669TIP3   OH231947   7.958   2.133   0.146
10669TIP3    H131948   7.885   2.090   0.191
10669TIP3    H231949   7.922   2.159   0.061
10670TIP3   OH231950   2.771   7.740   0.456
10670TIP3    H131951   2.855   7.771   0.489
10670TIP3    H231952   2.788   7.651   0.425
10671TIP3   OH231953   0.414   4.954   0.199
10671TIP3    H131954   0.371   4.921   0.119
10671TIP3    H231955   0.341   4.983   0.254
10672TIP3   OH231956   8.112   0.823   6.509
10672TIP3    H131957   8.116   0.734   6.472
10672TIP3    H231958   8.187   0.828   6.568
10673TIP3   OH231959   5.570   7.215   0.962
10673TIP3    H131960   5.560   7.153   0.889
10673TIP3    H231961   5.631   7.281   0.929
10674TIP3   OH231962   7.508   7.355   6.439
10674TIP3    H131963   7.451   7.332   6.366
10674TIP3    H231964   7.542   7.271   6.470
10675TIP3   OH231965   7.214   7.643   5.635
10675TIP3    H131966   7.272   7.671   5.565
10675TIP3    H231967   7.170   7.565   5.600
10676TIP3   OH231968   8.030   2.602   2.771
10676TIP3    H131969   8.010   2.682   2.821
10676TIP3    H231970   7.966   2.538   2.802
10677TIP3   OH231971   7.445   3.943   3.722
10677TIP3    H131972   7.527   3.928   3.675
10677TIP3    H231973   7.468   3.934   3.814
10678TIP3   OH231974   2.625   2.996   3.654
10678TIP3    H131975   2.691   2.999   3.723
10678TIP3    H231976   2.669   2.958   3.579
10679TIP3   OH231977   2.460   7.483   3.054
10679TIP3    H131978   2.516   7.556   3.029
10679TIP3    H231979   2.371   7.518   3.048
10680TIP3   OH231980   8.213   7.066   6.851
10680TIP3    H131981   8.289   7.069   6.909
10680TIP3    H231982   8.229   6.990   6.794
10681TIP3   OH231983   2.878   4.471   1.707
10681TIP3    H131984   2.927   4.552   1.697
10681TIP3    H231985   2.858   4.466   1.800
10682TIP3   OH231986   2.888   2.717   2.841
10682TIP3    H131987   2.873   2.633   2.884
10682TIP3    H231988   2.953   2.760   2.896
10683TIP3   OH231989   7.366   6.975   5.054
10683TIP3    H131990   7.453   7.013   5.069
10683TIP3    H231991   7.322   7.039   4.998
10684TIP3   OH231992   6.919   2.413   2.784
10684TIP3    H131993   6.847   2.373   2.832
10684TIP3    H231994   6.889   2.419   2.694
10685TIP3   OH231995   6.895   0.771   3.747
10685TIP3    H131996   6.835   0.760   3.673
10685TIP3    H231997   6.895   0.865   3.764
10686TIP3   OH231998   6.293   4.300   4.340
10686TIP3    H131999   6.208   4.333   4.368
10686TIP3    H232000   6.304   4.333   4.251
10687TIP3   OH232001   1.724   5.580   1.997
10687TIP3    H132002   1.760   5.605   2.082
10687TIP3    H232003   1.639   5.624   1.994
10688TIP3   OH232004   6.385   6.918   0.231
10688TIP3    H132005   6.426   6.943   0.314
10688TIP3    H232006   6.318   6.984   0.216
10689TIP3   OH232007   7.598   6.421   1.347
10689TIP3    H132008   7.637   6.335   1.334
10689TIP3    H232009   7.552   6.414   1.430
10690TIP3   OH232010   2.194   6.141   1.202
10690TIP3    H132011   2.180   6.184   1.117
10690TIP3    H232012   2.284   6.162   1.225
10691TIP3   OH232013   5.131   7.254   1.882
10691TIP3    H132014   5.134   7.308   1.961
10691TIP3    H232015   5.042   7.219   1.880
10692TIP3   OH232016   7.773   7.019   2.091
10692TIP3    H132017   7.866   7.041   2.078
10692TIP3    H232018   7.753   7.051   2.179
10693TIP3   OH232019   6.232   1.176   0.063
10693TIP3    H132020   6.237   1.270   0.079
10693TIP3    H232021   6.140   1.154   0.078
10694TIP3   OH232022   7.022   3.706   0.698
10694TIP3    H132023   7.049   3.702   0.607
10694TIP3    H232024   6.927   3.719   0.695
10695TIP3   OH232025   1.621   5.009   6.109
10695TIP3    H132026   1.703   4.959   6.111
10695TIP3    H232027   1.559   4.954   6.157
10696TIP3   OH232028   0.366   7.169   6.566
10696TIP3    H132029   0.329   7.088   6.531
10696TIP3    H232030   0.405   7.144   6.650
10697TIP3   OH232031   0.294   1.067   4.567
10697TIP3    H132032   0.225   1.002   4.578
10697TIP3    H232033   0.308   1.071   4.472
10698TIP3   OH232034   2.310   5.928   6.593
10698TIP3    H132035   2.358   5.888   6.520
10698TIP3    H232036   2.319   5.864   6.664
10699TIP3   OH232037   5.895   1.743   6.353
10699TIP3    H132038   5.860   1.657   6.378
10699TIP3    H232039   5.959   1.763   6.421
10700TIP3   OH232040   8.122   4.795   2.319
10700TIP3    H132041   8.183   4.744   2.372
10700TIP3    H232042   8.139   4.767   2.229
10701TIP3   OH232043   1.450   4.542   4.065
10701TIP3    H132044   1.439   4.463   4.119
10701TIP3    H232045   1.389   4.605   4.103
10702TIP3   OH232046   2.863   1.183   2.630
10702TIP3    H132047   2.832   1.102   2.590
10702TIP3    H232048   2.814   1.190   2.712
10703TIP3   OH232049   6.505   6.842   4.406
10703TIP3    H132050   6.510   6.759   4.453
10703TIP3    H232051   6.450   6.822   4.329
10704TIP3   OH232052   8.246   3.217   3.602
10704TIP3    H132053   8.185   3.288   3.582
10704TIP3    H232054   8.227   3.194   3.693
10705TIP3   OH232055   2.931   7.646   6.432
10705TIP3    H132056   2.865   7.712   6.410
10705TIP3    H232057   3.006   7.697   6.464
10706TIP3   OH232058   6.270   0.366   5.567
10706TIP3    H132059   6.246   0.459   5.573
10706TIP3    H232060   6.361   0.366   5.537
10707TIP3   OH232061   7.778   0.967   5.958
10707TIP3    H132062   7.767   0.942   5.866
10707TIP3    H232063   7.872   0.983   5.967
10708TIP3   OH232064   2.488   1.987   6.148
10708TIP3    H132065   2.433   1.959   6.075
10708TIP3    H232066   2.432   1.979   6.225
10709TIP3   OH232067   5.506   1.061   0.413
10709TIP3    H132068   5.432   1.121   0.426
10709TIP3    H232069   5.536   1.040   0.501
10710TIP3   OH232070   1.669   4.792   2.077
10710TIP3    H132071   1.703   4.881   2.065
10710TIP3    H232072   1.746   4.736   2.074
10711TIP3   OH232073   7.837   1.161   5.475
10711TIP3    H132074   7.793   1.244   5.459
10711TIP3    H232075   7.794   1.125   5.553
10712TIP3   OH232076   0.901   0.104   0.223
10712TIP3    H132077   0.939   0.175   0.275
10712TIP3    H232078   0.961   0.094   0.149
10713TIP3   OH232079   7.862   7.684   4.497
10713TIP3    H132080   7.811   7.643   4.427
10713TIP3    H232081   7.801   7.689   4.571
10714TIP3   OH232082   3.235   3.115   4.369
10714TIP3    H132083   3.301   3.056   4.405
10714TIP3    H232084   3.278   3.201   4.368
10715TIP3   OH232085   0.773   5.716   2.054
10715TIP3    H132086   0.821   5.686   2.131
10715TIP3    H232087   0.841   5.745   1.993
10716TIP3   OH232088   6.485   5.440   3.823
10716TIP3    H132089   6.506   5.492   3.901
10716TIP3    H232090   6.480   5.350   3.855
10717TIP3   OH232091   7.523   7.811   4.009
10717TIP3    H132092   7.430   7.789   4.014
10717TIP3    H232093   7.566   7.729   3.985
10718TIP3   OH232094   4.462   5.774   4.380
10718TIP3    H132095   4.419   5.758   4.296
10718TIP3    H232096   4.531   5.837   4.360
10719TIP3   OH232097   0.527   0.983   2.258
10719TIP3    H132098   0.549   0.940   2.175
10719TIP3    H232099   0.517   1.075   2.236
10720TIP3   OH232100   3.864   1.019   3.814
10720TIP3    H132101   3.920   0.941   3.820
10720TIP3    H232102   3.818   1.022   3.898
10721TIP3   OH232103   6.694   7.541   2.266
10721TIP3    H132104   6.727   7.491   2.342
10721TIP3    H232105   6.755   7.521   2.196
10722TIP3   OH232106   4.058   7.723   5.621
10722TIP3    H132107   4.038   7.749   5.531
10722TIP3    H232108   3.972   7.709   5.661
10723TIP3   OH232109   4.418   5.580   4.569
10723TIP3    H132110   4.481   5.585   4.641
10723TIP3    H232111   4.457   5.632   4.499
10724TIP3   OH232112   6.499   7.038   5.088
10724TIP3    H132113   6.403   7.031   5.094
10724TIP3    H232114   6.532   6.982   5.158
10725TIP3   OH232115   3.541   5.478   4.110
10725TIP3    H132116   3.522   5.534   4.036
10725TIP3    H232117   3.469   5.492   4.171
10726TIP3   OH232118   5.434   5.803   3.525
10726TIP3    H132119   5.443   5.896   3.545
10726TIP3    H232120   5.356   5.776   3.574
10727TIP3   OH232121   2.622   0.773   1.291
10727TIP3    H132122   2.691   0.713   1.317
10727TIP3    H232123   2.554   0.717   1.252
10728TIP3   OH232124   3.989   3.131   0.889
10728TIP3    H132125   4.055   3.194   0.860
10728TIP3    H232126   3.925   3.184   0.937
10729TIP3   OH232127   8.037   5.724   5.334
10729TIP3    H132128   7.984   5.648   5.309
10729TIP3    H232129   8.066   5.761   5.251
10730TIP3   OH232130   4.961   0.885   1.854
10730TIP3    H132131   4.974   0.847   1.767
10730TIP3    H232132   4.888   0.945   1.843
10731TIP3   OH232133   2.723   3.913   4.840
10731TIP3    H132134   2.757   3.949   4.758
10731TIP3    H232135   2.667   3.840   4.812
10732TIP3   OH232136   6.288   1.915   3.492
10732TIP3    H132137   6.279   1.864   3.573
10732TIP3    H232138   6.259   1.856   3.423
10733TIP3   OH232139   4.052   4.952   1.605
10733TIP3    H132140   4.001   5.029   1.631
10733TIP3    H232141   4.106   4.982   1.532
10734TIP3   OH232142   1.666   4.001   1.648
10734TIP3    H132143   1.721   3.932   1.612
10734TIP3    H232144   1.579   3.962   1.654
10735TIP3   OH232145   4.005   2.411   3.425
10735TIP3    H132146   3.959   2.477   3.477
10735TIP3    H232147   4.096   2.438   3.428
10736TIP3   OH232148   4.936   4.676   0.136
10736TIP3    H132149   4.947   4.704   0.045
10736TIP3    H232150   5.000   4.605   0.147
10737TIP3   OH232151   3.124   0.954   6.683
10737TIP3    H132152   3.171   1.029   6.721
10737TIP3    H232153   3.055   0.994   6.630
10738TIP3   OH232154   1.885   7.851   4.320
10738TIP3    H132155   1.901   7.758   4.333
10738TIP3    H232156   1.831   7.877   4.395
10739TIP3   OH232157   4.461   2.197   0.820
10739TIP3    H132158   4.376   2.155   0.829
10739TIP3    H232159   4.495   2.205   0.909
10740TIP3   OH232160   4.883   6.571   4.465
10740TIP3    H132161   4.912   6.530   4.383
10740TIP3    H232162   4.788   6.564   4.463
10741TIP3   OH232163   0.180   2.705   4.562
10741TIP3    H132164   0.143   2.626   4.601
10741TIP3    H232165   0.273   2.702   4.585
10742TIP3   OH232166   3.979   7.162   3.225
10742TIP3    H132167   4.074   7.175   3.225
10742TIP3    H232168   3.959   7.120   3.142
10743TIP3   OH232169   3.995   2.088   2.655
10743TIP3    H132170   3.992   2.156   2.723
10743TIP3    H232171   4.085   2.054   2.659
10744TIP3   OH232172   4.507   1.682   3.324
10744TIP3    H132173   4.579   1.621   3.307
10744TIP3    H232174   4.488   1.672   3.417
10745TIP3   OH232175   2.010   5.229   6.302
10745TIP3    H132176   2.040   5.138   6.304
10745TIP3    H232177   2.018   5.255   6.210
10746TIP3   OH232178   2.081   4.173   2.467
10746TIP3    H132179   2.157   4.227   2.447
10746TIP3    H232180   2.092   4.149   2.559
10747TIP3   OH232181   6.661   3.000   2.506
10747TIP3    H132182   6.629   3.074   2.557
10747TIP3    H232183   6.738   3.034   2.461
10748TIP3   OH232184   2.617   7.009   1.382
10748TIP3    H132185   2.566   7.089   1.386
10748TIP3    H232186   2.554   6.942   1.354
10749TIP3   OH232187   2.479   5.592   3.649
10749TIP3    H132188   2.570   5.618   3.631
10749TIP3    H232189   2.487   5.519   3.710
10750TIP3   OH232190   7.412   7.926   1.089
10750TIP3    H132191   7.324   7.959   1.106
10750TIP3    H232192   7.398   7.837   1.056
10751TIP3   OH232193   8.102   1.171   4.295
10751TIP3    H132194   8.092   1.248   4.239
10751TIP3    H232195   8.017   1.162   4.338
10752TIP3   OH232196   3.838   1.006   6.651
10752TIP3    H132197   3.816   1.031   6.741
10752TIP3    H232198   3.779   0.933   6.632
10753TIP3   OH232199   6.529   3.212   2.611
10753TIP3    H132200   6.545   3.306   2.605
10753TIP3    H232201   6.483   3.201   2.694
10754TIP3   OH232202   1.798   3.690   4.306
10754TIP3    H132203   1.870   3.662   4.363
10754TIP3    H232204   1.763   3.608   4.270
10755TIP3   OH232205   8.112   2.112   6.209
10755TIP3    H132206   8.124   2.147   6.298
10755TIP3    H232207   8.019   2.124   6.192
10756TIP3   OH232208   2.976   6.182   0.198
10756TIP3    H132209   3.001   6.274   0.190
10756TIP3    H232210   2.884   6.179   0.171
10757TIP3   OH232211   5.984   1.461   2.734
10757TIP3    H132212   5.966   1.368   2.745
10757TIP3    H232213   6.005   1.492   2.822
10758TIP3   OH232214   5.932   6.995   1.334
10758TIP3    H132215   5.893   7.078   1.305
10758TIP3    H232216   6.008   6.984   1.277
10759TIP3   OH232217   7.925   2.796   3.519
10759TIP3    H132218   7.962   2.803   3.431
10759TIP3    H232219   8.002   2.793   3.577
10760TIP3   OH232220   0.825   5.146   5.716
10760TIP3    H132221   0.885   5.221   5.717
10760TIP3    H232222   0.826   5.114   5.806
10761TIP3   OH232223   5.062   3.967   4.998
10761TIP3    H132224   5.068   3.927   5.085
10761TIP3    H232225   5.084   4.059   5.012
10762TIP3   OH232226   5.141   2.076   2.202
10762TIP3    H132227   5.079   2.076   2.275
10762TIP3    H232228   5.099   2.128   2.134
10763TIP3   OH232229   2.048   2.383   5.776
10763TIP3    H132230   2.040   2.348   5.865
10763TIP3    H232231   2.112   2.326   5.734
10764TIP3   OH232232   8.183   1.520   0.952
10764TIP3    H132233   8.131   1.591   0.913
10764TIP3    H232234   8.257   1.509   0.893
10765TIP3   OH232235   4.283   1.934   3.624
10765TIP3    H132236   4.221   1.935   3.552
10765TIP3    H232237   4.345   1.864   3.601
10766TIP3   OH232238   2.475   3.342   3.027
10766TIP3    H132239   2.450   3.258   3.067
10766TIP3    H232240   2.398   3.397   3.038
10767TIP3   OH232241   2.322   3.291   2.062
10767TIP3    H132242   2.385   3.258   1.997
10767TIP3    H232243   2.266   3.351   2.013
10768TIP3   OH232244   8.104   6.284   6.484
10768TIP3    H132245   8.026   6.240   6.516
10768TIP3    H232246   8.174   6.219   6.491
10769TIP3   OH232247   2.888   5.707   5.301
10769TIP3    H132248   2.957   5.713   5.235
10769TIP3    H232249   2.863   5.798   5.317
10770TIP3   OH232250   5.005   0.813   5.762
10770TIP3    H132251   5.091   0.793   5.799
10770TIP3    H232252   5.017   0.896   5.717
10771TIP3   OH232253   7.349   7.774   3.379
10771TIP3    H132254   7.267   7.751   3.423
10771TIP3    H232255   7.395   7.690   3.370
10772TIP3   OH232256   8.200   7.002   2.324
10772TIP3    H132257   8.215   6.908   2.313
10772TIP3    H232258   8.266   7.030   2.387
10773TIP3   OH232259   4.514   2.473   3.871
10773TIP3    H132260   4.546   2.526   3.797
10773TIP3    H232261   4.418   2.482   3.867
10774TIP3   OH232262   5.052   4.584   2.070
10774TIP3    H132263   5.008   4.657   2.115
10774TIP3    H232264   5.023   4.506   2.117
10775TIP3   OH232265   6.343   3.124   3.915
10775TIP3    H132266   6.273   3.077   3.962
10775TIP3    H232267   6.300   3.157   3.836
10776TIP3   OH232268   0.672   4.815   4.186
10776TIP3    H132269   0.633   4.865   4.258
10776TIP3    H232270   0.764   4.805   4.210
10777TIP3   OH232271   4.460   1.688   5.858
10777TIP3    H132272   4.413   1.669   5.939
10777TIP3    H232273   4.394   1.726   5.800
10778TIP3   OH232274   0.710   0.452   4.819
10778TIP3    H132275   0.677   0.394   4.888
10778TIP3    H232276   0.657   0.531   4.826
10779TIP3   OH232277   2.120   0.754   2.451
10779TIP3    H132278   2.099   0.848   2.448
10779TIP3    H232279   2.215   0.751   2.444
10780TIP3   OH232280   4.035   2.959   1.629
10780TIP3    H132281   4.022   2.919   1.715
10780TIP3    H232282   4.001   3.048   1.638
10781TIP3   OH232283   6.392   5.758   3.355
10781TIP3    H132284   6.373   5.713   3.437
10781TIP3    H232285   6.448   5.697   3.306
10782TIP3   OH232286   2.600   4.564   3.430
10782TIP3    H132287   2.528   4.563   3.494
10782TIP3    H232288   2.595   4.651   3.391
10783TIP3   OH232289   7.692   0.596   2.506
10783TIP3    H132290   7.662   0.521   2.558
10783TIP3    H232291   7.759   0.637   2.561
10784TIP3   OH232292   0.740   7.354   4.153
10784TIP3    H132293   0.804   7.318   4.091
10784TIP3    H232294   0.787   7.358   4.236
10785TIP3   OH232295   7.319   0.631   1.592
10785TIP3    H132296   7.236   0.657   1.632
10785TIP3    H232297   7.309   0.653   1.500
10786TIP3   OH232298   8.262   5.165   1.727
10786TIP3    H132299   8.283   5.212   1.647
10786TIP3    H232300   8.252   5.074   1.700
10787TIP3   OH232301   6.973   7.785   5.968
10787TIP3    H132302   7.040   7.738   5.920
10787TIP3    H232303   6.981   7.755   6.058
10788TIP3   OH232304   0.267   5.677   3.584
10788TIP3    H132305   0.188   5.630   3.610
10788TIP3    H232306   0.329   5.608   3.562
10789TIP3   OH232307   7.792   7.200   5.248
10789TIP3    H132308   7.882   7.189   5.279
10789TIP3    H232309   7.738   7.171   5.322
10790TIP3   OH232310   8.381   0.277   1.108
10790TIP3    H132311   8.436   0.338   1.059
10790TIP3    H232312   8.292   0.297   1.079
10791TIP3   OH232313   0.989   7.493   3.938
10791TIP3    H132314   1.023   7.532   3.857
10791TIP3    H232315   1.055   7.514   4.004
10792TIP3   OH232316   0.941   1.126   5.795
10792TIP3    H132317   0.868   1.095   5.848
10792TIP3    H232318   1.004   1.159   5.859
10793TIP3   OH232319   2.612   7.901   3.607
10793TIP3    H132320   2.594   7.830   3.546
10793TIP3    H232321   2.614   7.858   3.693
10794TIP3   OH232322   3.357   4.329   3.638
10794TIP3    H132323   3.375   4.313   3.731
10794TIP3    H232324   3.409   4.407   3.617
10795TIP3   OH232325   6.370   1.466   1.308
10795TIP3    H132326   6.433   1.467   1.236
10795TIP3    H232327   6.418   1.502   1.383
10796TIP3   OH232328   5.212   3.285   0.636
10796TIP3    H132329   5.296   3.318   0.669
10796TIP3    H232330   5.212   3.309   0.543
10797TIP3   OH232331   7.983   2.356   1.775
10797TIP3    H132332   8.022   2.401   1.700
10797TIP3    H232333   7.968   2.267   1.744
10798TIP3   OH232334   0.011   7.181   1.639
10798TIP3    H132335  -0.012   7.211   1.727
10798TIP3    H232336  -0.022   7.249   1.581
10799TIP3   OH232337   3.134   3.561   6.029
10799TIP3    H132338   3.068   3.625   6.002
10799TIP3    H232339   3.085   3.490   6.069
10800TIP3   OH232340   5.836   5.125   6.094
10800TIP3    H132341   5.877   5.118   6.181
10800TIP3    H232342   5.758   5.071   6.099
10801TIP3   OH232343   1.400   3.025   2.042
10801TIP3    H132344   1.354   3.089   1.987
10801TIP3    H232345   1.351   2.944   2.030
10802TIP3   OH232346   3.341   3.874   6.756
10802TIP3    H132347   3.326   3.791   6.802
10802TIP3    H232348   3.393   3.850   6.679
10803TIP3   OH232349   5.867   4.375   3.033
10803TIP3    H132350   5.934   4.313   3.006
10803TIP3    H232351   5.893   4.402   3.121
10804TIP3   OH232352   1.494   7.535   5.685
10804TIP3    H132353   1.502   7.441   5.670
10804TIP3    H232354   1.510   7.574   5.600
10805TIP3   OH232355   6.896   7.375   2.847
10805TIP3    H132356   6.811   7.388   2.891
10805TIP3    H232357   6.960   7.378   2.918
10806TIP3   OH232358   4.425   2.623   4.543
10806TIP3    H132359   4.356   2.560   4.524
10806TIP3    H232360   4.388   2.682   4.608
10807TIP3   OH232361   4.963   2.367   4.554
10807TIP3    H132362   4.869   2.347   4.553
10807TIP3    H232363   5.001   2.305   4.492
10808TIP3   OH232364   6.063   0.845   0.541
10808TIP3    H132365   6.020   0.796   0.610
10808TIP3    H232366   6.076   0.932   0.579
10809TIP3   OH232367   3.393   7.400   3.379
10809TIP3    H132368   3.339   7.464   3.424
10809TIP3    H232369   3.374   7.412   3.287
10810TIP3   OH232370   1.755   4.585   3.285
10810TIP3    H132371   1.746   4.617   3.195
10810TIP3    H232372   1.827   4.637   3.322
10811TIP3   OH232373   8.253   3.125   1.403
10811TIP3    H132374   8.262   3.036   1.367
10811TIP3    H232375   8.160   3.145   1.395
10812TIP3   OH232376   7.161   5.413   3.760
10812TIP3    H132377   7.066   5.406   3.747
10812TIP3    H232378   7.198   5.404   3.673
10813TIP3   OH232379   0.167   5.660   6.789
10813TIP3    H132380   0.073   5.657   6.770
10813TIP3    H232381   0.177   5.606   6.867
10814TIP3   OH232382   2.540   6.372   5.305
10814TIP3    H132383   2.570   6.462   5.296
10814TIP3    H232384   2.596   6.335   5.374
10815TIP3   OH232385   0.662   1.049   3.375
10815TIP3    H132386   0.708   1.109   3.316
10815TIP3    H232387   0.695   1.072   3.462
10816TIP3   OH232388   1.441   1.391   6.217
10816TIP3    H132389   1.412   1.304   6.188
10816TIP3    H232390   1.360   1.436   6.242
10817TIP3   OH232391   4.133   4.674   3.835
10817TIP3    H132392   4.204   4.674   3.899
10817TIP3    H232393   4.148   4.596   3.781
10818TIP3   OH232394   7.434   6.116   0.063
10818TIP3    H132395   7.457   6.115   0.156
10818TIP3    H232396   7.355   6.062   0.056
10819TIP3   OH232397   7.597   5.173   0.552
10819TIP3    H132398   7.561   5.250   0.508
10819TIP3    H232399   7.534   5.152   0.621
10820TIP3   OH232400   3.174   1.543   0.081
10820TIP3    H132401   3.146   1.558  -0.009
10820TIP3    H232402   3.208   1.628   0.110
10821TIP3   OH232403   5.321   0.434   5.143
10821TIP3    H132404   5.227   0.425   5.153
10821TIP3    H232405   5.356   0.429   5.232
10822TIP3   OH232406   1.548   6.479   2.489
10822TIP3    H132407   1.539   6.541   2.417
10822TIP3    H232408   1.494   6.515   2.559
10823TIP3   OH232409   6.229   5.430   1.165
10823TIP3    H132410   6.302   5.477   1.127
10823TIP3    H232411   6.211   5.475   1.248
10824TIP3   OH232412   1.774   3.410   6.258
10824TIP3    H132413   1.857   3.457   6.252
10824TIP3    H232414   1.714   3.461   6.203
10825TIP3   OH232415   7.092   0.317   1.428
10825TIP3    H132416   7.079   0.304   1.521
10825TIP3    H232417   7.096   0.412   1.417
10826TIP3   OH232418   6.389   5.005   1.916
10826TIP3    H132419   6.412   5.024   2.007
10826TIP3    H232420   6.299   4.972   1.921
10827TIP3   OH232421   6.010   6.986   5.856
10827TIP3    H132422   6.104   7.000   5.839
10827TIP3    H232423   5.967   7.014   5.775
10828TIP3   OH232424   4.946   7.319   5.240
10828TIP3    H132425   5.029   7.357   5.269
10828TIP3    H232426   4.945   7.231   5.278
10829TIP3   OH232427   2.723   0.715   2.524
10829TIP3    H132428   2.711   0.640   2.465
10829TIP3    H232429   2.708   0.679   2.611
10830TIP3   OH232430   1.794   2.684   5.942
10830TIP3    H132431   1.790   2.776   5.968
10830TIP3    H232432   1.761   2.636   6.017
10831TIP3   OH232433   0.738   6.316   1.279
10831TIP3    H132434   0.676   6.337   1.210
10831TIP3    H232435   0.684   6.291   1.353
10832TIP3   OH232436   6.538   1.782   4.285
10832TIP3    H132437   6.527   1.823   4.371
10832TIP3    H232438   6.460   1.807   4.236
10833TIP3   OH232439   6.861   2.747   1.126
10833TIP3    H132440   6.869   2.692   1.203
10833TIP3    H232441   6.830   2.688   1.057
10834TIP3   OH232442   4.546   7.109   2.481
10834TIP3    H132443   4.462   7.152   2.467
10834TIP3    H232444   4.527   7.037   2.541
10835TIP3   OH232445   3.012   5.982   6.487
10835TIP3    H132446   2.966   6.016   6.411
10835TIP3    H232447   2.980   6.034   6.561
10836TIP3   OH232448   3.387   6.637   3.812
10836TIP3    H132449   3.411   6.633   3.905
10836TIP3    H232450   3.393   6.546   3.782
10837TIP3   OH232451   1.876   0.687   5.979
10837TIP3    H132452   1.971   0.685   5.986
10837TIP3    H232453   1.857   0.644   5.896
10838TIP3   OH232454   8.210   6.206   2.887
10838TIP3    H132455   8.228   6.280   2.945
10838TIP3    H232456   8.150   6.150   2.937
10839TIP3   OH232457   1.299   5.502   1.107
10839TIP3    H132458   1.256   5.435   1.054
10839TIP3    H232459   1.228   5.563   1.129
10840TIP3   OH232460   1.649   2.083   5.138
10840TIP3    H132461   1.561   2.086   5.177
10840TIP3    H232462   1.642   2.016   5.069
10841TIP3   OH232463   4.507   0.726   4.018
10841TIP3    H132464   4.451   0.688   3.952
10841TIP3    H232465   4.592   0.683   4.006
10842TIP3   OH232466   5.346   1.634   4.127
10842TIP3    H132467   5.440   1.614   4.127
10842TIP3    H232468   5.308   1.568   4.070
10843TIP3   OH232469   7.361   3.033   2.728
10843TIP3    H132470   7.305   3.108   2.748
10843TIP3    H232471   7.419   3.026   2.804
10844TIP3   OH232472   1.135   0.730   6.585
10844TIP3    H132473   1.131   0.660   6.650
10844TIP3    H232474   1.225   0.761   6.589
10845TIP3   OH232475   1.035   3.534   6.250
10845TIP3    H132476   1.038   3.621   6.289
10845TIP3    H232477   1.023   3.550   6.156
10846TIP3   OH232478   6.964   1.520   4.393
10846TIP3    H132479   6.994   1.455   4.329
10846TIP3    H232480   6.872   1.536   4.370
10847TIP3   OH232481   6.360   4.600   6.416
10847TIP3    H132482   6.315   4.650   6.349
10847TIP3    H232483   6.388   4.519   6.372
10848TIP3   OH232484   3.225   6.525   4.120
10848TIP3    H132485   3.304   6.484   4.154
10848TIP3    H232486   3.167   6.452   4.098
10849TIP3   OH232487   3.683   0.762   3.522
10849TIP3    H132488   3.767   0.783   3.481
10849TIP3    H232489   3.677   0.667   3.517
10850TIP3   OH232490   2.629   2.428   3.526
10850TIP3    H132491   2.629   2.423   3.430
10850TIP3    H232492   2.592   2.514   3.545
10851TIP3   OH232493   6.801   5.855   0.101
10851TIP3    H132494   6.717   5.890   0.069
10851TIP3    H232495   6.845   5.931   0.138
10852TIP3   OH232496   5.924   2.034   3.393
10852TIP3    H132497   6.001   2.091   3.393
10852TIP3    H232498   5.861   2.079   3.337
10853TIP3   OH232499   5.992   2.419   1.271
10853TIP3    H132500   5.993   2.510   1.301
10853TIP3    H232501   5.899   2.396   1.268
10854TIP3   OH232502   1.389   6.612   0.876
10854TIP3    H132503   1.321   6.677   0.862
10854TIP3    H232504   1.412   6.621   0.969
10855TIP3   OH232505   2.889   5.802   4.506
10855TIP3    H132506   2.802   5.828   4.538
10855TIP3    H232507   2.872   5.729   4.447
10856TIP3   OH232508   1.566   6.662   2.281
10856TIP3    H132509   1.538   6.650   2.190
10856TIP3    H232510   1.576   6.757   2.291
10857TIP3   OH232511   3.746   7.305   6.226
10857TIP3    H132512   3.735   7.237   6.293
10857TIP3    H232513   3.716   7.264   6.145
10858TIP3   OH232514   1.387   2.081   3.404
10858TIP3    H132515   1.394   2.048   3.493
10858TIP3    H232516   1.297   2.113   3.397
10859TIP3   OH232517   2.677   5.128   5.381
10859TIP3    H132518   2.703   5.148   5.291
10859TIP3    H232519   2.688   5.210   5.428
10860TIP3   OH232520   5.865   3.071   5.987
10860TIP3    H132521   5.926   2.997   5.989
10860TIP3    H232522   5.871   3.111   6.073
10861TIP3   OH232523   3.507   5.507   3.294
10861TIP3    H132524   3.466   5.566   3.356
10861TIP3    H232525   3.498   5.551   3.209
10862TIP3   OH232526   6.351   4.433   0.403
10862TIP3    H132527   6.439   4.451   0.371
10862TIP3    H232528   6.314   4.520   0.421
10863TIP3   OH232529   6.380   1.959   1.546
10863TIP3    H132530   6.290   1.935   1.526
10863TIP3    H232531   6.411   1.890   1.604
10864TIP3   OH232532   5.048   4.154   6.803
10864TIP3    H132533   5.093   4.070   6.807
10864TIP3    H232534   4.960   4.136   6.836
10865TIP3   OH232535   1.874   0.965   4.881
10865TIP3    H132536   1.872   1.043   4.937
10865TIP3    H232537   1.944   0.983   4.818
10866TIP3   OH232538   1.781   6.278   3.318
10866TIP3    H132539   1.766   6.256   3.410
10866TIP3    H232540   1.865   6.237   3.297
10867TIP3   OH232541   7.530   6.329   3.201
10867TIP3    H132542   7.558   6.255   3.147
10867TIP3    H232543   7.445   6.353   3.165
10868TIP3   OH232544   2.093   1.644   4.519
10868TIP3    H132545   2.143   1.656   4.599
10868TIP3    H232546   2.080   1.733   4.485
10869TIP3   OH232547   0.267   7.348   1.725
10869TIP3    H132548   0.197   7.314   1.781
10869TIP3    H232549   0.302   7.423   1.773
10870TIP3   OH232550   0.267   1.309   0.817
10870TIP3    H132551   0.245   1.316   0.910
10870TIP3    H232552   0.251   1.217   0.795
10871TIP3   OH232553   7.794   0.618   1.616
10871TIP3    H132554   7.715   0.639   1.666
10871TIP3    H232555   7.848   0.697   1.624
10872TIP3   OH232556   3.380   3.255   5.911
10872TIP3    H132557   3.462   3.208   5.897
10872TIP3    H232558   3.404   3.330   5.966
10873TIP3   OH232559   7.119   4.983   0.115
10873TIP3    H132560   7.053   5.049   0.093
10873TIP3    H232561   7.187   5.032   0.161
10874TIP3   OH232562   0.655   6.246   0.882
10874TIP3    H132563   0.622   6.174   0.828
10874TIP3    H232564   0.658   6.211   0.971
10875TIP3   OH232565   6.505   2.101   3.275
10875TIP3    H132566   6.495   2.077   3.183
10875TIP3    H232567   6.587   2.061   3.302
10876TIP3   OH232568   8.144   5.884   4.199
10876TIP3    H132569   8.146   5.832   4.280
10876TIP3    H232570   8.054   5.917   4.195
10877TIP3   OH232571   2.826   1.304   3.879
10877TIP3    H132572   2.921   1.297   3.879
10877TIP3    H232573   2.808   1.397   3.895
10878TIP3   OH232574   7.247   3.790   6.494
10878TIP3    H132575   7.216   3.776   6.404
10878TIP3    H232576   7.167   3.810   6.543
10879TIP3   OH232577   0.541   4.848   6.203
10879TIP3    H132578   0.496   4.908   6.143
10879TIP3    H232579   0.631   4.880   6.205
10880TIP3   OH232580   5.715   6.215   1.810
10880TIP3    H132581   5.769   6.242   1.884
10880TIP3    H232582   5.646   6.161   1.849
10881TIP3   OH232583   6.168   5.949   3.872
10881TIP3    H132584   6.139   5.895   3.799
10881TIP3    H232585   6.091   5.956   3.929
10882TIP3   OH232586   8.332   1.717   6.532
10882TIP3    H132587   8.265   1.775   6.496
10882TIP3    H232588   8.284   1.655   6.587
10883TIP3   OH232589   5.522   3.353   6.334
10883TIP3    H132590   5.514   3.263   6.302
10883TIP3    H232591   5.614   3.362   6.358
10884TIP3   OH232592   1.026   5.978   3.951
10884TIP3    H132593   1.018   6.068   3.917
10884TIP3    H232594   1.021   5.923   3.873
10885TIP3   OH232595   0.871   3.646   1.639
10885TIP3    H132596   0.865   3.735   1.674
10885TIP3    H232597   0.962   3.638   1.610
10886TIP3   OH232598   0.897   5.595   0.280
10886TIP3    H132599   0.852   5.535   0.339
10886TIP3    H232600   0.953   5.539   0.227
10887TIP3   OH232601   3.149   1.366   5.688
10887TIP3    H132602   3.164   1.315   5.767
10887TIP3    H232603   3.212   1.331   5.625
10888TIP3   OH232604   6.926   1.640   6.511
10888TIP3    H132605   6.840   1.615   6.477
10888TIP3    H232606   6.906   1.702   6.582
10889TIP3   OH232607   0.982   2.505   3.548
10889TIP3    H132608   0.947   2.512   3.459
10889TIP3    H232609   0.957   2.587   3.590
10890TIP3   OH232610   5.097   1.997   2.917
10890TIP3    H132611   5.188   1.996   2.946
10890TIP3    H232612   5.056   1.924   2.963
10891TIP3   OH232613   1.625   7.643   3.777
10891TIP3    H132614   1.607   7.731   3.810
10891TIP3    H232615   1.633   7.654   3.682
10892TIP3   OH232616   5.721   0.351   1.595
10892TIP3    H132617   5.792   0.401   1.635
10892TIP3    H232618   5.693   0.405   1.521
10893TIP3   OH232619   1.567   3.094   4.842
10893TIP3    H132620   1.555   3.012   4.890
10893TIP3    H232621   1.660   3.098   4.823
10894TIP3   OH232622   2.493   6.978   6.160
10894TIP3    H132623   2.587   6.995   6.164
10894TIP3    H232624   2.481   6.927   6.080
10895TIP3   OH232625   5.989   2.868   6.394
10895TIP3    H132626   5.949   2.793   6.349
10895TIP3    H232627   6.024   2.923   6.324
10896TIP3   OH232628   1.588   6.147   5.750
10896TIP3    H132629   1.663   6.203   5.768
10896TIP3    H232630   1.581   6.092   5.828
10897TIP3   OH232631   5.798   4.507   0.111
10897TIP3    H132632   5.707   4.535   0.121
10897TIP3    H232633   5.840   4.534   0.193
10898TIP3   OH232634   3.440   1.055   0.707
10898TIP3    H132635   3.350   1.023   0.708
10898TIP3    H232636   3.491   0.981   0.741
10899TIP3   OH232637   6.230  -0.007   2.571
10899TIP3    H132638   6.157   0.027   2.622
10899TIP3    H232639   6.241   0.056   2.500
10900TIP3   OH232640   3.311   4.634   5.069
10900TIP3    H132641   3.247   4.698   5.038
10900TIP3    H232642   3.258   4.563   5.106
10901TIP3   OH232643   1.961   5.965   4.219
10901TIP3    H132644   1.953   5.892   4.157
10901TIP3    H232645   2.013   5.929   4.292
10902TIP3   OH232646   1.858   7.153   5.134
10902TIP3    H132647   1.897   7.067   5.147
10902TIP3    H232648   1.928   7.215   5.154
10903TIP3   OH232649   4.923   3.090   1.226
10903TIP3    H132650   4.848   3.121   1.176
10903TIP3    H232651   4.991   3.076   1.159
10904TIP3   OH232652   1.290   6.586   1.169
10904TIP3    H132653   1.202   6.603   1.133
10904TIP3    H232654   1.295   6.491   1.175
10905TIP3   OH232655   2.496   4.696   1.051
10905TIP3    H132656   2.487   4.737   0.965
10905TIP3    H232657   2.575   4.642   1.044
10906TIP3   OH232658   5.826   4.249   2.712
10906TIP3    H132659   5.876   4.195   2.651
10906TIP3    H232660   5.881   4.326   2.727
10907TIP3   OH232661   6.745   6.079   6.284
10907TIP3    H132662   6.736   6.062   6.190
10907TIP3    H232663   6.823   6.029   6.310
10908TIP3   OH232664   3.925   5.434   0.906
10908TIP3    H132665   3.914   5.526   0.883
10908TIP3    H232666   4.020   5.420   0.903
10909TIP3   OH232667   4.764   6.920   4.726
10909TIP3    H132668   4.675   6.893   4.703
10909TIP3    H232669   4.761   7.016   4.728
10910TIP3   OH232670   6.734   4.299   0.532
10910TIP3    H132671   6.808   4.244   0.559
10910TIP3    H232672   6.664   4.277   0.593
10911TIP3   OH232673   7.673   1.144   2.725
10911TIP3    H132674   7.662   1.082   2.653
10911TIP3    H232675   7.706   1.223   2.683
10912TIP3   OH232676   1.193   3.161   5.704
10912TIP3    H132677   1.188   3.092   5.770
10912TIP3    H232678   1.116   3.147   5.649
10913TIP3   OH232679   4.494   2.287   4.723
10913TIP3    H132680   4.526   2.238   4.799
10913TIP3    H232681   4.424   2.343   4.758
10914TIP3   OH232682   5.520   0.199   4.465
10914TIP3    H132683   5.543   0.136   4.533
10914TIP3    H232684   5.522   0.149   4.384
10915TIP3   OH232685   5.171   1.922   6.225
10915TIP3    H132686   5.162   1.854   6.158
10915TIP3    H232687   5.086   1.966   6.226
10916TIP3   OH232688   5.635   3.494   5.266
10916TIP3    H132689   5.593   3.420   5.222
10916TIP3    H232690   5.657   3.461   5.353
10917TIP3   OH232691   4.764   5.249   2.172
10917TIP3    H132692   4.786   5.157   2.191
10917TIP3    H232693   4.833   5.299   2.216
10918TIP3   OH232694   2.467   1.604   4.537
10918TIP3    H132695   2.481   1.522   4.490
10918TIP3    H232696   2.549   1.652   4.527
10919TIP3   OH232697   5.359   4.572   1.137
10919TIP3    H132698   5.421   4.620   1.193
10919TIP3    H232699   5.360   4.482   1.172
10920TIP3   OH232700   1.225   0.437  -0.040
10920TIP3    H132701   1.167   0.491   0.014
10920TIP3    H232702   1.288   0.401   0.023
10921TIP3   OH232703   5.324   5.313   1.056
10921TIP3    H132704   5.291   5.238   1.007
10921TIP3    H232705   5.408   5.335   1.016
10922TIP3   OH232706   1.260   2.847   2.751
10922TIP3    H132707   1.278   2.901   2.828
10922TIP3    H232708   1.165   2.842   2.747
10923TIP3   OH232709   2.961   0.974   5.797
10923TIP3    H132710   2.887   1.019   5.839
10923TIP3    H232711   2.927   0.941   5.715
10924TIP3   OH232712   1.683   0.918   2.261
10924TIP3    H132713   1.723   0.935   2.347
10924TIP3    H232714   1.757   0.923   2.200
10925TIP3   OH232715   1.683   6.132   1.113
10925TIP3    H132716   1.635   6.117   1.032
10925TIP3    H232717   1.674   6.226   1.129
10926TIP3   OH232718   5.436   6.866   4.730
10926TIP3    H132719   5.356   6.884   4.680
10926TIP3    H232720   5.453   6.948   4.777
10927TIP3   OH232721   4.009   5.194   2.578
10927TIP3    H132722   4.076   5.214   2.643
10927TIP3    H232723   3.956   5.274   2.573
10928TIP3   OH232724   3.930   1.322   4.980
10928TIP3    H132725   3.913   1.389   5.046
10928TIP3    H232726   3.928   1.368   4.897
10929TIP3   OH232727   2.434   2.981   5.213
10929TIP3    H132728   2.523   2.985   5.177
10929TIP3    H232729   2.394   3.063   5.185
10930TIP3   OH232730   7.229   3.976   5.936
10930TIP3    H132731   7.162   4.036   5.903
10930TIP3    H232732   7.242   3.913   5.865
10931TIP3   OH232733   7.555   7.271   2.642
10931TIP3    H132734   7.575   7.339   2.706
10931TIP3    H232735   7.632   7.266   2.585
10932TIP3   OH232736   2.362   4.137   1.170
10932TIP3    H132737   2.413   4.056   1.178
10932TIP3    H232738   2.425   4.203   1.143
10933TIP3   OH232739   3.694   2.455   5.849
10933TIP3    H132740   3.726   2.516   5.915
10933TIP3    H232741   3.771   2.407   5.820
10934TIP3   OH232742   2.576   4.548   4.883
10934TIP3    H132743   2.581   4.463   4.841
10934TIP3    H232744   2.601   4.611   4.815
10935TIP3   OH232745   2.627   5.380   4.560
10935TIP3    H132746   2.669   5.457   4.597
10935TIP3    H232747   2.680   5.306   4.591
10936TIP3   OH232748   3.834   4.029   4.865
10936TIP3    H132749   3.879   3.964   4.919
10936TIP3    H232750   3.843   4.111   4.914
10937TIP3   OH232751   6.742   6.023   2.797
10937TIP3    H132752   6.673   5.976   2.842
10937TIP3    H232753   6.773   6.088   2.861
10938TIP3   OH232754   5.666   3.919   1.126
10938TIP3    H132755   5.574   3.920   1.151
10938TIP3    H232756   5.668   3.865   1.047
10939TIP3   OH232757   5.330   7.146   1.451
10939TIP3    H132758   5.327   7.239   1.430
10939TIP3    H232759   5.345   7.143   1.546
10940TIP3   OH232760   2.072   0.694   6.442
10940TIP3    H132761   2.122   0.744   6.377
10940TIP3    H232762   2.085   0.741   6.524
10941TIP3   OH232763   1.461   2.531   1.662
10941TIP3    H132764   1.476   2.574   1.578
10941TIP3    H232765   1.487   2.596   1.727
10942TIP3   OH232766   0.923   0.737   0.638
10942TIP3    H132767   0.867   0.810   0.609
10942TIP3    H232768   0.986   0.778   0.697
10943TIP3   OH232769   7.133   4.457   5.609
10943TIP3    H132770   7.128   4.387   5.674
10943TIP3    H232771   7.085   4.425   5.533
10944TIP3   OH232772   3.938   2.281   3.814
10944TIP3    H132773   3.924   2.240   3.729
10944TIP3    H232774   3.851   2.286   3.853
10945TIP3   OH232775   5.564   0.900   3.885
10945TIP3    H132776   5.585   0.977   3.937
10945TIP3    H232777   5.537   0.935   3.800
10946TIP3   OH232778   4.478   1.947   4.437
10946TIP3    H132779   4.480   1.852   4.428
10946TIP3    H232780   4.389   1.972   4.412
10947TIP3   OH232781   7.367   7.152   5.682
10947TIP3    H132782   7.333   7.215   5.619
10947TIP3    H232783   7.444   7.194   5.720
10948TIP3   OH232784   1.332   6.041   5.228
10948TIP3    H132785   1.381   6.060   5.309
10948TIP3    H232786   1.367   6.103   5.164
10949TIP3   OH232787   6.930   1.481   2.204
10949TIP3    H132788   6.874   1.439   2.268
10949TIP3    H232789   6.920   1.575   2.221
10950TIP3   OH232790   4.996   7.258   3.968
10950TIP3    H132791   4.905   7.264   3.998
10950TIP3    H232792   5.045   7.227   4.044
10951TIP3   OH232793   5.587   6.001   3.831
10951TIP3    H132794   5.573   5.906   3.827
10951TIP3    H232795   5.616   6.017   3.920
10952TIP3   OH232796   6.305   5.637   4.517
10952TIP3    H132797   6.395   5.614   4.540
10952TIP3    H232798   6.301   5.625   4.422
10953TIP3   OH232799   5.883   0.844   6.844
10953TIP3    H132800   5.850   0.828   6.756
10953TIP3    H232801   5.805   0.850   6.898
10954TIP3   OH232802   4.825   3.737   2.373
10954TIP3    H132803   4.799   3.690   2.294
10954TIP3    H232804   4.755   3.800   2.388
10955TIP3   OH232805   0.377   3.224   3.787
10955TIP3    H132806   0.299   3.265   3.750
10955TIP3    H232807   0.447   3.244   3.724
10956TIP3   OH232808   1.159   2.506   1.742
10956TIP3    H132809   1.133   2.418   1.768
10956TIP3    H232810   1.245   2.519   1.779
10957TIP3   OH232811   7.507   7.271   3.816
10957TIP3    H132812   7.434   7.296   3.872
10957TIP3    H232813   7.469   7.211   3.752
10958TIP3   OH232814   5.310   5.768   5.539
10958TIP3    H132815   5.302   5.733   5.450
10958TIP3    H232816   5.400   5.746   5.565
10959TIP3   OH232817   0.076   7.526   4.360
10959TIP3    H132818   0.022   7.598   4.327
10959TIP3    H232819   0.159   7.567   4.384
10960TIP3   OH232820   8.110   1.944   2.106
10960TIP3    H132821   8.158   2.026   2.107
10960TIP3    H232822   8.043   1.957   2.038
10961TIP3   OH232823   7.433   6.604   6.078
10961TIP3    H132824   7.445   6.568   6.166
10961TIP3    H232825   7.339   6.609   6.067
10962TIP3   OH232826   1.515   7.427   5.368
10962TIP3    H132827   1.481   7.491   5.305
10962TIP3    H232828   1.436   7.393   5.411
10963TIP3   OH232829   7.033   5.439   4.141
10963TIP3    H132830   7.014   5.347   4.122
10963TIP3    H232831   6.969   5.487   4.088
10964TIP3   OH232832   3.799   3.060   2.171
10964TIP3    H132833   3.847   3.122   2.226
10964TIP3    H232834   3.716   3.105   2.151
10965TIP3   OH232835   3.473   7.483   3.640
10965TIP3    H132836   3.475   7.470   3.545
10965TIP3    H232837   3.421   7.410   3.673
10966TIP3   OH232838   2.772   5.308   2.910
10966TIP3    H132839   2.781   5.220   2.948
10966TIP3    H232840   2.854   5.352   2.932
10967TIP3   OH232841   2.684   6.277   2.975
10967TIP3    H132842   2.733   6.355   2.947
10967TIP3    H232843   2.706   6.267   3.067
10968TIP3   OH232844   5.692   4.167   4.186
10968TIP3    H132845   5.670   4.147   4.278
10968TIP3    H232846   5.720   4.259   4.188
10969TIP3   OH232847   1.179   3.388   3.605
10969TIP3    H132848   1.171   3.316   3.543
10969TIP3    H232849   1.196   3.346   3.690
10970TIP3   OH232850   6.849   7.144   6.834
10970TIP3    H132851   6.916   7.076   6.839
10970TIP3    H232852   6.776   7.103   6.787
10971TIP3   OH232853   7.711   6.123   3.073
10971TIP3    H132854   7.768   6.056   3.110
10971TIP3    H232855   7.763   6.204   3.076
10972TIP3   OH232856   6.361   5.360   5.179
10972TIP3    H132857   6.354   5.455   5.185
10972TIP3    H232858   6.276   5.328   5.210
10973TIP3   OH232859   3.868   6.884   0.085
10973TIP3    H132860   3.820   6.853   0.162
10973TIP3    H232861   3.888   6.804   0.036
10974TIP3   OH232862   6.776   7.779   5.726
10974TIP3    H132863   6.852   7.757   5.672
10974TIP3    H232864   6.795   7.740   5.811
10975TIP3   OH232865   3.000   0.477   5.967
10975TIP3    H132866   3.068   0.414   5.992
10975TIP3    H232867   2.930   0.463   6.032
10976TIP3   OH232868   4.183   5.091   0.889
10976TIP3    H132869   4.188   5.062   0.798
10976TIP3    H232870   4.142   5.017   0.935
10977TIP3   OH232871   3.444   3.231   3.343
10977TIP3    H132872   3.423   3.246   3.250
10977TIP3    H232873   3.525   3.181   3.341
10978TIP3   OH232874   6.817   3.095   3.510
10978TIP3    H132875   6.778   3.149   3.441
10978TIP3    H232876   6.746   3.039   3.541
10979TIP3   OH232877   6.290   7.449   3.231
10979TIP3    H132878   6.290   7.367   3.281
10979TIP3    H232879   6.301   7.517   3.296
10980TIP3   OH232880   4.686   2.396   2.775
10980TIP3    H132881   4.638   2.375   2.696
10980TIP3    H232882   4.654   2.482   2.801
10981TIP3   OH232883   3.517   6.140   3.875
10981TIP3    H132884   3.604   6.122   3.838
10981TIP3    H232885   3.520   6.103   3.963
10982TIP3   OH232886   6.099   5.817   2.958
10982TIP3    H132887   6.014   5.790   2.922
10982TIP3    H232888   6.164   5.772   2.903
10983TIP3   OH232889   1.851   3.580   3.127
10983TIP3    H132890   1.855   3.487   3.105
10983TIP3    H232891   1.785   3.586   3.195
10984TIP3   OH232892   2.947   4.851   0.431
10984TIP3    H132893   2.939   4.894   0.346
10984TIP3    H232894   3.035   4.874   0.462
10985TIP3   OH232895   2.189   0.089   5.235
10985TIP3    H132896   2.186   0.157   5.302
10985TIP3    H232897   2.122   0.026   5.261
10986TIP3   OH232898   0.144   6.276   3.839
10986TIP3    H132899   0.198   6.279   3.760
10986TIP3    H232900   0.062   6.318   3.813
10987TIP3   OH232901   3.707   2.470   1.092
10987TIP3    H132902   3.726   2.382   1.059
10987TIP3    H232903   3.783   2.523   1.067
10988TIP3   OH232904   3.548   3.891   6.223
10988TIP3    H132905   3.459   3.862   6.240
10988TIP3    H232906   3.540   3.982   6.196
10989TIP3   OH232907   4.957   6.517   0.649
10989TIP3    H132908   4.952   6.603   0.690
10989TIP3    H232909   5.027   6.472   0.696
10990TIP3   OH232910   4.006   7.367   2.321
10990TIP3    H132911   4.055   7.287   2.306
10990TIP3    H232912   3.962   7.385   2.238
10991TIP3   OH232913   3.527   2.344   1.367
10991TIP3    H132914   3.474   2.408   1.416
10991TIP3    H232915   3.605   2.332   1.420
10992TIP3   OH232916   0.116   6.070   0.183
10992TIP3    H132917   0.128   6.156   0.224
10992TIP3    H232918   0.116   6.088   0.089
10993TIP3   OH232919   4.995   7.267   3.510
10993TIP3    H132920   5.072   7.261   3.567
10993TIP3    H232921   4.982   7.360   3.496
10994TIP3   OH232922   0.957   3.741   0.472
10994TIP3    H132923   0.928   3.802   0.405
10994TIP3    H232924   0.944   3.654   0.434
10995TIP3   OH232925   7.634   5.678   3.740
10995TIP3    H132926   7.558   5.652   3.687
10995TIP3    H232927   7.606   5.757   3.786
10996TIP3   OH232928   1.268   3.392   5.103
10996TIP3    H132929   1.281   3.331   5.176
10996TIP3    H232930   1.339   3.370   5.041
10997TIP3   OH232931   6.746   1.905   6.344
10997TIP3    H132932   6.724   1.996   6.364
10997TIP3    H232933   6.729   1.858   6.426
10998TIP3   OH232934   6.296   6.712   1.204
10998TIP3    H132935   6.247   6.751   1.276
10998TIP3    H232936   6.253   6.743   1.125
10999TIP3   OH232937   5.391   7.525   2.479
10999TIP3    H132938   5.394   7.582   2.402
10999TIP3    H232939   5.398   7.585   2.553
11000TIP3   OH232940   2.920   3.810   3.568
11000TIP3    H132941   2.899   3.759   3.490
11000TIP3    H232942   2.948   3.745   3.633
11001TIP3   OH232943   0.900   3.642   3.084
11001TIP3    H132944   0.939   3.556   3.097
11001TIP3    H232945   0.840   3.654   3.157
11002TIP3   OH232946   8.271   6.169   6.191
11002TIP3    H132947   8.272   6.264   6.190
11002TIP3    H232948   8.184   6.146   6.159
11003TIP3   OH232949   1.366   1.150   6.737
11003TIP3    H132950   1.442   1.208   6.728
11003TIP3    H232951   1.303   1.183   6.674
11004TIP3   OH232952   5.805   4.150   5.988
11004TIP3    H132953   5.892   4.187   5.996
11004TIP3    H232954   5.765   4.198   5.915
11005TIP3   OH232955   2.193   3.653   4.951
11005TIP3    H132956   2.181   3.610   5.036
11005TIP3    H232957   2.273   3.705   4.962
11006TIP3   OH232958   2.884   4.122   5.721
11006TIP3    H132959   2.968   4.078   5.734
11006TIP3    H232960   2.905   4.193   5.659
11007TIP3   OH232961   3.699   4.539   2.079
11007TIP3    H132962   3.654   4.458   2.104
11007TIP3    H232963   3.671   4.603   2.144
11008TIP3   OH232964   0.498   4.840   4.617
11008TIP3    H132965   0.454   4.924   4.627
11008TIP3    H232966   0.590   4.863   4.604
11009TIP3   OH232967   4.556   3.571   4.921
11009TIP3    H132968   4.464   3.569   4.896
11009TIP3    H232969   4.602   3.532   4.846
11010TIP3   OH232970   7.272   4.988   5.523
11010TIP3    H132971   7.208   5.007   5.592
11010TIP3    H232972   7.228   5.011   5.442
11011TIP3   OH232973   1.152   0.804   0.804
11011TIP3    H132974   1.211   0.773   0.872
11011TIP3    H232975   1.182   0.893   0.785
11012TIP3   OH232976   2.097   3.018   5.093
11012TIP3    H132977   2.149   3.093   5.122
11012TIP3    H232978   2.099   3.022   4.997
11013TIP3   OH232979   4.899   5.767   6.175
11013TIP3    H132980   4.813   5.726   6.189
11013TIP3    H232981   4.962   5.701   6.204
11014TIP3   OH232982   1.896   5.041   3.183
11014TIP3    H132983   1.928   5.096   3.254
11014TIP3    H232984   1.804   5.026   3.202
11015TIP3   OH232985   5.474   1.038   6.359
11015TIP3    H132986   5.510   1.126   6.368
11015TIP3    H232987   5.431   1.039   6.274
11016TIP3   OH232988   0.154   3.702   6.529
11016TIP3    H132989   0.134   3.647   6.453
11016TIP3    H232990   0.082   3.764   6.532
11017TIP3   OH232991   6.011   2.679   5.471
11017TIP3    H132992   6.088   2.642   5.515
11017TIP3    H232993   6.014   2.642   5.383
11018TIP3   OH232994   6.161   4.856   4.913
11018TIP3    H132995   6.074   4.828   4.885
11018TIP3    H232996   6.181   4.931   4.857
11019TIP3   OH232997   6.890   5.894   4.320
11019TIP3    H132998   6.948   5.934   4.255
11019TIP3    H232999   6.804   5.892   4.278
11020TIP3   OH233000   7.747   5.016   6.539
11020TIP3    H133001   7.742   5.083   6.608
11020TIP3    H233002   7.778   4.937   6.585
11021TIP3   OH233003   2.292   5.585   1.250
11021TIP3    H133004   2.371   5.561   1.300
11021TIP3    H233005   2.220   5.569   1.311
11022TIP3   OH233006   4.038   6.476   1.809
11022TIP3    H133007   3.954   6.471   1.855
11022TIP3    H233008   4.042   6.565   1.775
11023TIP3   OH233009   1.058   3.099   4.693
11023TIP3    H133010   1.149   3.073   4.684
11023TIP3    H233011   1.059   3.170   4.758
11024TIP3   OH233012   7.195   1.731   3.156
11024TIP3    H133013   7.176   1.739   3.250
11024TIP3    H233014   7.168   1.816   3.120
11025TIP3   OH233015   6.667   3.452   4.415
11025TIP3    H133016   6.643   3.483   4.327
11025TIP3    H233017   6.687   3.360   4.404
11026TIP3   OH233018   3.489   3.249   5.424
11026TIP3    H133019   3.506   3.179   5.487
11026TIP3    H233020   3.447   3.318   5.475
11027TIP3   OH233021   2.143   5.524   2.800
11027TIP3    H133022   2.087   5.591   2.761
11027TIP3    H233023   2.230   5.542   2.766
11028TIP3   OH233024   2.876   6.425   5.751
11028TIP3    H133025   2.865   6.375   5.670
11028TIP3    H233026   2.835   6.510   5.733
11029TIP3   OH233027   5.731   6.090   0.346
11029TIP3    H133028   5.688   6.175   0.356
11029TIP3    H233029   5.670   6.027   0.384
11030TIP3   OH233030   4.580   7.177   6.718
11030TIP3    H133031   4.654   7.129   6.680
11030TIP3    H233032   4.529   7.206   6.643
11031TIP3   OH233033   4.966   0.474   1.417
11031TIP3    H133034   5.028   0.505   1.350
11031TIP3    H233035   4.989   0.525   1.495
11032TIP3   OH233036   6.313   0.141   6.643
11032TIP3    H133037   6.377   0.070   6.652
11032TIP3    H233038   6.355   0.216   6.685
11033TIP3   OH233039   6.396   1.965   6.337
11033TIP3    H133040   6.347   2.001   6.263
11033TIP3    H233041   6.453   2.036   6.365
11034TIP3   OH233042   0.060   7.658   0.643
11034TIP3    H133043   0.052   7.630   0.734
11034TIP3    H233044   0.086   7.750   0.648
11035TIP3   OH233045   3.322   1.405   3.408
11035TIP3    H133046   3.325   1.500   3.395
11035TIP3    H233047   3.407   1.374   3.377
11036TIP3   OH233048   2.504   0.338   1.827
11036TIP3    H133049   2.490   0.307   1.738
11036TIP3    H233050   2.417   0.340   1.866
11037TIP3   OH233051   4.449   2.784   4.314
11037TIP3    H133052   4.438   2.736   4.396
11037TIP3    H233053   4.507   2.729   4.262
11038TIP3   OH233054   4.779   0.398   5.150
11038TIP3    H133055   4.706   0.416   5.090
11038TIP3    H233056   4.741   0.343   5.218
11039TIP3   OH233057   2.000   5.887   2.304
11039TIP3    H133058   1.931   5.886   2.370
11039TIP3    H233059   2.047   5.969   2.319
11040TIP3   OH233060   1.493   3.594   3.631
11040TIP3    H133061   1.500   3.512   3.582
11040TIP3    H233062   1.409   3.631   3.605
11041TIP3   OH233063   3.378   5.963   0.346
11041TIP3    H133064   3.336   6.000   0.268
11041TIP3    H233065   3.472   5.968   0.327
11042TIP3   OH233066   1.437   3.499   2.499
11042TIP3    H133067   1.350   3.506   2.459
11042TIP3    H233068   1.426   3.535   2.587
11043TIP3   OH233069   6.620   4.168   1.962
11043TIP3    H133070   6.663   4.211   2.035
11043TIP3    H233071   6.656   4.080   1.960
11044TIP3   OH233072   1.733   4.142   2.064
11044TIP3    H133073   1.777   4.134   2.148
11044TIP3    H233074   1.747   4.234   2.039
11045TIP3   OH233075   7.914   0.603   2.905
11045TIP3    H133076   7.940   0.625   2.816
11045TIP3    H233077   7.984   0.637   2.960
11046TIP3   OH233078   5.756   2.185   1.378
11046TIP3    H133079   5.723   2.241   1.307
11046TIP3    H233080   5.812   2.121   1.333
11047TIP3   OH233081   6.164   4.218   4.823
11047TIP3    H133082   6.110   4.158   4.873
11047TIP3    H233083   6.228   4.163   4.779
11048TIP3   OH233084   3.437   0.112   2.386
11048TIP3    H133085   3.511   0.158   2.425
11048TIP3    H233086   3.476   0.042   2.335
11049TIP3   OH233087   4.634   5.685   1.221
11049TIP3    H133088   4.639   5.780   1.223
11049TIP3    H233089   4.633   5.663   1.128
11050TIP3   OH233090   1.117   7.492   0.953
11050TIP3    H133091   1.139   7.413   1.002
11050TIP3    H233092   1.201   7.537   0.941
11051TIP3   OH233093   4.452   2.557   0.479
11051TIP3    H133094   4.399   2.636   0.465
11051TIP3    H233095   4.529   2.588   0.526
11052TIP3   OH233096   4.425   0.648   4.883
11052TIP3    H133097   4.468   0.592   4.818
11052TIP3    H233098   4.341   0.670   4.843
11053TIP3   OH233099   0.450   7.100   0.894
11053TIP3    H133100   0.545   7.105   0.906
11053TIP3    H233101   0.413   7.160   0.958
11054TIP3   OH233102   4.722  -0.015   2.401
11054TIP3    H133103   4.737   0.057   2.341
11054TIP3    H233104   4.769   0.010   2.481
11055TIP3   OH233105   1.219   4.392   2.196
11055TIP3    H133106   1.306   4.353   2.207
11055TIP3    H233107   1.218   4.423   2.106
11056TIP3   OH233108   4.097   3.089   0.299
11056TIP3    H133109   4.175   3.077   0.246
11056TIP3    H233110   4.037   3.021   0.270
11057TIP3   OH233111   2.103   5.295   6.727
11057TIP3    H133112   2.032   5.352   6.698
11057TIP3    H233113   2.175   5.354   6.749
11058TIP3   OH233114   2.205   1.521   1.852
11058TIP3    H133115   2.216   1.538   1.759
11058TIP3    H233116   2.167   1.601   1.888
11059TIP3   OH233117   0.232   0.869   5.863
11059TIP3    H133118   0.269   0.933   5.924
11059TIP3    H233119   0.272   0.786   5.888
11060TIP3   OH233120   2.513   7.670   2.484
11060TIP3    H133121   2.421   7.646   2.494
11060TIP3    H233122   2.539   7.631   2.401
11061TIP3   OH233123   2.447   2.773   4.389
11061TIP3    H133124   2.513   2.771   4.459
11061TIP3    H233125   2.472   2.848   4.335
11062TIP3   OH233126   6.392   3.496   3.627
11062TIP3    H133127   6.421   3.536   3.545
11062TIP3    H233128   6.449   3.534   3.694
11063TIP3   OH233129   7.816   6.237   2.261
11063TIP3    H133130   7.804   6.143   2.278
11063TIP3    H233131   7.783   6.280   2.340
11064TIP3   OH233132   7.744   5.687   2.537
11064TIP3    H133133   7.789   5.608   2.568
11064TIP3    H233134   7.651   5.667   2.548
11065TIP3   OH233135   5.102   6.985   5.656
11065TIP3    H133136   5.078   6.914   5.597
11065TIP3    H233137   5.092   6.948   5.744
11066TIP3   OH233138   2.298   2.588   1.675
11066TIP3    H133139   2.277   2.509   1.625
11066TIP3    H233140   2.330   2.555   1.759
11067TIP3   OH233141   4.360   5.298   1.287
11067TIP3    H133142   4.275   5.291   1.332
11067TIP3    H233143   4.396   5.381   1.317
11068TIP3   OH233144   3.123   7.673   5.252
11068TIP3    H133145   3.084   7.748   5.206
11068TIP3    H233146   3.214   7.698   5.266
11069TIP3   OH233147   4.602   6.640   2.674
11069TIP3    H133148   4.516   6.617   2.708
11069TIP3    H233149   4.590   6.646   2.579
11070TIP3   OH233150   1.385   6.792   3.961
11070TIP3    H133151   1.345   6.870   3.922
11070TIP3    H233152   1.327   6.720   3.937
11071TIP3   OH233153   7.100   1.418   4.055
11071TIP3    H133154   7.043   1.494   4.043
11071TIP3    H233155   7.071   1.355   3.989
11072TIP3   OH233156   1.197   4.451   0.362
11072TIP3    H133157   1.103   4.460   0.380
11072TIP3    H233158   1.239   4.471   0.446
11073TIP3   OH233159   3.819   7.868   2.522
11073TIP3    H133160   3.829   7.805   2.451
11073TIP3    H233161   3.889   7.846   2.584
11074TIP3   OH233162   4.522   0.401   6.380
11074TIP3    H133163   4.488   0.484   6.347
11074TIP3    H233164   4.466   0.379   6.454
11075TIP3   OH233165   7.510   2.810   6.188
11075TIP3    H133166   7.415   2.808   6.179
11075TIP3    H233167   7.528   2.746   6.257
11076TIP3   OH233168   2.188   0.052   1.124
11076TIP3    H133169   2.144   0.044   1.040
11076TIP3    H233170   2.193  -0.038   1.157
11077TIP3   OH233171   3.363   1.960   3.150
11077TIP3    H133172   3.344   2.053   3.140
11077TIP3    H233173   3.427   1.941   3.082
11078TIP3   OH233174   2.453   3.392   3.627
11078TIP3    H133175   2.428   3.394   3.719
11078TIP3    H233176   2.379   3.431   3.581
11079TIP3   OH233177   4.762   6.781   5.424
11079TIP3    H133178   4.717   6.699   5.403
11079TIP3    H233179   4.741   6.840   5.352
11080TIP3   OH233180   8.112   5.465   5.505
11080TIP3    H133181   8.113   5.558   5.529
11080TIP3    H233182   8.199   5.450   5.467
11081TIP3   OH233183   6.227   4.204   0.530
11081TIP3    H133184   6.268   4.132   0.482
11081TIP3    H233185   6.267   4.283   0.495
11082TIP3   OH233186   4.036   5.292   4.630
11082TIP3    H133187   4.052   5.364   4.690
11082TIP3    H233188   4.114   5.288   4.575
11083TIP3   OH233189   4.163   0.043   0.740
11083TIP3    H133190   4.231   0.106   0.764
11083TIP3    H233191   4.162   0.043   0.645
11084TIP3   OH233192   4.338   1.856   3.170
11084TIP3    H133193   4.394   1.795   3.217
11084TIP3    H233194   4.288   1.900   3.238
11085TIP3   OH233195   3.942   5.856   2.457
11085TIP3    H133196   3.905   5.941   2.479
11085TIP3    H233197   3.996   5.833   2.533
11086TIP3   OH233198   7.869   5.427   0.372
11086TIP3    H133199   7.897   5.368   0.442
11086TIP3    H233200   7.847   5.369   0.300
11087TIP3   OH233201   3.603   3.882   0.284
11087TIP3    H133202   3.661   3.909   0.213
11087TIP3    H233203   3.589   3.961   0.336
11088TIP3   OH233204   8.302   0.379   6.007
11088TIP3    H133205   8.281   0.434   5.931
11088TIP3    H233206   8.398   0.374   6.007
11089TIP3   OH233207   3.828   5.405   3.198
11089TIP3    H133208   3.843   5.413   3.104
11089TIP3    H233209   3.804   5.493   3.227
11090TIP3   OH233210   1.652   1.271   1.000
11090TIP3    H133211   1.670   1.361   1.029
11090TIP3    H233212   1.730   1.247   0.949
11091TIP3   OH233213   6.546   5.921   3.161
11091TIP3    H133214   6.616   5.932   3.225
11091TIP3    H233215   6.498   5.844   3.190
11092TIP3   OH233216   3.548   1.001   4.563
11092TIP3    H133217   3.579   0.980   4.651
11092TIP3    H233218   3.459   1.033   4.575
11093TIP3   OH233219   2.572   0.133   3.852
11093TIP3    H133220   2.531   0.191   3.788
11093TIP3    H233221   2.504   0.069   3.873
11094TIP3   OH233222   6.063   0.860   5.396
11094TIP3    H133223   6.123   0.820   5.459
11094TIP3    H233224   6.095   0.950   5.386
11095TIP3   OH233225   5.600   1.764   3.408
11095TIP3    H133226   5.543   1.732   3.337
11095TIP3    H233227   5.558   1.845   3.437
11096TIP3   OH233228   7.452   0.839   4.069
11096TIP3    H133229   7.386   0.903   4.043
11096TIP3    H233230   7.493   0.811   3.987
11097TIP3   OH233231   0.093   0.470   4.119
11097TIP3    H133232   0.011   0.450   4.165
11097TIP3    H233233   0.160   0.424   4.170
11098TIP3   OH233234   1.964   3.956   2.675
11098TIP3    H133235   1.930   3.872   2.706
11098TIP3    H233236   2.048   3.935   2.636
11099TIP3   OH233237   5.526   0.692   1.546
11099TIP3    H133238   5.607   0.738   1.568
11099TIP3    H233239   5.464   0.717   1.615
11100TIP3   OH233240   1.157   2.518   0.832
11100TIP3    H133241   1.218   2.466   0.779
11100TIP3    H233242   1.103   2.564   0.769
11101TIP3   OH233243   2.399   2.225   2.842
11101TIP3    H133244   2.432   2.136   2.842
11101TIP3    H233245   2.477   2.280   2.845
11102TIP3   OH233246   1.560   1.705   2.006
11102TIP3    H133247   1.626   1.636   2.002
11102TIP3    H233248   1.494   1.679   1.942
11103TIP3   OH233249   3.316   4.289   2.598
11103TIP3    H133250   3.233   4.261   2.560
11103TIP3    H233251   3.361   4.335   2.527
11104TIP3   OH233252   3.224   3.448   3.404
11104TIP3    H133253   3.296   3.392   3.432
11104TIP3    H233254   3.234   3.455   3.310
11105TIP3   OH233255   2.275   0.134   3.449
11105TIP3    H133256   2.335   0.184   3.393
11105TIP3    H233257   2.193   0.183   3.446
11106TIP3   OH233258   8.027   2.965   3.176
11106TIP3    H133259   7.948   3.018   3.187
11106TIP3    H233260   8.093   3.027   3.146
11107TIP3   OH233261   5.171   2.971   1.492
11107TIP3    H133262   5.082   2.997   1.517
11107TIP3    H233263   5.212   3.051   1.459
11108TIP3   OH233264   1.392   3.128   6.423
11108TIP3    H133265   1.393   3.110   6.329
11108TIP3    H233266   1.300   3.131   6.446
11109TIP3   OH233267   5.693   5.907   6.651
11109TIP3    H133268   5.661   5.991   6.616
11109TIP3    H233269   5.706   5.853   6.573
11110TIP3   OH233270   6.979   1.423   2.955
11110TIP3    H133271   7.013   1.433   2.866
11110TIP3    H233272   6.954   1.511   2.981
11111TIP3   OH233273   6.788   4.633   5.561
11111TIP3    H133274   6.865   4.688   5.549
11111TIP3    H233275   6.730   4.684   5.618
11112TIP3   OH233276   6.145   5.131   1.231
11112TIP3    H133277   6.155   5.224   1.210
11112TIP3    H233278   6.105   5.130   1.318
11113TIP3   OH233279   3.972   1.109   5.589
11113TIP3    H133280   4.037   1.092   5.658
11113TIP3    H233281   4.008   1.067   5.511
11114TIP3   OH233282   3.911   6.401   4.462
11114TIP3    H133283   3.934   6.443   4.544
11114TIP3    H233284   3.943   6.460   4.394
11115TIP3   OH233285   3.711   4.204   1.245
11115TIP3    H133286   3.623   4.167   1.232
11115TIP3    H233287   3.770   4.137   1.211
11116TIP3   OH233288   2.009   1.120   2.767
11116TIP3    H133289   1.947   1.138   2.696
11116TIP3    H233290   1.958   1.071   2.832
11117TIP3   OH233291   4.887   5.961   5.472
11117TIP3    H133292   4.886   6.016   5.550
11117TIP3    H233293   4.911   5.874   5.505
11118TIP3   OH233294   1.159   5.430   3.479
11118TIP3    H133295   1.128   5.514   3.512
11118TIP3    H233296   1.089   5.400   3.421
11119TIP3   OH233297   6.126   5.844   4.386
11119TIP3    H133298   6.115   5.806   4.299
11119TIP3    H233299   6.038   5.840   4.425
11120TIP3   OH233300   2.228   3.525   3.511
11120TIP3    H133301   2.209   3.617   3.495
11120TIP3    H233302   2.242   3.488   3.424
11121TIP3   OH233303   4.416   7.367   0.906
11121TIP3    H133304   4.382   7.334   0.989
11121TIP3    H233305   4.445   7.288   0.859
11122TIP3   OH233306   4.775   2.271   1.941
11122TIP3    H133307   4.783   2.212   1.866
11122TIP3    H233308   4.753   2.356   1.903
11123TIP3   OH233309   6.775   0.950   2.671
11123TIP3    H133310   6.744   0.913   2.589
11123TIP3    H233311   6.723   0.907   2.739
11124TIP3   OH233312   4.044   6.638   1.118
11124TIP3    H133313   4.025   6.571   1.183
11124TIP3    H233314   4.138   6.631   1.102
11125TIP3   OH233315   5.099   3.748   1.073
11125TIP3    H133316   5.033   3.699   1.024
11125TIP3    H233317   5.081   3.725   1.165
11126TIP3   OH233318   0.053   3.198   5.245
11126TIP3    H133319   0.061   3.107   5.274
11126TIP3    H233320   0.074   3.195   5.152
11127TIP3   OH233321   7.057   2.213   5.246
11127TIP3    H133322   7.021   2.283   5.191
11127TIP3    H233323   6.982   2.156   5.263
11128TIP3   OH233324   5.759   0.929   1.119
11128TIP3    H133325   5.698   0.898   1.186
11128TIP3    H233326   5.783   0.850   1.071
11129TIP3   OH233327   3.768   6.185  -0.016
11129TIP3    H133328   3.716   6.263   0.005
11129TIP3    H233329   3.834   6.181   0.054
11130TIP3   OH233330   0.015   7.331   1.131
11130TIP3    H133331   0.074   7.406   1.118
11130TIP3    H233332   0.063   7.274   1.192
11131TIP3   OH233333   8.357   4.960   1.945
11131TIP3    H133334   8.420   5.006   1.889
11131TIP3    H233335   8.277   5.012   1.939
11132TIP3   OH233336   8.184   2.239   2.758
11132TIP3    H133337   8.131   2.166   2.792
11132TIP3    H233338   8.125   2.286   2.700
11133TIP3   OH233339   0.507   3.684   3.514
11133TIP3    H133340   0.493   3.678   3.419
11133TIP3    H233341   0.463   3.765   3.540
11134TIP3   OH233342   0.707   1.869   2.232
11134TIP3    H133343   0.634   1.820   2.271
11134TIP3    H233344   0.665   1.931   2.173
11135TIP3   OH233345   4.208   7.406   4.226
11135TIP3    H133346   4.125   7.424   4.269
11135TIP3    H233347   4.199   7.445   4.139
11136TIP3   OH233348   0.729   1.102   5.944
11136TIP3    H133349   0.768   1.080   6.029
11136TIP3    H233350   0.669   1.174   5.963
11137TIP3   OH233351   6.220   1.643   1.719
11137TIP3    H133352   6.141   1.628   1.771
11137TIP3    H233353   6.288   1.663   1.783
11138TIP3   OH233354   1.096   0.938   4.932
11138TIP3    H133355   1.086   0.843   4.924
11138TIP3    H233356   1.154   0.949   5.007
11139TIP3   OH233357   3.996   5.800   6.640
11139TIP3    H133358   3.992   5.720   6.692
11139TIP3    H233359   3.905   5.820   6.619
11140TIP3   OH233360   3.690   0.214   2.484
11140TIP3    H133361   3.736   0.131   2.500
11140TIP3    H233362   3.684   0.255   2.570
11141TIP3   OH233363   2.776   6.557   5.338
11141TIP3    H133364   2.837   6.608   5.393
11141TIP3    H233365   2.765   6.610   5.260
11142TIP3   OH233366   2.174   6.315   1.428
11142TIP3    H133367   2.173   6.270   1.343
11142TIP3    H233368   2.200   6.247   1.490
11143TIP3   OH233369   3.700   3.351   1.336
11143TIP3    H133370   3.621   3.296   1.334
11143TIP3    H233371   3.771   3.290   1.356
11144TIP3   OH233372   7.425   4.520   6.434
11144TIP3    H133373   7.473   4.552   6.357
11144TIP3    H233374   7.333   4.520   6.406
11145TIP3   OH233375   7.190   4.128   3.784
11145TIP3    H133376   7.190   4.054   3.724
11145TIP3    H233377   7.272   4.173   3.767
11146TIP3   OH233378   8.130   4.383   1.469
11146TIP3    H133379   8.183   4.354   1.543
11146TIP3    H233380   8.090   4.303   1.435
11147TIP3   OH233381   3.179   4.950   0.540
11147TIP3    H133382   3.141   5.015   0.481
11147TIP3    H233383   3.273   4.964   0.534
11148TIP3   OH233384   0.616   5.914   5.057
11148TIP3    H133385   0.701   5.871   5.046
11148TIP3    H233386   0.623   5.995   5.008
11149TIP3   OH233387   6.079   1.627   0.459
11149TIP3    H133388   6.102   1.716   0.488
11149TIP3    H233389   6.161   1.591   0.425
11150TIP3   OH233390   5.930   1.193   1.185
11150TIP3    H133391   5.842   1.160   1.204
11150TIP3    H233392   5.919   1.288   1.184
11151TIP3   OH233393   4.079   7.878   0.597
11151TIP3    H133394   4.158   7.902   0.548
11151TIP3    H233395   4.007   7.912   0.543
11152TIP3   OH233396   3.383   6.658   0.562
11152TIP3    H133397   3.372   6.746   0.528
11152TIP3    H233398   3.461   6.624   0.519
11153TIP3   OH233399   4.375   3.682   2.394
11153TIP3    H133400   4.424   3.610   2.433
11153TIP3    H233401   4.307   3.702   2.458
11154TIP3   OH233402   1.393   4.695   1.093
11154TIP3    H133403   1.383   4.603   1.072
11154TIP3    H233404   1.431   4.696   1.181
11155TIP3   OH233405   1.449   3.724   1.802
11155TIP3    H133406   1.429   3.737   1.894
11155TIP3    H233407   1.443   3.812   1.764
11156TIP3   OH233408   1.283   7.199   6.303
11156TIP3    H133409   1.301   7.283   6.347
11156TIP3    H233410   1.254   7.224   6.216
11157TIP3   OH233411   5.141   5.962   5.741
11157TIP3    H133412   5.213   5.918   5.696
11157TIP3    H233413   5.183   6.035   5.787
11158TIP3   OH233414   6.786   3.534   6.127
11158TIP3    H133415   6.696   3.522   6.095
11158TIP3    H233416   6.825   3.595   6.065
11159TIP3   OH233417   1.576   0.705   6.644
11159TIP3    H133418   1.544   0.720   6.733
11159TIP3    H233419   1.666   0.737   6.646
11160TIP3   OH233420   6.015   7.627   3.299
11160TIP3    H133421   6.098   7.637   3.345
11160TIP3    H233422   6.039   7.591   3.213
11161TIP3   OH233423   5.674   1.692   6.038
11161TIP3    H133424   5.725   1.764   6.001
11161TIP3    H233425   5.740   1.628   6.066
11162TIP3   OH233426   4.341   6.029   1.585
11162TIP3    H133427   4.289   6.084   1.643
11162TIP3    H233428   4.313   6.053   1.497
11163TIP3   OH233429   5.129   7.228   6.565
11163TIP3    H133430   5.184   7.155   6.535
11163TIP3    H233431   5.045   7.188   6.586
11164TIP3   OH233432   2.534   4.751   5.825
11164TIP3    H133433   2.583   4.703   5.891
11164TIP3    H233434   2.553   4.843   5.843
11165TIP3   OH233435   2.937   7.491   3.935
11165TIP3    H133436   2.938   7.479   4.030
11165TIP3    H233437   2.901   7.409   3.901
11166TIP3   OH233438   2.168   4.772   2.823
11166TIP3    H133439   2.105   4.735   2.884
11166TIP3    H233440   2.233   4.702   2.811
11167TIP3   OH233441   2.190   3.677   4.670
11167TIP3    H133442   2.197   3.657   4.763
11167TIP3    H233443   2.265   3.734   4.652
11168TIP3   OH233444   2.970   5.918   4.973
11168TIP3    H133445   3.000   5.845   5.027
11168TIP3    H233446   2.874   5.914   4.980
11169TIP3   OH233447   1.232   1.271   5.616
11169TIP3    H133448   1.181   1.266   5.535
11169TIP3    H233449   1.264   1.182   5.630
11170TIP3   OH233450   8.409   7.073   2.131
11170TIP3    H133451   8.317   7.048   2.142
11170TIP3    H233452   8.429   7.125   2.209
11171TIP3   OH233453   2.791   6.775   5.195
11171TIP3    H133454   2.781   6.727   5.113
11171TIP3    H233455   2.846   6.850   5.173
11172TIP3   OH233456   3.187   3.558   0.641
11172TIP3    H133457   3.094   3.568   0.617
11172TIP3    H233458   3.215   3.645   0.666
11173TIP3   OH233459   4.860   2.298   6.712
11173TIP3    H133460   4.835   2.270   6.624
11173TIP3    H233461   4.777   2.299   6.761
11174TIP3   OH233462   7.602   7.150   0.505
11174TIP3    H133463   7.655   7.220   0.543
11174TIP3    H233464   7.655   7.116   0.433
11175TIP3   OH233465   7.199   3.515   6.342
11175TIP3    H133466   7.120   3.538   6.390
11175TIP3    H233467   7.210   3.586   6.278
11176TIP3   OH233468   3.657   7.064  -0.026
11176TIP3    H133469   3.740   7.018  -0.012
11176TIP3    H233470   3.592   6.994  -0.035
11177TIP3   OH233471   0.795   7.799   0.314
11177TIP3    H133472   0.823   7.770   0.228
11177TIP3    H233473   0.795   7.895   0.308
11178TIP3   OH233474   6.728   4.331   0.253
11178TIP3    H133475   6.683   4.415   0.260
11178TIP3    H233476   6.728   4.295   0.341
11179TIP3   OH233477   3.231   6.542   1.126
11179TIP3    H133478   3.246   6.572   1.036
11179TIP3    H233479   3.145   6.578   1.149
11180TIP3   OH233480   1.503   4.323   2.174
11180TIP3    H133481   1.508   4.247   2.116
11180TIP3    H233482   1.543   4.294   2.256
11181TIP3   OH233483   1.449   4.863   1.539
11181TIP3    H133484   1.380   4.926   1.559
11181TIP3    H233485   1.529   4.900   1.576
11182TIP3   OH233486   0.418   3.731   2.375
11182TIP3    H133487   0.449   3.801   2.317
11182TIP3    H233488   0.386   3.663   2.315
11183TIP3   OH233489   6.983   6.333   4.833
11183TIP3    H133490   6.905   6.339   4.778
11183TIP3    H233491   6.966   6.259   4.890
11184TIP3   OH233492   6.960   3.070   3.043
11184TIP3    H133493   6.940   3.135   3.110
11184TIP3    H233494   6.882   3.015   3.038
11185TIP3   OH233495   5.494   3.426   5.993
11185TIP3    H133496   5.582   3.437   6.029
11185TIP3    H233497   5.468   3.338   6.019
11186TIP3   OH233498   2.963   6.774   4.500
11186TIP3    H133499   3.043   6.818   4.527
11186TIP3    H233500   2.985   6.733   4.416
11187TIP3   OH233501   2.171   2.120   0.693
11187TIP3    H133502   2.217   2.181   0.751
11187TIP3    H233503   2.093   2.095   0.742
11188TIP3   OH233504   8.116   5.277   2.816
11188TIP3    H133505   8.032   5.249   2.781
11188TIP3    H233506   8.161   5.195   2.838
11189TIP3   OH233507   7.460   6.361   4.920
11189TIP3    H133508   7.387   6.314   4.960
11189TIP3    H233509   7.433   6.373   4.828
11190TIP3   OH233510   0.347   2.445   3.190
11190TIP3    H133511   0.252   2.428   3.196
11190TIP3    H233512   0.376   2.447   3.281
11191TIP3   OH233513   1.789   0.374   6.804
11191TIP3    H133514   1.815   0.394   6.714
11191TIP3    H233515   1.767   0.458   6.842
11192TIP3   OH233516   4.941   5.352   2.331
11192TIP3    H133517   5.025   5.360   2.286
11192TIP3    H233518   4.944   5.417   2.400
11193TIP3   OH233519   7.389   0.846   2.356
11193TIP3    H133520   7.305   0.845   2.310
11193TIP3    H233521   7.381   0.776   2.422
11194TIP3   OH233522   7.289   5.912   0.952
11194TIP3    H133523   7.332   5.868   1.025
11194TIP3    H233524   7.286   6.004   0.978
11195TIP3   OH233525   4.945   3.173   0.576
11195TIP3    H133526   4.924   3.182   0.483
11195TIP3    H233527   5.033   3.209   0.585
11196TIP3   OH233528   1.617   4.315   5.898
11196TIP3    H133529   1.624   4.354   5.985
11196TIP3    H233530   1.706   4.314   5.864
11197TIP3   OH233531   0.325   0.763   6.420
11197TIP3    H133532   0.257   0.728   6.362
11197TIP3    H233533   0.398   0.785   6.361
11198TIP3   OH233534   1.334   7.874   2.083
11198TIP3    H133535   1.334   7.964   2.115
11198TIP3    H233536   1.256   7.835   2.122
11199TIP3   OH233537   5.473   0.415   1.027
11199TIP3    H133538   5.443   0.461   0.949
11199TIP3    H233539   5.569   0.411   1.016
11200TIP3   OH233540   7.364   4.375   1.662
11200TIP3    H133541   7.297   4.330   1.713
11200TIP3    H233542   7.318   4.446   1.618
11201TIP3   OH233543   2.618   5.432   2.712
11201TIP3    H133544   2.692   5.491   2.699
11201TIP3    H233545   2.654   5.358   2.761
11202TIP3   OH233546   5.334   2.783   5.709
11202TIP3    H133547   5.255   2.801   5.659
11202TIP3    H233548   5.391   2.858   5.692
11203TIP3   OH233549   0.763   7.026   6.782
11203TIP3    H133550   0.815   7.104   6.799
11203TIP3    H233551   0.814   6.976   6.718
11204TIP3   OH233552   1.494   4.755   3.249
11204TIP3    H133553   1.558   4.758   3.320
11204TIP3    H233554   1.442   4.677   3.267
11205TIP3   OH233555   3.852   0.212   4.648
11205TIP3    H133556   3.846   0.136   4.589
11205TIP3    H233557   3.807   0.282   4.601
11206TIP3   OH233558   3.150   5.816   3.301
11206TIP3    H133559   3.139   5.762   3.380
11206TIP3    H233560   3.209   5.886   3.328
11207TIP3   OH233561   0.011   4.029   5.505
11207TIP3    H133562  -0.076   4.051   5.537
11207TIP3    H233563   0.053   3.983   5.578
11208TIP3   OH233564   0.300   4.343   3.289
11208TIP3    H133565   0.210   4.357   3.259
11208TIP3    H233566   0.345   4.425   3.271
11209TIP3   OH233567   2.261   4.569   4.074
11209TIP3    H133568   2.302   4.498   4.124
11209TIP3    H233569   2.168   4.548   4.073
11210TIP3   OH233570   8.270   5.684   3.356
11210TIP3    H133571   8.338   5.651   3.298
11210TIP3    H233572   8.210   5.610   3.366
11211TIP3   OH233573   3.000   5.117   2.956
11211TIP3    H133574   2.939   5.090   3.024
11211TIP3    H233575   3.066   5.168   3.002
11212TIP3   OH233576   4.064   5.850   1.323
11212TIP3    H133577   4.030   5.809   1.403
11212TIP3    H233578   3.989   5.854   1.264
11213TIP3   OH233579   6.647   3.680   3.693
11213TIP3    H133580   6.660   3.700   3.600
11213TIP3    H233581   6.685   3.593   3.704
11214TIP3   OH233582   0.420   1.578   3.650
11214TIP3    H133583   0.431   1.542   3.738
11214TIP3    H233584   0.332   1.614   3.650
11215TIP3   OH233585   0.785   3.088   1.200
11215TIP3    H133586   0.772   3.135   1.117
11215TIP3    H233587   0.863   3.128   1.238
11216TIP3   OH233588   3.824   0.313   1.179
11216TIP3    H133589   3.833   0.224   1.147
11216TIP3    H233590   3.730   0.326   1.188
11217TIP3   OH233591   2.796   7.829   5.166
11217TIP3    H133592   2.840   7.851   5.083
11217TIP3    H233593   2.854   7.864   5.234
11218TIP3   OH233594   7.745   6.104   1.211
11218TIP3    H133595   7.837   6.129   1.215
11218TIP3    H233596   7.742   6.031   1.150
11219TIP3   OH233597   6.569   3.186   6.320
11219TIP3    H133598   6.606   3.098   6.320
11219TIP3    H233599   6.550   3.204   6.412
11220TIP3   OH233600   1.323   4.732   5.698
11220TIP3    H133601   1.232   4.703   5.704
11220TIP3    H233602   1.369   4.656   5.662
11221TIP3   OH233603   1.790   7.372   6.495
11221TIP3    H133604   1.786   7.462   6.527
11221TIP3    H233605   1.714   7.329   6.534
11222TIP3   OH233606   2.661   2.412   0.646
11222TIP3    H133607   2.659   2.508   0.644
11222TIP3    H233608   2.751   2.391   0.671
11223TIP3   OH233609   1.877   7.200   0.149
11223TIP3    H133610   1.849   7.122   0.102
11223TIP3    H233611   1.800   7.258   0.145
11224TIP3   OH233612   6.661   2.975   5.142
11224TIP3    H133613   6.606   3.026   5.083
11224TIP3    H233614   6.684   3.036   5.212
11225TIP3   OH233615   2.918   2.648   2.562
11225TIP3    H133616   2.945   2.670   2.651
11225TIP3    H233617   2.879   2.729   2.529
11226TIP3   OH233618   7.844   6.916   1.217
11226TIP3    H133619   7.825   6.846   1.155
11226TIP3    H233620   7.802   6.994   1.180
11227TIP3   OH233621   0.633   3.721   0.097
11227TIP3    H133622   0.610   3.645   0.150
11227TIP3    H233623   0.571   3.719   0.024
11228TIP3   OH233624   1.979   7.885   0.828
11228TIP3    H133625   1.993   7.793   0.803
11228TIP3    H233626   1.900   7.911   0.780
11229TIP3   OH233627   0.754   0.967   5.483
11229TIP3    H133628   0.748   1.010   5.398
11229TIP3    H233629   0.848   0.957   5.499
11230TIP3   OH233630   6.651   1.092   6.623
11230TIP3    H133631   6.745   1.105   6.614
11230TIP3    H233632   6.631   1.120   6.713
11231TIP3   OH233633   2.640   6.608   3.293
11231TIP3    H133634   2.718   6.651   3.330
11231TIP3    H233635   2.674   6.532   3.248
11232TIP3   OH233636   6.309   1.641   6.026
11232TIP3    H133637   6.354   1.668   6.106
11232TIP3    H233638   6.311   1.545   6.028
11233TIP3   OH233639   5.688   6.439   0.065
11233TIP3    H133640   5.643   6.476  -0.011
11233TIP3    H233641   5.773   6.410   0.032
11234TIP3   OH233642   6.214   6.667   0.108
11234TIP3    H133643   6.274   6.740   0.117
11234TIP3    H233644   6.167   6.683   0.026
11235TIP3   OH233645   4.755   7.685   0.199
11235TIP3    H133646   4.778   7.639   0.280
11235TIP3    H233647   4.836   7.683   0.147
11236TIP3   OH233648   1.797   4.805   6.207
11236TIP3    H133649   1.865   4.749   6.168
11236TIP3    H233650   1.838   4.841   6.286
11237TIP3   OH233651   7.916   6.294   3.136
11237TIP3    H133652   7.914   6.366   3.199
11237TIP3    H233653   7.966   6.225   3.179
11238TIP3   OH233654   3.749   1.265   2.927
11238TIP3    H133655   3.701   1.330   2.978
11238TIP3    H233656   3.777   1.200   2.992
11239TIP3   OH233657   5.404   4.062   4.462
11239TIP3    H133658   5.382   3.972   4.484
11239TIP3    H233659   5.465   4.090   4.531
11240TIP3   OH233660   0.604   3.899   3.847
11240TIP3    H133661   0.511   3.891   3.871
11240TIP3    H233662   0.604   3.966   3.779
11241TIP3   OH233663   2.967   6.150   2.726
11241TIP3    H133664   2.925   6.232   2.698
11241TIP3    H233665   2.922   6.127   2.807
11242TIP3   OH233666   1.884   2.849   1.076
11242TIP3    H133667   1.940   2.795   1.132
11242TIP3    H233668   1.804   2.797   1.065
11243TIP3   OH233669   3.715   1.163   4.047
11243TIP3    H133670   3.741   1.091   4.104
11243TIP3    H233671   3.635   1.197   4.087
11244TIP3   OH233672   5.137   1.020   5.959
11244TIP3    H133673   5.106   0.945   6.009
11244TIP3    H233674   5.231   1.003   5.946
11245TIP3   OH233675   2.697   6.431   1.519
11245TIP3    H133676   2.664   6.391   1.600
11245TIP3    H233677   2.732   6.516   1.548
11246TIP3   OH233678   2.713   0.828   4.623
11246TIP3    H133679   2.807   0.829   4.644
11246TIP3    H233680   2.688   0.736   4.629
11247TIP3   OH233681   2.591   7.225   0.298
11247TIP3    H133682   2.495   7.229   0.300
11247TIP3    H233683   2.618   7.280   0.372
11248TIP3   OH233684   5.993   5.002   0.290
11248TIP3    H133685   5.924   5.065   0.267
11248TIP3    H233686   6.000   4.946   0.213
11249TIP3   OH233687   4.453   1.031   2.608
11249TIP3    H133688   4.374   1.006   2.656
11249TIP3    H233689   4.524   1.021   2.672
11250TIP3   OH233690   3.256   2.166   4.681
11250TIP3    H133691   3.253   2.194   4.772
11250TIP3    H233692   3.259   2.070   4.685
11251TIP3   OH233693   1.647   6.392   1.182
11251TIP3    H133694   1.647   6.407   1.277
11251TIP3    H233695   1.660   6.479   1.145
11252TIP3   OH233696   0.645   2.611   3.223
11252TIP3    H133697   0.586   2.545   3.260
11252TIP3    H233698   0.732   2.587   3.257
11253TIP3   OH233699   6.840   4.681   0.738
11253TIP3    H133700   6.867   4.757   0.686
11253TIP3    H233701   6.809   4.617   0.674
11254TIP3   OH233702   8.283   0.131   1.437
11254TIP3    H133703   8.283   0.127   1.532
11254TIP3    H233704   8.287   0.224   1.416
11255TIP3   OH233705   6.275   2.706   6.007
11255TIP3    H133706   6.332   2.686   6.082
11255TIP3    H233707   6.333   2.748   5.944
11256TIP3   OH233708   1.762   4.963   4.701
11256TIP3    H133709   1.670   4.953   4.677
11256TIP3    H233710   1.762   4.955   4.797
11257TIP3   OH233711   1.783   5.786   1.587
11257TIP3    H133712   1.854   5.800   1.650
11257TIP3    H233713   1.722   5.857   1.604
11258TIP3   OH233714   3.363   2.912   0.839
11258TIP3    H133715   3.338   2.993   0.883
11258TIP3    H233716   3.279   2.874   0.811
11259TIP3   OH233717   3.126   1.988   1.098
11259TIP3    H133718   3.147   1.895   1.087
11259TIP3    H233719   3.198   2.022   1.151
11260TIP3   OH233720   5.288   7.265   6.206
11260TIP3    H133721   5.317   7.332   6.267
11260TIP3    H233722   5.299   7.183   6.254
11261TIP3   OH233723   5.863   1.470   0.426
11261TIP3    H133724   5.840   1.487   0.335
11261TIP3    H233725   5.933   1.532   0.446
11262TIP3   OH233726   7.657   2.433   5.287
11262TIP3    H133727   7.604   2.511   5.302
11262TIP3    H233728   7.653   2.418   5.193
11263TIP3   OH233729   5.434   6.124   2.354
11263TIP3    H133730   5.446   6.075   2.273
11263TIP3    H233731   5.391   6.205   2.327
11264TIP3   OH233732   4.075   6.883   2.440
11264TIP3    H133733   4.119   6.806   2.477
11264TIP3    H233734   4.143   6.951   2.440
11265TIP3   OH233735   1.275   7.139   1.764
11265TIP3    H133736   1.201   7.184   1.724
11265TIP3    H233737   1.352   7.186   1.733
11266TIP3   OH233738   3.615   7.381   0.501
11266TIP3    H133739   3.547   7.415   0.560
11266TIP3    H233740   3.664   7.319   0.555
11267TIP3   OH233741   5.382   4.927   0.933
11267TIP3    H133742   5.335   4.846   0.911
11267TIP3    H233743   5.317   4.980   0.979
11268TIP3   OH233744   0.198   7.928   3.500
11268TIP3    H133745   0.285   7.932   3.541
11268TIP3    H233746   0.138   7.946   3.573
11269TIP3   OH233747   7.107   4.837   4.363
11269TIP3    H133748   7.163   4.874   4.295
11269TIP3    H233749   7.117   4.897   4.437
11270TIP3   OH233750   4.821   2.717   0.090
11270TIP3    H133751   4.769   2.788   0.053
11270TIP3    H233752   4.769   2.684   0.164
11271TIP3   OH233753   7.889   1.024   0.120
11271TIP3    H133754   7.829   1.066   0.181
11271TIP3    H233755   7.890   0.932   0.148
11272TIP3   OH233756   3.932   5.503   5.584
11272TIP3    H133757   3.963   5.541   5.666
11272TIP3    H233758   3.899   5.416   5.608
11273TIP3   OH233759   2.704   1.848   1.698
11273TIP3    H133760   2.625   1.796   1.709
11273TIP3    H233761   2.706   1.905   1.775
11274TIP3   OH233762   2.805   1.595   3.876
11274TIP3    H133763   2.816   1.611   3.970
11274TIP3    H233764   2.711   1.583   3.864
11275TIP3   OH233765   1.552   0.121   3.226
11275TIP3    H133766   1.605   0.143   3.302
11275TIP3    H233767   1.554   0.199   3.172
11276TIP3   OH233768   1.207   3.552   0.360
11276TIP3    H133769   1.133   3.503   0.397
11276TIP3    H233770   1.269   3.484   0.333
11277TIP3   OH233771   1.580   0.217   1.924
11277TIP3    H133772   1.642   0.290   1.922
11277TIP3    H233773   1.516   0.242   1.990
11278TIP3   OH233774   3.766   1.685   4.635
11278TIP3    H133775   3.731   1.651   4.553
11278TIP3    H233776   3.801   1.771   4.613
11279TIP3   OH233777   0.245   3.362   0.206
11279TIP3    H133778   0.239   3.436   0.145
11279TIP3    H233779   0.300   3.299   0.161
11280TIP3   OH233780   7.882   6.741   5.169
11280TIP3    H133781   7.949   6.762   5.233
11280TIP3    H233782   7.883   6.814   5.107
11281TIP3   OH233783   0.190   1.657   2.146
11281TIP3    H133784   0.256   1.726   2.137
11281TIP3    H233785   0.108   1.698   2.121
11282TIP3   OH233786   6.875   4.711   2.705
11282TIP3    H133787   6.882   4.627   2.659
11282TIP3    H233788   6.916   4.695   2.790
11283TIP3   OH233789   4.304   0.226   4.096
11283TIP3    H133790   4.278   0.319   4.097
11283TIP3    H233791   4.285   0.197   4.007
11284TIP3   OH233792   4.941   5.784   5.894
11284TIP3    H133793   4.936   5.792   5.989
11284TIP3    H233794   5.025   5.823   5.871
11285TIP3   OH233795   2.541   3.035   3.099
11285TIP3    H133796   2.597   3.092   3.151
11285TIP3    H233797   2.571   2.946   3.121
11286TIP3   OH233798   2.361   3.771   2.073
11286TIP3    H133799   2.295   3.839   2.088
11286TIP3    H233800   2.313   3.689   2.087
11287TIP3   OH233801   8.175   3.809   1.199
11287TIP3    H133802   8.123   3.786   1.122
11287TIP3    H233803   8.265   3.789   1.174
11288TIP3   OH233804   6.658   2.716   4.695
11288TIP3    H133805   6.581   2.752   4.651
11288TIP3    H233806   6.668   2.629   4.657
11289TIP3   OH233807   7.810   5.297   3.772
11289TIP3    H133808   7.835   5.389   3.775
11289TIP3    H233809   7.873   5.256   3.713
11290TIP3   OH233810   6.013   4.135   3.020
11290TIP3    H133811   6.052   4.052   3.046
11290TIP3    H233812   6.067   4.166   2.948
11291TIP3   OH233813   8.266   4.579   5.323
11291TIP3    H133814   8.283   4.613   5.411
11291TIP3    H233815   8.318   4.635   5.265
11292TIP3   OH233816   0.666   2.032   3.279
11292TIP3    H133817   0.681   1.977   3.203
11292TIP3    H233818   0.578   2.068   3.267
11293TIP3   OH233819   0.027   7.133   4.794
11293TIP3    H133820   0.044   7.063   4.857
11293TIP3    H233821   0.072   7.106   4.714
11294TIP3   OH233822   1.062   5.671   2.466
11294TIP3    H133823   1.052   5.753   2.516
11294TIP3    H233824   1.156   5.658   2.460
11295TIP3   OH233825   3.299   3.284   5.098
11295TIP3    H133826   3.283   3.357   5.158
11295TIP3    H233827   3.352   3.321   5.028
11296TIP3   OH233828   8.085   1.230   5.636
11296TIP3    H133829   8.023   1.160   5.615
11296TIP3    H233830   8.165   1.207   5.589
11297TIP3   OH233831   7.569   3.052   5.457
11297TIP3    H133832   7.618   3.093   5.529
11297TIP3    H233833   7.514   2.986   5.500
11298TIP3   OH233834   1.205   0.214   5.756
11298TIP3    H133835   1.128   0.203   5.700
11298TIP3    H233836   1.201   0.305   5.785
11299TIP3   OH233837   2.439   1.136   4.261
11299TIP3    H133838   2.511   1.169   4.206
11299TIP3    H233839   2.482   1.089   4.332
11300TIP3   OH233840   4.271   5.832   1.082
11300TIP3    H133841   4.259   5.883   1.162
11300TIP3    H233842   4.185   5.830   1.041
11301TIP3   OH233843   2.434   3.923   5.309
11301TIP3    H133844   2.437   4.019   5.318
11301TIP3    H233845   2.501   3.903   5.244
11302TIP3   OH233846   1.971   3.517   4.829
11302TIP3    H133847   1.960   3.596   4.776
11302TIP3    H233848   2.050   3.533   4.880
11303TIP3   OH233849   4.809   7.439   0.830
11303TIP3    H133850   4.773   7.368   0.776
11303TIP3    H233851   4.734   7.494   0.851
11304TIP3   OH233852   7.910   3.784   0.670
11304TIP3    H133853   7.970   3.849   0.634
11304TIP3    H233854   7.867   3.830   0.743
11305TIP3   OH233855   0.723   0.961   1.844
11305TIP3    H133856   0.712   0.926   1.756
11305TIP3    H233857   0.663   0.909   1.898
11306TIP3   OH233858   1.589   1.125   6.452
11306TIP3    H133859   1.652   1.106   6.383
11306TIP3    H233860   1.507   1.085   6.422
11307TIP3   OH233861   0.071   1.668   4.699
11307TIP3    H133862   0.031   1.588   4.732
11307TIP3    H233863   0.006   1.736   4.717
11308TIP3   OH233864   5.534   6.504   6.262
11308TIP3    H133865   5.480   6.434   6.225
11308TIP3    H233866   5.489   6.528   6.343
11309TIP3   OH233867   0.631   1.028   2.947
11309TIP3    H133868   0.572   1.084   2.998
11309TIP3    H233869   0.597   0.940   2.960
11310TIP3   OH233870   5.467   4.815   2.840
11310TIP3    H133871   5.491   4.851   2.925
11310TIP3    H233872   5.400   4.750   2.860
11311TIP3   OH233873   3.993   4.335   2.500
11311TIP3    H133874   3.964   4.247   2.477
11311TIP3    H233875   3.925   4.393   2.467
11312TIP3   OH233876   0.392   1.589   3.952
11312TIP3    H133877   0.343   1.649   4.009
11312TIP3    H233878   0.331   1.517   3.935
11313TIP3   OH233879   2.859   3.425   1.278
11313TIP3    H133880   2.950   3.432   1.248
11313TIP3    H233881   2.863   3.445   1.372
11314TIP3   OH233882   1.009   7.760   6.192
11314TIP3    H133883   1.048   7.815   6.124
11314TIP3    H233884   0.998   7.674   6.150
11315TIP3   OH233885   4.440   3.193   1.836
11315TIP3    H133886   4.478   3.157   1.915
11315TIP3    H233887   4.362   3.140   1.820
11316TIP3   OH233888   7.036   3.997   3.411
11316TIP3    H133889   7.047   3.925   3.348
11316TIP3    H233890   7.098   3.976   3.481
11317TIP3   OH233891   5.775   7.474   2.134
11317TIP3    H133892   5.754   7.405   2.197
11317TIP3    H233893   5.790   7.552   2.187
11318TIP3   OH233894   1.046   6.817   6.919
11318TIP3    H133895   1.126   6.832   6.869
11318TIP3    H233896   0.978   6.863   6.870
11319TIP3   OH233897   3.393   7.405   2.808
11319TIP3    H133898   3.433   7.331   2.762
11319TIP3    H233899   3.304   7.410   2.773
11320TIP3   OH233900   6.964   3.259   6.566
11320TIP3    H133901   7.035   3.247   6.629
11320TIP3    H233902   6.924   3.172   6.558
11321TIP3   OH233903   7.702   3.117   1.308
11321TIP3    H133904   7.712   3.130   1.214
11321TIP3    H233905   7.648   3.190   1.337
11322TIP3   OH233906   3.246  -0.022   2.558
11322TIP3    H133907   3.246   0.033   2.636
11322TIP3    H233908   3.308   0.021   2.499
11323TIP3   OH233909   7.532   0.361   0.077
11323TIP3    H133910   7.625   0.377   0.059
11323TIP3    H233911   7.510   0.421   0.148
11324TIP3   OH233912   1.183  -0.024   6.311
11324TIP3    H133913   1.181  -0.029   6.407
11324TIP3    H233914   1.273   0.002   6.291
11325TIP3   OH233915   5.141   0.493   0.565
11325TIP3    H133916   5.137   0.411   0.517
11325TIP3    H233917   5.077   0.483   0.635
11326TIP3   OH233918   5.404   1.351   5.129
11326TIP3    H133919   5.435   1.435   5.097
11326TIP3    H233920   5.462   1.287   5.088
11327TIP3   OH233921   4.070   1.125   6.840
11327TIP3    H133922   4.025   1.193   6.788
11327TIP3    H233923   4.063   1.046   6.786
11328TIP3   OH233924   3.068   6.088   0.506
11328TIP3    H133925   3.046   6.157   0.570
11328TIP3    H233926   3.104   6.135   0.431
11329TIP3   OH233927   5.841   5.993   0.104
11329TIP3    H133928   5.894   5.915   0.121
11329TIP3    H233929   5.811   6.021   0.191
11330TIP3   OH233930   1.522   3.337   1.878
11330TIP3    H133931   1.571   3.256   1.892
11330TIP3    H233932   1.523   3.349   1.783
11331TIP3   OH233933   0.613   0.790   6.322
11331TIP3    H133934   0.665   0.767   6.399
11331TIP3    H233935   0.667   0.762   6.247
11332TIP3   OH233936   3.989   7.392   0.252
11332TIP3    H133937   4.030   7.305   0.260
11332TIP3    H233938   3.986   7.425   0.342
11333TIP3   OH233939   6.927   2.948   2.155
11333TIP3    H133940   6.997   2.922   2.095
11333TIP3    H233941   6.847   2.943   2.102
11334TIP3   OH233942   3.695   6.417   2.627
11334TIP3    H133943   3.691   6.335   2.578
11334TIP3    H233944   3.709   6.389   2.718
11335TIP3   OH233945   5.095   2.402   1.780
11335TIP3    H133946   5.189   2.408   1.767
11335TIP3    H233947   5.084   2.388   1.874
11336TIP3   OH233948   0.566   6.917   1.485
11336TIP3    H133949   0.574   6.992   1.544
11336TIP3    H233950   0.613   6.846   1.530
11337TIP3   OH233951   6.188   4.033   3.954
11337TIP3    H133952   6.155   4.025   4.043
11337TIP3    H233953   6.277   4.066   3.964
11338TIP3   OH233954   5.380   1.939   5.409
11338TIP3    H133955   5.319   2.012   5.411
11338TIP3    H233956   5.466   1.979   5.423
11339TIP3   OH233957   1.780   2.013   5.711
11339TIP3    H133958   1.822   2.084   5.759
11339TIP3    H233959   1.853   1.965   5.672
11340TIP3   OH233960   2.079   6.935   3.963
11340TIP3    H133961   2.035   7.003   4.013
11340TIP3    H233962   2.025   6.857   3.975
11341TIP3   OH233963   8.118   2.234   3.954
11341TIP3    H133964   8.114   2.139   3.968
11341TIP3    H233965   8.033   2.266   3.984
11342TIP3   OH233966   0.256   5.507   1.204
11342TIP3    H133967   0.319   5.456   1.154
11342TIP3    H233968   0.267   5.597   1.173
11343TIP3   OH233969   8.129   6.146   5.168
11343TIP3    H133970   8.144   6.200   5.090
11343TIP3    H233971   8.040   6.169   5.195
11344TIP3   OH233972   3.500   0.354   0.634
11344TIP3    H133973   3.431   0.335   0.571
11344TIP3    H233974   3.561   0.410   0.587
11345TIP3   OH233975   4.766   7.234   2.081
11345TIP3    H133976   4.828   7.192   2.141
11345TIP3    H233977   4.816   7.246   2.000
11346TIP3   OH233978   3.816   4.693   5.882
11346TIP3    H133979   3.745   4.739   5.836
11346TIP3    H233980   3.885   4.759   5.892
11347TIP3   OH233981   0.374   7.724   0.510
11347TIP3    H133982   0.431   7.649   0.525
11347TIP3    H233983   0.324   7.733   0.591
11348TIP3   OH233984   1.904   6.392   6.805
11348TIP3    H133985   1.956   6.373   6.728
11348TIP3    H233986   1.892   6.307   6.848
11349TIP3   OH233987   7.436   6.099   1.550
11349TIP3    H133988   7.468   6.145   1.628
11349TIP3    H233989   7.351   6.139   1.531
11350TIP3   OH233990   7.638   4.859   0.688
11350TIP3    H133991   7.605   4.838   0.601
11350TIP3    H233992   7.731   4.879   0.673
11351TIP3   OH233993   4.834   6.384   1.760
11351TIP3    H133994   4.803   6.449   1.698
11351TIP3    H233995   4.881   6.320   1.706
11352TIP3   OH233996   7.033   5.999   2.376
11352TIP3    H133997   7.125   5.971   2.383
11352TIP3    H233998   7.021   6.060   2.449
11353TIP3   OH233999   2.886   5.759   6.665
11353TIP3    H134000   2.916   5.684   6.613
11353TIP3    H234001   2.965   5.793   6.707
11354TIP3   OH234002   0.074   3.348   1.338
11354TIP3    H134003   0.157   3.319   1.376
11354TIP3    H234004   0.012   3.277   1.358
11355TIP3   OH234005   1.847   7.411   4.023
11355TIP3    H134006   1.939   7.418   4.049
11355TIP3    H234007   1.847   7.437   3.931
11356TIP3   OH234008   6.318   7.506   6.091
11356TIP3    H134009   6.410   7.526   6.110
11356TIP3    H234010   6.275   7.504   6.176
11357TIP3   OH234011   6.890   6.963   5.419
11357TIP3    H134012   6.899   6.885   5.364
11357TIP3    H234013   6.830   6.936   5.489
11358TIP3   OH234014   6.187   3.882   2.176
11358TIP3    H134015   6.202   3.929   2.258
11358TIP3    H234016   6.171   3.951   2.111
11359TIP3   OH234017   4.718   7.324   5.088
11359TIP3    H134018   4.802   7.303   5.130
11359TIP3    H234019   4.724   7.285   5.001
11360TIP3   OH234020   0.513   3.204   2.679
11360TIP3    H134021   0.598   3.229   2.642
11360TIP3    H234022   0.510   3.109   2.671
11361TIP3   OH234023   6.932   6.268   0.943
11361TIP3    H134024   6.971   6.196   0.893
11361TIP3    H234025   6.846   6.236   0.970
11362TIP3   OH234026   0.342  -0.032   6.553
11362TIP3    H134027   0.401  -0.070   6.487
11362TIP3    H234028   0.358   0.062   6.547
11363TIP3   OH234029   1.797   6.394   2.387
11363TIP3    H134030   1.757   6.367   2.470
11363TIP3    H234031   1.821   6.311   2.344
11364TIP3   OH234032   7.317   1.955   6.514
11364TIP3    H134033   7.291   2.044   6.488
11364TIP3    H234034   7.273   1.898   6.452
11365TIP3   OH234035   3.177   1.588   1.013
11365TIP3    H134036   3.228   1.589   1.094
11365TIP3    H234037   3.225   1.645   0.953
11366TIP3   OH234038   3.174   5.745   3.992
11366TIP3    H134039   3.102   5.776   3.936
11366TIP3    H234040   3.146   5.764   4.081
11367TIP3   OH234041   3.725   6.026   3.165
11367TIP3    H134042   3.712   6.078   3.245
11367TIP3    H234043   3.686   6.079   3.095
11368TIP3   OH234044   7.225   1.491   3.566
11368TIP3    H134045   7.319   1.474   3.573
11368TIP3    H234046   7.184   1.415   3.606
11369TIP3   OH234047   8.359   2.746   2.568
11369TIP3    H134048   8.322   2.672   2.519
11369TIP3    H234049   8.345   2.822   2.512
11370TIP3   OH234050   6.177   3.162   5.744
11370TIP3    H134051   6.193   3.098   5.675
11370TIP3    H234052   6.208   3.245   5.707
11371TIP3   OH234053   3.213   7.679   2.876
11371TIP3    H134054   3.250   7.634   2.800
11371TIP3    H234055   3.127   7.637   2.888
11372TIP3   OH234056   2.509   7.623   6.024
11372TIP3    H134057   2.475   7.554   6.081
11372TIP3    H234058   2.598   7.638   6.054
11373TIP3   OH234059   2.729   7.313   6.422
11373TIP3    H134060   2.712   7.276   6.509
11373TIP3    H234061   2.646   7.353   6.397
11374TIP3   OH234062   5.007   6.828   3.530
11374TIP3    H134063   4.932   6.886   3.517
11374TIP3    H234064   5.072   6.882   3.575
11375TIP3   OH234065   0.139   3.098   3.062
11375TIP3    H134066   0.220   3.143   3.038
11375TIP3    H234067   0.154   3.006   3.039
11376TIP3   OH234068   1.919   3.057   4.461
11376TIP3    H134069   1.935   2.962   4.457
11376TIP3    H234070   2.007   3.095   4.468
11377TIP3   OH234071   5.804   7.483   4.868
11377TIP3    H134072   5.812   7.565   4.916
11377TIP3    H234073   5.709   7.467   4.864
11378TIP3   OH234074   4.031   7.006   3.543
11378TIP3    H134075   4.037   6.953   3.463
11378TIP3    H234076   3.944   7.044   3.540
11379TIP3   OH234077   1.157   6.572   0.189
11379TIP3    H134078   1.073   6.581   0.233
11379TIP3    H234079   1.160   6.644   0.127
11380TIP3   OH234080   2.553   1.524   3.872
11380TIP3    H134081   2.537   1.435   3.840
11380TIP3    H234082   2.497   1.532   3.949
11381TIP3   OH234083   2.052   0.970   3.920
11381TIP3    H134084   2.127   1.026   3.940
11381TIP3    H234085   2.026   0.995   3.831
11382TIP3   OH234086   7.149   7.035   3.129
11382TIP3    H134087   7.105   7.096   3.189
11382TIP3    H234088   7.078   6.990   3.084
11383TIP3   OH234089   6.192   2.445   4.150
11383TIP3    H134090   6.171   2.394   4.228
11383TIP3    H234091   6.123   2.511   4.146
11384TIP3   OH234092   1.035   5.105   3.527
11384TIP3    H134093   1.116   5.120   3.577
11384TIP3    H234094   1.061   5.116   3.435
11385TIP3   OH234095   4.447   3.994   2.062
11385TIP3    H134096   4.512   4.050   2.020
11385TIP3    H234097   4.365   4.013   2.017
11386TIP3   OH234098   5.931   7.757   3.941
11386TIP3    H134099   5.858   7.705   3.973
11386TIP3    H234100   5.911   7.774   3.849
11387TIP3   OH234101   2.217   6.691   2.595
11387TIP3    H134102   2.302   6.711   2.635
11387TIP3    H234103   2.181   6.777   2.571
11388TIP3   OH234104   7.277   4.609   4.338
11388TIP3    H134105   7.307   4.627   4.428
11388TIP3    H234106   7.256   4.696   4.303
11389TIP3   OH234107   0.796   7.706   4.994
11389TIP3    H134108   0.775   7.712   5.087
11389TIP3    H234109   0.885   7.672   4.991
11390TIP3   OH234110   3.239   1.503   2.298
11390TIP3    H134111   3.256   1.419   2.255
11390TIP3    H234112   3.210   1.479   2.386
11391TIP3   OH234113   0.090   7.299   4.195
11391TIP3    H134114   0.085   7.382   4.242
11391TIP3    H234115   0.140   7.320   4.115
11392TIP3   OH234116   0.511   4.451   3.510
11392TIP3    H134117   0.569   4.498   3.570
11392TIP3    H234118   0.424   4.464   3.545
11393TIP3   OH234119   6.960   2.445   4.452
11393TIP3    H134120   7.055   2.457   4.444
11393TIP3    H234121   6.947   2.351   4.436
11394TIP3   OH234122   7.230   5.970   3.460
11394TIP3    H134123   7.292   6.040   3.439
11394TIP3    H234124   7.254   5.944   3.549
11395TIP3   OH234125   0.189   6.849   1.140
11395TIP3    H134126   0.246   6.925   1.128
11395TIP3    H234127   0.193   6.830   1.233
11396TIP3   OH234128   7.551   2.174   0.586
11396TIP3    H134129   7.551   2.194   0.679
11396TIP3    H234130   7.511   2.087   0.580
11397TIP3   OH234131   0.152   0.577   4.973
11397TIP3    H134132   0.081   0.610   5.028
11397TIP3    H234133   0.221   0.553   5.035
11398TIP3   OH234134   8.266   7.316   1.892
11398TIP3    H134135   8.225   7.298   1.977
11398TIP3    H234136   8.358   7.332   1.913
11399TIP3   OH234137   3.912   4.511   3.899
11399TIP3    H134138   3.912   4.491   3.992
11399TIP3    H234139   3.997   4.552   3.884
11400TIP3   OH234140   0.458   0.932   4.290
11400TIP3    H134141   0.455   1.028   4.293
11400TIP3    H234142   0.543   0.912   4.251
11401TIP3   OH234143   0.457   1.755   5.950
11401TIP3    H134144   0.399   1.701   5.895
11401TIP3    H234145   0.470   1.702   6.029
11402TIP3   OH234146   0.223   7.224   0.717
11402TIP3    H134147   0.276   7.260   0.788
11402TIP3    H234148   0.166   7.160   0.760
11403TIP3   OH234149   6.771   3.337   0.744
11403TIP3    H134150   6.802   3.295   0.824
11403TIP3    H234151   6.744   3.264   0.688
11404TIP3   OH234152   1.421   7.545   2.719
11404TIP3    H134153   1.353   7.482   2.742
11404TIP3    H234154   1.409   7.617   2.781
11405TIP3   OH234155   8.162   4.832   0.417
11405TIP3    H134156   8.235   4.799   0.470
11405TIP3    H234157   8.119   4.753   0.384
11406TIP3   OH234158   5.948   6.627   3.722
11406TIP3    H134159   5.907   6.714   3.720
11406TIP3    H234160   5.926   6.593   3.809
11407TIP3   OH234161   4.342   3.365   4.621
11407TIP3    H134162   4.250   3.383   4.604
11407TIP3    H234163   4.379   3.343   4.535
11408TIP3   OH234164   3.320   7.007   2.916
11408TIP3    H134165   3.377   6.987   2.841
11408TIP3    H234166   3.232   7.002   2.880
11409TIP3   OH234167   6.664   4.063   4.094
11409TIP3    H134168   6.669   3.995   4.161
11409TIP3    H234169   6.698   4.021   4.015
11410TIP3   OH234170   2.796   3.871   5.465
11410TIP3    H134171   2.771   3.963   5.453
11410TIP3    H234172   2.719   3.831   5.508
11411TIP3   OH234173   1.455   5.214   6.875
11411TIP3    H134174   1.539   5.232   6.832
11411TIP3    H234175   1.474   5.139   6.932
11412TIP3   OH234176   7.943   2.448   4.725
11412TIP3    H134177   8.025   2.435   4.772
11412TIP3    H234178   7.968   2.495   4.646
11413TIP3   OH234179   1.445   4.269   4.203
11413TIP3    H134180   1.451   4.218   4.284
11413TIP3    H234181   1.352   4.268   4.181
11414TIP3   OH234182   8.270   5.025   2.532
11414TIP3    H134183   8.271   5.071   2.448
11414TIP3    H234184   8.295   4.935   2.510
11415TIP3   OH234185   2.078   6.049   6.498
11415TIP3    H134186   2.143   5.986   6.529
11415TIP3    H234187   2.077   6.037   6.403
11416TIP3   OH234188   0.241   7.249   2.496
11416TIP3    H134189   0.199   7.255   2.582
11416TIP3    H234190   0.187   7.303   2.439
11417TIP3   OH234191   8.336   0.895   0.154
11417TIP3    H134192   8.387   0.843   0.216
11417TIP3    H234193   8.398   0.918   0.085
11418TIP3   OH234194   7.460   0.406   1.530
11418TIP3    H134195   7.538   0.437   1.484
11418TIP3    H234196   7.403   0.483   1.534
11419TIP3   OH234197   4.935   2.584   3.592
11419TIP3    H134198   4.868   2.517   3.581
11419TIP3    H234199   4.899   2.661   3.548
11420TIP3   OH234200   2.591   1.322   5.265
11420TIP3    H134201   2.672   1.372   5.270
11420TIP3    H234202   2.606   1.246   5.321
11421TIP3   OH234203   8.108   6.973   6.114
11421TIP3    H134204   8.080   6.909   6.179
11421TIP3    H234205   8.031   7.029   6.100
11422TIP3   OH234206   7.330   1.399   2.109
11422TIP3    H134207   7.343   1.492   2.094
11422TIP3    H234208   7.418   1.365   2.126
11423TIP3   OH234209   1.720   4.799   5.302
11423TIP3    H134210   1.767   4.880   5.320
11423TIP3    H234211   1.627   4.824   5.308
11424TIP3   OH234212   7.095   2.297   6.674
11424TIP3    H134213   7.109   2.254   6.758
11424TIP3    H234214   7.099   2.390   6.694
11425TIP3   OH234215   0.810   7.787   2.268
11425TIP3    H134216   0.899   7.793   2.302
11425TIP3    H234217   0.821   7.754   2.178
11426TIP3   OH234218   5.968   0.209   2.060
11426TIP3    H134219   5.876   0.188   2.049
11426TIP3    H234220   6.015   0.133   2.025
11427TIP3   OH234221   3.671   0.115   1.969
11427TIP3    H134222   3.610   0.187   1.955
11427TIP3    H234223   3.699   0.124   2.060
11428TIP3   OH234224   7.437   4.859   4.855
11428TIP3    H134225   7.391   4.919   4.914
11428TIP3    H234226   7.519   4.904   4.833
11429TIP3   OH234227   1.409   2.214   1.870
11429TIP3    H134228   1.362   2.240   1.949
11429TIP3    H234229   1.382   2.278   1.804
11430TIP3   OH234230   7.432   4.502   2.772
11430TIP3    H134231   7.479   4.537   2.847
11430TIP3    H234232   7.349   4.470   2.808
11431TIP3   OH234233   7.894   4.528   4.431
11431TIP3    H134234   7.830   4.594   4.457
11431TIP3    H234235   7.971   4.546   4.485
11432TIP3   OH234236   6.372   5.767   1.753
11432TIP3    H134237   6.366   5.673   1.770
11432TIP3    H234238   6.363   5.807   1.840
11433TIP3   OH234239   4.903   3.908   3.241
11433TIP3    H134240   4.958   3.938   3.168
11433TIP3    H234241   4.847   3.983   3.261
11434TIP3   OH234242   6.664   2.160   4.488
11434TIP3    H134243   6.601   2.164   4.416
11434TIP3    H234244   6.664   2.068   4.514
11435TIP3   OH234245   2.039   5.337   0.990
11435TIP3    H134246   1.972   5.353   1.056
11435TIP3    H234247   2.035   5.242   0.975
11436TIP3   OH234248   0.835   4.798   1.031
11436TIP3    H134249   0.872   4.829   0.949
11436TIP3    H234250   0.765   4.738   1.004
11437TIP3   OH234251   5.487   5.293   4.249
11437TIP3    H134252   5.402   5.250   4.257
11437TIP3    H234253   5.482   5.340   4.165
11438TIP3   OH234254   5.280   5.869   3.870
11438TIP3    H134255   5.297   5.790   3.921
11438TIP3    H234256   5.210   5.844   3.810
11439TIP3   OH234257   6.730   4.535   3.673
11439TIP3    H134258   6.789   4.551   3.599
11439TIP3    H234259   6.664   4.476   3.638
11440TIP3   OH234260   6.266   4.148   1.088
11440TIP3    H134261   6.223   4.063   1.093
11440TIP3    H234262   6.251   4.189   1.173
11441TIP3   OH234263   2.367   2.108   5.140
11441TIP3    H134264   2.306   2.065   5.200
11441TIP3    H234265   2.439   2.046   5.130
11442TIP3   OH234266   5.343   0.719   1.745
11442TIP3    H134267   5.369   0.712   1.837
11442TIP3    H234268   5.263   0.666   1.739
11443TIP3   OH234269   4.270   3.222   1.416
11443TIP3    H134270   4.210   3.214   1.343
11443TIP3    H234271   4.299   3.314   1.413
11444TIP3   OH234272   5.752   2.540   6.480
11444TIP3    H134273   5.772   2.517   6.571
11444TIP3    H234274   5.734   2.457   6.437
11445TIP3   OH234275   0.137   0.469   6.308
11445TIP3    H134276   0.135   0.375   6.289
11445TIP3    H234277   0.116   0.511   6.225
11446TIP3   OH234278   6.040   1.571   6.712
11446TIP3    H134279   6.036   1.514   6.788
11446TIP3    H234280   6.028   1.659   6.747
11447TIP3   OH234281   1.402   7.526   5.104
11447TIP3    H134282   1.334   7.550   5.166
11447TIP3    H234283   1.368   7.553   5.019
11448TIP3   OH234284   2.212   2.535   2.619
11448TIP3    H134285   2.296   2.564   2.584
11448TIP3    H234286   2.216   2.559   2.712
11449TIP3   OH234287   7.317   7.525   5.177
11449TIP3    H134288   7.406   7.490   5.172
11449TIP3    H234289   7.260   7.449   5.168
11450TIP3   OH234290   2.375   6.365   1.093
11450TIP3    H134291   2.435   6.360   1.168
11450TIP3    H234292   2.428   6.402   1.022
11451TIP3   OH234293   7.069   4.043   1.344
11451TIP3    H134294   6.987   4.092   1.341
11451TIP3    H234295   7.053   3.974   1.409
11452TIP3   OH234296   3.239   0.842   1.235
11452TIP3    H134297   3.203   0.777   1.296
11452TIP3    H234298   3.184   0.836   1.158
11453TIP3   OH234299   7.245   5.957   5.167
11453TIP3    H134300   7.309   5.955   5.097
11453TIP3    H234301   7.297   5.954   5.247
11454TIP3   OH234302   8.320   2.671   0.510
11454TIP3    H134303   8.263   2.595   0.510
11454TIP3    H234304   8.354   2.677   0.421
11455TIP3   OH234305   1.228   1.306   2.242
11455TIP3    H134306   1.255   1.276   2.329
11455TIP3    H234307   1.308   1.341   2.203
11456TIP3   OH234308   6.058   4.101   3.477
11456TIP3    H134309   6.107   4.046   3.538
11456TIP3    H234310   5.970   4.104   3.514
11457TIP3   OH234311   2.104   7.740   2.135
11457TIP3    H134312   2.022   7.781   2.109
11457TIP3    H234313   2.148   7.719   2.053
11458TIP3   OH234314   1.042   2.050   4.421
11458TIP3    H134315   1.102   2.061   4.348
11458TIP3    H234316   1.091   1.997   4.484
11459TIP3   OH234317   4.058   5.229   0.580
11459TIP3    H134318   3.970   5.220   0.617
11459TIP3    H234319   4.094   5.141   0.582
11460TIP3   OH234320   7.435   1.152   3.320
11460TIP3    H134321   7.358   1.127   3.371
11460TIP3    H234322   7.509   1.129   3.375
11461TIP3   OH234323   4.735   1.654   5.561
11461TIP3    H134324   4.713   1.633   5.652
11461TIP3    H234325   4.827   1.629   5.552
11462TIP3   OH234326   4.274   6.694   6.855
11462TIP3    H134327   4.240   6.743   6.781
11462TIP3    H234328   4.347   6.746   6.888
11463TIP3   OH234329   7.889   2.548   0.766
11463TIP3    H134330   7.896   2.641   0.787
11463TIP3    H234331   7.884   2.504   0.851
11464TIP3   OH234332   2.641   3.029   5.054
11464TIP3    H134333   2.721   3.067   5.018
11464TIP3    H234334   2.599   2.987   4.978
11465TIP3   OH234335   5.136   4.078   3.153
11465TIP3    H134336   5.204   4.069   3.219
11465TIP3    H234337   5.176   4.046   3.072
11466TIP3   OH234338   7.443   2.287   1.561
11466TIP3    H134339   7.454   2.192   1.562
11466TIP3    H234340   7.526   2.320   1.597
11467TIP3   OH234341   1.486   7.838   0.367
11467TIP3    H134342   1.467   7.927   0.397
11467TIP3    H234343   1.537   7.851   0.287
11468TIP3   OH234344   6.115   2.695   0.814
11468TIP3    H134345   6.174   2.749   0.868
11468TIP3    H234346   6.116   2.737   0.728
11469TIP3   OH234347   8.126   2.667   1.059
11469TIP3    H134348   8.063   2.598   1.081
11469TIP3    H234349   8.188   2.625   1.000
11470TIP3   OH234350   5.657   3.543   0.387
11470TIP3    H134351   5.733   3.551   0.331
11470TIP3    H234352   5.678   3.596   0.464
11471TIP3   OH234353   5.086   6.397   5.478
11471TIP3    H134354   5.040   6.445   5.547
11471TIP3    H234355   5.019   6.344   5.435
11472TIP3   OH234356   1.683   4.456   0.002
11472TIP3    H134357   1.719   4.501   0.079
11472TIP3    H234358   1.590   4.448   0.020
11473TIP3   OH234359   5.103   1.053   4.747
11473TIP3    H134360   5.116   1.047   4.653
11473TIP3    H234361   5.098   0.962   4.776
11474TIP3   OH234362   4.091   2.317   0.526
11474TIP3    H134363   4.053   2.405   0.525
11474TIP3    H234364   4.181   2.329   0.495
11475TIP3   OH234365   3.644   2.450   6.504
11475TIP3    H134366   3.552   2.458   6.479
11475TIP3    H234367   3.647   2.474   6.597
11476TIP3   OH234368   5.334   6.410   5.770
11476TIP3    H134369   5.381   6.363   5.838
11476TIP3    H234370   5.244   6.378   5.777
11477TIP3   OH234371   8.186   5.096   1.413
11477TIP3    H134372   8.111   5.041   1.388
11477TIP3    H234373   8.147   5.174   1.451
11478TIP3   OH234374   7.930   3.489   1.125
11478TIP3    H134375   7.856   3.430   1.112
11478TIP3    H234376   7.995   3.437   1.172
11479TIP3   OH234377   4.605   6.249   5.417
11479TIP3    H134378   4.611   6.159   5.382
11479TIP3    H234379   4.521   6.252   5.462
11480TIP3   OH234380   2.657   1.600   6.062
11480TIP3    H134381   2.723   1.670   6.052
11480TIP3    H234382   2.635   1.576   5.972
11481TIP3   OH234383   8.315   6.079   5.640
11481TIP3    H134384   8.243   6.109   5.584
11481TIP3    H234385   8.319   5.984   5.624
11482TIP3   OH234386   0.940   6.824   1.341
11482TIP3    H134387   0.913   6.911   1.314
11482TIP3    H234388   1.017   6.838   1.395
11483TIP3   OH234389   6.361   5.133   5.699
11483TIP3    H134390   6.362   5.227   5.680
11483TIP3    H234391   6.413   5.124   5.779
11484TIP3   OH234392   1.366   6.827   1.724
11484TIP3    H134393   1.301   6.893   1.702
11484TIP3    H234394   1.422   6.822   1.646
11485TIP3   OH234395   6.992   1.091   3.377
11485TIP3    H134396   7.086   1.110   3.381
11485TIP3    H234397   6.958   1.154   3.313
11486TIP3   OH234398   0.534   5.628   3.272
11486TIP3    H134399   0.526   5.710   3.321
11486TIP3    H234400   0.560   5.656   3.184
11487TIP3   OH234401   2.770   1.942   2.770
11487TIP3    H134402   2.712   1.970   2.841
11487TIP3    H234403   2.805   1.858   2.800
11488TIP3   OH234404   2.073   6.560   5.468
11488TIP3    H134405   2.146   6.575   5.409
11488TIP3    H234406   1.997   6.595   5.421
11489TIP3   OH234407   7.917   3.558   0.320
11489TIP3    H134408   7.935   3.552   0.414
11489TIP3    H234409   7.997   3.594   0.283
11490TIP3   OH234410   0.869   0.263   3.090
11490TIP3    H134411   0.928   0.212   3.035
11490TIP3    H234412   0.922   0.288   3.166
11491TIP3   OH234413   2.503   0.770   0.521
11491TIP3    H134414   2.523   0.741   0.610
11491TIP3    H234415   2.534   0.699   0.465
11492TIP3   OH234416   6.021   1.824   3.111
11492TIP3    H134417   6.063   1.797   3.193
11492TIP3    H234418   6.087   1.877   3.066
11493TIP3   OH234419   6.344   5.857   5.000
11493TIP3    H134420   6.268   5.863   5.059
11493TIP3    H234421   6.316   5.797   4.931
11494TIP3   OH234422   3.028   4.162   3.963
11494TIP3    H134423   2.978   4.244   3.963
11494TIP3    H234424   3.085   4.169   3.887
11495TIP3   OH234425   7.478   4.129   2.676
11495TIP3    H134426   7.519   4.189   2.613
11495TIP3    H234427   7.468   4.047   2.628
11496TIP3   OH234428   5.869   0.041   4.480
11496TIP3    H134429   5.960   0.059   4.506
11496TIP3    H234430   5.856   0.095   4.402
11497TIP3   OH234431   2.477   1.145   2.670
11497TIP3    H134432   2.424   1.134   2.749
11497TIP3    H234433   2.421   1.194   2.610
11498TIP3   OH234434   8.212   0.149   1.771
11498TIP3    H134435   8.138   0.210   1.769
11498TIP3    H234436   8.257   0.169   1.853
11499TIP3   OH234437   6.323   6.597   1.906
11499TIP3    H134438   6.276   6.519   1.934
11499TIP3    H234439   6.416   6.572   1.911
11500TIP3   OH234440   6.516   2.359   5.366
11500TIP3    H134441   6.455   2.427   5.338
11500TIP3    H234442   6.461   2.294   5.411
11501TIP3   OH234443   4.273   5.172   4.160
11501TIP3    H134444   4.246   5.211   4.077
11501TIP3    H234445   4.192   5.143   4.201
11502TIP3   OH234446   2.424   4.751   5.070
11502TIP3    H134447   2.364   4.793   5.131
11502TIP3    H234448   2.416   4.657   5.088
11503TIP3   OH234449   0.021   3.796   4.729
11503TIP3    H134450   0.096   3.855   4.737
11503TIP3    H234451   0.036   3.730   4.798
11504TIP3   OH234452   4.266   0.509   4.132
11504TIP3    H134453   4.255   0.592   4.177
11504TIP3    H234454   4.307   0.531   4.048
11505TIP3   OH234455   2.252   5.623   3.135
11505TIP3    H134456   2.183   5.688   3.147
11505TIP3    H234457   2.319   5.647   3.199
11506TIP3   OH234458   5.193   5.148   4.891
11506TIP3    H134459   5.098   5.137   4.883
11506TIP3    H234460   5.209   5.240   4.869
11507TIP3   OH234461   7.717   0.477   1.399
11507TIP3    H134462   7.738   0.540   1.330
11507TIP3    H234463   7.761   0.512   1.477
11508TIP3   OH234464   1.855   3.532   1.271
11508TIP3    H134465   1.824   3.448   1.305
11508TIP3    H234466   1.783   3.593   1.288
11509TIP3   OH234467   8.330   3.483   1.081
11509TIP3    H134468   8.389   3.453   1.150
11509TIP3    H234469   8.354   3.575   1.067
11510TIP3   OH234470   1.820   4.065   5.406
11510TIP3    H134471   1.784   4.023   5.327
11510TIP3    H234472   1.872   4.138   5.372
11511TIP3   OH234473   2.543   1.867   3.764
11511TIP3    H134474   2.549   1.816   3.684
11511TIP3    H234475   2.526   1.956   3.735
11512TIP3   OH234476   6.025   7.681   4.619
11512TIP3    H134477   6.026   7.652   4.528
11512TIP3    H234478   5.963   7.754   4.621
11513TIP3   OH234479   0.384   5.206   6.724
11513TIP3    H134480   0.363   5.149   6.798
11513TIP3    H234481   0.353   5.158   6.647
11514TIP3   OH234482   3.013   5.271   4.046
11514TIP3    H134483   2.962   5.311   3.975
11514TIP3    H234484   3.021   5.341   4.111
11515TIP3   OH234485   7.915   2.939   5.421
11515TIP3    H134486   8.004   2.971   5.411
11515TIP3    H234487   7.876   2.948   5.334
11516TIP3   OH234488   4.202   0.430   4.385
11516TIP3    H134489   4.198   0.408   4.292
11516TIP3    H234490   4.286   0.476   4.395
11517TIP3   OH234491   4.772   0.682   5.272
11517TIP3    H134492   4.785   0.588   5.259
11517TIP3    H234493   4.710   0.708   5.204
11518TIP3   OH234494   6.228   3.819   4.842
11518TIP3    H134495   6.209   3.725   4.840
11518TIP3    H234496   6.323   3.825   4.836
11519TIP3   OH234497   4.148   3.282   3.827
11519TIP3    H134498   4.132   3.258   3.735
11519TIP3    H234499   4.212   3.218   3.858
11520TIP3   OH234500   6.821   3.752   4.555
11520TIP3    H134501   6.889   3.801   4.510
11520TIP3    H234502   6.746   3.813   4.558
11521TIP3   OH234503   3.839   6.648   2.420
11521TIP3    H134504   3.934   6.633   2.420
11521TIP3    H234505   3.828   6.730   2.371
11522TIP3   OH234506   5.002   2.487   2.783
11522TIP3    H134507   5.003   2.402   2.827
11522TIP3    H234508   5.062   2.475   2.708
11523TIP3   OH234509   2.361   0.169   2.599
11523TIP3    H134510   2.316   0.253   2.588
11523TIP3    H234511   2.297   0.104   2.571
11524TIP3   OH234512   5.790   3.694   3.984
11524TIP3    H134513   5.704   3.725   4.013
11524TIP3    H234514   5.842   3.773   3.974
11525TIP3   OH234515   8.214   4.004   3.592
11525TIP3    H134516   8.220   3.915   3.627
11525TIP3    H234517   8.121   4.015   3.571
11526TIP3   OH234518   6.126   4.375   3.438
11526TIP3    H134519   6.095   4.284   3.431
11526TIP3    H234520   6.209   4.376   3.390
11527TIP3   OH234521   7.276   7.717   4.072
11527TIP3    H134522   7.257   7.683   4.160
11527TIP3    H234523   7.192   7.747   4.039
11528TIP3   OH234524   5.134   4.215   5.108
11528TIP3    H134525   5.204   4.225   5.044
11528TIP3    H234526   5.088   4.298   5.107
11529TIP3   OH234527   2.132   6.319   4.413
11529TIP3    H134528   2.097   6.317   4.324
11529TIP3    H234529   2.079   6.256   4.462
11530TIP3   OH234530   4.157   0.532   2.536
11530TIP3    H134531   4.087   0.590   2.506
11530TIP3    H234532   4.195   0.496   2.456
11531TIP3   OH234533   3.931   4.338   3.120
11531TIP3    H134534   3.946   4.378   3.034
11531TIP3    H234535   3.839   4.355   3.139
11532TIP3   OH234536   1.470   6.879   5.861
11532TIP3    H134537   1.426   6.795   5.876
11532TIP3    H234538   1.457   6.928   5.942
11533TIP3   OH234539   3.304   1.651   0.389
11533TIP3    H134540   3.235   1.632   0.452
11533TIP3    H234541   3.384   1.616   0.430
11534TIP3   OH234542   2.785   1.189   5.955
11534TIP3    H134543   2.830   1.254   6.009
11534TIP3    H234544   2.787   1.226   5.866
11535TIP3   OH234545   2.129   7.617   3.815
11535TIP3    H134546   2.222   7.634   3.807
11535TIP3    H234547   2.088   7.678   3.753
11536TIP3   OH234548   0.444   4.346   5.269
11536TIP3    H134549   0.386   4.363   5.344
11536TIP3    H234550   0.437   4.251   5.256
11537TIP3   OH234551   6.479   5.777   5.352
11537TIP3    H134552   6.391   5.740   5.352
11537TIP3    H234553   6.467   5.868   5.380
11538TIP3   OH234554   0.407   5.278   4.820
11538TIP3    H134555   0.487   5.310   4.861
11538TIP3    H234556   0.375   5.210   4.880
11539TIP3   OH234557   3.129   5.355   2.434
11539TIP3    H134558   3.209   5.352   2.487
11539TIP3    H234559   3.060   5.378   2.496
11540TIP3   OH234560   5.207   4.920   5.167
11540TIP3    H134561   5.272   4.966   5.221
11540TIP3    H234562   5.251   4.907   5.083
11541TIP3   OH234563   7.759   3.875   2.428
11541TIP3    H134564   7.748   3.800   2.488
11541TIP3    H234565   7.765   3.951   2.485
11542TIP3   OH234566   3.181   7.664   5.686
11542TIP3    H134567   3.271   7.632   5.680
11542TIP3    H234568   3.153   7.641   5.775
11543TIP3   OH234569   3.778   7.389   3.150
11543TIP3    H134570   3.694   7.354   3.178
11543TIP3    H234571   3.843   7.329   3.188
11544TIP3   OH234572   7.311   2.509   0.688
11544TIP3    H134573   7.319   2.605   0.688
11544TIP3    H234574   7.233   2.491   0.637
11545TIP3   OH234575   0.175   6.091   5.468
11545TIP3    H134576   0.084   6.067   5.452
11545TIP3    H234577   0.171   6.182   5.498
11546TIP3   OH234578   0.504   6.896   2.425
11546TIP3    H134579   0.429   6.923   2.372
11546TIP3    H234580   0.467   6.875   2.511
11547TIP3   OH234581   8.374   2.438   1.684
11547TIP3    H134582   8.303   2.432   1.748
11547TIP3    H234583   8.364   2.361   1.629
11548TIP3   OH234584   5.806   4.039   3.599
11548TIP3    H134585   5.769   4.035   3.687
11548TIP3    H234586   5.734   4.012   3.542
11549TIP3   OH234587   5.217   4.487   3.947
11549TIP3    H134588   5.142   4.543   3.964
11549TIP3    H234589   5.203   4.410   4.003
11550TIP3   OH234590   2.307   0.290   5.867
11550TIP3    H134591   2.259   0.220   5.911
11550TIP3    H234592   2.367   0.323   5.934
11551TIP3   OH234593   0.808   1.058   6.194
11551TIP3    H134594   0.879   1.068   6.257
11551TIP3    H234595   0.728   1.072   6.245
11552TIP3   OH234596   4.902   5.969   6.352
11552TIP3    H134597   4.899   5.891   6.297
11552TIP3    H234598   4.992   6.000   6.345
11553TIP3   OH234599   5.212   4.079   5.979
11553TIP3    H134600   5.206   4.027   5.899
11553TIP3    H234601   5.291   4.045   6.023
11554TIP3   OH234602   1.813   5.407   6.423
11554TIP3    H134603   1.767   5.442   6.346
11554TIP3    H234604   1.881   5.351   6.387
11555TIP3   OH234605   3.212   1.633   6.024
11555TIP3    H134606   3.241   1.651   5.935
11555TIP3    H234607   3.248   1.705   6.076
11556TIP3   OH234608   6.924   6.077   3.510
11556TIP3    H134609   6.967   6.000   3.473
11556TIP3    H234610   6.909   6.054   3.601
11557TIP3   OH234611   5.584   0.124   0.531
11557TIP3    H134612   5.558   0.110   0.622
11557TIP3    H234613   5.552   0.046   0.485
11558TIP3   OH234614   5.398   5.279   6.116
11558TIP3    H134615   5.390   5.341   6.043
11558TIP3    H234616   5.341   5.206   6.092
11559TIP3   OH234617   1.914   6.695   4.025
11559TIP3    H134618   1.830   6.708   4.069
11559TIP3    H234619   1.972   6.661   4.093
11560TIP3   OH234620   5.889   6.710   0.749
11560TIP3    H134621   5.813   6.726   0.693
11560TIP3    H234622   5.940   6.645   0.702
11561TIP3   OH234623   5.604   0.993   4.481
11561TIP3    H134624   5.606   0.926   4.549
11561TIP3    H234625   5.530   1.049   4.505
11562TIP3   OH234626   7.660   2.466   5.007
11562TIP3    H134627   7.672   2.558   4.982
11562TIP3    H234628   7.743   2.424   4.984
11563TIP3   OH234629   4.946   2.074   6.215
11563TIP3    H134630   4.880   2.032   6.271
11563TIP3    H234631   4.975   2.150   6.266
11564TIP3   OH234632   4.248   2.297   3.085
11564TIP3    H134633   4.235   2.384   3.122
11564TIP3    H234634   4.161   2.257   3.085
11565TIP3   OH234635   1.943   2.176   4.978
11565TIP3    H134636   1.918   2.142   4.892
11565TIP3    H234637   2.037   2.192   4.971
11566TIP3   OH234638   5.456   6.522   3.341
11566TIP3    H134639   5.540   6.520   3.387
11566TIP3    H234640   5.443   6.431   3.312
11567TIP3   OH234641   4.213   1.711   2.149
11567TIP3    H134642   4.141   1.762   2.187
11567TIP3    H234643   4.266   1.775   2.102
11568TIP3   OH234644   7.936   2.832   0.256
11568TIP3    H134645   7.986   2.858   0.334
11568TIP3    H234646   7.845   2.839   0.283
11569TIP3   OH234647   6.780   2.511   3.027
11569TIP3    H134648   6.852   2.574   3.027
11569TIP3    H234649   6.714   2.550   2.970
11570TIP3   OH234650   4.178   0.722   4.777
11570TIP3    H134651   4.114   0.691   4.841
11570TIP3    H234652   4.171   0.818   4.781
11571TIP3   OH234653   4.685   0.703   1.143
11571TIP3    H134654   4.734   0.730   1.221
11571TIP3    H234655   4.683   0.608   1.147
11572TIP3   OH234656   8.219   5.244   4.152
11572TIP3    H134657   8.137   5.283   4.121
11572TIP3    H234658   8.285   5.313   4.138
11573TIP3   OH234659   7.367   1.228   5.168
11573TIP3    H134660   7.340   1.315   5.138
11573TIP3    H234661   7.292   1.172   5.152
11574TIP3   OH234662   1.012   2.997   1.756
11574TIP3    H134663   1.009   2.901   1.749
11574TIP3    H234664   0.969   3.016   1.840
11575TIP3   OH234665   4.025   0.851   1.147
11575TIP3    H134666   4.110   0.847   1.191
11575TIP3    H234667   4.044   0.885   1.060
11576TIP3   OH234668   1.627   4.258   1.546
11576TIP3    H134669   1.621   4.165   1.569
11576TIP3    H234670   1.717   4.270   1.517
11577TIP3   OH234671   7.143   5.843   4.917
11577TIP3    H134672   7.149   5.897   4.996
11577TIP3    H234673   7.069   5.784   4.934
11578TIP3   OH234674   8.403   2.139   3.888
11578TIP3    H134675   8.314   2.174   3.889
11578TIP3    H234676   8.395   2.053   3.846
11579TIP3   OH234677   1.951   7.773   3.667
11579TIP3    H134678   1.898   7.749   3.591
11579TIP3    H234679   1.932   7.865   3.682
11580TIP3   OH234680   7.506   6.366   0.161
11580TIP3    H134681   7.506   6.284   0.112
11580TIP3    H234682   7.424   6.409   0.135
11581TIP3   OH234683   5.712   1.769   1.162
11581TIP3    H134684   5.805   1.773   1.139
11581TIP3    H234685   5.677   1.854   1.135
11582TIP3   OH234686   6.240   0.517   6.823
11582TIP3    H134687   6.265   0.447   6.883
11582TIP3    H234688   6.144   0.512   6.818
11583TIP3   OH234689   3.477   6.714   1.325
11583TIP3    H134690   3.545   6.767   1.282
11583TIP3    H234691   3.496   6.722   1.418
11584TIP3   OH234692   3.303   4.818   1.890
11584TIP3    H134693   3.222   4.788   1.849
11584TIP3    H234694   3.341   4.879   1.827
11585TIP3   OH234695   0.820   2.380   3.085
11585TIP3    H134696   0.862   2.297   3.064
11585TIP3    H234697   0.728   2.357   3.097
11586TIP3   OH234698   0.818   4.024   6.188
11586TIP3    H134699   0.872   3.982   6.121
11586TIP3    H234700   0.879   4.078   6.237
11587TIP3   OH234701   0.180   7.679   2.818
11587TIP3    H134702   0.135   7.720   2.892
11587TIP3    H234703   0.248   7.625   2.858
11588TIP3   OH234704   1.406   7.638   5.939
11588TIP3    H134705   1.330   7.597   5.897
11588TIP3    H234706   1.479   7.620   5.880
11589TIP3   OH234707   7.333   7.869   0.678
11589TIP3    H134708   7.273   7.806   0.719
11589TIP3    H234709   7.278   7.943   0.655
11590TIP3   OH234710   2.803   3.633   4.496
11590TIP3    H134711   2.841   3.568   4.554
11590TIP3    H234712   2.803   3.591   4.410
11591TIP3   OH234713   0.499   4.843   3.575
11591TIP3    H134714   0.439   4.791   3.629
11591TIP3    H234715   0.512   4.924   3.624
11592TIP3   OH234716   2.897   1.518   4.557
11592TIP3    H134717   2.876   1.485   4.469
11592TIP3    H234718   2.821   1.572   4.581
11593TIP3   OH234719   0.892   2.748   5.600
11593TIP3    H134720   0.826   2.813   5.624
11593TIP3    H234721   0.962   2.798   5.558
11594TIP3   OH234722   3.200   6.528   3.372
11594TIP3    H134723   3.160   6.508   3.287
11594TIP3    H234724   3.270   6.464   3.381
11595TIP3   OH234725   7.336   3.530   3.000
11595TIP3    H134726   7.261   3.495   3.048
11595TIP3    H234727   7.412   3.493   3.044
11596TIP3   OH234728   1.364   2.951   6.661
11596TIP3    H134729   1.401   2.867   6.632
11596TIP3    H234730   1.411   3.016   6.608
11597TIP3   OH234731   8.295   0.161   5.817
11597TIP3    H134732   8.346   0.177   5.738
11597TIP3    H234733   8.306   0.240   5.870
11598TIP3   OH234734   7.651   6.517   5.646
11598TIP3    H134735   7.587   6.447   5.657
11598TIP3    H234736   7.619   6.569   5.573
11599TIP3   OH234737   5.890   3.837   5.011
11599TIP3    H134738   5.931   3.754   5.037
11599TIP3    H234739   5.837   3.862   5.086
11600TIP3   OH234740   7.675   1.353   5.186
11600TIP3    H134741   7.730   1.397   5.251
11600TIP3    H234742   7.715   1.375   5.102
11601TIP3   OH234743   2.263   4.872   1.803
11601TIP3    H134744   2.294   4.943   1.859
11601TIP3    H234745   2.233   4.805   1.864
11602TIP3   OH234746   6.526   6.376   5.010
11602TIP3    H134747   6.442   6.384   4.966
11602TIP3    H234748   6.558   6.289   4.986
11603TIP3   OH234749   2.696   3.290   1.733
11603TIP3    H134750   2.764   3.229   1.763
11603TIP3    H234751   2.614   3.251   1.765
11604TIP3   OH234752   5.916   5.351   0.314
11604TIP3    H134753   5.983   5.396   0.365
11604TIP3    H234754   5.842   5.342   0.374
11605TIP3   OH234755   0.042   4.784   5.995
11605TIP3    H134756   0.044   4.723   5.922
11605TIP3    H234757  -0.035   4.839   5.978
11606TIP3   OH234758   7.361   0.262   6.219
11606TIP3    H134759   7.349   0.259   6.124
11606TIP3    H234760   7.405   0.180   6.240
11607TIP3   OH234761   6.082   3.019   4.008
11607TIP3    H134762   6.030   2.948   3.971
11607TIP3    H234763   6.027   3.097   3.996
11608TIP3   OH234764   7.904   4.711   1.696
11608TIP3    H134765   7.848   4.685   1.623
11608TIP3    H234766   7.903   4.807   1.695
11609TIP3   OH234767   6.836   6.039   5.796
11609TIP3    H134768   6.923   6.079   5.798
11609TIP3    H234769   6.802   6.058   5.709
11610TIP3   OH234770   8.121   3.019   0.385
11610TIP3    H134771   8.104   3.112   0.374
11610TIP3    H234772   8.148   3.010   0.476
11611TIP3   OH234773   4.268   1.776   0.025
11611TIP3    H134774   4.219   1.696   0.044
11611TIP3    H234775   4.313   1.797   0.107
11612TIP3   OH234776   5.199   5.406   2.211
11612TIP3    H134777   5.273   5.346   2.220
11612TIP3    H234778   5.209   5.442   2.123
11613TIP3   OH234779   2.672   7.542   2.002
11613TIP3    H134780   2.609   7.513   1.936
11613TIP3    H234781   2.757   7.512   1.969
11614TIP3   OH234782   4.315   6.218   4.736
11614TIP3    H134783   4.366   6.140   4.759
11614TIP3    H234784   4.314   6.218   4.640
11615TIP3   OH234785   1.780   4.892   4.972
11615TIP3    H134786   1.873   4.876   4.988
11615TIP3    H234787   1.740   4.898   5.059
11616TIP3   OH234788   7.028   2.231   5.744
11616TIP3    H134789   7.040   2.311   5.693
11616TIP3    H234790   7.058   2.161   5.686
11617TIP3   OH234791   3.323   0.331   5.330
11617TIP3    H134792   3.275   0.267   5.277
11617TIP3    H234793   3.265   0.350   5.404
11618TIP3   OH234794   4.229   1.798   1.546
11618TIP3    H134795   4.276   1.724   1.507
11618TIP3    H234796   4.197   1.765   1.630
11619TIP3   OH234797   1.017   5.339   5.725
11619TIP3    H134798   1.010   5.418   5.671
11619TIP3    H234799   1.096   5.296   5.695
11620TIP3   OH234800   6.400   3.421   6.670
11620TIP3    H134801   6.416   3.328   6.686
11620TIP3    H234802   6.425   3.435   6.579
11621TIP3   OH234803   7.786   4.022   3.904
11621TIP3    H134804   7.844   4.042   3.977
11621TIP3    H234805   7.787   4.100   3.849
11622TIP3   OH234806   2.616   4.891   6.264
11622TIP3    H134807   2.709   4.878   6.280
11622TIP3    H234808   2.589   4.813   6.216
11623TIP3   OH234809   3.305   5.327   4.883
11623TIP3    H134810   3.329   5.357   4.971
11623TIP3    H234811   3.367   5.257   4.863
11624TIP3   OH234812   2.438   2.019   2.084
11624TIP3    H134813   2.443   2.052   1.994
11624TIP3    H234814   2.358   2.058   2.119
11625TIP3   OH234815   5.695   5.359   6.804
11625TIP3    H134816   5.627   5.361   6.736
11625TIP3    H234817   5.758   5.426   6.777
11626TIP3   OH234818   2.944   7.063   1.730
11626TIP3    H134819   2.939   7.154   1.699
11626TIP3    H234820   2.856   7.029   1.716
11627TIP3   OH234821   6.921   2.797   6.240
11627TIP3    H134822   6.953   2.873   6.289
11627TIP3    H234823   6.989   2.780   6.175
11628TIP3   OH234824   4.105   7.858   4.101
11628TIP3    H134825   4.160   7.935   4.107
11628TIP3    H234826   4.044   7.866   4.175
11629TIP3   OH234827   2.938   1.624   5.935
11629TIP3    H134828   2.919   1.715   5.960
11629TIP3    H234829   3.033   1.617   5.944
11630TIP3   OH234830   5.880   1.719   3.381
11630TIP3    H134831   5.785   1.716   3.397
11630TIP3    H234832   5.902   1.812   3.385
11631TIP3   OH234833   1.280   5.581   5.652
11631TIP3    H134834   1.312   5.516   5.590
11631TIP3    H234835   1.285   5.538   5.737
11632TIP3   OH234836   2.544   4.213   4.756
11632TIP3    H134837   2.529   4.231   4.663
11632TIP3    H234838   2.639   4.203   4.762
11633TIP3   OH234839   7.173   2.201   0.507
11633TIP3    H134840   7.257   2.156   0.512
11633TIP3    H234841   7.118   2.143   0.454
11634TIP3   OH234842   3.002   1.887   4.213
11634TIP3    H134843   2.996   1.792   4.207
11634TIP3    H234844   2.971   1.919   4.129
11635TIP3   OH234845   2.079   5.140   4.920
11635TIP3    H134846   2.107   5.207   4.858
11635TIP3    H234847   2.108   5.058   4.881
11636TIP3   OH234848   7.909   4.109   5.496
11636TIP3    H134849   7.985   4.058   5.525
11636TIP3    H234850   7.879   4.154   5.575
11637TIP3   OH234851   3.136   7.825   1.737
11637TIP3    H134852   3.139   7.785   1.650
11637TIP3    H234853   3.059   7.786   1.778
11638TIP3   OH234854   5.095   3.235   2.118
11638TIP3    H134855   5.185   3.259   2.139
11638TIP3    H234856   5.057   3.211   2.203
11639TIP3   OH234857   2.519   1.531   0.807
11639TIP3    H134858   2.445   1.491   0.762
11639TIP3    H234859   2.575   1.458   0.831
11640TIP3   OH234860   7.511   2.173   0.264
11640TIP3    H134861   7.443   2.146   0.202
11640TIP3    H234862   7.469   2.240   0.317
11641TIP3   OH234863   1.538   7.217   6.032
11641TIP3    H134864   1.493   7.268   6.099
11641TIP3    H234865   1.508   7.127   6.046
11642TIP3   OH234866   6.032   3.046   0.719
11642TIP3    H134867   6.030   3.019   0.627
11642TIP3    H234868   6.126   3.054   0.739
11643TIP3   OH234869   3.898   1.920   6.424
11643TIP3    H134870   3.808   1.907   6.451
11643TIP3    H234871   3.950   1.902   6.502
11644TIP3   OH234872   6.921   3.300   4.814
11644TIP3    H134873   6.872   3.379   4.797
11644TIP3    H234874   6.897   3.240   4.744
11645TIP3   OH234875   8.177   4.766   2.059
11645TIP3    H134876   8.131   4.683   2.049
11645TIP3    H234877   8.228   4.775   1.979
11646TIP3   OH234878   3.232   5.572   5.425
11646TIP3    H134879   3.143   5.545   5.446
11646TIP3    H234880   3.278   5.491   5.402
11647TIP3   OH234881   0.299   6.052   3.891
11647TIP3    H134882   0.218   6.094   3.863
11647TIP3    H234883   0.311   6.081   3.981
11648TIP3   OH234884   3.100   1.870   0.759
11648TIP3    H134885   3.013   1.831   0.756
11648TIP3    H234886   3.160   1.794   0.764
11649TIP3   OH234887   5.002   5.645   4.908
11649TIP3    H134888   4.938   5.617   4.974
11649TIP3    H234889   4.955   5.637   4.825
11650TIP3   OH234890   6.346   1.009   2.281
11650TIP3    H134891   6.292   1.036   2.207
11650TIP3    H234892   6.382   0.925   2.255
11651TIP3   OH234893   7.378   2.955   6.631
11651TIP3    H134894   7.431   3.027   6.598
11651TIP3    H234895   7.291   2.994   6.645
11652TIP3   OH234896   5.713   7.318   6.099
11652TIP3    H134897   5.699   7.224   6.085
11652TIP3    H234898   5.683   7.333   6.188
11653TIP3   OH234899   7.364  -0.002   3.775
11653TIP3    H134900   7.327   0.075   3.819
11653TIP3    H234901   7.447  -0.018   3.820
11654TIP3   OH234902   1.583   7.231   1.208
11654TIP3    H134903   1.559   7.184   1.288
11654TIP3    H234904   1.581   7.323   1.232
11655TIP3   OH234905   6.137   5.123   3.098
11655TIP3    H134906   6.205   5.173   3.054
11655TIP3    H234907   6.137   5.155   3.188
11656TIP3   OH234908   7.617   0.711   2.265
11656TIP3    H134909   7.641   0.688   2.355
11656TIP3    H234910   7.546   0.774   2.274
11657TIP3   OH234911   5.676   4.384   5.448
11657TIP3    H134912   5.588   4.420   5.436
11657TIP3    H234913   5.663   4.289   5.447
11658TIP3   OH234914   0.587   1.615   6.465
11658TIP3    H134915   0.547   1.701   6.451
11658TIP3    H234916   0.516   1.552   6.448
11659TIP3   OH234917   3.280   3.497   3.849
11659TIP3    H134918   3.213   3.439   3.884
11659TIP3    H234919   3.287   3.568   3.913
11660TIP3   OH234920   7.399   1.293   4.093
11660TIP3    H134921   7.407   1.199   4.112
11660TIP3    H234922   7.309   1.315   4.116
11661TIP3   OH234923   0.181   5.881   1.834
11661TIP3    H134924   0.096   5.853   1.869
11661TIP3    H234925   0.240   5.808   1.851
11662TIP3   OH234926   7.454   0.824   1.035
11662TIP3    H134927   7.395   0.868   0.974
11662TIP3    H234928   7.423   0.734   1.038
11663TIP3   OH234929   4.395   4.536   4.672
11663TIP3    H134930   4.457   4.520   4.743
11663TIP3    H234931   4.314   4.563   4.716
11664TIP3   OH234932   0.523   7.537   1.747
11664TIP3    H134933   0.525   7.519   1.653
11664TIP3    H234934   0.612   7.522   1.777
11665TIP3   OH234935   0.576   5.713   1.614
11665TIP3    H134936   0.656   5.665   1.631
11665TIP3    H234937   0.604   5.804   1.602
11666TIP3   OH234938   6.374   3.990   5.214
11666TIP3    H134939   6.321   4.059   5.175
11666TIP3    H234940   6.456   3.991   5.163
11667TIP3   OH234941   1.647   0.658   1.570
11667TIP3    H134942   1.731   0.610   1.569
11667TIP3    H234943   1.614   0.646   1.659
11668TIP3   OH234944   6.398   1.250   4.395
11668TIP3    H134945   6.475   1.197   4.376
11668TIP3    H234946   6.361   1.271   4.309
11669TIP3   OH234947   2.694   7.848   3.866
11669TIP3    H134948   2.775   7.811   3.830
11669TIP3    H234949   2.693   7.822   3.958
11670TIP3   OH234950   0.673   4.788   1.873
11670TIP3    H134951   0.716   4.873   1.859
11670TIP3    H234952   0.693   4.765   1.963
11671TIP3   OH234953   3.157   1.835   6.393
11671TIP3    H134954   3.088   1.877   6.445
11671TIP3    H234955   3.112   1.804   6.315
11672TIP3   OH234956   6.450   3.224   5.462
11672TIP3    H134957   6.480   3.282   5.533
11672TIP3    H234958   6.531   3.196   5.419
11673TIP3   OH234959   5.315   3.925   4.833
11673TIP3    H134960   5.368   3.977   4.773
11673TIP3    H234961   5.249   3.985   4.866
11674TIP3   OH234962   7.223   2.990   0.359
11674TIP3    H134963   7.296   2.932   0.381
11674TIP3    H234964   7.238   3.069   0.411
11675TIP3   OH234965   3.822   4.783   0.037
11675TIP3    H134966   3.911   4.799   0.005
11675TIP3    H234967   3.834   4.732   0.117
11676TIP3   OH234968   0.096   7.472   0.120
11676TIP3    H134969   0.041   7.529   0.173
11676TIP3    H234970   0.181   7.473   0.164
11677TIP3   OH234971   2.608   3.798   5.130
11677TIP3    H134972   2.655   3.833   5.055
11677TIP3    H234973   2.675   3.753   5.181
11678TIP3   OH234974   7.850   2.173   5.605
11678TIP3    H134975   7.759   2.175   5.575
11678TIP3    H234976   7.850   2.226   5.685
11679TIP3   OH234977   7.237   5.173   4.129
11679TIP3    H134978   7.257   5.083   4.154
11679TIP3    H234979   7.144   5.171   4.104
11680TIP3   OH234980   7.903   0.924   4.142
11680TIP3    H134981   7.932   0.937   4.232
11680TIP3    H234982   7.896   0.829   4.133
11681TIP3   OH234983   6.801   0.600   4.791
11681TIP3    H134984   6.705   0.600   4.795
11681TIP3    H234985   6.828   0.637   4.875
11682TIP3   OH234986   2.565   0.370   2.133
11682TIP3    H134987   2.478   0.384   2.097
11682TIP3    H234988   2.625   0.399   2.064
11683TIP3   OH234989   7.689   7.109   2.392
11683TIP3    H134990   7.625   7.055   2.439
11683TIP3    H234991   7.736   7.155   2.461
11684TIP3   OH234992   5.961   0.450   5.888
11684TIP3    H134993   5.913   0.369   5.874
11684TIP3    H234994   6.048   0.432   5.853
11685TIP3   OH234995   8.196   5.552   0.999
11685TIP3    H134996   8.288   5.574   1.008
11685TIP3    H234997   8.172   5.513   1.083
11686TIP3   OH234998   2.755   7.542   1.050
11686TIP3    H134999   2.768   7.573   0.961
11686TIP3    H235000   2.665   7.510   1.052
11687TIP3   OH235001   5.237   1.229   0.106
11687TIP3    H135002   5.150   1.260   0.130
11687TIP3    H235003   5.233   1.213   0.012
11688TIP3   OH235004   6.444   2.365   3.367
11688TIP3    H135005   6.498   2.286   3.356
11688TIP3    H235006   6.373   2.355   3.303
11689TIP3   OH235007   7.066   2.705   3.026
11689TIP3    H135008   7.092   2.713   2.935
11689TIP3    H235009   7.106   2.781   3.070
11690TIP3   OH235010   6.944   6.183   5.393
11690TIP3    H135011   6.917   6.274   5.398
11690TIP3    H235012   6.894   6.139   5.463
11691TIP3   OH235013   1.013   7.021   2.830
11691TIP3    H135014   1.034   6.932   2.802
11691TIP3    H235015   1.094   7.053   2.870
11692TIP3   OH235016   4.590   2.671   1.009
11692TIP3    H135017   4.571   2.612   0.936
11692TIP3    H235018   4.542   2.634   1.082
11693TIP3   OH235019   7.583   3.800   5.276
11693TIP3    H135020   7.661   3.786   5.221
11693TIP3    H235021   7.509   3.785   5.217
11694TIP3   OH235022   3.463   3.340   4.892
11694TIP3    H135023   3.520   3.276   4.933
11694TIP3    H235024   3.518   3.418   4.882
11695TIP3   OH235025   8.271   0.827   4.077
11695TIP3    H135026   8.329   0.834   4.153
11695TIP3    H235027   8.250   0.917   4.054
11696TIP3   OH235028   2.594   0.238   0.170
11696TIP3    H135029   2.606   0.192   0.253
11696TIP3    H235030   2.509   0.281   0.179
11697TIP3   OH235031   4.382   2.904   3.380
11697TIP3    H135032   4.308   2.843   3.379
11697TIP3    H235033   4.376   2.947   3.465
11698TIP3   OH235034   5.243   2.602   3.092
11698TIP3    H135035   5.207   2.638   3.012
11698TIP3    H235036   5.308   2.666   3.121
11699TIP3   OH235037   2.113   6.043   5.448
11699TIP3    H135038   2.208   6.054   5.459
11699TIP3    H235039   2.076   6.127   5.474
11700TIP3   OH235040   8.345   1.178   0.949
11700TIP3    H135041   8.338   1.272   0.930
11700TIP3    H235042   8.397   1.143   0.876
11701TIP3   OH235043   7.718   5.570   2.164
11701TIP3    H135044   7.755   5.483   2.147
11701TIP3    H235045   7.657   5.585   2.092
11702TIP3   OH235046   3.079   4.158   2.581
11702TIP3    H135047   3.018   4.107   2.528
11702TIP3    H235048   3.115   4.095   2.644
11703TIP3   OH235049   5.081   7.640   6.640
11703TIP3    H135050   4.989   7.645   6.667
11703TIP3    H235051   5.104   7.730   6.617
11704TIP3   OH235052   4.966   7.539   5.616
11704TIP3    H135053   4.977   7.495   5.700
11704TIP3    H235054   5.028   7.496   5.557
11705TIP3   OH235055   5.202   1.836   0.890
11705TIP3    H135056   5.120   1.873   0.859
11705TIP3    H235057   5.188   1.824   0.984
11706TIP3   OH235058   1.493   7.329   2.228
11706TIP3    H135059   1.422   7.371   2.179
11706TIP3    H235060   1.553   7.296   2.162
11707TIP3   OH235061   3.440   0.541   5.033
11707TIP3    H135062   3.450   0.493   4.951
11707TIP3    H235063   3.514   0.513   5.086
11708TIP3   OH235064   3.054   6.564   5.971
11708TIP3    H135065   2.989   6.629   5.998
11708TIP3    H235066   3.016   6.523   5.893
11709TIP3   OH235067   3.657   4.775   3.982
11709TIP3    H135068   3.613   4.857   3.959
11709TIP3    H235069   3.739   4.802   4.024
11710TIP3   OH235070   3.467   0.147   0.312
11710TIP3    H135071   3.404   0.132   0.383
11710TIP3    H235072   3.416   0.134   0.232
11711TIP3   OH235073   0.470   2.227   3.633
11711TIP3    H135074   0.426   2.272   3.705
11711TIP3    H235075   0.539   2.176   3.676
11712TIP3   OH235076   2.028   1.194   5.298
11712TIP3    H135077   2.006   1.194   5.205
11712TIP3    H235078   1.944   1.197   5.343
11713TIP3   OH235079   3.807   7.368   2.531
11713TIP3    H135080   3.873   7.337   2.468
11713TIP3    H235081   3.853   7.434   2.582
11714TIP3   OH235082   1.783   4.687   6.581
11714TIP3    H135083   1.812   4.649   6.663
11714TIP3    H235084   1.704   4.737   6.604
11715TIP3   OH235085   6.735   2.047   0.160
11715TIP3    H135086   6.737   1.959   0.122
11715TIP3    H235087   6.765   2.104   0.089
11716TIP3   OH235088   1.084   0.736   1.445
11716TIP3    H135089   1.168   0.710   1.483
11716TIP3    H235090   1.094   0.830   1.427
11717TIP3   OH235091   0.155   4.830   2.845
11717TIP3    H135092   0.122   4.897   2.786
11717TIP3    H235093   0.248   4.851   2.856
11718TIP3   OH235094   6.013   2.799   6.650
11718TIP3    H135095   5.980   2.813   6.561
11718TIP3    H235096   6.094   2.750   6.638
11719TIP3   OH235097   3.998   2.784   0.037
11719TIP3    H135098   3.977   2.833   0.117
11719TIP3    H235099   3.951   2.701   0.047
11720TIP3   OH235100   2.231   4.548   2.243
11720TIP3    H135101   2.188   4.628   2.272
11720TIP3    H235102   2.316   4.577   2.211
11721TIP3   OH235103   0.449   2.774   5.473
11721TIP3    H135104   0.510   2.783   5.400
11721TIP3    H235105   0.467   2.686   5.508
11722TIP3   OH235106   3.177   1.499   0.618
11722TIP3    H135107   3.147   1.412   0.646
11722TIP3    H235108   3.098   1.543   0.588
11723TIP3   OH235109   0.523   2.006   1.136
11723TIP3    H135110   0.554   2.013   1.046
11723TIP3    H235111   0.494   1.916   1.146
11724TIP3   OH235112   5.305   3.640   4.741
11724TIP3    H135113   5.223   3.591   4.751
11724TIP3    H235114   5.298   3.712   4.804
11725TIP3   OH235115   4.649   6.526   5.349
11725TIP3    H135116   4.564   6.566   5.330
11725TIP3    H235117   4.628   6.439   5.383
11726TIP3   OH235118   7.193   0.997   6.306
11726TIP3    H135119   7.114   0.954   6.339
11726TIP3    H235120   7.192   0.980   6.212
11727TIP3   OH235121   3.672   0.250   6.393
11727TIP3    H135122   3.645   0.163   6.421
11727TIP3    H235123   3.669   0.302   6.474
11728TIP3   OH235124   3.401   4.019   5.889
11728TIP3    H135125   3.436   4.044   5.803
11728TIP3    H235126   3.382   3.925   5.881
11729TIP3   OH235127   2.523   1.110   6.690
11729TIP3    H135128   2.474   1.175   6.639
11729TIP3    H235129   2.603   1.155   6.716
11730TIP3   OH235130   7.174   4.324   2.386
11730TIP3    H135131   7.258   4.337   2.431
11730TIP3    H235132   7.109   4.328   2.455
11731TIP3   OH235133   6.567   6.273   3.959
11731TIP3    H135134   6.643   6.238   4.005
11731TIP3    H235135   6.523   6.195   3.924
11732TIP3   OH235136   0.703   4.736   2.841
11732TIP3    H135137   0.722   4.659   2.788
11732TIP3    H235138   0.737   4.809   2.789
11733TIP3   OH235139   5.012   4.044   6.157
11733TIP3    H135140   5.028   3.960   6.200
11733TIP3    H235141   5.081   4.051   6.090
11734TIP3   OH235142   3.558   0.274   0.912
11734TIP3    H135143   3.544   0.291   0.819
11734TIP3    H235144   3.580   0.359   0.949
11735TIP3   OH235145   5.962   0.298   0.226
11735TIP3    H135146   5.876   0.339   0.216
11735TIP3    H235147   6.005   0.348   0.295
11736TIP3   OH235148   7.135   6.991   6.539
11736TIP3    H135149   7.190   7.048   6.592
11736TIP3    H235150   7.080   6.945   6.602
11737TIP3   OH235151   6.819   7.360   1.517
11737TIP3    H135152   6.741   7.335   1.566
11737TIP3    H235153   6.887   7.302   1.550
11738TIP3   OH235154   7.000   1.226   4.312
11738TIP3    H135155   6.999   1.203   4.219
11738TIP3    H235156   6.911   1.206   4.342
11739TIP3   OH235157   2.541   5.391   5.664
11739TIP3    H135158   2.614   5.337   5.695
11739TIP3    H235159   2.493   5.335   5.604
11740TIP3   OH235160   2.660   4.260   2.607
11740TIP3    H135161   2.633   4.176   2.645
11740TIP3    H235162   2.616   4.264   2.523
11741TIP3   OH235163   5.827   4.896   2.169
11741TIP3    H135164   5.760   4.856   2.226
11741TIP3    H235165   5.823   4.990   2.190
11742TIP3   OH235166   4.998   2.290   4.114
11742TIP3    H135167   4.911   2.317   4.084
11742TIP3    H235168   5.058   2.344   4.064
11743TIP3   OH235169   0.886   3.302   4.881
11743TIP3    H135170   0.865   3.337   4.794
11743TIP3    H235171   0.846   3.363   4.942
11744TIP3   OH235172   2.797   6.332   3.234
11744TIP3    H135173   2.823   6.403   3.175
11744TIP3    H235174   2.868   6.268   3.227
11745TIP3   OH235175   6.304   2.331   2.916
11745TIP3    H135176   6.239   2.288   2.859
11745TIP3    H235177   6.291   2.425   2.899
11746TIP3   OH235178   2.477   6.688   0.701
11746TIP3    H135179   2.569   6.684   0.674
11746TIP3    H235180   2.430   6.715   0.622
11747TIP3   OH235181   5.290   3.614   0.638
11747TIP3    H135182   5.348   3.690   0.648
11747TIP3    H235183   5.342   3.540   0.673
11748TIP3   OH235184   0.992   2.751   1.980
11748TIP3    H135185   0.977   2.730   1.888
11748TIP3    H235186   0.905   2.770   2.015
11749TIP3   OH235187   2.334   5.911   4.800
11749TIP3    H135188   2.246   5.950   4.802
11749TIP3    H235189   2.330   5.840   4.864
11750TIP3   OH235190   0.224   3.772   3.097
11750TIP3    H135191   0.290   3.832   3.131
11750TIP3    H235192   0.263   3.736   3.017
11751TIP3   OH235193   5.755   1.235   6.880
11751TIP3    H135194   5.708   1.270   6.805
11751TIP3    H235195   5.730   1.292   6.953
11752TIP3   OH235196   7.941   5.584   4.368
11752TIP3    H135197   7.929   5.615   4.278
11752TIP3    H235198   7.853   5.585   4.406
11753TIP3   OH235199   0.017   3.220   0.269
11753TIP3    H135200   0.100   3.261   0.245
11753TIP3    H235201  -0.036   3.292   0.303
11754TIP3   OH235202   4.940   5.534   3.780
11754TIP3    H135203   4.979   5.483   3.709
11754TIP3    H235204   4.848   5.543   3.756
11755TIP3   OH235205   7.949   7.615   4.116
11755TIP3    H135206   7.961   7.648   4.027
11755TIP3    H235207   8.016   7.660   4.168
11756TIP3   OH235208   4.062   5.755   2.682
11756TIP3    H135209   4.041   5.802   2.763
11756TIP3    H235210   4.150   5.721   2.696
11757TIP3   OH235211   8.160   4.602   1.827
11757TIP3    H135212   8.090   4.645   1.777
11757TIP3    H235213   8.144   4.509   1.814
11758TIP3   OH235214   8.083   3.724   6.622
11758TIP3    H135215   8.063   3.677   6.703
11758TIP3    H235216   8.068   3.659   6.553
11759TIP3   OH235217   7.624   4.704   2.962
11759TIP3    H135218   7.606   4.774   2.899
11759TIP3    H235219   7.693   4.651   2.920
11760TIP3   OH235220   4.931   1.867   3.530
11760TIP3    H135221   4.997   1.934   3.507
11760TIP3    H235222   4.847   1.909   3.513
11761TIP3   OH235223   2.121   0.531   4.306
11761TIP3    H135224   2.064   0.516   4.381
11761TIP3    H235225   2.066   0.514   4.229
11762TIP3   OH235226   3.287   3.166   3.543
11762TIP3    H135227   3.341   3.157   3.465
11762TIP3    H235228   3.292   3.080   3.586
11763TIP3   OH235229   0.645   3.247   2.021
11763TIP3    H135230   0.550   3.234   2.029
11763TIP3    H235231   0.662   3.326   2.073
11764TIP3   OH235232   4.679   6.790   5.127
11764TIP3    H135233   4.666   6.871   5.078
11764TIP3    H235234   4.597   6.742   5.117
11765TIP3   OH235235   2.450   0.613   0.141
11765TIP3    H135236   2.493   0.592   0.224
11765TIP3    H235237   2.421   0.529   0.107
11766TIP3   OH235238   0.986   3.406   0.775
11766TIP3    H135239   0.891   3.406   0.776
11766TIP3    H235240   1.011   3.497   0.794
11767TIP3   OH235241   7.656   0.125   5.358
11767TIP3    H135242   7.685   0.044   5.316
11767TIP3    H235243   7.734   0.179   5.362
11768TIP3   OH235244   7.113   3.300   4.280
11768TIP3    H135245   7.144   3.372   4.335
11768TIP3    H235246   7.183   3.236   4.282
11769TIP3   OH235247   1.187   6.803   6.061
11769TIP3    H135248   1.097   6.792   6.092
11769TIP3    H235249   1.208   6.719   6.019
11770TIP3   OH235250   6.925   6.708   2.585
11770TIP3    H135251   6.864   6.781   2.594
11770TIP3    H235252   6.928   6.690   2.491
11771TIP3   OH235253   0.567   2.301   3.093
11771TIP3    H135254   0.496   2.343   3.044
11771TIP3    H235255   0.523   2.237   3.150
11772TIP3   OH235256   1.985   7.109   1.940
11772TIP3    H135257   1.935   7.191   1.938
11772TIP3    H235258   2.047   7.121   2.012
11773TIP3   OH235259   3.114   2.058   2.007
11773TIP3    H135260   3.126   2.146   1.972
11773TIP3    H235261   3.090   2.072   2.099
11774TIP3   OH235262   3.613   3.120   5.979
11774TIP3    H135263   3.665   3.069   5.917
11774TIP3    H235264   3.678   3.170   6.029
11775TIP3   OH235265   8.116   1.868   3.639
11775TIP3    H135266   8.202   1.887   3.674
11775TIP3    H235267   8.074   1.812   3.704
11776TIP3   OH235268   3.961   1.264   2.348
11776TIP3    H135269   3.868   1.286   2.355
11776TIP3    H235270   3.999   1.338   2.300
11777TIP3   OH235271   7.206   3.290   6.731
11777TIP3    H135272   7.211   3.336   6.815
11777TIP3    H235273   7.244   3.351   6.668
11778TIP3   OH235274   7.107   3.124   4.933
11778TIP3    H135275   7.054   3.192   4.892
11778TIP3    H235276   7.069   3.113   5.020
11779TIP3   OH235277   2.164   1.621   5.077
11779TIP3    H135278   2.178   1.714   5.096
11779TIP3    H235279   2.242   1.595   5.028
11780TIP3   OH235280   1.184   7.615   4.096
11780TIP3    H135281   1.174   7.668   4.017
11780TIP3    H235282   1.207   7.678   4.164
11781TIP3   OH235283   7.707   1.616   3.680
11781TIP3    H135284   7.617   1.583   3.686
11781TIP3    H235285   7.702   1.689   3.620
11782TIP3   OH235286   6.290   5.221   0.613
11782TIP3    H135287   6.273   5.253   0.701
11782TIP3    H235288   6.302   5.127   0.623
11783TIP3   OH235289   4.622   3.158   3.892
11783TIP3    H135290   4.717   3.145   3.896
11783TIP3    H235291   4.604   3.179   3.801
11784TIP3   OH235292   1.711   1.328   1.371
11784TIP3    H135293   1.803   1.355   1.374
11784TIP3    H235294   1.709   1.255   1.310
11785TIP3   OH235295   4.450   7.911   6.159
11785TIP3    H135296   4.483   7.959   6.083
11785TIP3    H235297   4.422   7.827   6.124
11786TIP3   OH235298   1.969   5.933   5.665
11786TIP3    H135299   2.048   5.961   5.712
11786TIP3    H235300   1.992   5.941   5.572
11787TIP3   OH235301   5.440   0.926   0.038
11787TIP3    H135302   5.408   0.840   0.065
11787TIP3    H235303   5.400   0.987   0.099
11788TIP3   OH235304   1.934   6.297   6.555
11788TIP3    H135305   1.857   6.241   6.543
11788TIP3    H235306   2.006   6.247   6.517
11789TIP3   OH235307   1.357   3.780   6.391
11789TIP3    H135308   1.302   3.729   6.450
11789TIP3    H235309   1.427   3.720   6.365
11790TIP3   OH235310   1.932   4.918   6.422
11790TIP3    H135311   1.924   4.848   6.487
11790TIP3    H235312   1.958   4.994   6.473
11791TIP3   OH235313   5.778   3.124   4.963
11791TIP3    H135314   5.816   3.151   5.046
11791TIP3    H235315   5.716   3.055   4.987
11792TIP3   OH235316   4.144   5.940   0.723
11792TIP3    H135317   4.084   5.919   0.651
11792TIP3    H235318   4.230   5.911   0.691
11793TIP3   OH235319   6.268   6.824   3.075
11793TIP3    H135320   6.180   6.787   3.066
11793TIP3    H235321   6.286   6.819   3.169
11794TIP3   OH235322   6.291   5.040   3.798
11794TIP3    H135323   6.288   4.948   3.822
11794TIP3    H235324   6.341   5.082   3.868
11795TIP3   OH235325   6.182   0.277   5.834
11795TIP3    H135326   6.253   0.265   5.897
11795TIP3    H235327   6.222   0.260   5.749
11796TIP3   OH235328   4.844   4.815   6.301
11796TIP3    H135329   4.886   4.729   6.308
11796TIP3    H235330   4.790   4.821   6.380
11797TIP3   OH235331   0.698   6.974   0.085
11797TIP3    H135332   0.617   6.926   0.072
11797TIP3    H235333   0.671   7.065   0.095
11798TIP3   OH235334   1.319   0.872   2.782
11798TIP3    H135335   1.230   0.866   2.747
11798TIP3    H235336   1.319   0.813   2.858
11799TIP3   OH235337   1.422   5.700   1.335
11799TIP3    H135338   1.454   5.754   1.262
11799TIP3    H235339   1.401   5.616   1.295
11800TIP3   OH235340   0.144   7.840   2.589
11800TIP3    H135341   0.205   7.907   2.620
11800TIP3    H235342   0.149   7.771   2.656
11801TIP3   OH235343   3.451   2.557   1.046
11801TIP3    H135344   3.536   2.528   1.080
11801TIP3    H235345   3.449   2.651   1.063
11802TIP3   OH235346   3.199   7.489   6.099
11802TIP3    H135347   3.195   7.435   6.020
11802TIP3    H235348   3.240   7.433   6.165
11803TIP3   OH235349   5.595   2.013   3.017
11803TIP3    H135350   5.517   2.066   3.004
11803TIP3    H235351   5.563   1.932   3.057
11804TIP3   OH235352   7.223   2.407   2.811
11804TIP3    H135353   7.200   2.325   2.767
11804TIP3    H235354   7.140   2.441   2.844
11805TIP3   OH235355   5.717   3.220   4.587
11805TIP3    H135356   5.740   3.293   4.529
11805TIP3    H235357   5.796   3.202   4.637
11806TIP3   OH235358   2.422   2.876   1.265
11806TIP3    H135359   2.395   2.821   1.339
11806TIP3    H235360   2.435   2.963   1.304
11807TIP3   OH235361   7.537   1.013   2.499
11807TIP3    H135362   7.473   1.037   2.565
11807TIP3    H235363   7.493   0.947   2.445
11808TIP3   OH235364   6.399   1.060   3.291
11808TIP3    H135365   6.446   1.025   3.215
11808TIP3    H235366   6.320   1.007   3.296
11809TIP3   OH235367   4.514   0.863   0.710
11809TIP3    H135368   4.432   0.872   0.758
11809TIP3    H235369   4.526   0.769   0.700
11810TIP3   OH235370   5.368   4.232   0.962
11810TIP3    H135371   5.337   4.235   1.052
11810TIP3    H235372   5.289   4.239   0.909
11811TIP3   OH235373   3.790   3.507   2.940
11811TIP3    H135374   3.820   3.419   2.917
11811TIP3    H235375   3.796   3.510   3.035
11812TIP3   OH235376   1.697   4.501   4.473
11812TIP3    H135377   1.633   4.485   4.542
11812TIP3    H235378   1.740   4.416   4.459
11813TIP3   OH235379   7.369   7.333   0.018
11813TIP3    H135380   7.464   7.330   0.005
11813TIP3    H235381   7.353   7.416   0.063
11814TIP3   OH235382   4.070   7.567   3.590
11814TIP3    H135383   4.027   7.531   3.668
11814TIP3    H235384   4.009   7.632   3.556
11815TIP3   OH235385   0.758   5.480   5.125
11815TIP3    H135386   0.724   5.557   5.171
11815TIP3    H235387   0.824   5.445   5.184
11816TIP3   OH235388   6.840   1.984   3.944
11816TIP3    H135389   6.893   2.033   3.881
11816TIP3    H235390   6.776   2.047   3.977
11817TIP3   OH235391   8.322   3.016   1.652
11817TIP3    H135392   8.323   3.058   1.566
11817TIP3    H235393   8.230   3.003   1.671
11818TIP3   OH235394   4.241   5.380   6.522
11818TIP3    H135395   4.209   5.336   6.601
11818TIP3    H235396   4.226   5.473   6.539
11819TIP3   OH235397   2.784   6.651   0.638
11819TIP3    H135398   2.819   6.737   0.616
11819TIP3    H235399   2.813   6.594   0.567
11820TIP3   OH235400   4.332   1.235   3.836
11820TIP3    H135401   4.386   1.305   3.871
11820TIP3    H235402   4.259   1.228   3.897
11821TIP3   OH235403   7.663   5.602   0.460
11821TIP3    H135404   7.701   5.677   0.507
11821TIP3    H235405   7.733   5.537   0.460
11822TIP3   OH235406   1.906   5.015   0.974
11822TIP3    H135407   1.818   5.044   0.952
11822TIP3    H235408   1.896   4.967   1.057
11823TIP3   OH235409   5.286   1.604   0.676
11823TIP3    H135410   5.280   1.535   0.743
11823TIP3    H235411   5.266   1.685   0.723
11824TIP3   OH235412   7.766   7.782   4.738
11824TIP3    H135413   7.851   7.818   4.713
11824TIP3    H235414   7.765   7.785   4.834
11825TIP3   OH235415   0.788   7.885   4.802
11825TIP3    H135416   0.808   7.814   4.862
11825TIP3    H235417   0.692   7.882   4.794
11826TIP3   OH235418   3.425   0.498   3.746
11826TIP3    H135419   3.335   0.483   3.776
11826TIP3    H235420   3.453   0.575   3.796
11827TIP3   OH235421   2.235   5.739   2.167
11827TIP3    H135422   2.247   5.803   2.097
11827TIP3    H235423   2.161   5.772   2.217
11828TIP3   OH235424   7.955   2.120   0.799
11828TIP3    H135425   7.996   2.046   0.845
11828TIP3    H235426   7.965   2.194   0.860
11829TIP3   OH235427   4.844   7.468   4.394
11829TIP3    H135428   4.868   7.509   4.311
11829TIP3    H235429   4.918   7.411   4.415
11830TIP3   OH235430   7.205   0.318   2.259
11830TIP3    H135431   7.291   0.309   2.301
11830TIP3    H235432   7.218   0.385   2.192
11831TIP3   OH235433   6.600   5.272   0.565
11831TIP3    H135434   6.568   5.329   0.495
11831TIP3    H235435   6.596   5.326   0.644
11832TIP3   OH235436   3.962   6.410   1.260
11832TIP3    H135437   4.021   6.338   1.282
11832TIP3    H235438   3.889   6.368   1.215
11833TIP3   OH235439   0.347   1.391   0.303
11833TIP3    H135440   0.283   1.456   0.271
11833TIP3    H235441   0.431   1.423   0.270
11834TIP3   OH235442   8.079   2.010   3.166
11834TIP3    H135443   8.073   1.946   3.237
11834TIP3    H235444   8.075   1.958   3.086
11835TIP3   OH235445   3.759   0.456   0.121
11835TIP3    H135446   3.760   0.363   0.102
11835TIP3    H235447   3.832   0.470   0.182
11836TIP3   OH235448   5.269   2.815   6.085
11836TIP3    H135449   5.348   2.773   6.122
11836TIP3    H235450   5.196   2.769   6.127
11837TIP3   OH235451   6.247   3.561   1.699
11837TIP3    H135452   6.175   3.586   1.756
11837TIP3    H235453   6.259   3.636   1.642
11838TIP3   OH235454   3.287   7.886   0.636
11838TIP3    H135455   3.335   7.888   0.718
11838TIP3    H235456   3.315   7.964   0.589
11839TIP3   OH235457   1.681   5.080   4.135
11839TIP3    H135458   1.628   5.073   4.056
11839TIP3    H235459   1.750   5.143   4.112
11840TIP3   OH235460   7.297   1.471   0.933
11840TIP3    H135461   7.358   1.494   1.003
11840TIP3    H235462   7.239   1.546   0.925
11841TIP3   OH235463   2.859   3.928   1.990
11841TIP3    H135464   2.872   4.001   1.929
11841TIP3    H235465   2.914   3.950   2.065
11842TIP3   OH235466   4.149   3.740   1.018
11842TIP3    H135467   4.188   3.742   1.105
11842TIP3    H235468   4.196   3.807   0.968
11843TIP3   OH235469   7.653   2.471   0.945
11843TIP3    H135470   7.631   2.394   0.891
11843TIP3    H235471   7.661   2.543   0.882
11844TIP3   OH235472   6.605   0.902   1.673
11844TIP3    H135473   6.541   0.862   1.731
11844TIP3    H235474   6.572   0.991   1.658
11845TIP3   OH235475   6.423   1.199   5.375
11845TIP3    H135476   6.445   1.108   5.396
11845TIP3    H235477   6.422   1.202   5.279
11846TIP3   OH235478   0.913   2.610   0.175
11846TIP3    H135479   0.893   2.517   0.162
11846TIP3    H235480   0.988   2.625   0.117
11847TIP3   OH235481   4.209   2.047   5.458
11847TIP3    H135482   4.167   1.962   5.471
11847TIP3    H235483   4.188   2.071   5.368
11848TIP3   OH235484   1.784   4.252   6.323
11848TIP3    H135485   1.775   4.255   6.228
11848TIP3    H235486   1.696   4.268   6.356
11849TIP3   OH235487   5.024   4.289   1.578
11849TIP3    H135488   5.116   4.270   1.597
11849TIP3    H235489   4.976   4.218   1.621
11850TIP3   OH235490   4.480   2.587   6.654
11850TIP3    H135491   4.443   2.536   6.582
11850TIP3    H235492   4.480   2.527   6.729
11851TIP3   OH235493   1.541   0.096   1.134
11851TIP3    H135494   1.468   0.055   1.088
11851TIP3    H235495   1.506   0.115   1.221
11852TIP3   OH235496   3.500   6.205   5.629
11852TIP3    H135497   3.595   6.192   5.631
11852TIP3    H235498   3.485   6.257   5.550
11853TIP3   OH235499   2.147   2.713   5.409
11853TIP3    H135500   2.213   2.777   5.435
11853TIP3    H235501   2.155   2.642   5.473
11854TIP3   OH235502   1.355   5.947   0.093
11854TIP3    H135503   1.408   5.994   0.029
11854TIP3    H235504   1.416   5.885   0.134
11855TIP3   OH235505   5.165   1.822   1.712
11855TIP3    H135506   5.253   1.856   1.730
11855TIP3    H235507   5.116   1.897   1.680
11856TIP3   OH235508   1.224   5.709   0.135
11856TIP3    H135509   1.269   5.793   0.127
11856TIP3    H235510   1.139   5.723   0.094
11857TIP3   OH235511   1.052   4.228   0.200
11857TIP3    H135512   1.012   4.309   0.232
11857TIP3    H235513   1.145   4.238   0.219
11858TIP3   OH235514   5.561   1.076   0.681
11858TIP3    H135515   5.552   1.129   0.760
11858TIP3    H235516   5.634   1.017   0.699
11859TIP3   OH235517   1.777   0.602   3.793
11859TIP3    H135518   1.717   0.581   3.721
11859TIP3    H235519   1.846   0.654   3.751
11860TIP3   OH235520   1.583   2.273   1.593
11860TIP3    H135521   1.510   2.216   1.569
11860TIP3    H235522   1.540   2.352   1.627
11861TIP3   OH235523   8.184   6.585   4.337
11861TIP3    H135524   8.090   6.594   4.351
11861TIP3    H235525   8.222   6.584   4.425
11862TIP3   OH235526   3.791   1.616   3.958
11862TIP3    H135527   3.762   1.543   3.904
11862TIP3    H235528   3.885   1.600   3.973
11863TIP3   OH235529   5.669   5.152   2.166
11863TIP3    H135530   5.660   5.073   2.113
11863TIP3    H235531   5.644   5.125   2.255
11864TIP3   OH235532   3.486   2.818   2.937
11864TIP3    H135533   3.439   2.900   2.953
11864TIP3    H235534   3.420   2.750   2.951
11865TIP3   OH235535   6.368   0.114   6.300
11865TIP3    H135536   6.451   0.079   6.267
11865TIP3    H235537   6.355   0.195   6.251
11866TIP3   OH235538   0.123   2.942   5.847
11866TIP3    H135539   0.135   2.857   5.804
11866TIP3    H235540   0.186   2.941   5.919
11867TIP3   OH235541   5.223   2.336   1.305
11867TIP3    H135542   5.231   2.244   1.279
11867TIP3    H235543   5.292   2.348   1.371
11868TIP3   OH235544   8.339   6.068   6.645
11868TIP3    H135545   8.303   6.052   6.732
11868TIP3    H235546   8.278   6.027   6.585
11869TIP3   OH235547   5.495   3.801   4.006
11869TIP3    H135548   5.402   3.816   3.991
11869TIP3    H235549   5.500   3.714   4.045
11870TIP3   OH235550   3.355   7.791   5.311
11870TIP3    H135551   3.405   7.776   5.231
11870TIP3    H235552   3.383   7.878   5.340
11871TIP3   OH235553   1.037   2.173   2.178
11871TIP3    H135554   1.093   2.199   2.250
11871TIP3    H235555   0.948   2.195   2.207
11872TIP3   OH235556   3.395   4.687   6.658
11872TIP3    H135557   3.466   4.701   6.595
11872TIP3    H235558   3.352   4.773   6.664
11873TIP3   OH235559   7.320   3.940   1.672
11873TIP3    H135560   7.239   3.913   1.629
11873TIP3    H235561   7.362   3.999   1.609
11874TIP3   OH235562   7.313   2.125   0.087
11874TIP3    H135563   7.269   2.047   0.121
11874TIP3    H235564   7.251   2.197   0.104
11875TIP3   OH235565   3.899   4.134   2.808
11875TIP3    H135566   3.931   4.216   2.844
11875TIP3    H235567   3.851   4.160   2.729
11876TIP3   OH235568   7.872   0.433   5.623
11876TIP3    H135569   7.872   0.520   5.662
11876TIP3    H235570   7.823   0.379   5.685
11877TIP3   OH235571   2.012   4.598   3.563
11877TIP3    H135572   2.093   4.592   3.613
11877TIP3    H235573   1.943   4.594   3.629
11878TIP3   OH235574   1.488   5.326   0.419
11878TIP3    H135575   1.469   5.238   0.388
11878TIP3    H235576   1.443   5.384   0.357
11879TIP3   OH235577   3.002   7.525   6.844
11879TIP3    H135578   3.072   7.584   6.873
11879TIP3    H235579   2.922   7.577   6.852
11880TIP3   OH235580   3.039   4.549   0.083
11880TIP3    H135581   2.997   4.564  -0.002
11880TIP3    H235582   3.038   4.454   0.093
11881TIP3   OH235583   4.210   1.966   4.418
11881TIP3    H135584   4.141   1.904   4.396
11881TIP3    H235585   4.166   2.051   4.424
11882TIP3   OH235586   6.855   3.746   5.220
11882TIP3    H135587   6.922   3.813   5.207
11882TIP3    H235588   6.850   3.700   5.136
11883TIP3   OH235589   4.846   2.947   6.056
11883TIP3    H135590   4.761   2.977   6.088
11883TIP3    H235591   4.898   3.027   6.051
11884TIP3   OH235592   1.551   6.066   3.894
11884TIP3    H135593   1.463   6.050   3.926
11884TIP3    H235594   1.539   6.105   3.808
11885TIP3   OH235595   3.052   1.963   5.158
11885TIP3    H135596   3.045   1.876   5.198
11885TIP3    H235597   3.092   2.018   5.226
11886TIP3   OH235598   1.217   5.390   0.606
11886TIP3    H135599   1.264   5.402   0.524
11886TIP3    H235600   1.244   5.303   0.636
11887TIP3   OH235601   6.121   3.797   4.355
11887TIP3    H135602   6.068   3.718   4.350
11887TIP3    H235603   6.180   3.782   4.429
11888TIP3   OH235604   2.872   1.756   3.671
11888TIP3    H135605   2.846   1.704   3.747
11888TIP3    H235606   2.816   1.724   3.600
11889TIP3   OH235607   4.852   0.703   3.111
11889TIP3    H135608   4.844   0.619   3.157
11889TIP3    H235609   4.882   0.765   3.177
11890TIP3   OH235610   4.159   5.383   0.172
11890TIP3    H135611   4.093   5.413   0.110
11890TIP3    H235612   4.111   5.367   0.253
11891TIP3   OH235613   5.381   1.151   4.557
11891TIP3    H135614   5.296   1.115   4.531
11891TIP3    H235615   5.363   1.243   4.575
11892TIP3   OH235616   0.760   3.957   3.382
11892TIP3    H135617   0.851   3.932   3.367
11892TIP3    H235618   0.720   3.957   3.295
11893TIP3   OH235619   0.921   5.361   0.486
11893TIP3    H135620   1.014   5.383   0.498
11893TIP3    H235621   0.877   5.397   0.562
11894TIP3   OH235622   1.752   4.831   4.186
11894TIP3    H135623   1.692   4.793   4.250
11894TIP3    H235624   1.713   4.915   4.163
11895TIP3   OH235625   1.522   3.054   5.897
11895TIP3    H135626   1.502   3.016   5.811
11895TIP3    H235627   1.536   3.147   5.880
11896TIP3   OH235628   7.527   5.364   3.425
11896TIP3    H135629   7.507   5.313   3.503
11896TIP3    H235630   7.618   5.344   3.405
11897TIP3   OH235631   2.743   6.430   3.711
11897TIP3    H135632   2.678   6.475   3.657
11897TIP3    H235633   2.821   6.485   3.705
11898TIP3   OH235634   3.667   4.106   4.090
11898TIP3    H135635   3.622   4.098   4.006
11898TIP3    H235636   3.744   4.159   4.071
11899TIP3   OH235637   2.017   6.824   0.744
11899TIP3    H135638   2.084   6.790   0.804
11899TIP3    H235639   1.972   6.746   0.712
11900TIP3   OH235640   2.708   5.982   0.802
11900TIP3    H135641   2.787   6.036   0.806
11900TIP3    H235642   2.657   6.008   0.879
11901TIP3   OH235643   4.340   4.811   4.511
11901TIP3    H135644   4.281   4.743   4.544
11901TIP3    H235645   4.282   4.883   4.485
11902TIP3   OH235646   4.130   4.727   0.634
11902TIP3    H135647   4.129   4.639   0.597
11902TIP3    H235648   4.055   4.730   0.693
11903TIP3   OH235649   0.142   3.169   5.722
11903TIP3    H135650   0.212   3.226   5.754
11903TIP3    H235651   0.156   3.086   5.767
11904TIP3   OH235652   5.226   3.635   3.644
11904TIP3    H135653   5.177   3.594   3.574
11904TIP3    H235654   5.268   3.563   3.691
11905TIP3   OH235655   4.759   0.692   0.464
11905TIP3    H135656   4.678   0.701   0.413
11905TIP3    H235657   4.804   0.775   0.452
11906TIP3   OH235658   3.925   0.787   3.408
11906TIP3    H135659   4.014   0.803   3.442
11906TIP3    H235660   3.938   0.772   3.314
11907TIP3   OH235661   2.415   3.435   2.326
11907TIP3    H135662   2.363   3.375   2.274
11907TIP3    H235663   2.478   3.472   2.264
11908TIP3   OH235664   1.605   5.644   6.690
11908TIP3    H135665   1.551   5.565   6.701
11908TIP3    H235666   1.653   5.629   6.608
11909TIP3   OH235667   6.760   6.533   6.206
11909TIP3    H135668   6.752   6.621   6.241
11909TIP3    H235669   6.693   6.482   6.252
11910TIP3   OH235670   3.703   6.466   3.878
11910TIP3    H135671   3.770   6.532   3.859
11910TIP3    H235672   3.633   6.515   3.922
11911TIP3   OH235673   2.222   1.400   4.801
11911TIP3    H135674   2.288   1.343   4.841
11911TIP3    H235675   2.211   1.365   4.713
11912TIP3   OH235676   4.586   6.770   2.990
11912TIP3    H135677   4.524   6.747   2.921
11912TIP3    H235678   4.531   6.789   3.066
11913TIP3   OH235679   6.508   7.109   4.475
11913TIP3    H135680   6.507   7.018   4.447
11913TIP3    H235681   6.469   7.107   4.563
11914TIP3   OH235682   1.283   6.049   3.932
11914TIP3    H135683   1.264   6.098   3.852
11914TIP3    H235684   1.204   5.997   3.948
11915TIP3   OH235685   8.081   4.259   6.331
11915TIP3    H135686   8.016   4.285   6.397
11915TIP3    H235687   8.165   4.281   6.370
11916TIP3   OH235688   7.484   5.340   0.360
11916TIP3    H135689   7.477   5.433   0.341
11916TIP3    H235690   7.535   5.304   0.287
11917TIP3   OH235691   5.367   1.697   3.326
11917TIP3    H135692   5.299   1.726   3.264
11917TIP3    H235693   5.345   1.742   3.408
11918TIP3   OH235694   3.479   7.294   6.749
11918TIP3    H135695   3.504   7.383   6.724
11918TIP3    H235696   3.393   7.304   6.789
11919TIP3   OH235697   7.183   0.531   2.082
11919TIP3    H135698   7.240   0.586   2.028
11919TIP3    H235699   7.153   0.588   2.152
11920TIP3   OH235700   7.250   1.463   0.612
11920TIP3    H135701   7.333   1.433   0.649
11920TIP3    H235702   7.219   1.390   0.559
11921TIP3   OH235703   0.732   5.993   6.690
11921TIP3    H135704   0.784   6.033   6.620
11921TIP3    H235705   0.676   5.930   6.645
11922TIP3   OH235706   7.028   4.676   5.786
11922TIP3    H135707   7.070   4.602   5.742
11922TIP3    H235708   7.017   4.742   5.718
11923TIP3   OH235709   5.243   7.387   2.785
11923TIP3    H135710   5.299   7.454   2.825
11923TIP3    H235711   5.172   7.375   2.848
11924TIP3   OH235712   7.564   0.943   2.895
11924TIP3    H135713   7.518   1.011   2.945
11924TIP3    H235714   7.616   0.992   2.831
11925TIP3   OH235715   1.502   3.261   2.407
11925TIP3    H135716   1.540   3.304   2.330
11925TIP3    H235717   1.462   3.333   2.457
11926TIP3   OH235718   3.204   5.882   5.232
11926TIP3    H135719   3.128   5.939   5.246
11926TIP3    H235720   3.170   5.810   5.179
11927TIP3   OH235721   0.536   5.501   2.009
11927TIP3    H135722   0.568   5.453   1.933
11927TIP3    H235723   0.588   5.581   2.011
11928TIP3   OH235724   0.815   3.455   4.653
11928TIP3    H135725   0.830   3.540   4.694
11928TIP3    H235726   0.891   3.441   4.597
11929TIP3   OH235727   6.382   7.107   1.119
11929TIP3    H135728   6.308   7.047   1.129
11929TIP3    H235729   6.447   7.057   1.069
11930TIP3   OH235730   5.714   7.160   5.534
11930TIP3    H135731   5.742   7.236   5.585
11930TIP3    H235732   5.629   7.185   5.498
11931TIP3   OH235733   0.961   0.114   6.283
11931TIP3    H135734   0.912   0.142   6.206
11931TIP3    H235735   1.027   0.053   6.249
11932TIP3   OH235736   5.773   6.822   1.076
11932TIP3    H135737   5.819   6.871   1.008
11932TIP3    H235738   5.683   6.813   1.044
11933TIP3   OH235739   2.122   0.918   6.626
11933TIP3    H135740   2.198   0.945   6.574
11933TIP3    H235741   2.099   0.996   6.677
11934TIP3   OH235742   3.920   0.979   2.446
11934TIP3    H135743   3.836   1.008   2.481
11934TIP3    H235744   3.951   1.053   2.393
11935TIP3   OH235745   4.667   2.450   0.100
11935TIP3    H135746   4.656   2.366   0.145
11935TIP3    H235747   4.637   2.515   0.163
11936TIP3   OH235748   8.091   5.392   4.517
11936TIP3    H135749   8.072   5.463   4.455
11936TIP3    H235750   8.065   5.427   4.602
11937TIP3   OH235751   5.866   0.087   6.749
11937TIP3    H135752   5.937   0.104   6.811
11937TIP3    H235753   5.902   0.115   6.664
11938TIP3   OH235754   4.534   1.080   2.069
11938TIP3    H135755   4.456   1.082   2.125
11938TIP3    H235756   4.606   1.057   2.128
11939TIP3   OH235757   8.347   2.540   4.649
11939TIP3    H135758   8.259   2.574   4.666
11939TIP3    H235759   8.336   2.484   4.572
11940TIP3   OH235760   2.057   4.226   0.905
11940TIP3    H135761   2.114   4.178   0.844
11940TIP3    H235762   2.024   4.299   0.853
11941TIP3   OH235763   4.021   0.892   5.957
11941TIP3    H135764   4.085   0.945   5.910
11941TIP3    H235765   4.023   0.926   6.047
11942TIP3   OH235766   5.964   4.363   1.698
11942TIP3    H135767   5.938   4.361   1.606
11942TIP3    H235768   6.057   4.341   1.697
11943TIP3   OH235769   5.608   2.734   3.456
11943TIP3    H135770   5.530   2.682   3.440
11943TIP3    H235771   5.581   2.824   3.438
11944TIP3   OH235772   1.189   0.628   1.883
11944TIP3    H135773   1.158   0.630   1.792
11944TIP3    H235774   1.191   0.720   1.909
11945TIP3   OH235775   5.491   3.762   6.717
11945TIP3    H135776   5.421   3.775   6.653
11945TIP3    H235777   5.479   3.832   6.781
11946TIP3   OH235778   2.337   6.290   3.691
11946TIP3    H135779   2.321   6.203   3.656
11946TIP3    H235780   2.415   6.281   3.746
11947TIP3   OH235781   3.767   5.489   5.061
11947TIP3    H135782   3.859   5.514   5.061
11947TIP3    H235783   3.753   5.451   4.974
11948TIP3   OH235784   6.531   7.206   2.751
11948TIP3    H135785   6.548   7.158   2.669
11948TIP3    H235786   6.594   7.278   2.751
11949TIP3   OH235787   3.117   3.822   1.128
11949TIP3    H135788   3.053   3.756   1.101
11949TIP3    H235789   3.200   3.792   1.091
11950TIP3   OH235790   1.196   7.642   5.260
11950TIP3    H135791   1.192   7.646   5.356
11950TIP3    H235792   1.117   7.689   5.231
11951TIP3   OH235793   4.075   6.263   0.989
11951TIP3    H135794   4.106   6.278   0.900
11951TIP3    H235795   4.125   6.324   1.043
11952TIP3   OH235796   7.059   3.261   5.279
11952TIP3    H135797   7.126   3.222   5.335
11952TIP3    H235798   7.087   3.352   5.268
11953TIP3   OH235799   0.520   6.882   5.851
11953TIP3    H135800   0.570   6.804   5.871
11953TIP3    H235801   0.524   6.935   5.931
11954TIP3   OH235802   7.295   4.004   4.380
11954TIP3    H135803   7.287   4.061   4.456
11954TIP3    H235804   7.388   3.982   4.375
11955TIP3   OH235805   7.610   1.011   6.481
11955TIP3    H135806   7.527   0.989   6.525
11955TIP3    H235807   7.617   0.949   6.409
11956TIP3   OH235808   7.000   2.646   2.503
11956TIP3    H135809   6.996   2.741   2.498
11956TIP3    H235810   6.917   2.620   2.542
11957TIP3   OH235811   0.728   4.395   3.950
11957TIP3    H135812   0.742   4.346   3.868
11957TIP3    H235813   0.670   4.339   4.001
11958TIP3   OH235814   7.060   3.228   2.162
11958TIP3    H135815   7.089   3.237   2.072
11958TIP3    H235816   7.010   3.145   2.163
11959TIP3   OH235817   1.710   5.571   3.560
11959TIP3    H135818   1.622   5.594   3.591
11959TIP3    H235819   1.695   5.509   3.488
11960TIP3   OH235820   4.347   5.010   5.390
11960TIP3    H135821   4.266   4.962   5.371
11960TIP3    H235822   4.318   5.099   5.409
11961TIP3   OH235823   5.286   6.420   0.119
11961TIP3    H135824   5.205   6.370   0.110
11961TIP3    H235825   5.323   6.421   0.031
11962TIP3   OH235826   6.038   6.550   6.591
11962TIP3    H135827   5.979   6.626   6.594
11962TIP3    H235828   6.099   6.565   6.663
11963TIP3   OH235829   4.709   7.832   4.977
11963TIP3    H135830   4.780   7.865   4.923
11963TIP3    H235831   4.715   7.737   4.969
11964TIP3   OH235832   0.643   0.614   1.343
11964TIP3    H135833   0.576   0.678   1.364
11964TIP3    H235834   0.635   0.600   1.248
11965TIP3   OH235835   7.067   4.242   6.092
11965TIP3    H135836   7.048   4.321   6.142
11965TIP3    H235837   6.991   4.185   6.106
11966TIP3   OH235838   2.995   5.788   1.750
11966TIP3    H135839   3.039   5.711   1.715
11966TIP3    H235840   2.968   5.762   1.839
11967TIP3   OH235841   0.613   3.904   1.516
11967TIP3    H135842   0.696   3.897   1.564
11967TIP3    H235843   0.583   3.993   1.535
11968TIP3   OH235844   3.367   1.808   1.011
11968TIP3    H135845   3.462   1.815   1.022
11968TIP3    H235846   3.355   1.784   0.919
11969TIP3   OH235847   0.178   6.952   1.601
11969TIP3    H135848   0.137   7.037   1.587
11969TIP3    H235849   0.251   6.969   1.660
11970TIP3   OH235850   7.927   5.329   2.150
11970TIP3    H135851   7.999   5.266   2.153
11970TIP3    H235852   7.927   5.361   2.060
11971TIP3   OH235853   6.594   3.969   3.383
11971TIP3    H135854   6.527   3.957   3.450
11971TIP3    H235855   6.677   3.961   3.430
11972TIP3   OH235856   4.840   6.985   1.335
11972TIP3    H135857   4.935   6.974   1.331
11972TIP3    H235858   4.810   6.971   1.245
11973TIP3   OH235859  -0.004   4.640   0.559
11973TIP3    H135860   0.055   4.670   0.628
11973TIP3    H235861   0.041   4.660   0.477
11974TIP3   OH235862   0.902   1.465   4.675
11974TIP3    H135863   0.901   1.388   4.618
11974TIP3    H235864   0.867   1.535   4.621
11975TIP3   OH235865   6.006   6.749   2.870
11975TIP3    H135866   6.061   6.683   2.827
11975TIP3    H235867   5.980   6.808   2.799
11976TIP3   OH235868   1.772   7.825   6.728
11976TIP3    H135869   1.857   7.870   6.732
11976TIP3    H235870   1.710   7.888   6.764
11977TIP3   OH235871   4.862   1.390   3.882
11977TIP3    H135872   4.855   1.416   3.790
11977TIP3    H235873   4.804   1.450   3.929
11978TIP3   OH235874   2.264   4.031   2.191
11978TIP3    H135875   2.177   4.065   2.211
11978TIP3    H235876   2.283   3.969   2.261
11979TIP3   OH235877   5.248   5.536   2.590
11979TIP3    H135878   5.152   5.537   2.591
11979TIP3    H235879   5.273   5.628   2.595
11980TIP3   OH235880   2.973   4.362   6.136
11980TIP3    H135881   3.023   4.280   6.132
11980TIP3    H235882   2.883   4.335   6.115
11981TIP3   OH235883   4.751   6.317   1.459
11981TIP3    H135884   4.705   6.258   1.518
11981TIP3    H235885   4.717   6.295   1.372
11982TIP3   OH235886   6.826   2.274   0.928
11982TIP3    H135887   6.785   2.259   0.842
11982TIP3    H235888   6.872   2.192   0.946
11983TIP3   OH235889   6.048   6.459   2.160
11983TIP3    H135890   5.961   6.420   2.151
11983TIP3    H235891   6.098   6.423   2.087
11984TIP3   OH235892   3.472   4.806   4.916
11984TIP3    H135893   3.412   4.833   4.846
11984TIP3    H235894   3.430   4.729   4.954
11985TIP3   OH235895   7.101   7.719   3.509
11985TIP3    H135896   7.056   7.737   3.591
11985TIP3    H235897   7.061   7.639   3.476
11986TIP3   OH235898   0.567   6.957   4.193
11986TIP3    H135899   0.564   7.046   4.157
11986TIP3    H235900   0.552   6.900   4.117
11987TIP3   OH235901   4.734   6.879   6.119
11987TIP3    H135902   4.757   6.969   6.098
11987TIP3    H235903   4.686   6.885   6.202
11988TIP3   OH235904   7.055   3.035   6.170
11988TIP3    H135905   7.125   3.096   6.190
11988TIP3    H235906   6.975   3.087   6.177
11989TIP3   OH235907   5.203   3.315   6.161
11989TIP3    H135908   5.242   3.356   6.238
11989TIP3    H235909   5.211   3.381   6.092
11990TIP3   OH235910   8.077   4.554   6.795
11990TIP3    H135911   8.141   4.561   6.865
11990TIP3    H235912   8.094   4.469   6.755
11991TIP3   OH235913   7.579   7.916   6.513
11991TIP3    H135914   7.635   7.855   6.465
11991TIP3    H235915   7.490   7.893   6.485
11992TIP3   OH235916   3.654   4.461   0.933
11992TIP3    H135917   3.658   4.500   1.020
11992TIP3    H235918   3.568   4.487   0.899
11993TIP3   OH235919   7.650   4.598   1.214
11993TIP3    H135920   7.581   4.565   1.270
11993TIP3    H235921   7.704   4.652   1.272
11994TIP3   OH235922   7.014   6.533   2.772
11994TIP3    H135923   6.937   6.477   2.773
11994TIP3    H235924   6.997   6.597   2.703
11995TIP3   OH235925   4.879   7.141   0.627
11995TIP3    H135926   4.801   7.149   0.682
11995TIP3    H235927   4.946   7.191   0.673
11996TIP3   OH235928   2.536   5.211   6.122
11996TIP3    H135929   2.465   5.151   6.146
11996TIP3    H235930   2.589   5.219   6.201
11997TIP3   OH235931   0.730   4.623   0.214
11997TIP3    H135932   0.716   4.588   0.126
11997TIP3    H235933   0.671   4.573   0.270
11998TIP3   OH235934   3.093   6.177   5.573
11998TIP3    H135935   3.154   6.161   5.501
11998TIP3    H235936   3.096   6.098   5.626
11999TIP3   OH235937   4.731   5.438   5.154
11999TIP3    H135938   4.786   5.370   5.194
11999TIP3    H235939   4.643   5.420   5.188
12000TIP3   OH235940   2.298   7.177   2.417
12000TIP3    H135941   2.264   7.224   2.494
12000TIP3    H235942   2.378   7.224   2.393
12001TIP3   OH235943   5.314   3.032   3.935
12001TIP3    H135944   5.248   2.965   3.916
12001TIP3    H235945   5.285   3.072   4.017
12002TIP3   OH235946   0.824   1.519   0.688
12002TIP3    H135947   0.778   1.602   0.681
12002TIP3    H235948   0.756   1.452   0.680
12003TIP3   OH235949   8.273   6.323   2.405
12003TIP3    H135950   8.215   6.384   2.358
12003TIP3    H235951   8.361   6.356   2.387
12004TIP3   OH235952   0.070   7.138   3.880
12004TIP3    H135953   0.000   7.172   3.936
12004TIP3    H235954   0.102   7.061   3.927
12005TIP3   OH235955   8.365   4.964   4.760
12005TIP3    H135956   8.380   5.058   4.774
12005TIP3    H235957   8.452   4.925   4.764
12006TIP3   OH235958   2.988   4.880   6.534
12006TIP3    H135959   3.026   4.966   6.552
12006TIP3    H235960   3.019   4.825   6.606
12007TIP3   OH235961   1.883   5.242   3.763
12007TIP3    H135962   1.895   5.148   3.747
12007TIP3    H235963   1.791   5.250   3.789
12008TIP3   OH235964   6.783   0.313   5.879
12008TIP3    H135965   6.867   0.355   5.900
12008TIP3    H235966   6.804   0.253   5.807
12009TIP3   OH235967   7.668   5.085   1.360
12009TIP3    H135968   7.626   5.162   1.320
12009TIP3    H235969   7.604   5.015   1.349
12010TIP3   OH235970   0.883   4.447   4.723
12010TIP3    H135971   0.880   4.369   4.667
12010TIP3    H235972   0.898   4.519   4.662
12011TIP3   OH235973   5.963   3.954   4.522
12011TIP3    H135974   5.931   3.918   4.605
12011TIP3    H235975   6.002   3.879   4.477
12012TIP3   OH235976   7.628   3.025   2.862
12012TIP3    H135977   7.617   2.949   2.920
12012TIP3    H235978   7.666   2.990   2.782
12013TIP3   OH235979   1.729   4.602   4.034
12013TIP3    H135980   1.730   4.690   4.073
12013TIP3    H235981   1.649   4.562   4.065
12014TIP3   OH235982   2.631   3.975   2.619
12014TIP3    H135983   2.628   3.891   2.575
12014TIP3    H235984   2.539   4.001   2.628
12015TIP3   OH235985   5.633   5.737   3.896
12015TIP3    H135986   5.670   5.670   3.839
12015TIP3    H235987   5.580   5.688   3.959
12016TIP3   OH235988   4.914   0.401   3.792
12016TIP3    H135989   4.879   0.484   3.824
12016TIP3    H235990   4.904   0.341   3.865
12017TIP3   OH235991   5.480   3.690   1.981
12017TIP3    H135992   5.400   3.709   1.931
12017TIP3    H235993   5.510   3.776   2.011
12018TIP3   OH235994   2.291   6.836   4.093
12018TIP3    H135995   2.224   6.877   4.039
12018TIP3    H235996   2.308   6.899   4.164
12019TIP3   OH235997   5.779   3.855   2.239
12019TIP3    H135998   5.699   3.901   2.215
12019TIP3    H235999   5.809   3.899   2.318
12020TIP3   OH236000   8.393   2.947   0.568
12020TIP3    H136001   8.399   2.919   0.660
12020TIP3    H236002   8.370   2.867   0.520
12021TIP3   OH236003   1.837   1.325   2.914
12021TIP3    H136004   1.932   1.311   2.908
12021TIP3    H236005   1.806   1.255   2.970
12022TIP3   OH236006   2.270   7.162   0.714
12022TIP3    H136007   2.219   7.216   0.775
12022TIP3    H236008   2.224   7.170   0.631
12023TIP3   OH236009   6.956   1.883   1.883
12023TIP3    H136010   6.884   1.882   1.820
12023TIP3    H236011   6.996   1.969   1.873
12024TIP3   OH236012   2.428   2.412   5.165
12024TIP3    H136013   2.446   2.436   5.256
12024TIP3    H236014   2.355   2.351   5.171
12025TIP3   OH236015   7.960   0.989   6.337
12025TIP3    H136016   8.013   0.915   6.365
12025TIP3    H236017   7.974   0.994   6.242
12026TIP3   OH236018   8.380   4.469   2.900
12026TIP3    H136019   8.397   4.464   2.994
12026TIP3    H236020   8.331   4.390   2.880
12027TIP3   OH236021   0.841   3.981   0.555
12027TIP3    H136022   0.761   4.030   0.539
12027TIP3    H236023   0.816   3.890   0.542
12028TIP3   OH236024   6.190   2.076   1.169
12028TIP3    H136025   6.238   2.111   1.094
12028TIP3    H236026   6.223   1.986   1.179
12029TIP3   OH236027   7.841   2.124   6.456
12029TIP3    H136028   7.873   2.072   6.529
12029TIP3    H236029   7.784   2.065   6.408
12030TIP3   OH236030   6.181   4.875   1.179
12030TIP3    H136031   6.167   4.969   1.175
12030TIP3    H236032   6.094   4.837   1.190
12031TIP3   OH236033   7.579   0.915   0.248
12031TIP3    H136034   7.556   0.963   0.168
12031TIP3    H236035   7.546   0.826   0.232
12032TIP3   OH236036   7.931   5.179   0.781
12032TIP3    H136037   7.866   5.249   0.789
12032TIP3    H236038   7.920   5.146   0.692
12033TIP3   OH236039   4.558   5.836   3.684
12033TIP3    H136040   4.481   5.886   3.656
12033TIP3    H236041   4.598   5.890   3.753
12034TIP3   OH236042   7.399   0.433   4.335
12034TIP3    H136043   7.411   0.527   4.327
12034TIP3    H236044   7.383   0.418   4.428
12035TIP3   OH236045   6.341   0.070   2.227
12035TIP3    H136046   6.418   0.093   2.280
12035TIP3    H236047   6.373   0.073   2.137
12036TIP3   OH236048   2.467   3.610   3.975
12036TIP3    H136049   2.545   3.649   4.015
12036TIP3    H236050   2.399   3.677   3.986
12037TIP3   OH236051   4.463   1.437   6.228
12037TIP3    H136052   4.445   1.438   6.134
12037TIP3    H236053   4.521   1.362   6.241
12038TIP3   OH236054   5.702   0.385   6.807
12038TIP3    H136055   5.700   0.315   6.742
12038TIP3    H236056   5.763   0.354   6.874
12039TIP3   OH236057   4.800   6.898   2.612
12039TIP3    H136058   4.859   6.822   2.613
12039TIP3    H236059   4.785   6.915   2.519
12040TIP3   OH236060   1.409   7.206   6.843
12040TIP3    H136061   1.397   7.184   6.936
12040TIP3    H236062   1.503   7.213   6.831
12041TIP3   OH236063   5.117   2.763   6.618
12041TIP3    H136064   5.093   2.854   6.606
12041TIP3    H236065   5.037   2.714   6.598
12042TIP3   OH236066   8.107   0.852   5.597
12042TIP3    H136067   8.071   0.879   5.513
12042TIP3    H236068   8.202   0.849   5.582
12043TIP3   OH236069   5.045   7.449   0.983
12043TIP3    H136070   5.081   7.360   0.984
12043TIP3    H236071   4.969   7.443   0.925
12044TIP3   OH236072   2.611   6.700   1.734
12044TIP3    H136073   2.685   6.680   1.677
12044TIP3    H236074   2.545   6.736   1.676
12045TIP3   OH236075   6.531   5.591   3.190
12045TIP3    H136076   6.564   5.640   3.115
12045TIP3    H236077   6.561   5.501   3.175
12046TIP3   OH236078   6.128   3.237   1.280
12046TIP3    H136079   6.107   3.324   1.316
12046TIP3    H236080   6.220   3.224   1.303
12047TIP3   OH236081   4.759   4.052   5.251
12047TIP3    H136082   4.751   3.965   5.289
12047TIP3    H236083   4.803   4.104   5.319
12048TIP3   OH236084   0.165   3.190   2.398
12048TIP3    H136085   0.222   3.181   2.321
12048TIP3    H236086   0.082   3.222   2.362
12049TIP3   OH236087   3.352   7.795   4.685
12049TIP3    H136088   3.365   7.844   4.604
12049TIP3    H236089   3.264   7.757   4.677
12050TIP3   OH236090   4.186   0.098   4.434
12050TIP3    H136091   4.256   0.096   4.368
12050TIP3    H236092   4.227   0.138   4.510
12051TIP3   OH236093   4.682   2.733   4.570
12051TIP3    H136094   4.739   2.658   4.551
12051TIP3    H236095   4.593   2.697   4.563
12052TIP3   OH236096   6.681   3.374   1.551
12052TIP3    H136097   6.638   3.359   1.467
12052TIP3    H236098   6.627   3.440   1.594
12053TIP3   OH236099   6.553   7.816   4.189
12053TIP3    H136100   6.577   7.750   4.254
12053TIP3    H236101   6.458   7.820   4.193
12054TIP3   OH236102   3.268   5.323   2.968
12054TIP3    H136103   3.310   5.352   2.887
12054TIP3    H236104   3.339   5.315   3.031
12055TIP3   OH236105   8.051   7.775   0.831
12055TIP3    H136106   8.109   7.701   0.847
12055TIP3    H236107   7.964   7.737   0.829
12056TIP3   OH236108   6.800   4.858   6.508
12056TIP3    H136109   6.863   4.903   6.452
12056TIP3    H236110   6.758   4.794   6.451
12057TIP3   OH236111   1.308   3.095   1.358
12057TIP3    H136112   1.313   3.189   1.372
12057TIP3    H236113   1.216   3.077   1.344
12058TIP3   OH236114   7.063   6.166   5.813
12058TIP3    H136115   7.118   6.238   5.782
12058TIP3    H236116   7.039   6.191   5.902
12059TIP3   OH236117   6.848   1.755   0.770
12059TIP3    H136118   6.817   1.774   0.858
12059TIP3    H236119   6.887   1.667   0.777
12060TIP3   OH236120   4.532   4.479   6.030
12060TIP3    H136121   4.477   4.423   5.975
12060TIP3    H236122   4.609   4.497   5.975
12061TIP3   OH236123   8.067   5.306   1.878
12061TIP3    H136124   8.033   5.352   1.801
12061TIP3    H236125   8.148   5.266   1.848
12062TIP3   OH236126   1.843   4.294   4.539
12062TIP3    H136127   1.787   4.239   4.595
12062TIP3    H236128   1.902   4.338   4.600
12063TIP3   OH236129   0.460   2.510   5.249
12063TIP3    H136130   0.389   2.569   5.222
12063TIP3    H236131   0.415   2.431   5.279
12064TIP3   OH236132   7.493   0.553   3.936
12064TIP3    H136133   7.578   0.554   3.980
12064TIP3    H236134   7.497   0.627   3.875
12065TIP3   OH236135   0.594   0.260   2.055
12065TIP3    H136136   0.612   0.189   1.994
12065TIP3    H236137   0.681   0.295   2.076
12066TIP3   OH236138   4.514   7.032   1.254
12066TIP3    H136139   4.590   7.010   1.306
12066TIP3    H236140   4.469   6.948   1.240
12067TIP3   OH236141   0.888   2.831   1.198
12067TIP3    H136142   0.830   2.762   1.166
12067TIP3    H236143   0.833   2.910   1.199
12068TIP3   OH236144   3.834   0.177   2.183
12068TIP3    H136145   3.857   0.123   2.259
12068TIP3    H236146   3.788   0.252   2.220
12069TIP3   OH236147   7.051   6.670   1.652
12069TIP3    H136148   7.111   6.701   1.584
12069TIP3    H236149   6.975   6.638   1.604
12070TIP3   OH236150   5.224   1.605   1.954
12070TIP3    H136151   5.266   1.691   1.959
12070TIP3    H236152   5.258   1.557   2.030
12071TIP3   OH236153   3.071   0.749   1.037
12071TIP3    H136154   3.038   0.715   1.120
12071TIP3    H236155   2.994   0.782   0.992
12072TIP3   OH236156   5.453   1.761   0.896
12072TIP3    H136157   5.465   1.745   0.990
12072TIP3    H236158   5.359   1.776   0.887
12073TIP3   OH236159   6.153   3.085   4.282
12073TIP3    H136160   6.128   3.170   4.245
12073TIP3    H236161   6.146   3.024   4.208
12074TIP3   OH236162   7.452   4.840   2.503
12074TIP3    H136163   7.417   4.929   2.493
12074TIP3    H236164   7.513   4.846   2.577
12075TIP3   OH236165   3.467   6.968   5.039
12075TIP3    H136166   3.454   6.873   5.045
12075TIP3    H236167   3.380   7.002   5.017
12076TIP3   OH236168   7.752   6.284   6.543
12076TIP3    H136169   7.739   6.360   6.485
12076TIP3    H236170   7.674   6.282   6.598
12077TIP3   OH236171   6.563   1.207   3.043
12077TIP3    H136172   6.475   1.184   3.071
12077TIP3    H236173   6.582   1.146   2.971
12078TIP3   OH236174   2.070   6.175   0.138
12078TIP3    H136175   2.025   6.094   0.113
12078TIP3    H236176   2.043   6.238   0.071
12079TIP3   OH236177   1.852   0.251   0.704
12079TIP3    H136178   1.943   0.223   0.709
12079TIP3    H236179   1.820   0.244   0.794
12080TIP3   OH236180   3.358   3.075   2.585
12080TIP3    H136181   3.332   2.995   2.539
12080TIP3    H236182   3.437   3.105   2.539
12081TIP3   OH236183   3.724   7.829   3.152
12081TIP3    H136184   3.641   7.789   3.129
12081TIP3    H236185   3.789   7.761   3.136
12082TIP3   OH236186   0.188   2.231   0.546
12082TIP3    H136187   0.238   2.307   0.577
12082TIP3    H236188   0.115   2.224   0.608
12083TIP3   OH236189   7.785   2.795   3.184
12083TIP3    H136190   7.703   2.844   3.189
12083TIP3    H236191   7.819   2.796   3.274
12084TIP3   OH236192   0.406   0.673   5.942
12084TIP3    H136193   0.412   0.577   5.936
12084TIP3    H236194   0.496   0.702   5.949
12085TIP3   OH236195   7.655   3.107   0.888
12085TIP3    H136196   7.566   3.076   0.902
12085TIP3    H236197   7.660   3.126   0.794
12086TIP3   OH236198   1.788   7.398   5.445
12086TIP3    H136199   1.703   7.355   5.434
12086TIP3    H236200   1.771   7.467   5.509
12087TIP3   OH236201   5.751   3.204   1.482
12087TIP3    H136202   5.795   3.151   1.549
12087TIP3    H236203   5.786   3.171   1.399
12088TIP3   OH236204   8.390   1.094   3.653
12088TIP3    H136205   8.369   1.136   3.736
12088TIP3    H236206   8.404   1.002   3.675
12089TIP3   OH236207   3.473   6.501   5.904
12089TIP3    H136208   3.410   6.465   5.842
12089TIP3    H236209   3.447   6.464   5.989
12090TIP3   OH236210   5.190   1.105   6.624
12090TIP3    H136211   5.177   1.046   6.550
12090TIP3    H236212   5.169   1.192   6.589
12091TIP3   OH236213   3.437   0.215   3.313
12091TIP3    H136214   3.433   0.244   3.404
12091TIP3    H236215   3.460   0.122   3.319
12092TIP3   OH236216   6.645   6.831   6.327
12092TIP3    H136217   6.670   6.910   6.376
12092TIP3    H236218   6.692   6.839   6.244
12093TIP3   OH236219   2.284   6.162   2.692
12093TIP3    H136220   2.189   6.173   2.704
12093TIP3    H236221   2.311   6.239   2.643
12094TIP3   OH236222   7.114   1.035   6.000
12094TIP3    H136223   7.189   1.028   5.942
12094TIP3    H236224   7.079   1.123   5.985
12095TIP3   OH236225   3.478   3.721   1.802
12095TIP3    H136226   3.464   3.717   1.707
12095TIP3    H236227   3.562   3.766   1.813
12096TIP3   OH236228   3.572   7.598   2.903
12096TIP3    H136229   3.521   7.553   2.835
12096TIP3    H236230   3.518   7.593   2.981
12097TIP3   OH236231   5.893   5.729   2.199
12097TIP3    H136232   5.911   5.750   2.107
12097TIP3    H236233   5.959   5.664   2.222
12098TIP3   OH236234   8.398   4.598   6.617
12098TIP3    H136235   8.387   4.693   6.620
12098TIP3    H236236   8.329   4.564   6.674
12099TIP3   OH236237   5.561   0.866   1.280
12099TIP3    H136238   5.529   0.926   1.347
12099TIP3    H236239   5.516   0.784   1.298
12100TIP3   OH236240   1.183   6.799   6.653
12100TIP3    H136241   1.213   6.882   6.617
12100TIP3    H236242   1.246   6.735   6.620
12101TIP3   OH236243   0.952   4.023   3.912
12101TIP3    H136244   0.973   4.056   3.825
12101TIP3    H236245   1.002   4.079   3.972
12102TIP3   OH236246   4.077   2.789   6.567
12102TIP3    H136247   4.167   2.823   6.560
12102TIP3    H236248   4.051   2.810   6.657
12103TIP3   OH236249   1.410   7.752   6.704
12103TIP3    H136250   1.325   7.788   6.729
12103TIP3    H236251   1.398   7.657   6.709
12104TIP3   OH236252   6.213   0.492   5.276
12104TIP3    H136253   6.139   0.438   5.305
12104TIP3    H236254   6.206   0.492   5.181
12105TIP3   OH236255   4.539   7.553   1.217
12105TIP3    H136256   4.533   7.591   1.305
12105TIP3    H236257   4.498   7.466   1.225
12106TIP3   OH236258   3.078   2.797   4.516
12106TIP3    H136259   3.144   2.850   4.561
12106TIP3    H236260   3.086   2.710   4.555
12107TIP3   OH236261   3.947   3.819   3.324
12107TIP3    H136262   3.901   3.855   3.399
12107TIP3    H236263   3.996   3.893   3.288
12108TIP3   OH236264   0.865   5.056   4.926
12108TIP3    H136265   0.921   4.994   4.973
12108TIP3    H236266   0.907   5.141   4.940
12109TIP3   OH236267   5.801   2.634   4.681
12109TIP3    H136268   5.809   2.675   4.595
12109TIP3    H236269   5.837   2.699   4.741
12110TIP3   OH236270   3.024   5.490   4.224
12110TIP3    H136271   2.966   5.476   4.299
12110TIP3    H236272   3.035   5.585   4.220
12111TIP3   OH236273   2.555   3.997   6.778
12111TIP3    H136274   2.528   3.943   6.852
12111TIP3    H236275   2.508   4.080   6.791
12112TIP3   OH236276   3.961   2.535   0.413
12112TIP3    H136277   3.939   2.574   0.497
12112TIP3    H236278   3.879   2.498   0.380
12113TIP3   OH236279   5.408   2.346   4.504
12113TIP3    H136280   5.346   2.320   4.572
12113TIP3    H236281   5.433   2.264   4.462
12114TIP3   OH236282   5.674   1.817   2.759
12114TIP3    H136283   5.612   1.817   2.831
12114TIP3    H236284   5.756   1.785   2.797
12115TIP3   OH236285   0.988   6.242   1.366
12115TIP3    H136286   1.006   6.316   1.423
12115TIP3    H236287   0.911   6.268   1.315
12116TIP3   OH236288   3.059   2.333   4.789
12116TIP3    H136289   3.015   2.286   4.860
12116TIP3    H236290   3.038   2.282   4.711
12117TIP3   OH236291  -0.016   5.638   2.214
12117TIP3    H136292   0.001   5.544   2.204
12117TIP3    H236293   0.066   5.673   2.247
12118TIP3   OH236294   4.554   7.044   3.275
12118TIP3    H136295   4.645   7.021   3.262
12118TIP3    H236296   4.541   7.123   3.222
12119TIP3   OH236297   4.808   7.521   1.583
12119TIP3    H136298   4.720   7.548   1.560
12119TIP3    H236299   4.821   7.553   1.672
12120TIP3   OH236300   3.873   7.478   2.096
12120TIP3    H136301   3.849   7.419   2.025
12120TIP3    H236302   3.946   7.529   2.061
12121TIP3   OH236303   5.729   7.759   5.489
12121TIP3    H136304   5.697   7.670   5.473
12121TIP3    H236305   5.653   7.805   5.525
12122TIP3   OH236306   0.160   0.724   0.677
12122TIP3    H136307   0.084   0.775   0.650
12122TIP3    H236308   0.171   0.744   0.769
12123TIP3   OH236309   0.435   4.620   2.131
12123TIP3    H136310   0.355   4.601   2.181
12123TIP3    H236311   0.407   4.614   2.040
12124TIP3   OH236312   0.310   2.057   5.901
12124TIP3    H136313   0.396   2.070   5.942
12124TIP3    H236314   0.303   1.962   5.891
12125TIP3   OH236315   2.416   3.872   2.358
12125TIP3    H136316   2.481   3.845   2.293
12125TIP3    H236317   2.369   3.791   2.380
12126TIP3   OH236318   0.589   4.029   3.591
12126TIP3    H136319   0.521   4.079   3.545
12126TIP3    H236320   0.634   3.981   3.521
12127TIP3   OH236321   1.775   6.491   4.277
12127TIP3    H136322   1.727   6.408   4.273
12127TIP3    H236323   1.867   6.466   4.274
12128TIP3   OH236324   0.103   4.744   6.249
12128TIP3    H136325   0.183   4.693   6.261
12128TIP3    H236326   0.080   4.731   6.157
12129TIP3   OH236327   0.012   1.033   1.185
12129TIP3    H136328   0.000   1.101   1.118
12129TIP3    H236329   0.098   1.052   1.223
12130TIP3   OH236330   3.718   0.952   5.629
12130TIP3    H136331   3.668   1.013   5.575
12130TIP3    H236332   3.694   0.975   5.719
12131TIP3   OH236333   0.429   1.456   4.903
12131TIP3    H136334   0.402   1.379   4.853
12131TIP3    H236335   0.490   1.502   4.846
12132TIP3   OH236336   2.182   3.197   2.455
12132TIP3    H136337   2.259   3.230   2.501
12132TIP3    H236338   2.167   3.110   2.491
12133TIP3   OH236339   4.231   4.507   5.249
12133TIP3    H136340   4.265   4.476   5.333
12133TIP3    H236341   4.174   4.581   5.273
12134TIP3   OH236342   7.676   0.914   3.370
12134TIP3    H136343   7.734   0.851   3.414
12134TIP3    H236344   7.590   0.872   3.370
12135TIP3   OH236345   2.841   7.707   2.237
12135TIP3    H136346   2.788   7.653   2.178
12135TIP3    H236347   2.909   7.745   2.182
12136TIP3   OH236348   7.694   1.691   5.428
12136TIP3    H136349   7.664   1.777   5.459
12136TIP3    H236350   7.746   1.710   5.350
12137TIP3   OH236351   1.633   7.802   0.155
12137TIP3    H136352   1.624   7.737   0.085
12137TIP3    H236353   1.674   7.877   0.112
12138TIP3   OH236354   6.975   7.657   4.036
12138TIP3    H136355   6.998   7.738   3.991
12138TIP3    H236356   6.959   7.683   4.127
12139TIP3   OH236357   2.949   6.191   1.987
12139TIP3    H136358   2.884   6.157   2.049
12139TIP3    H236359   3.027   6.137   2.003
12140TIP3   OH236360   5.170   6.039   6.294
12140TIP3    H136361   5.219   6.092   6.357
12140TIP3    H236362   5.233   5.973   6.266
12141TIP3   OH236363   7.149   6.336   1.059
12141TIP3    H136364   7.139   6.426   1.091
12141TIP3    H236365   7.060   6.306   1.042
12142TIP3   OH236366   6.358   1.900   0.273
12142TIP3    H136367   6.323   1.982   0.239
12142TIP3    H236368   6.382   1.850   0.194
12143TIP3   OH236369   7.911   6.746   2.716
12143TIP3    H136370   7.863   6.698   2.649
12143TIP3    H236371   8.000   6.754   2.681
12144TIP3   OH236372   3.661   0.881   1.428
12144TIP3    H136373   3.651   0.802   1.376
12144TIP3    H236374   3.646   0.853   1.518
12145TIP3   OH236375   5.487   3.349   3.097
12145TIP3    H136376   5.503   3.386   3.183
12145TIP3    H236377   5.567   3.369   3.047
12146TIP3   OH236378   1.534   5.923   6.417
12146TIP3    H136379   1.499   5.923   6.506
12146TIP3    H236380   1.591   5.847   6.413
12147TIP3   OH236381   5.410   6.241   4.178
12147TIP3    H136382   5.403   6.333   4.151
12147TIP3    H236383   5.377   6.192   4.103
12148TIP3   OH236384   5.889   5.585   2.845
12148TIP3    H136385   5.820   5.523   2.868
12148TIP3    H236386   5.969   5.532   2.843
12149TIP3   OH236387   5.939   5.398   3.879
12149TIP3    H136388   6.010   5.459   3.858
12149TIP3    H236389   5.966   5.316   3.836
12150TIP3   OH236390   6.447   1.853   5.955
12150TIP3    H136391   6.388   1.778   5.961
12150TIP3    H236392   6.398   1.925   5.996
12151TIP3   OH236393   6.659   6.864   0.703
12151TIP3    H136394   6.575   6.906   0.723
12151TIP3    H236395   6.678   6.811   0.780
12152TIP3   OH236396   5.703   2.614   0.203
12152TIP3    H136397   5.642   2.544   0.182
12152TIP3    H236398   5.781   2.595   0.150
12153TIP3   OH236399   5.810   2.139   2.252
12153TIP3    H136400   5.856   2.188   2.184
12153TIP3    H236401   5.868   2.143   2.327
12154TIP3   OH236402   8.170   4.288   2.561
12154TIP3    H136403   8.127   4.271   2.478
12154TIP3    H236404   8.201   4.202   2.590
12155TIP3   OH236405   7.521   5.040   4.448
12155TIP3    H136406   7.545   5.003   4.533
12155TIP3    H236407   7.439   5.085   4.464
12156TIP3   OH236408   6.065   6.781   5.573
12156TIP3    H136409   6.044   6.859   5.522
12156TIP3    H236410   5.987   6.765   5.626
12157TIP3   OH236411   7.821   7.604   5.720
12157TIP3    H136412   7.890   7.668   5.705
12157TIP3    H236413   7.747   7.656   5.752
12158TIP3   OH236414   8.368   3.484   1.952
12158TIP3    H136415   8.394   3.524   2.035
12158TIP3    H236416   8.403   3.396   1.955
12159TIP3   OH236417   1.995   7.673   6.215
12159TIP3    H136418   1.922   7.623   6.179
12159TIP3    H236419   2.015   7.631   6.298
12160TIP3   OH236420   3.400   5.957   4.392
12160TIP3    H136421   3.462   5.896   4.353
12160TIP3    H236422   3.316   5.934   4.353
12161TIP3   OH236423   0.491   3.208   4.964
12161TIP3    H136424   0.580   3.185   4.937
12161TIP3    H236425   0.436   3.182   4.890
12162TIP3   OH236426   1.470   2.278   3.040
12162TIP3    H136427   1.538   2.250   3.102
12162TIP3    H236428   1.400   2.213   3.050
12163TIP3   OH236429   6.009   0.304   5.350
12163TIP3    H136430   5.983   0.345   5.433
12163TIP3    H236431   6.073   0.237   5.376
12164TIP3   OH236432   4.380   0.094   4.897
12164TIP3    H136433   4.326   0.108   4.820
12164TIP3    H236434   4.470   0.095   4.864
12165TIP3   OH236435   3.371   3.891   0.122
12165TIP3    H136436   3.403   3.888   0.032
12165TIP3    H236437   3.444   3.859   0.175
12166TIP3   OH236438   2.665   4.377   2.252
12166TIP3    H136439   2.742   4.366   2.307
12166TIP3    H236440   2.609   4.303   2.275
12167TIP3   OH236441   0.302   2.699   0.742
12167TIP3    H136442   0.326   2.738   0.826
12167TIP3    H236443   0.206   2.699   0.742
12168TIP3   OH236444   0.587   2.923   4.642
12168TIP3    H136445   0.562   3.010   4.674
12168TIP3    H236446   0.683   2.922   4.649
12169TIP3   OH236447   2.833   1.466   5.272
12169TIP3    H136448   2.890   1.403   5.316
12169TIP3    H236449   2.816   1.533   5.338
12170TIP3   OH236450   3.693   1.367   3.868
12170TIP3    H136451   3.700   1.290   3.925
12170TIP3    H236452   3.753   1.349   3.795
12171TIP3   OH236453   8.056   4.611   0.009
12171TIP3    H136454   8.104   4.639   0.086
12171TIP3    H236455   8.120   4.562  -0.043
12172TIP3   OH236456   1.428   3.518   6.288
12172TIP3    H136457   1.380   3.459   6.229
12172TIP3    H236458   1.494   3.559   6.232
12173TIP3   OH236459   2.056   1.621   4.010
12173TIP3    H136460   2.005   1.696   4.043
12173TIP3    H236461   2.131   1.661   3.967
12174TIP3   OH236462   6.001   4.362   2.064
12174TIP3    H136463   5.965   4.432   2.118
12174TIP3    H236464   5.928   4.334   2.009
12175TIP3   OH236465   4.098   2.275   2.850
12175TIP3    H136466   4.183   2.309   2.878
12175TIP3    H236467   4.035   2.335   2.889
12176TIP3   OH236468   3.719   7.108   4.897
12176TIP3    H136469   3.651   7.049   4.928
12176TIP3    H236470   3.688   7.195   4.923
12177TIP3   OH236471   4.837   3.701   1.827
12177TIP3    H136472   4.766   3.762   1.843
12177TIP3    H236473   4.916   3.754   1.827
12178TIP3   OH236474   4.219   2.555   2.707
12178TIP3    H136475   4.129   2.546   2.738
12178TIP3    H236476   4.268   2.490   2.757
12179TIP3   OH236477   4.361   0.717   2.479
12179TIP3    H136478   4.272   0.682   2.482
12179TIP3    H236479   4.408   0.659   2.420
12180TIP3   OH236480   0.616   6.762   0.607
12180TIP3    H136481   0.602   6.805   0.523
12180TIP3    H236482   0.706   6.784   0.631
12181TIP3   OH236483   7.975   3.532   5.703
12181TIP3    H136484   7.990   3.621   5.735
12181TIP3    H236485   8.017   3.476   5.769
12182TIP3   OH236486   1.499   7.313   1.698
12182TIP3    H136487   1.538   7.252   1.760
12182TIP3    H236488   1.525   7.400   1.730
12183TIP3   OH236489   3.779   2.432   4.167
12183TIP3    H136490   3.736   2.372   4.229
12183TIP3    H236491   3.869   2.439   4.199
12184TIP3   OH236492   6.924   4.686   1.726
12184TIP3    H136493   6.909   4.607   1.674
12184TIP3    H236494   6.900   4.660   1.815
12185TIP3   OH236495   2.816   5.568   4.386
12185TIP3    H136496   2.734   5.525   4.359
12185TIP3    H236497   2.850   5.511   4.456
12186TIP3   OH236498   4.222   7.293   3.284
12186TIP3    H136499   4.228   7.269   3.377
12186TIP3    H236500   4.307   7.330   3.264
12187TIP3   OH236501   8.182   6.666   1.831
12187TIP3    H136502   8.234   6.736   1.791
12187TIP3    H236503   8.172   6.693   1.922
12188TIP3   OH236504   2.508   1.274   1.212
12188TIP3    H136505   2.590   1.319   1.233
12188TIP3    H236506   2.482   1.233   1.295
12189TIP3   OH236507   5.757   7.515   2.540
12189TIP3    H136508   5.677   7.476   2.574
12189TIP3    H236509   5.731   7.555   2.457
12190TIP3   OH236510   5.589   7.418   3.278
12190TIP3    H136511   5.521   7.388   3.337
12190TIP3    H236512   5.628   7.494   3.323
12191TIP3   OH236513   5.196   3.374   0.918
12191TIP3    H136514   5.193   3.320   0.839
12191TIP3    H236515   5.114   3.355   0.964
12192TIP3   OH236516   3.492   3.009   6.200
12192TIP3    H136517   3.513   3.050   6.116
12192TIP3    H236518   3.398   3.024   6.210
12193TIP3   OH236519   0.317   4.137   6.480
12193TIP3    H136520   0.236   4.159   6.434
12193TIP3    H236521   0.290   4.077   6.549
12194TIP3   OH236522   4.702   6.090   0.717
12194TIP3    H136523   4.767   6.020   0.725
12194TIP3    H236524   4.627   6.048   0.675
12195TIP3   OH236525   4.416   2.036   3.962
12195TIP3    H136526   4.380   2.098   3.899
12195TIP3    H236527   4.475   2.089   4.016
12196TIP3   OH236528   2.528   2.297   4.906
12196TIP3    H136529   2.494   2.322   4.992
12196TIP3    H236530   2.451   2.290   4.851
12197TIP3   OH236531   4.462   6.894   3.540
12197TIP3    H136532   4.498   6.961   3.482
12197TIP3    H236533   4.382   6.933   3.576
12198TIP3   OH236534   3.496   6.685   6.318
12198TIP3    H136535   3.444   6.627   6.262
12198TIP3    H236536   3.508   6.637   6.399
12199TIP3   OH236537   2.152   6.585   5.746
12199TIP3    H136538   2.099   6.572   5.667
12199TIP3    H236539   2.162   6.680   5.752
12200TIP3   OH236540   0.411   3.429   4.419
12200TIP3    H136541   0.419   3.337   4.445
12200TIP3    H236542   0.360   3.426   4.338
12201TIP3   OH236543   7.681   6.889   5.517
12201TIP3    H136544   7.767   6.917   5.548
12201TIP3    H236545   7.691   6.794   5.503
12202TIP3   OH236546   5.108   4.883   3.864
12202TIP3    H136547   5.027   4.930   3.847
12202TIP3    H236548   5.169   4.951   3.895
12203TIP3   OH236549   3.520   7.823   0.387
12203TIP3    H136550   3.597   7.854   0.339
12203TIP3    H236551   3.447   7.838   0.326
12204TIP3   OH236552   4.708   3.196   2.674
12204TIP3    H136553   4.718   3.158   2.761
12204TIP3    H236554   4.779   3.260   2.667
12205TIP3   OH236555   5.773   2.550   4.276
12205TIP3    H136556   5.755   2.490   4.348
12205TIP3    H236557   5.727   2.511   4.201
12206TIP3   OH236558   4.460   3.944   3.556
12206TIP3    H136559   4.516   3.949   3.633
12206TIP3    H236560   4.373   3.972   3.587
12207TIP3   OH236561   6.961   0.460   4.143
12207TIP3    H136562   6.946   0.551   4.169
12207TIP3    H236563   7.056   0.453   4.135
12208TIP3   OH236564   5.997   4.739   2.838
12208TIP3    H136565   5.994   4.817   2.893
12208TIP3    H236566   6.081   4.698   2.859
12209TIP3   OH236567   3.493   4.930   6.129
12209TIP3    H136568   3.476   4.856   6.187
12209TIP3    H236569   3.432   4.998   6.159
12210TIP3   OH236570   2.067   4.615   0.440
12210TIP3    H136571   2.147   4.597   0.490
12210TIP3    H236572   2.006   4.545   0.465
12211TIP3   OH236573   2.215   2.211   1.298
12211TIP3    H136574   2.181   2.246   1.216
12211TIP3    H236575   2.272   2.139   1.272
12212TIP3   OH236576   3.313   2.108   1.732
12212TIP3    H136577   3.236   2.090   1.677
12212TIP3    H236578   3.355   2.023   1.743
12213TIP3   OH236579   0.582   5.565   5.553
12213TIP3    H136580   0.575   5.470   5.542
12213TIP3    H236581   0.640   5.594   5.483
12214TIP3   OH236582   5.593   1.988   6.421
12214TIP3    H136583   5.503   1.958   6.425
12214TIP3    H236584   5.638   1.941   6.492
12215TIP3   OH236585   3.705   3.541   6.290
12215TIP3    H136586   3.675   3.470   6.347
12215TIP3    H236587   3.749   3.602   6.350
12216TIP3   OH236588   1.226   0.550   1.602
12216TIP3    H136589   1.315   0.534   1.635
12216TIP3    H236590   1.210   0.479   1.541
12217TIP3   OH236591   2.605   2.402   6.114
12217TIP3    H136592   2.639   2.313   6.114
12217TIP3    H236593   2.521   2.396   6.160
12218TIP3   OH236594   2.218   4.840   5.271
12218TIP3    H136595   2.220   4.881   5.357
12218TIP3    H236596   2.151   4.772   5.278
12219TIP3   OH236597   7.404   5.833   5.809
12219TIP3    H136598   7.347   5.783   5.752
12219TIP3    H236599   7.370   5.817   5.897
12220TIP3   OH236600   7.474   3.436   6.060
12220TIP3    H136601   7.429   3.517   6.080
12220TIP3    H236602   7.517   3.411   6.141
12221TIP3   OH236603   4.190   0.836   3.441
12221TIP3    H136604   4.249   0.815   3.369
12221TIP3    H236605   4.247   0.861   3.513
12222TIP3   OH236606   2.376   5.580   2.672
12222TIP3    H136607   2.405   5.643   2.606
12222TIP3    H236608   2.440   5.510   2.668
12223TIP3   OH236609   6.597   2.453   0.585
12223TIP3    H136610   6.669   2.473   0.525
12223TIP3    H236611   6.611   2.512   0.659
12224TIP3   OH236612   7.390   4.457   1.057
12224TIP3    H136613   7.476   4.480   1.092
12224TIP3    H236614   7.408   4.397   0.985
12225TIP3   OH236615   1.743   2.599   4.093
12225TIP3    H136616   1.797   2.675   4.115
12225TIP3    H236617   1.657   2.636   4.073
12226TIP3   OH236618   2.941   2.120   2.615
12226TIP3    H136619   3.000   2.052   2.581
12226TIP3    H236620   2.861   2.072   2.639
12227TIP3   OH236621   4.582   5.115   0.847
12227TIP3    H136622   4.509   5.054   0.845
12227TIP3    H236623   4.641   5.084   0.778
12228TIP3   OH236624   6.076   7.153   5.556
12228TIP3    H136625   6.019   7.223   5.587
12228TIP3    H236626   6.159   7.168   5.601
12229TIP3   OH236627   7.179   3.321   3.992
12229TIP3    H136628   7.200   3.340   4.084
12229TIP3    H236629   7.110   3.255   3.996
12230TIP3   OH236630   1.078   3.598   1.143
12230TIP3    H136631   0.995   3.592   1.095
12230TIP3    H236632   1.079   3.522   1.201
12231TIP3   OH236633   8.355   2.215   1.542
12231TIP3    H136634   8.370   2.158   1.467
12231TIP3    H236635   8.303   2.161   1.603
12232TIP3   OH236636   6.753   3.944   1.597
12232TIP3    H136637   6.669   3.919   1.637
12232TIP3    H236638   6.783   4.018   1.649
12233TIP3   OH236639   7.720   5.078   3.439
12233TIP3    H136640   7.758   5.152   3.391
12233TIP3    H236641   7.686   5.117   3.520
12234TIP3   OH236642   4.558   6.624   3.570
12234TIP3    H136643   4.653   6.630   3.560
12234TIP3    H236644   4.526   6.711   3.544
12235TIP3   OH236645   7.131   6.820   5.712
12235TIP3    H136646   7.162   6.836   5.623
12235TIP3    H236647   7.206   6.840   5.767
12236TIP3   OH236648   7.641   0.419   3.688
12236TIP3    H136649   7.583   0.456   3.622
12236TIP3    H236650   7.727   0.456   3.668
12237TIP3   OH236651   1.018   3.646   0.022
12237TIP3    H136652   1.033   3.558  -0.012
12237TIP3    H236653   1.105   3.678   0.046
12238TIP3   OH236654   1.210   0.567   5.616
12238TIP3    H136655   1.235   0.571   5.524
12238TIP3    H236656   1.214   0.658   5.646
12239TIP3   OH236657   0.345   6.950   2.208
12239TIP3    H136658   0.320   7.042   2.194
12239TIP3    H236659   0.308   6.904   2.132
12240TIP3   OH236660   3.966   3.901   3.807
12240TIP3    H136661   3.977   3.904   3.902
12240TIP3    H236662   3.954   3.809   3.787
12241TIP3   OH236663   4.942   5.817   4.086
12241TIP3    H136664   4.914   5.834   4.176
12241TIP3    H236665   4.898   5.885   4.035
12242TIP3   OH236666   1.585   6.936   6.713
12242TIP3    H136667   1.562   6.925   6.805
12242TIP3    H236668   1.562   6.852   6.672
12243TIP3   OH236669   1.686   7.122   3.670
12243TIP3    H136670   1.761   7.083   3.716
12243TIP3    H236671   1.663   7.198   3.724
12244TIP3   OH236672   8.281   2.003   0.360
12244TIP3    H136673   8.374   1.997   0.384
12244TIP3    H236674   8.279   1.984   0.266
12245TIP3   OH236675   6.380   2.898   5.298
12245TIP3    H136676   6.411   2.863   5.214
12245TIP3    H236677   6.445   2.867   5.362
12246TIP3   OH236678   4.669   4.583   4.537
12246TIP3    H136679   4.577   4.607   4.530
12246TIP3    H236680   4.715   4.667   4.533
12247TIP3   OH236681   0.759   1.335   5.408
12247TIP3    H136682   0.820   1.347   5.481
12247TIP3    H236683   0.789   1.394   5.340
12248TIP3   OH236684   6.756   5.554   1.043
12248TIP3    H136685   6.781   5.508   1.123
12248TIP3    H236686   6.773   5.646   1.063
12249TIP3   OH236687   4.456   1.906   2.519
12249TIP3    H136688   4.544   1.922   2.551
12249TIP3    H236689   4.399   1.940   2.588
12250TIP3   OH236690   4.575   2.556   4.186
12250TIP3    H136691   4.667   2.531   4.192
12250TIP3    H236692   4.528   2.488   4.235
12251TIP3   OH236693   5.651   0.381   5.753
12251TIP3    H136694   5.610   0.368   5.838
12251TIP3    H236695   5.698   0.300   5.735
12252TIP3   OH236696   8.085   0.864   4.691
12252TIP3    H136697   8.055   0.946   4.731
12252TIP3    H236698   8.121   0.891   4.606
12253TIP3   OH236699   0.511   5.250   3.600
12253TIP3    H136700   0.432   5.202   3.627
12253TIP3    H236701   0.535   5.300   3.678
12254TIP3   OH236702   8.275   0.518   5.772
12254TIP3    H136703   8.230   0.504   5.689
12254TIP3    H236704   8.362   0.549   5.748
12255TIP3   OH236705   6.106   7.783   2.789
12255TIP3    H136706   6.135   7.727   2.861
12255TIP3    H236707   6.138   7.740   2.710
12256TIP3   OH236708   2.354   7.125   4.084
12256TIP3    H136709   2.344   7.219   4.102
12256TIP3    H236710   2.317   7.113   3.997
12257TIP3   OH236711   6.728   2.719   5.201
12257TIP3    H136712   6.634   2.707   5.187
12257TIP3    H236713   6.746   2.807   5.168
12258TIP3   OH236714   4.596   5.542   4.755
12258TIP3    H136715   4.631   5.594   4.828
12258TIP3    H236716   4.672   5.526   4.699
12259TIP3   OH236717   4.232   2.774   1.770
12259TIP3    H136718   4.214   2.699   1.826
12259TIP3    H236719   4.203   2.850   1.820
12260TIP3   OH236720   5.701   0.418   4.366
12260TIP3    H136721   5.651   0.341   4.394
12260TIP3    H236722   5.710   0.408   4.271
12261TIP3   OH236723   4.489   4.031   4.291
12261TIP3    H136724   4.505   3.939   4.313
12261TIP3    H236725   4.577   4.070   4.288
12262TIP3   OH236726   8.037   6.082   1.161
12262TIP3    H136727   8.083   6.107   1.081
12262TIP3    H236728   8.085   6.127   1.231
12263TIP3   OH236729   5.312   4.309   1.250
12263TIP3    H136730   5.247   4.238   1.252
12263TIP3    H236731   5.278   4.374   1.312
12264TIP3   OH236732   2.388   0.490   4.385
12264TIP3    H136733   2.409   0.411   4.334
12264TIP3    H236734   2.298   0.512   4.358
12265TIP3   OH236735   3.759   4.859   5.287
12265TIP3    H136736   3.736   4.807   5.364
12265TIP3    H236737   3.744   4.800   5.213
12266TIP3   OH236738   7.445   0.226   1.756
12266TIP3    H136739   7.461   0.284   1.681
12266TIP3    H236740   7.355   0.245   1.782
12267TIP3   OH236741   7.420   6.148   6.357
12267TIP3    H136742   7.345   6.209   6.358
12267TIP3    H236743   7.415   6.104   6.442
12268TIP3   OH236744   2.134   2.098   0.414
12268TIP3    H136745   2.139   2.117   0.507
12268TIP3    H236746   2.074   2.164   0.379
12269TIP3   OH236747   0.157   1.098   5.298
12269TIP3    H136748   0.156   1.194   5.300
12269TIP3    H236749   0.217   1.073   5.368
12270TIP3   OH236750   4.715   4.733   2.102
12270TIP3    H136751   4.765   4.770   2.029
12270TIP3    H236752   4.655   4.803   2.128
12271TIP3   OH236753   1.084   1.853   0.069
12271TIP3    H136754   0.997   1.819   0.047
12271TIP3    H236755   1.075   1.948   0.060
12272TIP3   OH236756   4.821   1.681   3.318
12272TIP3    H136757   4.860   1.691   3.231
12272TIP3    H236758   4.889   1.711   3.378
12273TIP3   OH236759   0.150   4.761   0.354
12273TIP3    H136760   0.170   4.835   0.297
12273TIP3    H236761   0.173   4.684   0.302
12274TIP3   OH236762   5.098   6.228   4.115
12274TIP3    H136763   5.105   6.183   4.199
12274TIP3    H236764   5.164   6.185   4.060
12275TIP3   OH236765   5.618   5.452   5.381
12275TIP3    H136766   5.655   5.377   5.334
12275TIP3    H236767   5.688   5.480   5.440
12276TIP3   OH236768   2.331   3.267   1.635
12276TIP3    H136769   2.236   3.271   1.650
12276TIP3    H236770   2.344   3.309   1.550
12277TIP3   OH236771   6.906   7.418   4.737
12277TIP3    H136772   7.000   7.416   4.723
12277TIP3    H236773   6.879   7.326   4.734
12278TIP3   OH236774   3.547   7.438   4.064
12278TIP3    H136775   3.562   7.496   3.989
12278TIP3    H236776   3.597   7.479   4.135
12279TIP3   OH236777   3.684   5.213   3.343
12279TIP3    H136778   3.730   5.224   3.427
12279TIP3    H236779   3.732   5.269   3.282
12280TIP3   OH236780   0.207   5.162   4.316
12280TIP3    H136781   0.132   5.110   4.286
12280TIP3    H236782   0.267   5.163   4.242
12281TIP3   OH236783   5.007   7.728   3.864
12281TIP3    H136784   5.075   7.670   3.897
12281TIP3    H236785   5.050   7.813   3.854
12282TIP3   OH236786   7.666   3.174   4.425
12282TIP3    H136787   7.598   3.194   4.361
12282TIP3    H236788   7.694   3.259   4.459
12283TIP3   OH236789   1.397   3.208   0.075
12283TIP3    H136790   1.348   3.134   0.040
12283TIP3    H236791   1.489   3.179   0.072
12284TIP3   OH236792   7.550   5.364   3.106
12284TIP3    H136793   7.627   5.402   3.147
12284TIP3    H236794   7.573   5.273   3.090
12285TIP3   OH236795   5.522   7.769   5.167
12285TIP3    H136796   5.519   7.864   5.155
12285TIP3    H236797   5.465   7.752   5.242
12286TIP3   OH236798   1.525   3.062   0.634
12286TIP3    H136799   1.475   2.987   0.666
12286TIP3    H236800   1.535   3.119   0.711
12287TIP3   OH236801   6.833   7.556   0.477
12287TIP3    H136802   6.900   7.618   0.450
12287TIP3    H236803   6.750   7.601   0.460
12288TIP3   OH236804   6.078   0.360   6.420
12288TIP3    H136805   6.065   0.336   6.328
12288TIP3    H236806   6.085   0.276   6.466
12289TIP3   OH236807   4.503   5.441   5.324
12289TIP3    H136808   4.439   5.504   5.293
12289TIP3    H236809   4.461   5.400   5.400
12290TIP3   OH236810   3.303   5.844   3.043
12290TIP3    H136811   3.240   5.858   3.114
12290TIP3    H236812   3.278   5.906   2.975
12291TIP3   OH236813   7.585   4.996   2.141
12291TIP3    H136814   7.629   4.990   2.056
12291TIP3    H236815   7.556   4.907   2.159
12292TIP3   OH236816   3.157   5.162   5.553
12292TIP3    H136817   3.093   5.222   5.592
12292TIP3    H236818   3.139   5.078   5.596
12293TIP3   OH236819   3.155   5.162   3.666
12293TIP3    H136820   3.078   5.107   3.683
12293TIP3    H236821   3.198   5.172   3.751
12294TIP3   OH236822   7.461   1.020   0.782
12294TIP3    H136823   7.505   0.952   0.731
12294TIP3    H236824   7.368   1.006   0.764
12295TIP3   OH236825   2.705   4.862   5.384
12295TIP3    H136826   2.641   4.808   5.430
12295TIP3    H236827   2.677   4.952   5.401
12296TIP3   OH236828   5.290   0.433   3.133
12296TIP3    H136829   5.263   0.518   3.099
12296TIP3    H236830   5.352   0.400   3.068
12297TIP3   OH236831   3.299   4.222   4.722
12297TIP3    H136832   3.296   4.235   4.817
12297TIP3    H236833   3.385   4.257   4.697
12298TIP3   OH236834   1.359   7.431   0.781
12298TIP3    H136835   1.362   7.336   0.793
12298TIP3    H236836   1.269   7.450   0.755
12299TIP3   OH236837   3.826   3.869   5.242
12299TIP3    H136838   3.849   3.960   5.260
12299TIP3    H236839   3.874   3.847   5.163
12300TIP3   OH236840   5.840   5.090   1.131
12300TIP3    H136841   5.846   5.115   1.223
12300TIP3    H236842   5.766   5.029   1.128
12301TIP3   OH236843   5.754   3.318   6.485
12301TIP3    H136844   5.811   3.394   6.472
12301TIP3    H236845   5.747   3.309   6.580
12302TIP3   OH236846   1.393   3.815   4.524
12302TIP3    H136847   1.389   3.724   4.498
12302TIP3    H236848   1.476   3.847   4.488
12303TIP3   OH236849   0.235   0.957   4.127
12303TIP3    H136850   0.316   0.927   4.168
12303TIP3    H236851   0.219   0.894   4.057
12304TIP3   OH236852   8.318   6.023   5.342
12304TIP3    H136853   8.263   6.076   5.285
12304TIP3    H236854   8.313   5.935   5.304
12305TIP3   OH236855   7.588   3.990   6.003
12305TIP3    H136856   7.590   3.950   5.916
12305TIP3    H236857   7.561   4.081   5.987
12306TIP3   OH236858   2.657   1.239   4.080
12306TIP3    H136859   2.737   1.256   4.030
12306TIP3    H236860   2.611   1.172   4.029
12307TIP3   OH236861   1.543   7.071   4.461
12307TIP3    H136862   1.548   7.108   4.549
12307TIP3    H236863   1.455   7.034   4.455
12308TIP3   OH236864   6.029   7.880   0.152
12308TIP3    H136865   5.983   7.951   0.106
12308TIP3    H236866   6.086   7.842   0.085
12309TIP3   OH236867   1.501   6.292   6.118
12309TIP3    H136868   1.549   6.302   6.201
12309TIP3    H236869   1.481   6.199   6.113
12310TIP3   OH236870   4.826   0.362   2.789
12310TIP3    H136871   4.906   0.350   2.840
12310TIP3    H236872   4.807   0.455   2.794
12311TIP3   OH236873   2.252   3.654   6.420
12311TIP3    H136874   2.346   3.667   6.431
12311TIP3    H236875   2.212   3.700   6.494
12312TIP3   OH236876   8.439   5.518   5.857
12312TIP3    H136877   8.406   5.447   5.802
12312TIP3    H236878   8.383   5.593   5.836
12313TIP3   OH236879   7.869   4.822   5.209
12313TIP3    H136880   7.959   4.820   5.177
12313TIP3    H236881   7.842   4.730   5.210
12314TIP3   OH236882   1.988   1.373   0.111
12314TIP3    H136883   2.068   1.341   0.069
12314TIP3    H236884   1.966   1.304   0.174
12315TIP3   OH236885   4.599   2.885   3.685
12315TIP3    H136886   4.600   2.980   3.679
12315TIP3    H236887   4.613   2.867   3.778
12316TIP3   OH236888   0.552   6.794   5.281
12316TIP3    H136889   0.557   6.699   5.291
12316TIP3    H236890   0.625   6.827   5.334
12317TIP3   OH236891   5.706   3.350   0.556
12317TIP3    H136892   5.770   3.362   0.627
12317TIP3    H236893   5.714   3.429   0.503
12318TIP3   OH236894   5.758   4.531   1.305
12318TIP3    H136895   5.814   4.605   1.283
12318TIP3    H236896   5.727   4.550   1.394
12319TIP3   OH236897   0.221   4.985   1.670
12319TIP3    H136898   0.220   5.006   1.763
12319TIP3    H236899   0.277   4.908   1.663
12320TIP3   OH236900   0.228   0.566   2.385
12320TIP3    H136901   0.233   0.521   2.301
12320TIP3    H236902   0.209   0.498   2.448
12321TIP3   OH236903   2.265   4.919   4.867
12321TIP3    H136904   2.297   4.850   4.926
12321TIP3    H236905   2.344   4.964   4.838
12322TIP3   OH236906   3.309   2.768   6.724
12322TIP3    H136907   3.324   2.773   6.630
12322TIP3    H236908   3.254   2.843   6.744
12323TIP3   OH236909   1.155   1.742   6.117
12323TIP3    H136910   1.203   1.756   6.036
12323TIP3    H236911   1.092   1.814   6.120
12324TIP3   OH236912   3.498   4.139   6.118
12324TIP3    H136913   3.526   4.224   6.083
12324TIP3    H236914   3.444   4.101   6.049
12325TIP3   OH236915   4.833   6.181   4.272
12325TIP3    H136916   4.861   6.152   4.185
12325TIP3    H236917   4.761   6.242   4.255
12326TIP3   OH236918   1.493   4.357   1.768
12326TIP3    H136919   1.550   4.309   1.707
12326TIP3    H236920   1.429   4.400   1.712
12327TIP3   OH236921   0.533   2.485   1.290
12327TIP3    H136922   0.600   2.547   1.318
12327TIP3    H236923   0.501   2.520   1.207
12328TIP3   OH236924   4.892   3.651   5.308
12328TIP3    H136925   4.848   3.641   5.224
12328TIP3    H236926   4.985   3.644   5.287
12329TIP3   OH236927   0.336   1.757   1.839
12329TIP3    H136928   0.399   1.705   1.888
12329TIP3    H236929   0.388   1.828   1.800
12330TIP3   OH236930   4.436   4.098   0.367
12330TIP3    H136931   4.462   4.062   0.282
12330TIP3    H236932   4.420   4.021   0.421
12331TIP3   OH236933   8.233   0.977   5.261
12331TIP3    H136934   8.225   0.924   5.181
12331TIP3    H236935   8.142   0.994   5.287
12332TIP3   OH236936   1.579   1.559   1.653
12332TIP3    H136937   1.664   1.516   1.641
12332TIP3    H236938   1.557   1.593   1.566
12333TIP3   OH236939   7.104   4.543   1.369
12333TIP3    H136940   7.047   4.503   1.434
12333TIP3    H236941   7.113   4.477   1.301
12334TIP3   OH236942   1.682   1.715   2.960
12334TIP3    H136943   1.652   1.787   2.904
12334TIP3    H236944   1.610   1.652   2.958
12335TIP3   OH236945   7.626   6.881   3.699
12335TIP3    H136946   7.661   6.950   3.755
12335TIP3    H236947   7.684   6.806   3.715
12336TIP3   OH236948   0.971   5.921   2.183
12336TIP3    H136949   1.029   5.869   2.239
12336TIP3    H236950   0.936   5.858   2.120
12337TIP3   OH236951   6.999   1.890   3.321
12337TIP3    H136952   7.079   1.891   3.374
12337TIP3    H236953   7.023   1.937   3.241
12338TIP3   OH236954   5.756   5.446   3.161
12338TIP3    H136955   5.814   5.428   3.236
12338TIP3    H236956   5.798   5.401   3.088
12339TIP3   OH236957   2.559   2.594   1.396
12339TIP3    H136958   2.512   2.528   1.446
12339TIP3    H236959   2.588   2.658   1.461
12340TIP3   OH236960   0.595   0.293   1.180
12340TIP3    H136961   0.631   0.299   1.092
12340TIP3    H236962   0.672   0.292   1.237
12341TIP3   OH236963   2.730   6.985   3.709
12341TIP3    H136964   2.661   6.974   3.774
12341TIP3    H236965   2.806   6.941   3.747
12342TIP3   OH236966   3.167   4.473   0.778
12342TIP3    H136967   3.163   4.534   0.705
12342TIP3    H236968   3.182   4.528   0.855
12343TIP3   OH236969   4.448   3.744   5.334
12343TIP3    H136970   4.510   3.677   5.307
12343TIP3    H236971   4.383   3.697   5.386
12344TIP3   OH236972   4.215   7.516   1.127
12344TIP3    H136973   4.257   7.490   1.209
12344TIP3    H236974   4.167   7.595   1.149
12345TIP3   OH236975   7.256   6.325   5.694
12345TIP3    H136976   7.261   6.420   5.689
12345TIP3    H236977   7.296   6.294   5.613
12346TIP3   OH236978   0.387   2.785   0.259
12346TIP3    H136979   0.353   2.717   0.318
12346TIP3    H236980   0.315   2.848   0.252
12347TIP3   OH236981   7.403   3.387   5.219
12347TIP3    H136982   7.361   3.324   5.277
12347TIP3    H236983   7.469   3.429   5.273
12348TIP3   OH236984   5.609   4.070   2.820
12348TIP3    H136985   5.579   4.113   2.900
12348TIP3    H236986   5.690   4.116   2.797
12349TIP3   OH236987   5.101   5.936   0.323
12349TIP3    H136988   5.193   5.930   0.348
12349TIP3    H236989   5.058   5.979   0.397
12350TIP3   OH236990   6.398   3.147   1.545
12350TIP3    H136991   6.378   3.226   1.494
12350TIP3    H236992   6.319   3.132   1.598
12351TIP3   OH236993   7.778   4.351   1.487
12351TIP3    H136994   7.853   4.362   1.428
12351TIP3    H236995   7.702   4.366   1.431
12352TIP3   OH236996   3.690   6.562   1.165
12352TIP3    H136997   3.686   6.469   1.142
12352TIP3    H236998   3.600   6.585   1.188
12353TIP3   OH236999   3.033   6.834   3.124
12353TIP3    H137000   3.082   6.883   3.190
12353TIP3    H237001   2.941   6.851   3.145
12354TIP3   OH237002   0.299   2.795   1.370
12354TIP3    H137003   0.275   2.864   1.432
12354TIP3    H237004   0.389   2.814   1.346
12355TIP3   OH237005   1.326   0.761   0.097
12355TIP3    H137006   1.281   0.743   0.179
12355TIP3    H237007   1.258   0.753   0.030
12356TIP3   OH237008   2.687   5.228   6.350
12356TIP3    H137009   2.775   5.200   6.374
12356TIP3    H237010   2.690   5.323   6.352
12357TIP3   OH237011   8.188   2.076   1.024
12357TIP3    H137012   8.249   2.037   0.961
12357TIP3    H237013   8.119   2.011   1.033
12358TIP3   OH237014   1.528   4.557   0.272
12358TIP3    H137015   1.486   4.626   0.220
12358TIP3    H237016   1.463   4.486   0.274
12359TIP3   OH237017   2.915   2.875   5.059
12359TIP3    H137018   2.942   2.965   5.077
12359TIP3    H237019   2.942   2.860   4.968
12360TIP3   OH237020   4.634   3.597   1.598
12360TIP3    H137021   4.692   3.642   1.660
12360TIP3    H237022   4.639   3.505   1.623
12361TIP3   OH237023   0.341   2.231   0.296
12361TIP3    H137024   0.338   2.323   0.268
12361TIP3    H237025   0.283   2.227   0.372
12362TIP3   OH237026   0.515   3.971   4.192
12362TIP3    H137027   0.435   3.919   4.202
12362TIP3    H237028   0.523   4.020   4.274
12363TIP3   OH237029   5.726   2.015   5.960
12363TIP3    H137030   5.801   1.978   5.914
12363TIP3    H237031   5.737   1.987   6.051
12364TIP3   OH237032   7.372   0.338   4.928
12364TIP3    H137033   7.404   0.428   4.923
12364TIP3    H237034   7.383   0.313   5.019
12365TIP3   OH237035   0.792   1.377   1.647
12365TIP3    H137036   0.799   1.299   1.592
12365TIP3    H237037   0.727   1.354   1.713
12366TIP3   OH237038   1.379   5.644   2.716
12366TIP3    H137039   1.311   5.706   2.743
12366TIP3    H237040   1.348   5.609   2.633
12367TIP3   OH237041   5.723   1.586   2.156
12367TIP3    H137042   5.667   1.610   2.082
12367TIP3    H237043   5.739   1.669   2.201
12368TIP3   OH237044   2.782   7.050   3.450
12368TIP3    H137045   2.863   7.101   3.454
12368TIP3    H237046   2.760   7.031   3.541
12369TIP3   OH237047   0.118   5.607   3.014
12369TIP3    H137048   0.127   5.621   3.108
12369TIP3    H237049   0.026   5.623   2.996
12370TIP3   OH237050   1.003   3.091   5.016
12370TIP3    H137051   0.943   3.145   4.964
12370TIP3    H237052   0.982   3.001   4.992
12371TIP3   OH237053   2.240   2.759   1.467
12371TIP3    H137054   2.218   2.835   1.521
12371TIP3    H237055   2.266   2.692   1.530
12372TIP3   OH237056   7.561   7.071   6.529
12372TIP3    H137057   7.500   7.087   6.601
12372TIP3    H237058   7.507   7.030   6.461
12373TIP3   OH237059   7.757   5.133   0.237
12373TIP3    H137060   7.711   5.180   0.167
12373TIP3    H237061   7.817   5.074   0.191
12374TIP3   OH237062   2.052   7.403   5.921
12374TIP3    H137063   2.098   7.486   5.936
12374TIP3    H237064   2.114   7.350   5.871
12375TIP3   OH237065   3.030   1.713   0.490
12375TIP3    H137066   3.014   1.750   0.404
12375TIP3    H237067   2.993   1.776   0.552
12376TIP3   OH237068   6.132   5.571   6.553
12376TIP3    H137069   6.145   5.666   6.556
12376TIP3    H237070   6.103   5.554   6.463
12377TIP3   OH237071   7.357   1.487   1.461
12377TIP3    H137072   7.301   1.422   1.419
12377TIP3    H237073   7.413   1.436   1.520
12378TIP3   OH237074   4.156   1.308   5.327
12378TIP3    H137075   4.169   1.213   5.330
12378TIP3    H237076   4.240   1.343   5.296
12379TIP3   OH237077   5.252   6.703   0.345
12379TIP3    H137078   5.173   6.651   0.362
12379TIP3    H237079   5.246   6.727   0.253
12380TIP3   OH237080   6.216   5.626   0.228
12380TIP3    H137081   6.203   5.704   0.282
12380TIP3    H237082   6.203   5.552   0.289
12381TIP3   OH237083   0.194   2.505   6.391
12381TIP3    H137084   0.136   2.442   6.434
12381TIP3    H237085   0.174   2.589   6.434
12382TIP3   OH237086   3.150   0.971   6.233
12382TIP3    H137087   3.219   1.033   6.255
12382TIP3    H237088   3.178   0.889   6.275
12383TIP3   OH237089   5.947   0.721   3.146
12383TIP3    H137090   6.017   0.771   3.105
12383TIP3    H237091   5.903   0.677   3.073
12384TIP3   OH237092   5.455   4.445   5.746
12384TIP3    H137093   5.540   4.405   5.724
12384TIP3    H237094   5.435   4.410   5.833
12385TIP3   OH237095   1.675   0.200   2.248
12385TIP3    H137096   1.763   0.198   2.288
12385TIP3    H237097   1.665   0.290   2.217
12386TIP3   OH237098   5.019   1.651   0.420
12386TIP3    H137099   5.007   1.621   0.330
12386TIP3    H237100   5.091   1.714   0.414
12387TIP3   OH237101   0.061   7.075   3.119
12387TIP3    H137102  -0.029   7.094   3.147
12387TIP3    H237103   0.106   7.159   3.123
12388TIP3   OH237104   0.289   1.777   4.132
12388TIP3    H137105   0.334   1.771   4.216
12388TIP3    H237106   0.281   1.871   4.117
12389TIP3   OH237107   4.984   2.427   1.372
12389TIP3    H137108   4.965   2.489   1.302
12389TIP3    H237109   5.051   2.368   1.335
12390TIP3   OH237110   2.528   4.781   6.811
12390TIP3    H137111   2.549   4.781   6.718
12390TIP3    H237112   2.611   4.799   6.855
12391TIP3   OH237113   0.304   5.319   4.023
12391TIP3    H137114   0.267   5.234   3.998
12391TIP3    H237115   0.396   5.301   4.041
12392TIP3   OH237116   1.788   1.568   4.484
12392TIP3    H137117   1.855   1.532   4.541
12392TIP3    H237118   1.729   1.495   4.466
12393TIP3   OH237119   1.406   3.695   5.810
12393TIP3    H137120   1.375   3.716   5.898
12393TIP3    H237121   1.335   3.643   5.772
12394TIP3   OH237122   1.497   4.965   4.617
12394TIP3    H137123   1.416   5.016   4.622
12394TIP3    H237124   1.469   4.874   4.623
12395TIP3   OH237125   3.504   0.577   6.705
12395TIP3    H137126   3.468   0.640   6.643
12395TIP3    H237127   3.442   0.579   6.779
12396TIP3   OH237128   6.564   0.582   5.716
12396TIP3    H137129   6.479   0.593   5.672
12396TIP3    H237130   6.587   0.670   5.745
12397TIP3   OH237131   0.865   1.243   0.243
12397TIP3    H137132   0.933   1.248   0.311
12397TIP3    H237133   0.819   1.327   0.248
12398TIP3   OH237134   3.631   1.238   6.741
12398TIP3    H137135   3.669   1.309   6.793
12398TIP3    H237136   3.612   1.279   6.656
12399TIP3   OH237137   6.919   5.266   4.671
12399TIP3    H137138   6.913   5.261   4.767
12399TIP3    H237139   6.862   5.196   4.640
12400TIP3   OH237140   4.375   7.163   0.666
12400TIP3    H137141   4.420   7.147   0.583
12400TIP3    H237142   4.332   7.081   0.687
12401TIP3   OH237143   7.163   3.546   4.475
12401TIP3    H137144   7.237   3.597   4.440
12401TIP3    H237145   7.091   3.608   4.478
12402TIP3   OH237146   0.295   4.022   1.764
12402TIP3    H137147   0.294   3.938   1.718
12402TIP3    H237148   0.278   3.999   1.856
12403TIP3   OH237149   0.472   7.844   3.547
12403TIP3    H137150   0.532   7.851   3.473
12403TIP3    H237151   0.424   7.763   3.531
12404TIP3   OH237152   1.843   3.256   5.134
12404TIP3    H137153   1.864   3.164   5.115
12404TIP3    H237154   1.754   3.254   5.169
12405TIP3   OH237155   7.107   6.628   6.463
12405TIP3    H137156   7.156   6.669   6.535
12405TIP3    H237157   7.020   6.667   6.468
12406TIP3   OH237158   5.972   3.357   0.702
12406TIP3    H137159   5.988   3.408   0.781
12406TIP3    H237160   5.968   3.267   0.732
12407TIP3   OH237161   1.149   4.786   4.679
12407TIP3    H137162   1.155   4.876   4.711
12407TIP3    H237163   1.115   4.736   4.753
12408TIP3   OH237164   1.614   3.894   2.075
12408TIP3    H137165   1.660   3.978   2.067
12408TIP3    H237166   1.521   3.917   2.072
12409TIP3   OH237167   5.886   2.419   3.778
12409TIP3    H137168   5.858   2.343   3.727
12409TIP3    H237169   5.865   2.494   3.722
12410TIP3   OH237170   1.356   0.872   1.337
12410TIP3    H137171   1.412   0.795   1.330
12410TIP3    H237172   1.291   0.861   1.267
12411TIP3   OH237173   1.227   7.793   3.881
12411TIP3    H137174   1.248   7.848   3.957
12411TIP3    H237175   1.271   7.837   3.808
12412TIP3   OH237176   5.797   3.643   3.175
12412TIP3    H137177   5.816   3.665   3.266
12412TIP3    H237178   5.774   3.727   3.135
12413TIP3   OH237179   7.241   3.202   3.600
12413TIP3    H137180   7.300   3.269   3.635
12413TIP3    H237181   7.158   3.217   3.645
12414TIP3   OH237182   7.923   7.373   3.639
12414TIP3    H137183   7.963   7.287   3.650
12414TIP3    H237184   7.893   7.397   3.727
12415TIP3   OH237185   0.670   3.346   1.271
12415TIP3    H137186   0.625   3.372   1.191
12415TIP3    H237187   0.748   3.300   1.240
12416TIP3   OH237188   0.219   4.335   6.013
12416TIP3    H137189   0.135   4.377   6.032
12416TIP3    H237190   0.267   4.339   6.095
12417TIP3   OH237191   5.017   2.475   0.997
12417TIP3    H137192   5.054   2.456   0.911
12417TIP3    H237193   5.076   2.541   1.035
12418TIP3   OH237194   7.845   0.006   3.233
12418TIP3    H137195   7.838   0.033   3.324
12418TIP3    H237196   7.786   0.065   3.186
12419TIP3   OH237197   7.122   0.356   6.627
12419TIP3    H137198   7.216   0.344   6.615
12419TIP3    H237199   7.114   0.393   6.715
12420TIP3   OH237200   5.357   4.046   1.995
12420TIP3    H137201   5.421   4.044   1.923
12420TIP3    H237202   5.273   4.026   1.953
12421TIP3   OH237203   7.853   0.162   1.150
12421TIP3    H137204   7.924   0.145   1.211
12421TIP3    H237205   7.893   0.216   1.082
12422TIP3   OH237206   4.246   2.890   1.230
12422TIP3    H137207   4.313   2.907   1.164
12422TIP3    H237208   4.287   2.829   1.291
12423TIP3   OH237209   3.291   3.940   2.192
12423TIP3    H137210   3.197   3.945   2.210
12423TIP3    H237211   3.331   3.993   2.261
12424TIP3   OH237212   6.607   7.279   5.226
12424TIP3    H137213   6.587   7.186   5.228
12424TIP3    H237214   6.593   7.305   5.135
12425TIP3   OH237215   0.862   7.485   1.071
12425TIP3    H137216   0.948   7.482   1.028
12425TIP3    H237217   0.838   7.578   1.070
12426TIP3   OH237218   6.078   2.665   2.114
12426TIP3    H137219   6.066   2.756   2.089
12426TIP3    H237220   6.156   2.637   2.067
12427TIP3   OH237221   3.858   4.951   2.513
12427TIP3    H137222   3.768   4.947   2.543
12427TIP3    H237223   3.879   5.045   2.511
12428TIP3   OH237224   1.542   5.936   4.895
12428TIP3    H137225   1.554   6.027   4.867
12428TIP3    H237226   1.587   5.885   4.828
12429TIP3   OH237227   5.158   0.377   5.621
12429TIP3    H137228   5.130   0.331   5.541
12429TIP3    H237229   5.207   0.453   5.590
12430TIP3   OH237230   8.146   7.417   3.092
12430TIP3    H137231   8.183   7.448   3.174
12430TIP3    H237232   8.072   7.476   3.075
12431TIP3   OH237233   4.704   3.469   3.931
12431TIP3    H137234   4.686   3.539   3.868
12431TIP3    H237235   4.778   3.421   3.892
12432TIP3   OH237236   1.636   6.390   3.123
12432TIP3    H137237   1.695   6.328   3.167
12432TIP3    H237238   1.695   6.448   3.074
12433TIP3   OH237239   6.674   7.168   0.175
12433TIP3    H137240   6.682   7.260   0.150
12433TIP3    H237241   6.628   7.127   0.102
12434TIP3   OH237242   6.139   3.711   5.990
12434TIP3    H137243   6.092   3.794   5.988
12434TIP3    H237244   6.215   3.725   5.934
12435TIP3   OH237245   3.986   5.761   4.758
12435TIP3    H137246   3.987   5.853   4.785
12435TIP3    H237247   3.893   5.741   4.745
12436TIP3   OH237248   0.473   0.804   5.080
12436TIP3    H137249   0.473   0.715   5.117
12436TIP3    H237250   0.520   0.856   5.145
12437TIP3   OH237251   4.867   1.243   6.207
12437TIP3    H137252   4.875   1.338   6.213
12437TIP3    H237253   4.773   1.227   6.199
12438TIP3   OH237254   6.545   3.039   0.833
12438TIP3    H137255   6.566   3.097   0.906
12438TIP3    H237256   6.629   3.020   0.793
12439TIP3   OH237257   7.783   6.002   0.495
12439TIP3    H137258   7.861   5.954   0.468
12439TIP3    H237259   7.767   6.065   0.424
12440TIP3   OH237260   5.934   4.431   6.186
12440TIP3    H137261   5.999   4.376   6.143
12440TIP3    H237262   5.920   4.504   6.125
12441TIP3   OH237263   4.457   4.434   2.980
12441TIP3    H137264   4.489   4.346   2.997
12441TIP3    H237265   4.375   4.441   3.029
12442TIP3   OH237266   7.950   6.056   5.996
12442TIP3    H137267   8.036   6.025   5.969
12442TIP3    H237268   7.925   5.997   6.067
12443TIP3   OH237269   5.826   4.724   5.473
12443TIP3    H137270   5.784   4.659   5.528
12443TIP3    H237271   5.805   4.808   5.514
12444TIP3   OH237272   2.424   2.650   0.006
12444TIP3    H137273   2.477   2.711  -0.045
12444TIP3    H237274   2.466   2.649   0.092
12445TIP3   OH237275   7.793   0.225   1.559
12445TIP3    H137276   7.844   0.211   1.639
12445TIP3    H237277   7.720   0.280   1.586
12446TIP3   OH237278   2.048   4.173   3.184
12446TIP3    H137279   1.957   4.166   3.156
12446TIP3    H237280   2.088   4.091   3.156
12447TIP3   OH237281   7.128   6.909   6.207
12447TIP3    H137282   7.078   6.919   6.127
12447TIP3    H237283   7.099   6.982   6.263
12448TIP3   OH237284   6.542   2.119   5.654
12448TIP3    H137285   6.626   2.090   5.620
12448TIP3    H237286   6.562   2.196   5.706
12449TIP3   OH237287   2.843   3.019   4.664
12449TIP3    H137288   2.895   2.940   4.654
12449TIP3    H237289   2.753   2.992   4.645
12450TIP3   OH237290   2.163   3.523   1.763
12450TIP3    H137291   2.202   3.547   1.679
12450TIP3    H237292   2.118   3.441   1.746
12451TIP3   OH237293   1.196   4.423   6.429
12451TIP3    H137294   1.245   4.367   6.488
12451TIP3    H237295   1.116   4.445   6.477
12452TIP3   OH237296   4.299   3.528   0.115
12452TIP3    H137297   4.392   3.513   0.100
12452TIP3    H237298   4.296   3.597   0.181
12453TIP3   OH237299   5.836   0.655   2.877
12453TIP3    H137300   5.769   0.722   2.863
12453TIP3    H237301   5.789   0.582   2.917
12454TIP3   OH237302   5.301   3.319   6.543
12454TIP3    H137303   5.369   3.366   6.495
12454TIP3    H237304   5.319   3.226   6.526
12455TIP3   OH237305   5.791   5.637   2.452
12455TIP3    H137306   5.784   5.565   2.389
12455TIP3    H237307   5.741   5.607   2.528
12456TIP3   OH237308   4.372   7.453   5.474
12456TIP3    H137309   4.419   7.429   5.394
12456TIP3    H237310   4.438   7.449   5.543
12457TIP3   OH237311   6.322   3.380   1.442
12457TIP3    H137312   6.332   3.443   1.372
12457TIP3    H237313   6.291   3.431   1.517
12458TIP3   OH237314   7.852   7.482   4.758
12458TIP3    H137315   7.771   7.531   4.775
12458TIP3    H237316   7.829   7.423   4.687
12459TIP3   OH237317   1.172   6.002   2.563
12459TIP3    H137318   1.125   6.085   2.575
12459TIP3    H237319   1.237   6.020   2.496
12460TIP3   OH237320   8.183   6.609   5.561
12460TIP3    H137321   8.200   6.529   5.511
12460TIP3    H237322   8.088   6.617   5.564
12461TIP3   OH237323   7.704   3.444   4.301
12461TIP3    H137324   7.786   3.488   4.324
12461TIP3    H237325   7.636   3.497   4.343
12462TIP3   OH237326   7.855   1.075   6.596
12462TIP3    H137327   7.905   1.018   6.538
12462TIP3    H237328   7.765   1.071   6.562
12463TIP3   OH237329   7.433   6.262   5.979
12463TIP3    H137330   7.372   6.306   6.038
12463TIP3    H237331   7.393   6.270   5.893
12464TIP3   OH237332   3.524   3.026   0.289
12464TIP3    H137333   3.453   3.035   0.352
12464TIP3    H237334   3.602   3.056   0.336
12465TIP3   OH237335   0.218   1.583   5.088
12465TIP3    H137336   0.249   1.673   5.072
12465TIP3    H237337   0.261   1.531   5.020
12466TIP3   OH237338   4.724   7.869   1.719
12466TIP3    H137339   4.668   7.946   1.730
12466TIP3    H237340   4.740   7.863   1.625
12467TIP3   OH237341   1.597   1.527   6.469
12467TIP3    H137342   1.612   1.621   6.472
12467TIP3    H237343   1.553   1.512   6.385
12468TIP3   OH237344   1.646   0.991   4.233
12468TIP3    H137345   1.634   0.932   4.307
12468TIP3    H237346   1.600   1.071   4.258
12469TIP3   OH237347   0.634   3.135   2.316
12469TIP3    H137348   0.548   3.154   2.278
12469TIP3    H237349   0.682   3.091   2.246
12470TIP3   OH237350   6.720   7.427   0.118
12470TIP3    H137351   6.733   7.489   0.046
12470TIP3    H237352   6.793   7.445   0.178
12471TIP3   OH237353   3.135   5.675   4.545
12471TIP3    H137354   3.059   5.732   4.528
12471TIP3    H237355   3.097   5.588   4.557
12472TIP3   OH237356   0.873   5.724   0.887
12472TIP3    H137357   0.951   5.725   0.832
12472TIP3    H237358   0.822   5.650   0.854
12473TIP3   OH237359   2.416   2.225   4.488
12473TIP3    H137360   2.465   2.306   4.500
12473TIP3    H237361   2.398   2.221   4.394
12474TIP3   OH237362   4.578   7.024   5.017
12474TIP3    H137363   4.629   7.064   4.947
12474TIP3    H237364   4.491   7.064   5.010
12475TIP3   OH237365   1.093   5.109   3.945
12475TIP3    H137366   1.018   5.162   3.919
12475TIP3    H237367   1.161   5.172   3.967
12476TIP3   OH237368   5.695   3.441   2.963
12476TIP3    H137369   5.693   3.454   2.869
12476TIP3    H237370   5.723   3.526   2.998
12477TIP3   OH237371   4.095   3.353   2.999
12477TIP3    H137372   4.057   3.440   3.012
12477TIP3    H237373   4.176   3.355   3.051
12478TIP3   OH237374   4.790   2.681   5.947
12478TIP3    H137375   4.819   2.770   5.969
12478TIP3    H237376   4.801   2.631   6.028
12479TIP3   OH237377   1.217   7.250   1.050
12479TIP3    H137378   1.281   7.207   0.994
12479TIP3    H237379   1.217   7.199   1.131
12480TIP3   OH237380   3.673   5.587   5.842
12480TIP3    H137381   3.648   5.495   5.828
12480TIP3    H237382   3.627   5.612   5.922
12481TIP3   OH237383   5.867   3.601   5.619
12481TIP3    H137384   5.923   3.538   5.665
12481TIP3    H237385   5.927   3.672   5.594
12482TIP3   OH237386   3.257   2.965   3.814
12482TIP3    H137387   3.174   2.940   3.855
12482TIP3    H237388   3.324   2.943   3.879
12483TIP3   OH237389   8.168   3.900   2.853
12483TIP3    H137390   8.242   3.860   2.899
12483TIP3    H237391   8.100   3.832   2.854
12484TIP3   OH237392   7.015   1.993   0.809
12484TIP3    H137393   6.964   2.072   0.827
12484TIP3    H237394   6.960   1.942   0.750
12485TIP3   OH237395   1.976   1.615   2.375
12485TIP3    H137396   2.014   1.696   2.343
12485TIP3    H237397   2.004   1.548   2.312
12486TIP3   OH237398   5.618   7.519   5.440
12486TIP3    H137399   5.663   7.493   5.359
12486TIP3    H237400   5.593   7.436   5.481
12487TIP3   OH237401   2.293   1.945   6.362
12487TIP3    H137402   2.221   1.888   6.389
12487TIP3    H237403   2.356   1.940   6.433
12488TIP3   OH237404   2.527   1.917   6.515
12488TIP3    H137405   2.545   2.011   6.508
12488TIP3    H237406   2.614   1.877   6.521
12489TIP3   OH237407   2.507   1.473   2.553
12489TIP3    H137408   2.555   1.412   2.496
12489TIP3    H237409   2.444   1.515   2.494
12490TIP3   OH237410   0.499   5.409   5.791
12490TIP3    H137411   0.557   5.448   5.725
12490TIP3    H237412   0.442   5.350   5.741
12491TIP3   OH237413   5.136   5.724   4.507
12491TIP3    H137414   5.047   5.711   4.541
12491TIP3    H237415   5.181   5.642   4.527
12492TIP3   OH237416   0.680   2.162   4.828
12492TIP3    H137417   0.736   2.175   4.752
12492TIP3    H237418   0.723   2.211   4.898
12493TIP3   OH237419   6.728   1.982   0.986
12493TIP3    H137420   6.681   1.982   0.902
12493TIP3    H237421   6.663   1.952   1.049
12494TIP3   OH237422   3.001   0.647   6.697
12494TIP3    H137423   2.973   0.650   6.789
12494TIP3    H237424   3.041   0.560   6.688
12495TIP3   OH237425   3.902   3.662   4.890
12495TIP3    H137426   3.984   3.706   4.867
12495TIP3    H237427   3.833   3.721   4.860
12496TIP3   OH237428   6.933   5.120   1.345
12496TIP3    H137429   6.927   5.131   1.250
12496TIP3    H237430   7.024   5.142   1.366
12497TIP3   OH237431   5.950   6.744   5.972
12497TIP3    H137432   5.970   6.759   6.064
12497TIP3    H237433   5.968   6.827   5.929
12498TIP3   OH237434   6.274   3.407   4.320
12498TIP3    H137435   6.193   3.435   4.277
12498TIP3    H237436   6.294   3.478   4.382
12499TIP3   OH237437   7.805   6.097   6.353
12499TIP3    H137438   7.759   6.139   6.280
12499TIP3    H237439   7.772   6.143   6.431
12500TIP3   OH237440   4.662   3.726   2.689
12500TIP3    H137441   4.618   3.806   2.717
12500TIP3    H237442   4.647   3.663   2.759
12501TIP3   OH237443   4.720   2.607   0.330
12501TIP3    H137444   4.809   2.578   0.349
12501TIP3    H237445   4.675   2.604   0.415
12502TIP3   OH237446   0.871   4.416   2.910
12502TIP3    H137447   0.822   4.417   2.828
12502TIP3    H237448   0.884   4.509   2.932
12503TIP3   OH237449   0.086   7.658   4.741
12503TIP3    H137450   0.146   7.697   4.677
12503TIP3    H237451   0.036   7.594   4.691
12504TIP3   OH237452   5.448   5.147   0.548
12504TIP3    H137453   5.466   5.060   0.511
12504TIP3    H237454   5.433   5.203   0.472
12505TIP3   OH237455   3.295   3.199   2.060
12505TIP3    H137456   3.232   3.153   2.114
12505TIP3    H237457   3.255   3.285   2.044
12506TIP3   OH237458   0.963   2.292   6.561
12506TIP3    H137459   0.957   2.334   6.647
12506TIP3    H237460   1.048   2.247   6.562
12507TIP3   OH237461   3.340   5.537   2.781
12507TIP3    H137462   3.358   5.490   2.699
12507TIP3    H237463   3.420   5.588   2.796
12508TIP3   OH237464   3.811   3.932   6.333
12508TIP3    H137465   3.721   3.921   6.302
12508TIP3    H237466   3.856   3.975   6.261
12509TIP3   OH237467   3.842   4.749   2.336
12509TIP3    H137468   3.851   4.788   2.249
12509TIP3    H237469   3.874   4.816   2.396
12510TIP3   OH237470   3.753   0.988   3.302
12510TIP3    H137471   3.796   0.910   3.336
12510TIP3    H237472   3.663   0.982   3.334
12511TIP3   OH237473   2.945   4.740   1.086
12511TIP3    H137474   2.963   4.832   1.066
12511TIP3    H237475   3.030   4.696   1.078
12512TIP3   OH237476   6.351   5.996   1.068
12512TIP3    H137477   6.408   5.965   0.998
12512TIP3    H237478   6.409   6.046   1.126
12513TIP3   OH237479   6.437   0.497   1.215
12513TIP3    H137480   6.410   0.427   1.156
12513TIP3    H237481   6.473   0.451   1.291
12514TIP3   OH237482   6.859   1.557   4.923
12514TIP3    H137483   6.815   1.492   4.979
12514TIP3    H237484   6.850   1.522   4.835
12515TIP3   OH237485   6.989   1.985   0.348
12515TIP3    H137486   6.922   1.953   0.287
12515TIP3    H237487   6.951   1.971   0.435
12516TIP3   OH237488   7.768   6.203   0.310
12516TIP3    H137489   7.726   6.174   0.229
12516TIP3    H237490   7.816   6.282   0.285
12517TIP3   OH237491   7.956   1.309   0.188
12517TIP3    H137492   7.925   1.317   0.278
12517TIP3    H237493   8.002   1.224   0.186
12518TIP3   OH237494   0.673   6.536   2.656
12518TIP3    H137495   0.579   6.554   2.663
12518TIP3    H237496   0.714   6.603   2.711
12519TIP3   OH237497   2.569   3.410   6.179
12519TIP3    H137498   2.525   3.373   6.256
12519TIP3    H237499   2.503   3.404   6.110
12520TIP3   OH237500   7.617   6.587   2.700
12520TIP3    H137501   7.679   6.633   2.643
12520TIP3    H237502   7.612   6.642   2.778
12521TIP3   OH237503   0.497   7.194   5.783
12521TIP3    H137504   0.577   7.178   5.734
12521TIP3    H237505   0.428   7.194   5.717
12522TIP3   OH237506   5.738   3.327   2.460
12522TIP3    H137507   5.774   3.408   2.423
12522TIP3    H237508   5.645   3.345   2.471
12523TIP3   OH237509   3.002   1.430   0.891
12523TIP3    H137510   2.934   1.417   0.958
12523TIP3    H237511   3.067   1.486   0.933
12524TIP3   OH237512   4.845   1.635   6.746
12524TIP3    H137513   4.868   1.639   6.839
12524TIP3    H237514   4.775   1.570   6.741
12525TIP3   OH237515   6.977   3.450   3.495
12525TIP3    H137516   6.980   3.385   3.565
12525TIP3    H237517   7.037   3.519   3.523
12526TIP3   OH237518   7.509   0.654   0.234
12526TIP3    H137519   7.600   0.639   0.259
12526TIP3    H237520   7.458   0.605   0.299
12527TIP3   OH237521   0.654   5.167   1.539
12527TIP3    H137522   0.741   5.208   1.534
12527TIP3    H237523   0.593   5.241   1.536
12528TIP3   OH237524   2.207   5.597   5.895
12528TIP3    H137525   2.233   5.524   5.952
12528TIP3    H237526   2.253   5.673   5.930
12529TIP3   OH237527   3.834   0.722   0.883
12529TIP3    H137528   3.869   0.653   0.828
12529TIP3    H237529   3.910   0.775   0.907
12530TIP3   OH237530   5.313   6.473   1.117
12530TIP3    H137531   5.273   6.473   1.030
12530TIP3    H237532   5.323   6.381   1.139
12531TIP3   OH237533   2.234   1.526   5.497
12531TIP3    H137534   2.248   1.445   5.545
12531TIP3    H237535   2.156   1.509   5.443
12532TIP3   OH237536   8.265   0.539   2.768
12532TIP3    H137537   8.237   0.467   2.824
12532TIP3    H237538   8.273   0.614   2.828
12533TIP3   OH237539   2.404   2.533   3.988
12533TIP3    H137540   2.397   2.507   3.896
12533TIP3    H237541   2.317   2.567   4.010
12534TIP3   OH237542   5.221   2.574   1.459
12534TIP3    H137543   5.147   2.525   1.424
12534TIP3    H237544   5.286   2.507   1.480
12535TIP3   OH237545   3.042   2.159   2.858
12535TIP3    H137546   3.136   2.161   2.840
12535TIP3    H237547   3.001   2.147   2.772
12536TIP3   OH237548   4.685   5.897   4.664
12536TIP3    H137549   4.608   5.924   4.713
12536TIP3    H237550   4.703   5.969   4.604
12537TIP3   OH237551   5.154   2.338   0.181
12537TIP3    H137552   5.155   2.247   0.152
12537TIP3    H237553   5.086   2.379   0.128
12538TIP3   OH237554   8.248   0.873   5.010
12538TIP3    H137555   8.305   0.948   4.993
12538TIP3    H237556   8.179   0.880   4.944
12539TIP3   OH237557   3.204   7.859   1.274
12539TIP3    H137558   3.214   7.943   1.230
12539TIP3    H237559   3.123   7.867   1.323
12540TIP3   OH237560   5.181   2.802   3.859
12540TIP3    H137561   5.245   2.732   3.856
12540TIP3    H237562   5.096   2.758   3.847
12541TIP3   OH237563   1.771   2.609   2.496
12541TIP3    H137564   1.683   2.648   2.495
12541TIP3    H237565   1.799   2.611   2.404
12542TIP3   OH237566   6.441   1.483   5.772
12542TIP3    H137567   6.528   1.447   5.788
12542TIP3    H237568   6.435   1.559   5.831
12543TIP3   OH237569   4.577   4.659   6.801
12543TIP3    H137570   4.484   4.660   6.780
12543TIP3    H237571   4.619   4.617   6.725
12544TIP3   OH237572   0.430   1.043   3.136
12544TIP3    H137573   0.483   1.035   3.216
12544TIP3    H237574   0.353   1.092   3.163
12545TIP3   OH237575   5.036   6.567   0.376
12545TIP3    H137576   4.989   6.560   0.459
12545TIP3    H237577   4.967   6.578   0.310
12546TIP3   OH237578   1.352   2.171   4.708
12546TIP3    H137579   1.274   2.225   4.696
12546TIP3    H237580   1.326   2.105   4.772
12547TIP3   OH237581   0.260   7.358   3.970
12547TIP3    H137582   0.307   7.305   3.906
12547TIP3    H237583   0.329   7.388   4.031
12548TIP3   OH237584   2.135   4.001   4.764
12548TIP3    H137585   2.094   3.948   4.696
12548TIP3    H237586   2.227   3.975   4.762
12549TIP3   OH237587   3.442   6.113   1.084
12549TIP3    H137588   3.522   6.164   1.096
12549TIP3    H237589   3.459   6.059   1.007
12550TIP3   OH237590   7.882   0.191   2.152
12550TIP3    H137591   7.858   0.280   2.179
12550TIP3    H237592   7.800   0.152   2.122
12551TIP3   OH237593   3.985   0.431   5.093
12551TIP3    H137594   3.959   0.430   5.001
12551TIP3    H237595   3.934   0.361   5.134
12552TIP3   OH237596   1.782   5.413   3.344
12552TIP3    H137597   1.809   5.503   3.323
12552TIP3    H237598   1.711   5.395   3.283
12553TIP3   OH237599   0.836   6.941   5.848
12553TIP3    H137600   0.864   6.871   5.789
12553TIP3    H237601   0.746   6.918   5.871
12554TIP3   OH237602   0.537   3.658   5.289
12554TIP3    H137603   0.506   3.648   5.199
12554TIP3    H237604   0.627   3.627   5.287
12555TIP3   OH237605   7.942   3.837   1.365
12555TIP3    H137606   7.932   3.763   1.425
12555TIP3    H237607   8.019   3.814   1.312
12556TIP3   OH237608   7.274   6.428   2.522
12556TIP3    H137609   7.342   6.396   2.581
12556TIP3    H237610   7.211   6.356   2.516
12557TIP3   OH237611   2.136   0.268   4.561
12557TIP3    H137612   2.166   0.256   4.652
12557TIP3    H237613   2.086   0.349   4.563
12558TIP3   OH237614   2.287   7.869   0.133
12558TIP3    H137615   2.368   7.828   0.103
12558TIP3    H237616   2.225   7.797   0.144
12559TIP3   OH237617   2.515   3.311   0.121
12559TIP3    H137618   2.555   3.380   0.173
12559TIP3    H237619   2.461   3.356   0.056
12560TIP3   OH237620   7.502   3.062   1.811
12560TIP3    H137621   7.453   3.080   1.731
12560TIP3    H237622   7.453   2.992   1.854
12561TIP3   OH237623   1.980   6.108   5.973
12561TIP3    H137624   2.007   6.199   5.962
12561TIP3    H237625   2.008   6.064   5.893
12562TIP3   OH237626   5.172   1.223   6.146
12562TIP3    H137627   5.154   1.143   6.096
12562TIP3    H237628   5.092   1.239   6.196
12563TIP3   OH237629   1.170   5.608   4.975
12563TIP3    H137630   1.153   5.535   5.034
12563TIP3    H237631   1.265   5.610   4.966
12564TIP3   OH237632   3.780   5.433   6.295
12564TIP3    H137633   3.830   5.443   6.376
12564TIP3    H237634   3.699   5.481   6.312
12565TIP3   OH237635   5.809   2.417   6.732
12565TIP3    H137636   5.788   2.331   6.695
12565TIP3    H237637   5.728   2.444   6.776
12566TIP3   OH237638   4.192   4.290   2.054
12566TIP3    H137639   4.107   4.326   2.077
12566TIP3    H237640   4.173   4.201   2.023
12567TIP3   OH237641   1.433   5.668   6.255
12567TIP3    H137642   1.459   5.743   6.307
12567TIP3    H237643   1.440   5.594   6.315
12568TIP3   OH237644   1.982   0.571   5.731
12568TIP3    H137645   2.058   0.567   5.673
12568TIP3    H237646   1.925   0.638   5.692
12569TIP3   OH237647   5.442   3.037   5.485
12569TIP3    H137648   5.405   3.125   5.474
12569TIP3    H237649   5.445   3.025   5.580
12570TIP3   OH237650   8.100   1.444   4.213
12570TIP3    H137651   8.166   1.472   4.276
12570TIP3    H237652   8.016   1.461   4.257
12571TIP3   OH237653   2.045   0.981   4.210
12571TIP3    H137654   2.034   0.949   4.121
12571TIP3    H237655   2.030   1.076   4.204
12572TIP3   OH237656   4.153   7.843   2.469
12572TIP3    H137657   4.094   7.884   2.533
12572TIP3    H237658   4.173   7.913   2.407
12573TIP3   OH237659   1.610   6.184   0.813
12573TIP3    H137660   1.664   6.126   0.759
12573TIP3    H237661   1.640   6.272   0.789
12574TIP3   OH237662   2.170   5.779   0.639
12574TIP3    H137663   2.236   5.709   0.640
12574TIP3    H237664   2.210   5.849   0.587
12575TIP3   OH237665   5.767   4.915   3.993
12575TIP3    H137666   5.759   5.010   4.003
12575TIP3    H237667   5.691   4.890   3.940
12576TIP3   OH237668   7.321   7.359   5.864
12576TIP3    H137669   7.403   7.367   5.913
12576TIP3    H237670   7.346   7.371   5.772
12577TIP3   OH237671   4.048   4.792   4.671
12577TIP3    H137672   4.093   4.837   4.742
12577TIP3    H237673   4.030   4.704   4.706
12578TIP3   OH237674   0.039   4.246   4.902
12578TIP3    H137675   0.058   4.153   4.914
12578TIP3    H237676   0.121   4.283   4.872
12579TIP3   OH237677   7.038   1.888   5.934
12579TIP3    H137678   7.010   1.951   5.868
12579TIP3    H237679   6.956   1.857   5.973
12580TIP3   OH237680   4.644   2.701   0.613
12580TIP3    H137681   4.719   2.761   0.609
12580TIP3    H237682   4.582   2.743   0.672
12581TIP3   OH237683   4.856   6.252   5.504
12581TIP3    H137684   4.771   6.259   5.462
12581TIP3    H237685   4.842   6.192   5.577
12582TIP3   OH237686   4.210   2.106   0.825
12582TIP3    H137687   4.160   2.176   0.866
12582TIP3    H237688   4.166   2.090   0.742
12583TIP3   OH237689   0.471   2.858   1.771
12583TIP3    H137690   0.429   2.908   1.701
12583TIP3    H237691   0.539   2.916   1.806
12584TIP3   OH237692   4.518   7.822   1.209
12584TIP3    H137693   4.427   7.823   1.178
12584TIP3    H237694   4.537   7.913   1.232
12585TIP3   OH237695   3.574   6.686   3.138
12585TIP3    H137696   3.483   6.666   3.157
12585TIP3    H237697   3.581   6.781   3.147
12586TIP3   OH237698   2.381   4.081   4.172
12586TIP3    H137699   2.453   4.031   4.132
12586TIP3    H237700   2.303   4.028   4.155
12587TIP3   OH237701   6.651   6.886   1.857
12587TIP3    H137702   6.732   6.853   1.895
12587TIP3    H237703   6.632   6.967   1.906
12588TIP3   OH237704   2.157   4.513   6.463
12588TIP3    H137705   2.067   4.546   6.466
12588TIP3    H237706   2.147   4.418   6.458
12589TIP3   OH237707   0.725   6.608   6.449
12589TIP3    H137708   0.803   6.650   6.412
12589TIP3    H237709   0.687   6.673   6.507
12590TIP3   OH237710   3.294   2.422   4.981
12590TIP3    H137711   3.210   2.464   5.000
12590TIP3    H237712   3.301   2.424   4.885
12591TIP3   OH237713   4.683   1.927   3.426
12591TIP3    H137714   4.597   1.896   3.454
12591TIP3    H237715   4.705   1.874   3.350
12592TIP3   OH237716   7.524   7.384   5.323
12592TIP3    H137717   7.444   7.383   5.375
12592TIP3    H237718   7.543   7.292   5.305
12593TIP3   OH237719   6.221   5.302   0.890
12593TIP3    H137720   6.225   5.340   0.978
12593TIP3    H237721   6.217   5.208   0.904
12594TIP3   OH237722   6.602   4.755   5.329
12594TIP3    H137723   6.538   4.690   5.360
12594TIP3    H237724   6.634   4.720   5.247
12595TIP3   OH237725   6.857   5.432   3.708
12595TIP3    H137726   6.897   5.377   3.641
12595TIP3    H237727   6.813   5.370   3.766
12596TIP3   OH237728   6.954   4.841   3.160
12596TIP3    H137729   6.976   4.805   3.246
12596TIP3    H237730   6.866   4.877   3.170
12597TIP3   OH237731   7.862   3.141   6.045
12597TIP3    H137732   7.814   3.129   6.127
12597TIP3    H237733   7.952   3.118   6.066
12598TIP3   OH237734   5.536   3.099   4.258
12598TIP3    H137735   5.508   3.123   4.346
12598TIP3    H237736   5.599   3.029   4.272
12599TIP3   OH237737   6.550   4.722   1.679
12599TIP3    H137738   6.587   4.634   1.690
12599TIP3    H237739   6.610   4.779   1.726
12600TIP3   OH237740   0.439   6.084   5.378
12600TIP3    H137741   0.443   6.160   5.319
12600TIP3    H237742   0.345   6.071   5.394
12601TIP3   OH237743   4.703   1.651   0.153
12601TIP3    H137744   4.641   1.628   0.223
12601TIP3    H237745   4.653   1.708   0.095
12602TIP3   OH237746   1.132   3.807   1.815
12602TIP3    H137747   1.136   3.731   1.756
12602TIP3    H237748   1.102   3.771   1.898
12603TIP3   OH237749   4.232   2.508   2.428
12603TIP3    H137750   4.203   2.534   2.516
12603TIP3    H237751   4.283   2.428   2.443
12604TIP3   OH237752   1.442   2.895   4.135
12604TIP3    H137753   1.467   2.805   4.118
12604TIP3    H237754   1.484   2.945   4.065
12605TIP3   OH237755   4.540   2.214   0.561
12605TIP3    H137756   4.499   2.221   0.647
12605TIP3    H237757   4.484   2.265   0.503
12606TIP3   OH237758   1.129   4.826   6.739
12606TIP3    H137759   1.110   4.918   6.758
12606TIP3    H237760   1.070   4.803   6.667
12607TIP3   OH237761   3.776   3.242   5.392
12607TIP3    H137762   3.695   3.266   5.437
12607TIP3    H237763   3.801   3.159   5.433
12608TIP3   OH237764   5.057   4.653   6.023
12608TIP3    H137765   4.988   4.606   6.070
12608TIP3    H237766   5.018   4.737   6.001
12609TIP3   OH237767   5.171   0.676   6.360
12609TIP3    H137768   5.256   0.655   6.398
12609TIP3    H237769   5.111   0.615   6.401
12610TIP3   OH237770   1.887   7.329   6.242
12610TIP3    H137771   1.838   7.338   6.324
12610TIP3    H237772   1.849   7.397   6.185
12611TIP3   OH237773   2.395   7.848   4.409
12611TIP3    H137774   2.463   7.869   4.345
12611TIP3    H237775   2.313   7.866   4.363
12612TIP3   OH237776   8.040   3.892   4.087
12612TIP3    H137777   8.133   3.871   4.098
12612TIP3    H237778   8.035   3.987   4.094
12613TIP3   OH237779   2.947   0.071   4.718
12613TIP3    H137780   2.975   0.159   4.743
12613TIP3    H237781   2.851   0.078   4.709
12614TIP3   OH237782   6.868   7.426   5.759
12614TIP3    H137783   6.829   7.494   5.813
12614TIP3    H237784   6.796   7.365   5.741
12615TIP3   OH237785   4.306   7.639   4.386
12615TIP3    H137786   4.285   7.576   4.318
12615TIP3    H237787   4.314   7.587   4.466
12616TIP3   OH237788   3.039   0.031   5.637
12616TIP3    H137789   3.072   0.035   5.727
12616TIP3    H237790   2.948   0.000   5.647
12617TIP3   OH237791   7.473   2.260   4.466
12617TIP3    H137792   7.475   2.247   4.561
12617TIP3    H237793   7.409   2.195   4.434
12618TIP3   OH237794   7.391   5.223   5.261
12618TIP3    H137795   7.454   5.295   5.265
12618TIP3    H237796   7.406   5.173   5.341
12619TIP3   OH237797   2.600   0.191   5.833
12619TIP3    H137798   2.630   0.162   5.919
12619TIP3    H237799   2.505   0.185   5.837
12620TIP3   OH237800   4.513   7.503   0.556
12620TIP3    H137801   4.583   7.561   0.525
12620TIP3    H237802   4.557   7.419   0.571
12621TIP3   OH237803   8.186   0.895   5.853
12621TIP3    H137804   8.255   0.950   5.816
12621TIP3    H237805   8.133   0.868   5.778
12622TIP3   OH237806   1.502   2.912   5.037
12622TIP3    H137807   1.436   2.978   5.061
12622TIP3    H237808   1.458   2.828   5.052
12623TIP3   OH237809   1.928   7.414   4.846
12623TIP3    H137810   1.851   7.422   4.903
12623TIP3    H237811   1.936   7.320   4.830
12624TIP3   OH237812   4.914   0.189   1.380
12624TIP3    H137813   5.004   0.172   1.352
12624TIP3    H237814   4.911   0.283   1.397
12625TIP3   OH237815   4.739   1.461   1.418
12625TIP3    H137816   4.773   1.541   1.460
12625TIP3    H237817   4.817   1.413   1.392
12626TIP3   OH237818   4.756   6.658   1.731
12626TIP3    H137819   4.722   6.735   1.776
12626TIP3    H237820   4.843   6.685   1.700
12627TIP3   OH237821   6.205   2.745   0.538
12627TIP3    H137822   6.143   2.812   0.509
12627TIP3    H237823   6.273   2.795   0.584
12628TIP3   OH237824   1.503   5.840   5.132
12628TIP3    H137825   1.427   5.884   5.171
12628TIP3    H237826   1.519   5.889   5.052
12629TIP3   OH237827   2.709   6.965   4.023
12629TIP3    H137828   2.650   7.026   4.068
12629TIP3    H237829   2.744   6.910   4.093
12630TIP3   OH237830   1.132   3.176   6.526
12630TIP3    H137831   1.116   3.174   6.620
12630TIP3    H237832   1.051   3.208   6.488
12631TIP3   OH237833   8.178   2.038   0.628
12631TIP3    H137834   8.086   2.062   0.635
12631TIP3    H237835   8.191   2.017   0.536
12632TIP3   OH237836   2.698   3.168   2.570
12632TIP3    H137837   2.755   3.237   2.536
12632TIP3    H237838   2.647   3.212   2.639
12633TIP3   OH237839   4.989   6.801   0.702
12633TIP3    H137840   5.035   6.817   0.784
12633TIP3    H237841   5.043   6.843   0.635
12634TIP3   OH237842   3.749   0.765   5.045
12634TIP3    H137843   3.758   0.859   5.031
12634TIP3    H237844   3.686   0.756   5.116
12635TIP3   OH237845   4.011   3.556   6.535
12635TIP3    H137846   4.051   3.475   6.503
12635TIP3    H237847   4.051   3.625   6.481
12636TIP3   OH237848   7.877   6.038   0.779
12636TIP3    H137849   7.858   6.024   0.686
12636TIP3    H237850   7.815   5.982   0.825
12637TIP3   OH237851   2.802   5.686   1.230
12637TIP3    H137852   2.810   5.757   1.165
12637TIP3    H237853   2.883   5.691   1.280
12638TIP3   OH237854   4.918   4.136   4.665
12638TIP3    H137855   4.967   4.212   4.636
12638TIP3    H237856   4.972   4.097   4.734
12639TIP3   OH237857   4.668   3.955   3.773
12639TIP3    H137858   4.639   3.879   3.823
12639TIP3    H237859   4.732   3.998   3.830
12640TIP3   OH237860   2.425   5.238   5.049
12640TIP3    H137861   2.427   5.189   4.967
12640TIP3    H237862   2.417   5.171   5.117
12641TIP3   OH237863   4.039   7.173   6.636
12641TIP3    H137864   3.996   7.089   6.654
12641TIP3    H237865   4.095   7.156   6.560
12642TIP3   OH237866   5.216   4.359   6.823
12642TIP3    H137867   5.143   4.298   6.824
12642TIP3    H237868   5.293   4.305   6.807
12643TIP3   OH237869   6.151   0.694   1.866
12643TIP3    H137870   6.145   0.607   1.827
12643TIP3    H237871   6.143   0.680   1.960
12644TIP3   OH237872   1.828   1.587   0.562
12644TIP3    H137873   1.922   1.570   0.556
12644TIP3    H237874   1.821   1.683   0.565
12645TIP3   OH237875   0.559   5.260   6.283
12645TIP3    H137876   0.497   5.288   6.350
12645TIP3    H237877   0.507   5.258   6.202
12646TIP3   OH237878   2.999   5.894   3.823
12646TIP3    H137879   3.079   5.946   3.833
12646TIP3    H237880   2.932   5.957   3.796
12647TIP3   OH237881   0.977   5.475   0.756
12647TIP3    H137882   1.053   5.419   0.745
12647TIP3    H237883   1.011   5.564   0.749
12648TIP3   OH237884   5.150   3.009   1.057
12648TIP3    H137885   5.146   3.007   0.961
12648TIP3    H237886   5.243   2.999   1.077
12649TIP3   OH237887   8.316   1.917   4.510
12649TIP3    H137888   8.321   1.960   4.596
12649TIP3    H237889   8.408   1.902   4.486
12650TIP3   OH237890   7.817   5.402   2.803
12650TIP3    H137891   7.860   5.439   2.726
12650TIP3    H237892   7.804   5.310   2.781
12651TIP3   OH237893   7.048   6.672   0.249
12651TIP3    H137894   6.994   6.621   0.309
12651TIP3    H237895   7.109   6.719   0.305
12652TIP3   OH237896   0.232   7.526   1.198
12652TIP3    H137897   0.311   7.517   1.146
12652TIP3    H237898   0.261   7.518   1.289
12653TIP3   OH237899   1.123   6.119   5.080
12653TIP3    H137900   1.193   6.087   5.137
12653TIP3    H237901   1.059   6.048   5.079
12654TIP3   OH237902   6.866   7.583   1.346
12654TIP3    H137903   6.952   7.610   1.380
12654TIP3    H237904   6.851   7.497   1.386
12655TIP3   OH237905   2.485   6.143   1.295
12655TIP3    H137906   2.556   6.204   1.275
12655TIP3    H237907   2.529   6.068   1.334
12656TIP3   OH237908   4.777   5.157   3.363
12656TIP3    H137909   4.682   5.157   3.356
12656TIP3    H237910   4.803   5.068   3.340
12657TIP3   OH237911   4.768   0.415   1.040
12657TIP3    H137912   4.839   0.428   0.978
12657TIP3    H237913   4.799   0.344   1.097
12658TIP3   OH237914   0.260   5.035   1.933
12658TIP3    H137915   0.266   4.964   1.997
12658TIP3    H237916   0.345   5.077   1.934
12659TIP3   OH237917   7.675   5.867   4.012
12659TIP3    H137918   7.595   5.825   3.982
12659TIP3    H237919   7.714   5.905   3.934
12660TIP3   OH237920   1.974   1.309   3.653
12660TIP3    H137921   1.934   1.375   3.710
12660TIP3    H237922   1.989   1.355   3.571
12661TIP3   OH237923   4.098   6.808   1.846
12661TIP3    H137924   4.108   6.870   1.774
12661TIP3    H237925   4.169   6.745   1.833
12662TIP3   OH237926   4.117   1.906   3.861
12662TIP3    H137927   4.165   1.919   3.779
12662TIP3    H237928   4.131   1.986   3.911
12663TIP3   OH237929   3.386   6.999   2.639
12663TIP3    H137930   3.361   6.923   2.586
12663TIP3    H237931   3.348   7.073   2.593
12664TIP3   OH237932   6.379   6.163   2.118
12664TIP3    H137933   6.376   6.238   2.177
12664TIP3    H237934   6.407   6.199   2.034
12665TIP3   OH237935   5.013   1.521   5.902
12665TIP3    H137936   5.023   1.426   5.907
12665TIP3    H237937   4.998   1.539   5.809
12666TIP3   OH237938   3.778   3.514   5.091
12666TIP3    H137939   3.846   3.541   5.029
12666TIP3    H237940   3.825   3.468   5.160
12667TIP3   OH237941   2.357   5.495   4.585
12667TIP3    H137942   2.388   5.424   4.529
12667TIP3    H237943   2.419   5.498   4.657
12668TIP3   OH237944   2.770   5.991   0.424
12668TIP3    H137945   2.754   6.084   0.412
12668TIP3    H237946   2.859   5.985   0.457
12669TIP3   OH237947   8.110   2.445   3.788
12669TIP3    H137948   8.122   2.371   3.848
12669TIP3    H237949   8.191   2.495   3.796
12670TIP3   OH237950   7.409   1.264   6.268
12670TIP3    H137951   7.469   1.336   6.244
12670TIP3    H237952   7.406   1.266   6.363
12671TIP3   OH237953   4.467   7.392   3.256
12671TIP3    H137954   4.467   7.488   3.246
12671TIP3    H237955   4.517   7.376   3.335
12672TIP3   OH237956   6.945   4.087   3.044
12672TIP3    H137957   7.029   4.132   3.050
12672TIP3    H237958   6.959   4.017   2.981
12673TIP3   OH237959   8.091   7.594   3.504
12673TIP3    H137960   8.008   7.557   3.474
12673TIP3    H237961   8.070   7.683   3.531
12674TIP3   OH237962   1.059   3.682   2.619
12674TIP3    H137963   0.971   3.698   2.586
12674TIP3    H237964   1.103   3.638   2.546
12675TIP3   OH237965   6.697   5.817   1.103
12675TIP3    H137966   6.621   5.817   1.161
12675TIP3    H237967   6.760   5.874   1.147
12676TIP3   OH237968   6.440   2.847   0.655
12676TIP3    H137969   6.519   2.795   0.670
12676TIP3    H237970   6.444   2.915   0.723
12677TIP3   OH237971   4.846   2.593   3.021
12677TIP3    H137972   4.788   2.519   3.005
12677TIP3    H237973   4.909   2.592   2.950
12678TIP3   OH237974   4.070   5.312   5.322
12678TIP3    H137975   3.977   5.296   5.308
12678TIP3    H237976   4.077   5.407   5.333
12679TIP3   OH237977   3.386   2.536   6.422
12679TIP3    H137978   3.328   2.516   6.349
12679TIP3    H237979   3.396   2.631   6.420
12680TIP3   OH237980   0.364   6.542   2.405
12680TIP3    H137981   0.455   6.562   2.386
12680TIP3    H237982   0.363   6.523   2.499
12681TIP3   OH237983   7.544   1.650   2.880
12681TIP3    H137984   7.632   1.617   2.860
12681TIP3    H237985   7.547   1.672   2.973
12682TIP3   OH237986   3.542   0.492   2.603
12682TIP3    H137987   3.452   0.524   2.594
12682TIP3    H237988   3.595   0.571   2.609
12683TIP3   OH237989   3.489   2.957   2.298
12683TIP3    H137990   3.486   2.945   2.203
12683TIP3    H237991   3.482   3.052   2.310
12684TIP3   OH237992   3.849   5.891   5.063
12684TIP3    H137993   3.839   5.939   4.981
12684TIP3    H237994   3.767   5.843   5.074
12685TIP3   OH237995   4.970   1.986   0.804
12685TIP3    H137996   4.998   2.077   0.788
12685TIP3    H237997   4.876   1.992   0.816
12686TIP3   OH237998   4.168   6.750   3.398
12686TIP3    H137999   4.229   6.701   3.453
12686TIP3    H238000   4.157   6.696   3.320
12687TIP3   OH238001   1.710   0.899   5.962
12687TIP3    H138002   1.748   0.935   5.882
12687TIP3    H238003   1.713   0.804   5.949
12688TIP3   OH238004   4.096   6.163   2.437
12688TIP3    H138005   4.133   6.251   2.435
12688TIP3    H238006   4.065   6.147   2.348
12689TIP3   OH238007   6.937   6.081   2.624
12689TIP3    H138008   6.856   6.063   2.671
12689TIP3    H238009   6.999   6.106   2.692
12690TIP3   OH238010   8.085   0.361   4.338
12690TIP3    H138011   8.029   0.291   4.372
12690TIP3    H238012   8.170   0.344   4.379
12691TIP3   OH238013   7.736   2.394   0.198
12691TIP3    H138014   7.660   2.450   0.214
12691TIP3    H238015   7.722   2.318   0.256
12692TIP3   OH238016   6.414   5.555   3.549
12692TIP3    H138017   6.496   5.604   3.541
12692TIP3    H238018   6.408   5.533   3.642
12693TIP3   OH238019   2.329   2.890   2.996
12693TIP3    H138020   2.260   2.889   3.062
12693TIP3    H238021   2.388   2.960   3.025
12694TIP3   OH238022   8.312   3.512   3.852
12694TIP3    H138023   8.256   3.497   3.929
12694TIP3    H238024   8.370   3.437   3.848
12695TIP3   OH238025   0.332   4.279   3.718
12695TIP3    H138026   0.270   4.348   3.743
12695TIP3    H238027   0.374   4.254   3.800
12696TIP3   OH238028   5.715   4.061   4.474
12696TIP3    H138029   5.798   4.018   4.456
12696TIP3    H238030   5.649   4.003   4.437
12697TIP3   OH238031   5.206   4.863   1.390
12697TIP3    H138032   5.301   4.849   1.391
12697TIP3    H238033   5.196   4.953   1.358
12698TIP3   OH238034   2.852   3.199   0.263
12698TIP3    H138035   2.882   3.110   0.244
12698TIP3    H238036   2.803   3.191   0.345
12699TIP3   OH238037   5.773   7.211   6.388
12699TIP3    H138038   5.745   7.279   6.449
12699TIP3    H238039   5.867   7.225   6.378
12700TIP3   OH238040   2.617   5.853   1.976
12700TIP3    H138041   2.591   5.768   1.940
12700TIP3    H238042   2.602   5.844   2.070
12701TIP3   OH238043   3.808   0.480   1.757
12701TIP3    H138044   3.859   0.440   1.686
12701TIP3    H238045   3.742   0.414   1.779
12702TIP3   OH238046   2.248   4.482   2.703
12702TIP3    H138047   2.323   4.525   2.746
12702TIP3    H238048   2.288   4.417   2.645
12703TIP3   OH238049   1.614   6.696   6.068
12703TIP3    H138050   1.658   6.734   5.992
12703TIP3    H238051   1.573   6.616   6.035
12704TIP3   OH238052   7.953   7.607   3.807
12704TIP3    H138053   8.042   7.597   3.774
12704TIP3    H238054   7.898   7.575   3.735
12705TIP3   OH238055   6.155   4.679   4.378
12705TIP3    H138056   6.131   4.693   4.470
12705TIP3    H238057   6.140   4.764   4.336
12706TIP3   OH238058   1.507   2.321   2.378
12706TIP3    H138059   1.569   2.291   2.446
12706TIP3    H238060   1.430   2.349   2.427
12707TIP3   OH238061   6.686   0.446   3.894
12707TIP3    H138062   6.611   0.494   3.929
12707TIP3    H238063   6.746   0.439   3.968
12708TIP3   OH238064   0.810   0.141   6.053
12708TIP3    H138065   0.807   0.198   5.976
12708TIP3    H238066   0.749   0.070   6.033
12709TIP3   OH238067   4.282   2.455   3.509
12709TIP3    H138068   4.365   2.433   3.468
12709TIP3    H238069   4.296   2.440   3.602
12710TIP3   OH238070   1.149   1.998   0.444
12710TIP3    H138071   1.080   2.056   0.411
12710TIP3    H238072   1.224   2.014   0.386
12711TIP3   OH238073   2.194   3.632   1.508
12711TIP3    H138074   2.174   3.573   1.435
12711TIP3    H238075   2.152   3.715   1.484
12712TIP3   OH238076   7.675   7.127   3.493
12712TIP3    H138077   7.669   7.031   3.486
12712TIP3    H238078   7.675   7.144   3.587
12713TIP3   OH238079   3.851   7.575   4.544
12713TIP3    H138080   3.790   7.516   4.589
12713TIP3    H238081   3.912   7.603   4.613
12714TIP3   OH238082   4.748   3.771   4.011
12714TIP3    H138083   4.810   3.735   3.947
12714TIP3    H238084   4.779   3.739   4.095
12715TIP3   OH238085   6.252   6.875   6.211
12715TIP3    H138086   6.280   6.829   6.132
12715TIP3    H238087   6.297   6.960   6.207
12716TIP3   OH238088   6.756   7.401   6.318
12716TIP3    H138089   6.755   7.489   6.280
12716TIP3    H238090   6.742   7.415   6.411
12717TIP3   OH238091   3.898   4.372   0.875
12717TIP3    H138092   3.929   4.361   0.966
12717TIP3    H238093   3.811   4.411   0.884
12718TIP3   OH238094   6.325   6.954   1.456
12718TIP3    H138095   6.243   6.993   1.487
12718TIP3    H238096   6.388   7.026   1.455
12719TIP3   OH238097   1.488   0.765   5.551
12719TIP3    H138098   1.408   0.744   5.502
12719TIP3    H238099   1.555   0.777   5.484
12720TIP3   OH238100   1.735   0.111   5.423
12720TIP3    H138101   1.729   0.156   5.507
12720TIP3    H238102   1.654   0.134   5.378
12721TIP3   OH238103   1.036   1.539   3.436
12721TIP3    H138104   1.119   1.500   3.461
12721TIP3    H238105   0.972   1.468   3.446
12722TIP3   OH238106   4.739   6.207   1.194
12722TIP3    H138107   4.678   6.134   1.179
12722TIP3    H238108   4.733   6.261   1.115
12723TIP3   OH238109   4.641   7.135   1.041
12723TIP3    H138110   4.568   7.116   1.100
12723TIP3    H238111   4.703   7.185   1.095
12724TIP3   OH238112   1.691   7.679   3.502
12724TIP3    H138113   1.720   7.598   3.459
12724TIP3    H238114   1.610   7.702   3.457
12725TIP3   OH238115   7.002   1.163   3.012
12725TIP3    H138116   6.946   1.127   3.081
12725TIP3    H238117   6.974   1.254   3.003
12726TIP3   OH238118   2.371   1.248   5.409
12726TIP3    H138119   2.392   1.156   5.394
12726TIP3    H238120   2.391   1.290   5.325
12727TIP3   OH238121   4.292   3.658   5.907
12727TIP3    H138122   4.345   3.736   5.928
12727TIP3    H238123   4.355   3.586   5.909
12728TIP3   OH238124   3.204   0.749   6.390
12728TIP3    H138125   3.245   0.770   6.475
12728TIP3    H238126   3.249   0.670   6.361
12729TIP3   OH238127   1.754   0.459   5.068
12729TIP3    H138128   1.828   0.447   5.009
12729TIP3    H238129   1.708   0.374   5.066
12730TIP3   OH238130   5.818   2.164   0.739
12730TIP3    H138131   5.854   2.239   0.787
12730TIP3    H238132   5.840   2.089   0.793
12731TIP3   OH238133   7.633   1.371   4.472
12731TIP3    H138134   7.557   1.421   4.441
12731TIP3    H238135   7.707   1.411   4.428
12732TIP3   OH238136   6.571   6.348   2.807
12732TIP3    H138137   6.548   6.320   2.719
12732TIP3    H238138   6.489   6.385   2.842
12733TIP3   OH238139   6.054   7.064   1.095
12733TIP3    H138140   6.046   7.027   1.008
12733TIP3    H238141   5.979   7.123   1.104
12734TIP3   OH238142   4.178   6.559   6.378
12734TIP3    H138143   4.142   6.613   6.307
12734TIP3    H238144   4.173   6.470   6.344
12735TIP3   OH238145   3.165   5.013   3.429
12735TIP3    H138146   3.145   5.056   3.346
12735TIP3    H238147   3.184   5.085   3.489
12736TIP3   OH238148   0.993   4.353   6.099
12736TIP3    H138149   1.064   4.415   6.115
12736TIP3    H238150   1.022   4.302   6.023
12737TIP3   OH238151   7.247   7.214   4.911
12737TIP3    H138152   7.336   7.223   4.877
12737TIP3    H238153   7.192   7.207   4.833
12738TIP3   OH238154   8.024   5.861   0.530
12738TIP3    H138155   8.069   5.803   0.592
12738TIP3    H238156   8.061   5.947   0.546
12739TIP3   OH238157   2.437   7.460   6.236
12739TIP3    H138158   2.347   7.432   6.223
12739TIP3    H238159   2.436   7.514   6.315
12740TIP3   OH238160   0.398   4.358   6.816
12740TIP3    H138161   0.357   4.298   6.879
12740TIP3    H238162   0.329   4.375   6.751
12741TIP3   OH238163   4.487   7.088   2.193
12741TIP3    H138164   4.506   7.105   2.286
12741TIP3    H238165   4.550   7.021   2.167
12742TIP3   OH238166   2.427   1.218   0.624
12742TIP3    H138167   2.458   1.218   0.715
12742TIP3    H238168   2.501   1.183   0.573
12743TIP3   OH238169   6.172   3.108   1.699
12743TIP3    H138170   6.084   3.080   1.676
12743TIP3    H238171   6.162   3.155   1.782
12744TIP3   OH238172   7.711   0.294   3.926
12744TIP3    H138173   7.675   0.374   3.887
12744TIP3    H238174   7.669   0.223   3.878
12745TIP3   OH238175   0.664   5.806   3.717
12745TIP3    H138176   0.684   5.884   3.666
12745TIP3    H238177   0.570   5.813   3.736
12746TIP3   OH238178   4.129   4.866   1.890
12746TIP3    H138179   4.175   4.941   1.928
12746TIP3    H238180   4.111   4.893   1.800
12747TIP3   OH238181   0.168   1.865   6.506
12747TIP3    H138182   0.100   1.799   6.516
12747TIP3    H238183   0.134   1.925   6.440
12748TIP3   OH238184   6.150   6.050   0.050
12748TIP3    H138185   6.066   6.006   0.036
12748TIP3    H238186   6.215   5.981   0.038
12749TIP3   OH238187   4.891   3.400   2.569
12749TIP3    H138188   4.909   3.491   2.545
12749TIP3    H238189   4.913   3.349   2.491
12750TIP3   OH238190   7.141   2.986   2.559
12750TIP3    H138191   7.176   3.057   2.613
12750TIP3    H238192   7.214   2.963   2.501
12751TIP3   OH238193   0.855   5.190   0.940
12751TIP3    H138194   0.802   5.214   0.864
12751TIP3    H238195   0.932   5.148   0.903
12752TIP3   OH238196   3.892   3.098   4.141
12752TIP3    H138197   3.933   3.038   4.079
12752TIP3    H238198   3.835   3.042   4.194
12753TIP3   OH238199   7.477   2.299   2.470
12753TIP3    H138200   7.494   2.209   2.498
12753TIP3    H238201   7.406   2.329   2.526
12754TIP3   OH238202   7.501   7.729   4.964
12754TIP3    H138203   7.464   7.749   4.878
12754TIP3    H238204   7.426   7.728   5.023
12755TIP3   OH238205   1.724   6.057   3.129
12755TIP3    H138206   1.645   6.007   3.150
12755TIP3    H238207   1.727   6.125   3.196
12756TIP3   OH238208   7.203   4.090   4.787
12756TIP3    H138209   7.216   4.158   4.854
12756TIP3    H238210   7.211   4.138   4.704
12757TIP3   OH238211   4.336   6.070   1.250
12757TIP3    H138212   4.242   6.064   1.267
12757TIP3    H238213   4.363   6.147   1.300
12758TIP3   OH238214   8.359   0.824   6.052
12758TIP3    H138215   8.330   0.857   5.967
12758TIP3    H238216   8.298   0.754   6.073
12759TIP3   OH238217   1.687   4.869   1.055
12759TIP3    H138218   1.631   4.810   1.107
12759TIP3    H238219   1.644   4.874   0.970
12760TIP3   OH238220   0.801   3.867   0.262
12760TIP3    H138221   0.749   3.900   0.335
12760TIP3    H238222   0.739   3.820   0.207
12761TIP3   OH238223   5.087   5.267   1.612
12761TIP3    H138224   5.045   5.245   1.529
12761TIP3    H238225   5.083   5.186   1.663
12762TIP3   OH238226   7.137   1.487   1.202
12762TIP3    H138227   7.158   1.430   1.276
12762TIP3    H238228   7.222   1.522   1.174
12763TIP3   OH238229   4.833   2.771   3.775
12763TIP3    H138230   4.853   2.688   3.732
12763TIP3    H238231   4.779   2.747   3.850
12764TIP3   OH238232   8.434   4.611   0.997
12764TIP3    H138233   8.368   4.597   1.065
12764TIP3    H238234   8.386   4.657   0.927
12765TIP3   OH238235   3.263   4.531   1.445
12765TIP3    H138236   3.243   4.486   1.528
12765TIP3    H238237   3.180   4.573   1.420
12766TIP3   OH238238   4.638   0.229   5.291
12766TIP3    H138239   4.555   0.277   5.302
12766TIP3    H238240   4.616   0.139   5.315
12767TIP3   OH238241   2.628   5.464   5.413
12767TIP3    H138242   2.654   5.457   5.505
12767TIP3    H238243   2.589   5.551   5.407
12768TIP3   OH238244   0.312   5.603   3.913
12768TIP3    H138245   0.257   5.538   3.957
12768TIP3    H238246   0.253   5.646   3.850
12769TIP3   OH238247   1.784   5.475   1.569
12769TIP3    H138248   1.806   5.568   1.566
12769TIP3    H238249   1.855   5.433   1.520
12770TIP3   OH238250   5.709   4.202   0.795
12770TIP3    H138251   5.800   4.181   0.776
12770TIP3    H238252   5.701   4.188   0.890
12771TIP3   OH238253   7.891   4.549   2.408
12771TIP3    H138254   7.936   4.602   2.474
12771TIP3    H238255   7.945   4.556   2.330
12772TIP3   OH238256   2.262   2.185   4.075
12772TIP3    H138257   2.338   2.217   4.027
12772TIP3    H238258   2.251   2.248   4.147
12773TIP3   OH238259   7.631   1.063   5.261
12773TIP3    H138260   7.641   0.993   5.325
12773TIP3    H238261   7.702   1.049   5.198
12774TIP3   OH238262   2.613   6.705   0.300
12774TIP3    H138263   2.558   6.758   0.359
12774TIP3    H238264   2.596   6.741   0.213
12775TIP3   OH238265   3.052   6.312   4.082
12775TIP3    H138266   2.978   6.285   4.136
12775TIP3    H238267   3.036   6.273   3.997
12776TIP3   OH238268   7.450   4.934   1.371
12776TIP3    H138269   7.395   4.859   1.394
12776TIP3    H238270   7.398   5.010   1.393
12777TIP3   OH238271   1.929   0.600   1.616
12777TIP3    H138272   1.899   0.683   1.654
12777TIP3    H238273   2.023   0.598   1.636
12778TIP3   OH238274   5.316   4.165   5.631
12778TIP3    H138275   5.243   4.224   5.612
12778TIP3    H238276   5.344   4.133   5.545
12779TIP3   OH238277   3.023   0.729   0.449
12779TIP3    H138278   3.041   0.790   0.377
12779TIP3    H238279   2.970   0.660   0.410
12780TIP3   OH238280   8.141   0.571   5.279
12780TIP3    H138281   8.231   0.596   5.258
12780TIP3    H238282   8.117   0.508   5.211
12781TIP3   OH238283   3.669   2.390   4.901
12781TIP3    H138284   3.634   2.311   4.943
12781TIP3    H238285   3.763   2.383   4.911
12782TIP3   OH238286   1.548   2.666   1.903
12782TIP3    H138287   1.637   2.647   1.873
12782TIP3    H238288   1.532   2.602   1.972
12783TIP3   OH238289   6.290   5.242   4.502
12783TIP3    H138290   6.212   5.289   4.470
12783TIP3    H238291   6.360   5.270   4.443
12784TIP3   OH238292   2.963   3.219   0.879
12784TIP3    H138293   3.006   3.148   0.831
12784TIP3    H238294   3.030   3.286   0.887
12785TIP3   OH238295   2.816   2.977   3.411
12785TIP3    H138296   2.825   2.882   3.422
12785TIP3    H238297   2.904   3.011   3.429
12786TIP3   OH238298   3.995   3.117   0.557
12786TIP3    H138299   4.058   3.112   0.485
12786TIP3    H238300   4.016   3.042   0.613
12787TIP3   OH238301   2.204   7.271   1.450
12787TIP3    H138302   2.201   7.234   1.362
12787TIP3    H238303   2.165   7.358   1.440
12788TIP3   OH238304   7.109   3.525   0.178
12788TIP3    H138305   7.121   3.459   0.110
12788TIP3    H238306   7.047   3.588   0.141
12789TIP3   OH238307   6.851   1.634   1.956
12789TIP3    H138308   6.888   1.558   2.001
12789TIP3    H238309   6.923   1.697   1.951
12790TIP3   OH238310   1.734   6.172   5.221
12790TIP3    H138311   1.726   6.108   5.292
12790TIP3    H238312   1.750   6.255   5.266
12791TIP3   OH238313   8.075   6.158   5.495
12791TIP3    H138314   7.991   6.201   5.479
12791TIP3    H238315   8.057   6.065   5.482
12792TIP3   OH238316   5.763   6.276   2.867
12792TIP3    H138317   5.808   6.349   2.824
12792TIP3    H238318   5.831   6.209   2.879
12793TIP3   OH238319   3.061   7.093   6.170
12793TIP3    H138320   3.140   7.091   6.115
12793TIP3    H238321   3.023   7.179   6.155
12794TIP3   OH238322   5.017   3.158   6.050
12794TIP3    H138323   5.088   3.218   6.072
12794TIP3    H238324   5.061   3.079   6.018
12795TIP3   OH238325   2.015   2.818   6.132
12795TIP3    H138326   1.951   2.878   6.093
12795TIP3    H238327   2.059   2.870   6.199
12796TIP3   OH238328   0.348   7.658   5.430
12796TIP3    H138329   0.420   7.640   5.369
12796TIP3    H238330   0.316   7.745   5.406
12797TIP3   OH238331   4.928   4.971   0.981
12797TIP3    H138332   4.910   4.905   1.048
12797TIP3    H238333   4.856   5.033   0.989
12798TIP3   OH238334   5.233   0.888   0.827
12798TIP3    H138335   5.160   0.831   0.804
12798TIP3    H238336   5.283   0.839   0.892
12799TIP3   OH238337   5.217   6.626   5.425
12799TIP3    H138338   5.283   6.631   5.356
12799TIP3    H238339   5.191   6.534   5.428
12800TIP3   OH238340   2.373   6.561   3.252
12800TIP3    H138341   2.444   6.616   3.283
12800TIP3    H238342   2.371   6.576   3.157
12801TIP3   OH238343   1.838   3.165   4.799
12801TIP3    H138344   1.856   3.226   4.871
12801TIP3    H238345   1.826   3.222   4.722
12802TIP3   OH238346   5.770   0.703   0.208
12802TIP3    H138347   5.723   0.746   0.279
12802TIP3    H238348   5.733   0.615   0.204
12803TIP3   OH238349   0.509   2.308   4.165
12803TIP3    H138350   0.574   2.245   4.133
12803TIP3    H238351   0.433   2.254   4.189
12804TIP3   OH238352   5.609   5.835   0.506
12804TIP3    H138353   5.584   5.746   0.531
12804TIP3    H238354   5.645   5.873   0.586
12805TIP3   OH238355   2.290   5.184   4.671
12805TIP3    H138356   2.240   5.174   4.590
12805TIP3    H238357   2.244   5.252   4.720
12806TIP3   OH238358   4.284   5.651   2.370
12806TIP3    H138359   4.301   5.585   2.437
12806TIP3    H238360   4.206   5.621   2.325
12807TIP3   OH238361   5.695   4.464   0.445
12807TIP3    H138362   5.653   4.418   0.517
12807TIP3    H238363   5.721   4.549   0.481
12808TIP3   OH238364   4.537   0.978   1.117
12808TIP3    H138365   4.507   1.064   1.147
12808TIP3    H238366   4.618   0.963   1.166
12809TIP3   OH238367   7.891   3.236   4.146
12809TIP3    H138368   7.816   3.279   4.188
12809TIP3    H238369   7.947   3.211   4.220
12810TIP3   OH238370   6.581   5.638   2.900
12810TIP3    H138371   6.612   5.665   2.813
12810TIP3    H238372   6.660   5.634   2.953
12811TIP3   OH238373   6.970   0.782   0.477
12811TIP3    H138374   6.987   0.698   0.520
12811TIP3    H238375   7.057   0.817   0.457
12812TIP3   OH238376   6.770   1.378   3.455
12812TIP3    H138377   6.732   1.464   3.472
12812TIP3    H238378   6.758   1.365   3.361
12813TIP3   OH238379   7.292   7.097   0.226
12813TIP3    H138380   7.325   7.186   0.215
12813TIP3    H238381   7.228   7.104   0.298
12814TIP3   OH238382   2.868   0.046   0.487
12814TIP3    H138383   2.777   0.071   0.471
12814TIP3    H238384   2.914   0.128   0.503
12815TIP3   OH238385   7.432   6.635   4.533
12815TIP3    H138386   7.481   6.628   4.450
12815TIP3    H238387   7.358   6.576   4.521
12816TIP3   OH238388   2.292   1.499   3.210
12816TIP3    H138389   2.205   1.494   3.172
12816TIP3    H238390   2.352   1.488   3.136
12817TIP3   OH238391   3.638   1.474   5.005
12817TIP3    H138392   3.723   1.476   5.049
12817TIP3    H238393   3.598   1.392   5.033
12818TIP3   OH238394   5.693   6.865   1.444
12818TIP3    H138395   5.744   6.805   1.389
12818TIP3    H238396   5.739   6.949   1.437
12819TIP3   OH238397   0.966   4.505   3.985
12819TIP3    H138398   0.939   4.597   3.986
12819TIP3    H238399   0.884   4.457   3.980
12820TIP3   OH238400   6.683   2.863   3.800
12820TIP3    H138401   6.688   2.959   3.805
12820TIP3    H238402   6.635   2.846   3.720
12821TIP3   OH238403   5.936   4.764   2.573
12821TIP3    H138404   5.864   4.709   2.544
12821TIP3    H238405   5.951   4.738   2.664
12822TIP3   OH238406   5.317   1.672   6.857
12822TIP3    H138407   5.258   1.598   6.870
12822TIP3    H238408   5.349   1.662   6.768
12823TIP3   OH238409   7.985   4.889   4.640
12823TIP3    H138410   8.029   4.973   4.631
12823TIP3    H238411   7.955   4.887   4.731
12824TIP3   OH238412   6.983   2.678   4.658
12824TIP3    H138413   6.967   2.627   4.579
12824TIP3    H238414   7.042   2.624   4.710
12825TIP3   OH238415   5.721   4.990   6.569
12825TIP3    H138416   5.670   4.957   6.495
12825TIP3    H238417   5.660   4.987   6.643
12826TIP3   OH238418   7.216   5.778   6.047
12826TIP3    H138419   7.235   5.815   6.133
12826TIP3    H238420   7.142   5.828   6.014
12827TIP3   OH238421   5.304   1.796   5.638
12827TIP3    H138422   5.213   1.827   5.633
12827TIP3    H238423   5.348   1.838   5.564
12828TIP3   OH238424   3.895   3.660   2.716
12828TIP3    H138425   3.839   3.596   2.760
12828TIP3    H238426   3.938   3.611   2.647
12829TIP3   OH238427   5.005   0.723   1.140
12829TIP3    H138428   5.032   0.636   1.168
12829TIP3    H238429   4.992   0.715   1.046
12830TIP3   OH238430   3.997   3.880   2.856
12830TIP3    H138431   3.967   3.807   2.801
12830TIP3    H238432   3.948   3.956   2.823
12831TIP3   OH238433   7.576   2.537   3.920
12831TIP3    H138434   7.661   2.525   3.877
12831TIP3    H238435   7.577   2.627   3.951
12832TIP3   OH238436   6.979   7.344   1.847
12832TIP3    H138437   6.987   7.320   1.754
12832TIP3    H238438   7.037   7.419   1.857
12833TIP3   OH238439   3.003   7.829   1.003
12833TIP3    H138440   3.089   7.789   1.014
12833TIP3    H238441   3.020   7.913   0.961
12834TIP3   OH238442   5.294   0.496   1.511
12834TIP3    H138443   5.380   0.515   1.548
12834TIP3    H238444   5.293   0.400   1.501
12835TIP3   OH238445   7.604   2.756   0.867
12835TIP3    H138446   7.680   2.781   0.814
12835TIP3    H238447   7.622   2.794   0.954
12836TIP3   OH238448   6.599   6.012   0.001
12836TIP3    H138449   6.602   6.106   0.020
12836TIP3    H238450   6.562   6.006  -0.087
12837TIP3   OH238451   6.413   3.650   3.381
12837TIP3    H138452   6.411   3.738   3.418
12837TIP3    H238453   6.337   3.647   3.323
12838TIP3   OH238454   5.312   2.411   1.077
12838TIP3    H138455   5.289   2.358   1.154
12838TIP3    H238456   5.385   2.465   1.106
12839TIP3   OH238457   0.163   7.074   5.120
12839TIP3    H138458   0.116   7.073   5.203
12839TIP3    H238459   0.137   7.156   5.078
12840TIP3   OH238460   1.801   2.874   4.783
12840TIP3    H138461   1.866   2.837   4.842
12840TIP3    H238462   1.812   2.969   4.791
12841TIP3   OH238463   2.476   0.406   6.556
12841TIP3    H138464   2.504   0.470   6.621
12841TIP3    H238465   2.545   0.408   6.490
12842TIP3   OH238466   4.954   0.907   6.733
12842TIP3    H138467   4.933   0.838   6.670
12842TIP3    H238468   4.918   0.986   6.694
12843TIP3   OH238469   7.956   4.438   3.837
12843TIP3    H138470   7.924   4.401   3.920
12843TIP3    H238471   7.949   4.533   3.850
12844TIP3   OH238472   6.691   0.547   3.168
12844TIP3    H138473   6.751   0.524   3.238
12844TIP3    H238474   6.607   0.510   3.195
12845TIP3   OH238475   6.100   4.000   5.014
12845TIP3    H138476   6.153   3.948   4.953
12845TIP3    H238477   6.027   3.943   5.037
12846TIP3   OH238478   1.528   0.865   0.484
12846TIP3    H138479   1.480   0.821   0.555
12846TIP3    H238480   1.466   0.932   0.452
12847TIP3   OH238481   1.396   4.004   3.356
12847TIP3    H138482   1.375   3.915   3.327
12847TIP3    H238483   1.471   3.992   3.414
12848TIP3   OH238484   2.136   6.913   4.634
12848TIP3    H138485   2.220   6.956   4.647
12848TIP3    H238486   2.078   6.983   4.605
12849TIP3   OH238487   4.478   5.370   0.828
12849TIP3    H138488   4.514   5.290   0.867
12849TIP3    H238489   4.469   5.349   0.735
12850TIP3   OH238490   5.180   7.699   3.236
12850TIP3    H138491   5.127   7.778   3.232
12850TIP3    H238492   5.269   7.729   3.218
12851TIP3   OH238493   3.978   7.907   6.482
12851TIP3    H138494   4.003   7.958   6.559
12851TIP3    H238495   4.058   7.862   6.456
12852TIP3   OH238496   0.414   6.418   4.582
12852TIP3    H138497   0.353   6.345   4.569
12852TIP3    H238498   0.500   6.381   4.558
12853TIP3   OH238499   1.657   3.751   5.710
12853TIP3    H138500   1.624   3.772   5.622
12853TIP3    H238501   1.579   3.723   5.758
12854TIP3   OH238502   4.586   7.384   4.446
12854TIP3    H138503   4.557   7.385   4.354
12854TIP3    H238504   4.675   7.418   4.442
12855TIP3   OH238505   4.815   4.041   3.994
12855TIP3    H138506   4.806   3.967   4.054
12855TIP3    H238507   4.908   4.063   3.998
12856TIP3   OH238508   6.210   6.864   2.543
12856TIP3    H138509   6.178   6.775   2.552
12856TIP3    H238510   6.175   6.894   2.459
12857TIP3   OH238511   6.399   7.419   0.231
12857TIP3    H138512   6.487   7.447   0.208
12857TIP3    H238513   6.354   7.407   0.147
12858TIP3   OH238514   2.336   3.727   2.979
12858TIP3    H138515   2.333   3.710   2.885
12858TIP3    H238516   2.289   3.653   3.018
12859TIP3   OH238517   6.348   7.556   4.378
12859TIP3    H138518   6.277   7.494   4.360
12859TIP3    H238519   6.393   7.520   4.454
12860TIP3   OH238520   5.963   7.167   3.708
12860TIP3    H138521   5.990   7.237   3.768
12860TIP3    H238522   5.972   7.205   3.621
12861TIP3   OH238523   4.128   6.202   5.129
12861TIP3    H138524   4.065   6.269   5.155
12861TIP3    H238525   4.108   6.185   5.037
12862TIP3   OH238526   7.915   2.643   5.391
12862TIP3    H138527   7.927   2.629   5.297
12862TIP3    H238528   7.930   2.737   5.403
12863TIP3   OH238529   6.582   7.213   3.011
12863TIP3    H138530   6.565   7.143   3.074
12863TIP3    H238531   6.567   7.172   2.925
12864TIP3   OH238532   4.378   3.866   0.546
12864TIP3    H138533   4.421   3.782   0.561
12864TIP3    H238534   4.401   3.919   0.622
12865TIP3   OH238535   0.085   1.381   3.203
12865TIP3    H138536   0.095   1.408   3.112
12865TIP3    H238537   0.159   1.421   3.248
12866TIP3   OH238538   5.428   7.821   6.163
12866TIP3    H138539   5.363   7.754   6.187
12866TIP3    H238540   5.396   7.856   6.080
12867TIP3   OH238541   3.832   1.985   4.539
12867TIP3    H138542   3.894   1.936   4.486
12867TIP3    H238543   3.751   1.987   4.487
12868TIP3   OH238544   3.194   4.914   2.125
12868TIP3    H138545   3.234   4.881   2.045
12868TIP3    H238546   3.215   5.008   2.125
12869TIP3   OH238547   0.334   3.428   1.968
12869TIP3    H138548   0.272   3.488   2.009
12869TIP3    H238549   0.322   3.346   2.016
12870TIP3   OH238550   6.707   6.132   4.851
12870TIP3    H138551   6.616   6.108   4.832
12870TIP3    H238552   6.717   6.220   4.815
12871TIP3   OH238553   5.387   0.193   3.911
12871TIP3    H138554   5.302   0.171   3.872
12871TIP3    H238555   5.443   0.118   3.890
12872TIP3   OH238556   4.194   0.642   5.824
12872TIP3    H138557   4.141   0.721   5.820
12872TIP3    H238558   4.254   0.649   5.750
12873TIP3   OH238559   7.330   2.846   5.452
12873TIP3    H138560   7.243   2.811   5.431
12873TIP3    H238561   7.331   2.850   5.548
12874TIP3   OH238562   6.190   7.552   0.596
12874TIP3    H138563   6.159   7.465   0.624
12874TIP3    H238564   6.191   7.548   0.501
12875TIP3   OH238565   6.357   0.638   6.002
12875TIP3    H138566   6.339   0.699   5.930
12875TIP3    H238567   6.441   0.666   6.037
12876TIP3   OH238568   3.113   2.361   5.324
12876TIP3    H138569   3.108   2.272   5.361
12876TIP3    H238570   3.067   2.416   5.388
12877TIP3   OH238571   8.298   7.450   4.875
12877TIP3    H138572   8.231   7.517   4.870
12877TIP3    H238573   8.290   7.402   4.792
12878TIP3   OH238574   2.017   4.978   5.130
12878TIP3    H138575   2.058   5.031   5.062
12878TIP3    H238576   2.090   4.944   5.182
12879TIP3   OH238577   5.775   5.250   4.685
12879TIP3    H138578   5.699   5.239   4.742
12879TIP3    H238579   5.769   5.341   4.655
12880TIP3   OH238580   1.217   5.953   1.667
12880TIP3    H138581   1.187   5.975   1.578
12880TIP3    H238582   1.174   6.018   1.723
12881TIP3   OH238583   1.626   7.333   0.146
12881TIP3    H138584   1.581   7.259   0.186
12881TIP3    H238585   1.558   7.399   0.134
12882TIP3   OH238586   5.606   7.005   1.843
12882TIP3    H138587   5.639   7.093   1.863
12882TIP3    H238588   5.613   6.958   1.926
12883TIP3   OH238589   0.421   0.691   4.160
12883TIP3    H138590   0.451   0.615   4.209
12883TIP3    H238591   0.409   0.759   4.226
12884TIP3   OH238592   5.698   2.190   3.218
12884TIP3    H138593   5.641   2.265   3.202
12884TIP3    H238594   5.663   2.120   3.163
12885TIP3   OH238595   7.760   6.832   0.708
12885TIP3    H138596   7.686   6.885   0.737
12885TIP3    H238597   7.761   6.842   0.613
12886TIP3   OH238598   2.714   2.268   2.543
12886TIP3    H138599   2.798   2.222   2.538
12886TIP3    H238600   2.661   2.228   2.474
12887TIP3   OH238601   6.772   5.722   6.413
12887TIP3    H138602   6.817   5.695   6.493
12887TIP3    H238603   6.839   5.769   6.362
12888TIP3   OH238604   5.026   6.185   0.827
12888TIP3    H138605   5.032   6.215   0.918
12888TIP3    H238606   5.095   6.234   0.781
12889TIP3   OH238607   1.773   3.194   3.656
12889TIP3    H138608   1.684   3.230   3.653
12889TIP3    H238609   1.817   3.245   3.724
12890TIP3   OH238610   6.464   1.142   1.116
12890TIP3    H138611   6.389   1.120   1.171
12890TIP3    H238612   6.454   1.086   1.038
12891TIP3   OH238613   5.177   2.787   4.974
12891TIP3    H138614   5.096   2.832   4.997
12891TIP3    H238615   5.154   2.734   4.897
12892TIP3   OH238616   1.333   3.940   6.696
12892TIP3    H138617   1.380   3.865   6.732
12892TIP3    H238618   1.392   4.015   6.710
12893TIP3   OH238619   2.998   7.689   6.055
12893TIP3    H138620   3.015   7.778   6.086
12893TIP3    H238621   3.076   7.640   6.081
12894TIP3   OH238622   4.674   3.158   2.390
12894TIP3    H138623   4.668   3.252   2.377
12894TIP3    H238624   4.688   3.148   2.484
12895TIP3   OH238625   0.750   7.307   3.775
12895TIP3    H138626   0.813   7.305   3.847
12895TIP3    H238627   0.774   7.232   3.720
12896TIP3   OH238628   5.871   5.465   4.307
12896TIP3    H138629   5.914   5.504   4.383
12896TIP3    H238630   5.850   5.539   4.250
12897TIP3   OH238631   4.291   1.534   3.762
12897TIP3    H138632   4.197   1.524   3.782
12897TIP3    H238633   4.335   1.507   3.843
12898TIP3   OH238634   4.584   4.304   1.410
12898TIP3    H138635   4.596   4.380   1.466
12898TIP3    H238636   4.605   4.336   1.322
12899TIP3   OH238637   3.929   2.851   6.323
12899TIP3    H138638   3.939   2.803   6.405
12899TIP3    H238639   3.967   2.937   6.340
12900TIP3   OH238640   3.246   0.571   0.003
12900TIP3    H138641   3.300   0.503  -0.037
12900TIP3    H238642   3.261   0.561   0.097
12901TIP3   OH238643   0.696   5.341   3.433
12901TIP3    H138644   0.670   5.428   3.462
12901TIP3    H238645   0.639   5.281   3.482
12902TIP3   OH238646   2.082   5.824   3.981
12902TIP3    H138647   2.161   5.771   3.992
12902TIP3    H238648   2.052   5.803   3.893
12903TIP3   OH238649   7.062   0.069   5.513
12903TIP3    H138650   7.100   0.026   5.436
12903TIP3    H238651   7.099   0.021   5.588
12904TIP3   OH238652   2.544   6.864   4.682
12904TIP3    H138653   2.584   6.879   4.596
12904TIP3    H238654   2.473   6.802   4.664
12905TIP3   OH238655   7.037   3.114   0.880
12905TIP3    H138656   7.120   3.152   0.850
12905TIP3    H238657   7.043   3.022   0.854
12906TIP3   OH238658   5.530   7.196   4.063
12906TIP3    H138659   5.500   7.267   4.120
12906TIP3    H238660   5.456   7.135   4.062
12907TIP3   OH238661   2.553   3.574   2.527
12907TIP3    H138662   2.539   3.560   2.434
12907TIP3    H238663   2.645   3.602   2.534
12908TIP3   OH238664   2.991   3.188   4.501
12908TIP3    H138665   3.073   3.143   4.483
12908TIP3    H238666   2.950   3.136   4.570
12909TIP3   OH238667   4.902   5.204   4.883
12909TIP3    H138668   4.889   5.256   4.804
12909TIP3    H238669   4.815   5.168   4.903
12910TIP3   OH238670   4.972   0.444   4.067
12910TIP3    H138671   4.960   0.504   4.141
12910TIP3    H238672   5.049   0.479   4.021
12911TIP3   OH238673   3.850   6.533   0.308
12911TIP3    H138674   3.917   6.560   0.371
12911TIP3    H238675   3.767   6.548   0.354
12912TIP3   OH238676   8.217   0.301   4.848
12912TIP3    H138677   8.227   0.382   4.797
12912TIP3    H238678   8.202   0.233   4.783
12913TIP3   OH238679   8.030   4.176   5.769
12913TIP3    H138680   8.000   4.259   5.732
12913TIP3    H238681   8.032   4.191   5.863
12914TIP3   OH238682   2.082   2.651   0.950
12914TIP3    H138683   2.128   2.725   0.988
12914TIP3    H238684   2.128   2.574   0.983
12915TIP3   OH238685   2.623   5.696   6.621
12915TIP3    H138686   2.718   5.702   6.632
12915TIP3    H238687   2.593   5.649   6.698
12916TIP3   OH238688   6.214   4.525   0.728
12916TIP3    H138689   6.144   4.588   0.749
12916TIP3    H238690   6.270   4.526   0.805
12917TIP3   OH238691   5.500   2.611   4.537
12917TIP3    H138692   5.502   2.608   4.632
12917TIP3    H238693   5.470   2.524   4.511
12918TIP3   OH238694   7.762   0.407   0.568
12918TIP3    H138695   7.853   0.426   0.590
12918TIP3    H238696   7.767   0.358   0.486
12919TIP3   OH238697   2.590   1.150   1.979
12919TIP3    H138698   2.537   1.113   1.908
12919TIP3    H238699   2.615   1.237   1.947
12920TIP3   OH238700   7.514   6.532   3.764
12920TIP3    H138701   7.477   6.606   3.716
12920TIP3    H238702   7.454   6.519   3.837
12921TIP3   OH238703   0.083   7.642   0.361
12921TIP3    H138704   0.081   7.662   0.454
12921TIP3    H238705   0.005   7.684   0.325
12922TIP3   OH238706   7.717   1.410   4.919
12922TIP3    H138707   7.670   1.354   4.857
12922TIP3    H238708   7.756   1.478   4.865
12923TIP3   OH238709   1.507   5.707   3.756
12923TIP3    H138710   1.504   5.751   3.841
12923TIP3    H238711   1.447   5.757   3.701
12924TIP3   OH238712   4.419   3.313   2.568
12924TIP3    H138713   4.492   3.270   2.612
12924TIP3    H238714   4.461   3.369   2.503
12925TIP3   OH238715   0.989   7.727   2.510
12925TIP3    H138716   0.979   7.739   2.605
12925TIP3    H238717   1.059   7.662   2.502
12926TIP3   OH238718   1.600   4.605   3.534
12926TIP3    H138719   1.655   4.593   3.457
12926TIP3    H238720   1.610   4.525   3.584
12927TIP3   OH238721   5.217   6.704   6.406
12927TIP3    H138722   5.189   6.619   6.439
12927TIP3    H238723   5.152   6.766   6.440
12928TIP3   OH238724   5.494   6.061   3.584
12928TIP3    H138725   5.512   6.053   3.678
12928TIP3    H238726   5.580   6.060   3.543
12929TIP3   OH238727   2.919   6.215   4.990
12929TIP3    H138728   2.936   6.272   5.065
12929TIP3    H238729   2.830   6.238   4.963
12930TIP3   OH238730   5.028   6.481   6.137
12930TIP3    H138731   5.081   6.511   6.064
12930TIP3    H238732   5.007   6.561   6.186
12931TIP3   OH238733   7.744   2.502   1.576
12931TIP3    H138734   7.743   2.596   1.557
12931TIP3    H238735   7.837   2.480   1.584
12932TIP3   OH238736   7.286   5.316   1.227
12932TIP3    H138737   7.285   5.266   1.309
12932TIP3    H238738   7.221   5.385   1.241
12933TIP3   OH238739   2.140   4.478   0.177
12933TIP3    H138740   2.086   4.513   0.106
12933TIP3    H238741   2.101   4.514   0.257
12934TIP3   OH238742   2.633   2.808   4.606
12934TIP3    H138743   2.556   2.769   4.648
12934TIP3    H238744   2.707   2.759   4.643
12935TIP3   OH238745   2.462   4.508   1.878
12935TIP3    H138746   2.492   4.569   1.811
12935TIP3    H238747   2.366   4.509   1.871
12936TIP3   OH238748   1.885   4.293   4.829
12936TIP3    H138749   1.965   4.259   4.869
12936TIP3    H238750   1.911   4.373   4.785
12937TIP3   OH238751   6.675   6.051   2.366
12937TIP3    H138752   6.594   6.003   2.349
12937TIP3    H238753   6.738   5.983   2.389
12938TIP3   OH238754   7.670   7.613   5.334
12938TIP3    H138755   7.642   7.653   5.251
12938TIP3    H238756   7.642   7.522   5.327
12939TIP3   OH238757   0.935   0.823   6.017
12939TIP3    H138758   0.854   0.860   6.052
12939TIP3    H238759   0.916   0.730   6.005
12940TIP3   OH238760   2.979   5.649   3.140
12940TIP3    H138761   3.038   5.691   3.202
12940TIP3    H238762   2.893   5.687   3.159
12941TIP3   OH238763   6.218   7.550   4.742
12941TIP3    H138764   6.147   7.612   4.723
12941TIP3    H238765   6.295   7.590   4.701
12942TIP3   OH238766   8.374   3.375   4.914
12942TIP3    H138767   8.392   3.286   4.881
12942TIP3    H238768   8.280   3.385   4.905
12943TIP3   OH238769   2.047   5.898   0.836
12943TIP3    H138770   2.024   5.832   0.901
12943TIP3    H238771   2.104   5.852   0.774
12944TIP3   OH238772   2.832   7.138   3.127
12944TIP3    H138773   2.801   7.194   3.056
12944TIP3    H238774   2.767   7.069   3.134
12945TIP3   OH238775   4.817   4.597   5.256
12945TIP3    H138776   4.863   4.669   5.299
12945TIP3    H238777   4.755   4.566   5.322
12946TIP3   OH238778   4.049   5.431   1.798
12946TIP3    H138779   4.049   5.512   1.747
12946TIP3    H238780   4.130   5.436   1.849
12947TIP3   OH238781   7.902   0.994   2.980
12947TIP3    H138782   7.807   0.990   2.993
12947TIP3    H238783   7.938   1.005   3.068
12948TIP3   OH238784   7.465   6.603   6.624
12948TIP3    H138785   7.412   6.668   6.669
12948TIP3    H238786   7.552   6.643   6.615
12949TIP3   OH238787   1.058   2.626   4.187
12949TIP3    H138788   0.987   2.582   4.234
12949TIP3    H238789   1.039   2.719   4.197
12950TIP3   OH238790   2.273   5.053   2.777
12950TIP3    H138791   2.201   5.109   2.746
12950TIP3    H238792   2.237   4.964   2.773
12951TIP3   OH238793   5.390   3.846   6.072
12951TIP3    H138794   5.483   3.838   6.053
12951TIP3    H238795   5.384   3.847   6.168
12952TIP3   OH238796   1.083   5.990   2.952
12952TIP3    H138797   1.012   6.049   2.928
12952TIP3    H238798   1.049   5.942   3.028
12953TIP3   OH238799   5.353   2.863   4.576
12953TIP3    H138800   5.418   2.912   4.627
12953TIP3    H238801   5.382   2.772   4.583
12954TIP3   OH238802   7.850   7.543   0.561
12954TIP3    H138803   7.835   7.605   0.490
12954TIP3    H238804   7.944   7.530   0.563
12955TIP3   OH238805   6.775   7.285   2.421
12955TIP3    H138806   6.819   7.223   2.478
12955TIP3    H238807   6.714   7.332   2.479
12956TIP3   OH238808   7.662   6.869   3.407
12956TIP3    H138809   7.646   6.853   3.314
12956TIP3    H238810   7.587   6.830   3.451
12957TIP3   OH238811   7.530   3.518   4.613
12957TIP3    H138812   7.485   3.443   4.653
12957TIP3    H238813   7.621   3.489   4.604
12958TIP3   OH238814   5.208   1.716   3.620
12958TIP3    H138815   5.273   1.747   3.683
12958TIP3    H238816   5.192   1.792   3.563
12959TIP3   OH238817   3.663   7.460   5.136
12959TIP3    H138818   3.634   7.371   5.156
12959TIP3    H238819   3.640   7.511   5.214
12960TIP3   OH238820   4.413   0.553   1.431
12960TIP3    H138821   4.345   0.493   1.401
12960TIP3    H238822   4.492   0.526   1.385
12961TIP3   OH238823   5.159   3.218   3.321
12961TIP3    H138824   5.189   3.211   3.230
12961TIP3    H238825   5.120   3.305   3.327
12962TIP3   OH238826   6.115   3.261   2.319
12962TIP3    H138827   6.187   3.208   2.354
12962TIP3    H238828   6.079   3.208   2.248
12963TIP3   OH238829   7.359   2.394   6.038
12963TIP3    H138830   7.389   2.345   6.115
12963TIP3    H238831   7.353   2.328   5.969
12964TIP3   OH238832   4.789   2.381   3.715
12964TIP3    H138833   4.744   2.386   3.799
12964TIP3    H238834   4.837   2.298   3.718
12965TIP3   OH238835   7.417   0.639   1.971
12965TIP3    H138836   7.471   0.624   1.893
12965TIP3    H238837   7.470   0.607   2.044
12966TIP3   OH238838   7.869   4.800   2.050
12966TIP3    H138839   7.876   4.799   2.146
12966TIP3    H238840   7.955   4.771   2.020
12967TIP3   OH238841   4.875   7.132   6.467
12967TIP3    H138842   4.936   7.144   6.394
12967TIP3    H238843   4.849   7.220   6.492
12968TIP3   OH238844   1.815   7.889   5.417
12968TIP3    H138845   1.773   7.838   5.487
12968TIP3    H238846   1.804   7.836   5.339
12969TIP3   OH238847   8.339   1.866   5.461
12969TIP3    H138848   8.318   1.959   5.459
12969TIP3    H238849   8.370   1.851   5.550
12970TIP3   OH238850   2.740  -0.003   3.624
12970TIP3    H138851   2.674  -0.006   3.693
12970TIP3    H238852   2.757   0.090   3.611
12971TIP3   OH238853   1.467   3.011   3.490
12971TIP3    H138854   1.447   3.094   3.532
12971TIP3    H238855   1.457   2.945   3.559
12972TIP3   OH238856   3.090   4.469   1.991
12972TIP3    H138857   3.090   4.387   1.941
12972TIP3    H238858   2.999   4.481   2.016
12973TIP3   OH238859   5.204   6.664   5.958
12973TIP3    H138860   5.237   6.653   5.869
12973TIP3    H238861   5.110   6.649   5.951
12974TIP3   OH238862   6.347   6.891   3.648
12974TIP3    H138863   6.373   6.940   3.726
12974TIP3    H238864   6.394   6.934   3.576
12975TIP3   OH238865   8.005   4.022   0.581
12975TIP3    H138866   7.926   4.072   0.562
12975TIP3    H238867   8.062   4.037   0.506
12976TIP3   OH238868   1.391   3.957   5.685
12976TIP3    H138869   1.409   3.867   5.711
12976TIP3    H238870   1.437   3.967   5.601
12977TIP3   OH238871   5.515   0.726   5.090
12977TIP3    H138872   5.543   0.730   5.181
12977TIP3    H238873   5.506   0.632   5.072
12978TIP3   OH238874   5.827   5.559   1.697
12978TIP3    H138875   5.822   5.538   1.604
12978TIP3    H238876   5.823   5.474   1.741
12979TIP3   OH238877   2.745   0.329   6.431
12979TIP3    H138878   2.781   0.260   6.487
12979TIP3    H238879   2.784   0.410   6.464
12980TIP3   OH238880   7.273   4.173   0.699
12980TIP3    H138881   7.228   4.146   0.780
12980TIP3    H238882   7.328   4.247   0.726
12981TIP3   OH238883   8.130   6.801   5.910
12981TIP3    H138884   8.217   6.821   5.878
12981TIP3    H238885   8.109   6.874   5.969
12982TIP3   OH238886   4.993   6.754   4.788
12982TIP3    H138887   4.910   6.800   4.789
12982TIP3    H238888   5.046   6.799   4.855
12983TIP3   OH238889   2.785   7.413   2.698
12983TIP3    H138890   2.785   7.408   2.602
12983TIP3    H238891   2.808   7.325   2.727
12984TIP3   OH238892   6.954   7.000   3.717
12984TIP3    H138893   6.959   7.006   3.813
12984TIP3    H238894   7.037   7.034   3.686
12985TIP3   OH238895   0.362   4.879   3.943
12985TIP3    H138896   0.283   4.932   3.935
12985TIP3    H238897   0.413   4.921   4.012
12986TIP3   OH238898   6.558   1.894   4.525
12986TIP3    H138899   6.638   1.854   4.561
12986TIP3    H238900   6.501   1.905   4.601
12987TIP3   OH238901   5.948   6.385   1.771
12987TIP3    H138902   5.909   6.461   1.816
12987TIP3    H238903   5.962   6.416   1.681
12988TIP3   OH238904   0.904   7.693   0.861
12988TIP3    H138905   0.878   7.776   0.901
12988TIP3    H238906   0.998   7.688   0.875
12989TIP3   OH238907   2.287   4.733   0.173
12989TIP3    H138908   2.224   4.666   0.200
12989TIP3    H238909   2.355   4.731   0.240
12990TIP3   OH238910   5.033   6.833   5.437
12990TIP3    H138911   5.092   6.758   5.427
12990TIP3    H238912   4.947   6.800   5.412
12991TIP3   OH238913   5.393   1.346   5.425
12991TIP3    H138914   5.303   1.377   5.412
12991TIP3    H238915   5.435   1.358   5.340
12992TIP3   OH238916   7.554   3.267   4.155
12992TIP3    H138917   7.547   3.269   4.060
12992TIP3    H238918   7.605   3.345   4.177
12993TIP3   OH238919   1.688   3.609   0.994
12993TIP3    H138920   1.624   3.580   0.930
12993TIP3    H238921   1.756   3.542   0.993
12994TIP3   OH238922   3.857   5.910   2.925
12994TIP3    H138923   3.808   5.940   3.002
12994TIP3    H238924   3.898   5.990   2.891
12995TIP3   OH238925   5.301   4.010   2.950
12995TIP3    H138926   5.369   3.959   2.994
12995TIP3    H238927   5.265   3.950   2.885
12996TIP3   OH238928   0.073   5.392   3.820
12996TIP3    H138929   0.049   5.445   3.896
12996TIP3    H238930  -0.008   5.385   3.769
12997TIP3   OH238931   6.565   1.218   1.699
12997TIP3    H138932   6.506   1.276   1.748
12997TIP3    H238933   6.555   1.246   1.608
12998TIP3   OH238934   7.878   4.679   0.757
12998TIP3    H138935   7.821   4.744   0.799
12998TIP3    H238936   7.923   4.728   0.688
12999TIP3   OH238937   8.127   0.001   5.919
12999TIP3    H138938   8.205   0.048   5.888
12999TIP3    H238939   8.063   0.011   5.848
13000TIP3   OH238940   5.811   4.879   4.981
13000TIP3    H138941   5.806   4.934   4.903
13000TIP3    H238942   5.811   4.940   5.055
13001TIP3   OH238943   3.318   0.055   5.489
13001TIP3    H138944   3.238   0.060   5.541
13001TIP3    H238945   3.389   0.070   5.552
13002TIP3   OH238946   2.725   2.831   1.193
13002TIP3    H138947   2.732   2.810   1.286
13002TIP3    H238948   2.663   2.905   1.190
13003TIP3   OH238949   3.211   4.250   6.248
13003TIP3    H138950   3.226   4.195   6.171
13003TIP3    H238951   3.232   4.339   6.219
13004TIP3   OH238952   8.403   2.038   4.158
13004TIP3    H138953   8.412   2.056   4.064
13004TIP3    H238954   8.338   2.101   4.189
13005TIP3   OH238955   6.891   4.098   4.313
13005TIP3    H138956   6.871   4.007   4.289
13005TIP3    H238957   6.808   4.134   4.344
13006TIP3   OH238958   6.851   0.526   1.179
13006TIP3    H138959   6.802   0.578   1.115
13006TIP3    H238960   6.799   0.533   1.260
13007TIP3   OH238961   6.670   4.528   1.170
13007TIP3    H138962   6.698   4.453   1.116
13007TIP3    H238963   6.648   4.596   1.106
13008TIP3   OH238964   3.285   7.726   1.048
13008TIP3    H138965   3.338   7.798   1.015
13008TIP3    H238966   3.264   7.750   1.138
13009TIP3   OH238967   7.977   4.217   5.253
13009TIP3    H138968   7.941   4.200   5.340
13009TIP3    H238969   8.032   4.141   5.235
13010TIP3   OH238970   2.902   2.277   0.666
13010TIP3    H138971   2.896   2.295   0.573
13010TIP3    H238972   2.872   2.187   0.676
13011TIP3   OH238973   2.814   7.661   3.694
13011TIP3    H138974   2.862   7.607   3.757
13011TIP3    H238975   2.754   7.600   3.651
13012TIP3   OH238976   2.241   1.117   0.924
13012TIP3    H138977   2.234   1.199   0.973
13012TIP3    H238978   2.167   1.120   0.862
13013TIP3   OH238979   6.423   6.337   4.629
13013TIP3    H138980   6.451   6.369   4.543
13013TIP3    H238981   6.401   6.416   4.678
13014TIP3   OH238982   7.126   2.464   6.193
13014TIP3    H138983   7.203   2.452   6.137
13014TIP3    H238984   7.065   2.396   6.165
13015TIP3   OH238985   1.686   4.001   3.828
13015TIP3    H138986   1.633   4.055   3.887
13015TIP3    H238987   1.702   3.920   3.876
13016TIP3   OH238988   1.010   3.414   0.495
13016TIP3    H138989   0.933   3.359   0.479
13016TIP3    H238990   1.024   3.410   0.589
13017TIP3   OH238991   3.647   1.822   6.510
13017TIP3    H138992   3.621   1.759   6.443
13017TIP3    H238993   3.638   1.774   6.593
13018TIP3   OH238994   0.708   0.862   1.583
13018TIP3    H138995   0.630   0.844   1.530
13018TIP3    H238996   0.742   0.775   1.605
13019TIP3   OH238997   3.090   3.297   6.235
13019TIP3    H138998   3.116   3.238   6.305
13019TIP3    H238999   3.110   3.250   6.155
13020TIP3   OH239000   6.232   5.476   3.095
13020TIP3    H139001   6.279   5.397   3.069
13020TIP3    H239002   6.205   5.516   3.012
13021TIP3   OH239003   7.843   3.156   3.184
13021TIP3    H139004   7.758   3.112   3.184
13021TIP3    H239005   7.827   3.241   3.225
13022TIP3   OH239006   2.135   0.200   2.833
13022TIP3    H139007   2.166   0.133   2.772
13022TIP3    H239008   2.066   0.157   2.883
13023TIP3   OH239009   4.916   1.138   1.222
13023TIP3    H139010   4.944   1.108   1.135
13023TIP3    H239011   4.965   1.219   1.236
13024TIP3   OH239012   7.146   1.768   6.330
13024TIP3    H139013   7.143   1.690   6.275
13024TIP3    H239014   7.069   1.761   6.386
13025TIP3   OH239015   6.905   1.566   5.845
13025TIP3    H139016   6.912   1.589   5.753
13025TIP3    H239017   6.979   1.611   5.887
13026TIP3   OH239018   1.858   3.897   5.865
13026TIP3    H139019   1.932   3.864   5.815
13026TIP3    H239020   1.805   3.945   5.801
13027TIP3   OH239021   2.226   6.780   3.488
13027TIP3    H139022   2.217   6.703   3.544
13027TIP3    H239023   2.269   6.845   3.543
13028TIP3   OH239024   5.759   6.938   5.386
13028TIP3    H139025   5.854   6.937   5.379
13028TIP3    H239026   5.738   7.024   5.420
13029TIP3   OH239027   4.297   2.233   4.984
13029TIP3    H139028   4.323   2.323   4.963
13029TIP3    H239029   4.380   2.187   4.999
13030TIP3   OH239030   0.660   6.915   3.318
13030TIP3    H139031   0.597   6.860   3.364
13030TIP3    H239032   0.651   6.891   3.226
13031TIP3   OH239033   6.672   2.812   5.776
13031TIP3    H139034   6.760   2.850   5.770
13031TIP3    H239035   6.634   2.851   5.855
13032TIP3   OH239036   7.891   1.857   2.777
13032TIP3    H139037   7.796   1.869   2.786
13032TIP3    H239038   7.906   1.767   2.805
13033TIP3   OH239039   7.257   5.947   0.383
13033TIP3    H139040   7.266   5.968   0.290
13033TIP3    H239041   7.347   5.947   0.416
13034TIP3   OH239042   0.216   0.222   0.315
13034TIP3    H139043   0.214   0.189   0.225
13034TIP3    H239044   0.228   0.144   0.369
13035TIP3   OH239045   4.909   5.574   4.226
13035TIP3    H139046   4.916   5.656   4.177
13035TIP3    H239047   4.937   5.507   4.165
13036TIP3   OH239048   5.029   5.090   0.564
13036TIP3    H139049   5.055   5.027   0.497
13036TIP3    H239050   4.962   5.045   0.614
13037TIP3   OH239051   3.609   7.594   2.080
13037TIP3    H139052   3.692   7.545   2.075
13037TIP3    H239053   3.634   7.680   2.114
13038TIP3   OH239054   5.708   7.430   3.028
13038TIP3    H139055   5.788   7.481   3.038
13038TIP3    H239056   5.681   7.409   3.118
13039TIP3   OH239057   8.234   2.490   1.924
13039TIP3    H139058   8.290   2.567   1.930
13039TIP3    H239059   8.146   2.525   1.912
13040TIP3   OH239060   2.247   0.994   2.140
13040TIP3    H139061   2.315   0.940   2.181
13040TIP3    H239062   2.284   1.082   2.140
13041TIP3   OH239063   5.167   4.532   4.443
13041TIP3    H139064   5.260   4.529   4.463
13041TIP3    H239065   5.160   4.590   4.368
13042TIP3   OH239066   6.266   7.089   5.845
13042TIP3    H139067   6.337   7.051   5.896
13042TIP3    H239068   6.271   7.183   5.862
13043TIP3   OH239069   2.003   6.249   4.194
13043TIP3    H139070   1.979   6.160   4.221
13043TIP3    H239071   1.946   6.267   4.119
13044TIP3   OH239072   1.330   2.109   4.098
13044TIP3    H139073   1.245   2.112   4.143
13044TIP3    H239074   1.385   2.171   4.146
13045TIP3   OH239075   4.220   3.489   3.445
13045TIP3    H139076   4.130   3.511   3.470
13045TIP3    H239077   4.256   3.572   3.412
13046TIP3   OH239078   1.362   1.794   0.167
13046TIP3    H139079   1.380   1.810   0.259
13046TIP3    H239080   1.291   1.854   0.145
13047TIP3   OH239081   3.036   0.001   0.707
13047TIP3    H139082   2.977   0.045   0.768
13047TIP3    H239083   3.022   0.045   0.623
13048TIP3   OH239084   7.113   0.396   4.744
13048TIP3    H139085   7.067   0.321   4.705
13048TIP3    H239086   7.046   0.464   4.750
13049TIP3   OH239087   4.128   3.699   4.753
13049TIP3    H139088   4.175   3.775   4.718
13049TIP3    H239089   4.196   3.648   4.798
13050TIP3   OH239090   8.153   3.213   3.859
13050TIP3    H139091   8.122   3.130   3.896
13050TIP3    H239092   8.234   3.232   3.907
13051TIP3   OH239093   0.180   5.355   2.118
13051TIP3    H139094   0.259   5.320   2.160
13051TIP3    H239095   0.203   5.363   2.026
13052TIP3   OH239096   6.189   3.416   5.649
13052TIP3    H139097   6.282   3.437   5.642
13052TIP3    H239098   6.158   3.410   5.559
13053TIP3   OH239099   2.672   1.363   4.763
13053TIP3    H139100   2.696   1.304   4.835
13053TIP3    H239101   2.673   1.450   4.802
13054TIP3   OH239102   0.230   1.065   5.643
13054TIP3    H139103   0.209   1.124   5.715
13054TIP3    H239104   0.250   0.981   5.685
13055TIP3   OH239105   4.447   4.389   5.111
13055TIP3    H139106   4.389   4.443   5.164
13055TIP3    H239107   4.520   4.448   5.089
13056TIP3   OH239108   6.818   3.753   2.218
13056TIP3    H139109   6.825   3.660   2.194
13056TIP3    H239110   6.804   3.753   2.313
13057TIP3   OH239111   2.744   1.298   2.896
13057TIP3    H139112   2.669   1.247   2.925
13057TIP3    H239113   2.710   1.355   2.827
13058TIP3   OH239114   4.023   4.810   3.509
13058TIP3    H139115   3.931   4.832   3.526
13058TIP3    H239116   4.067   4.894   3.498
13059TIP3   OH239117   3.451   4.507   0.770
13059TIP3    H139118   3.454   4.599   0.744
13059TIP3    H239119   3.359   4.483   0.761
13060TIP3   OH239120   1.653   1.671   0.164
13060TIP3    H139121   1.567   1.710   0.145
13060TIP3    H239122   1.668   1.609   0.093
13061TIP3   OH239123   3.623   0.676   6.354
13061TIP3    H139124   3.686   0.635   6.294
13061TIP3    H239125   3.568   0.730   6.298
13062TIP3   OH239126   8.185   4.802   1.069
13062TIP3    H139127   8.224   4.884   1.099
13062TIP3    H239128   8.235   4.734   1.115
13063TIP3   OH239129   3.446   3.256   1.463
13063TIP3    H139130   3.423   3.280   1.373
13063TIP3    H239131   3.380   3.300   1.517
13064TIP3   OH239132   6.289   2.482   4.560
13064TIP3    H139133   6.314   2.518   4.645
13064TIP3    H239134   6.355   2.517   4.500
13065TIP3   OH239135   3.766   5.859   4.537
13065TIP3    H139136   3.767   5.904   4.452
13065TIP3    H239137   3.724   5.921   4.596
13066TIP3   OH239138   0.909   6.167   6.855
13066TIP3    H139139   0.936   6.110   6.783
13066TIP3    H239140   0.813   6.171   6.848
13067TIP3   OH239141   3.950   1.611   6.123
13067TIP3    H139142   3.971   1.527   6.083
13067TIP3    H239143   3.858   1.627   6.100
13068TIP3   OH239144   5.858   7.705   3.652
13068TIP3    H139145   5.815   7.696   3.567
13068TIP3    H239146   5.917   7.630   3.657
13069TIP3   OH239147   5.498   5.515   3.218
13069TIP3    H139148   5.461   5.527   3.130
13069TIP3    H239149   5.588   5.485   3.202
13070TIP3   OH239150   3.983   3.217   5.720
13070TIP3    H139151   3.959   3.305   5.751
13070TIP3    H239152   3.928   3.158   5.770
13071TIP3   OH239153   6.663   3.339   1.246
13071TIP3    H139154   6.743   3.291   1.226
13071TIP3    H239155   6.688   3.431   1.242
13072TIP3   OH239156   1.834   3.872   3.379
13072TIP3    H139157   1.784   3.855   3.300
13072TIP3    H239158   1.852   3.966   3.377
13073TIP3   OH239159   1.137   5.701   4.068
13073TIP3    H139160   1.137   5.622   4.014
13073TIP3    H239161   1.095   5.767   4.012
13074TIP3   OH239162   4.491   5.309   3.482
13074TIP3    H139163   4.431   5.382   3.464
13074TIP3    H239164   4.518   5.323   3.573
13075TIP3   OH239165   4.266   7.436   5.102
13075TIP3    H139166   4.354   7.411   5.131
13075TIP3    H239167   4.281   7.506   5.039
13076TIP3   OH239168   0.956   6.096   4.803
13076TIP3    H139169   0.917   6.087   4.716
13076TIP3    H239170   0.992   6.009   4.822
13077TIP3   OH239171   2.889   7.859   1.336
13077TIP3    H139172   2.866   7.807   1.260
13077TIP3    H239173   2.876   7.950   1.308
13078TIP3   OH239174   3.038   5.433   4.859
13078TIP3    H139175   3.048   5.442   4.953
13078TIP3    H239176   3.104   5.369   4.834
13079TIP3   OH239177   5.642   7.527   5.916
13079TIP3    H139178   5.549   7.516   5.936
13079TIP3    H239179   5.687   7.472   5.980
13080TIP3   OH239180   7.219   0.390   0.735
13080TIP3    H139181   7.189   0.320   0.792
13080TIP3    H239182   7.291   0.351   0.685
13081TIP3   OH239183   6.783   1.381   6.367
13081TIP3    H139184   6.690   1.392   6.386
13081TIP3    H239185   6.786   1.307   6.306
13082TIP3   OH239186   1.581   4.190   5.214
13082TIP3    H139187   1.673   4.193   5.240
13082TIP3    H239188   1.550   4.280   5.227
13083TIP3   OH239189   0.133   2.975   5.060
13083TIP3    H139190   0.220   2.992   5.096
13083TIP3    H239191   0.100   2.900   5.108
13084TIP3   OH239192   0.894   6.405   4.477
13084TIP3    H139193   0.936   6.467   4.537
13084TIP3    H239194   0.963   6.379   4.417
13085TIP3   OH239195   0.912   0.332   1.982
13085TIP3    H139196   0.867   0.416   1.993
13085TIP3    H239197   1.005   0.353   1.993
13086TIP3   OH239198   7.375   3.936   3.058
13086TIP3    H139199   7.381   3.880   3.136
13086TIP3    H239200   7.399   4.023   3.090
13087TIP3   OH239201   1.877   4.415   0.474
13087TIP3    H139202   1.838   4.443   0.391
13087TIP3    H239203   1.944   4.352   0.450
13088TIP3   OH239204   7.995   6.890   6.627
13088TIP3    H139205   7.924   6.845   6.673
13088TIP3    H239206   7.988   6.981   6.655
13089TIP3   OH239207   6.230   1.903   1.869
13089TIP3    H139208   6.173   1.908   1.793
13089TIP3    H239209   6.216   1.985   1.916
13090TIP3   OH239210   3.440   1.216   0.027
13090TIP3    H139211   3.443   1.124   0.000
13090TIP3    H239212   3.511   1.258  -0.022
13091TIP3   OH239213   5.611   5.172   3.177
13091TIP3    H139214   5.613   5.077   3.170
13091TIP3    H239215   5.699   5.197   3.203
13092TIP3   OH239216   7.513   3.859   6.239
13092TIP3    H139217   7.523   3.927   6.172
13092TIP3    H239218   7.597   3.856   6.283
13093TIP3   OH239219   2.650   1.998   0.126
13093TIP3    H139220   2.718   2.058   0.093
13093TIP3    H239221   2.571   2.022   0.078
13094TIP3   OH239222   4.331   0.325   1.693
13094TIP3    H139223   4.415   0.315   1.738
13094TIP3    H239224   4.291   0.402   1.734
13095TIP3   OH239225   6.363   0.890   5.486
13095TIP3    H139226   6.346   0.931   5.571
13095TIP3    H239227   6.455   0.910   5.467
13096TIP3   OH239228   6.577   1.354   4.081
13096TIP3    H139229   6.519   1.361   4.156
13096TIP3    H239230   6.550   1.273   4.037
13097TIP3   OH239231   5.009   6.117   6.031
13097TIP3    H139232   5.010   6.062   6.110
13097TIP3    H239233   4.927   6.165   6.036
13098TIP3   OH239234   1.062   4.685   5.780
13098TIP3    H139235   1.028   4.692   5.869
13098TIP3    H239236   0.987   4.658   5.727
13099TIP3   OH239237   5.920   5.872   2.522
13099TIP3    H139238   6.012   5.848   2.532
13099TIP3    H239239   5.878   5.794   2.486
13100TIP3   OH239240   6.344   3.682   6.168
13100TIP3    H139241   6.396   3.755   6.133
13100TIP3    H239242   6.258   3.692   6.126
13101TIP3   OH239243   0.726   2.330   0.322
13101TIP3    H139244   0.678   2.412   0.326
13101TIP3    H239245   0.766   2.321   0.409
13102TIP3   OH239246   3.898   5.981   6.304
13102TIP3    H139247   3.973   5.974   6.362
13102TIP3    H239248   3.907   5.908   6.242
13103TIP3   OH239249   5.890   0.662   2.416
13103TIP3    H139250   5.853   0.732   2.470
13103TIP3    H239251   5.814   0.618   2.379
13104TIP3   OH239252   2.540   5.671   5.043
13104TIP3    H139253   2.581   5.755   5.023
13104TIP3    H239254   2.567   5.652   5.133
13105TIP3   OH239255   1.009   4.503   4.968
13105TIP3    H139256   0.942   4.567   4.990
13105TIP3    H239257   0.979   4.464   4.886
13106TIP3   OH239258   6.515   6.097   5.083
13106TIP3    H139259   6.587   6.056   5.132
13106TIP3    H239260   6.461   6.023   5.054
13107TIP3   OH239261   1.002   0.453   0.954
13107TIP3    H139262   0.974   0.522   1.015
13107TIP3    H239263   1.064   0.401   1.004
13108TIP3   OH239264   0.970   7.459   2.159
13108TIP3    H139265   0.982   7.399   2.233
13108TIP3    H239266   0.927   7.406   2.092
13109TIP3   OH239267   4.083   0.159   5.300
13109TIP3    H139268   4.002   0.179   5.254
13109TIP3    H239269   4.140   0.121   5.233
13110TIP3   OH239270   2.663   0.582   5.724
13110TIP3    H139271   2.596   0.552   5.662
13110TIP3    H239272   2.645   0.675   5.737
13111TIP3   OH239273   5.294   7.103   2.747
13111TIP3    H139274   5.294   7.198   2.752
13111TIP3    H239275   5.382   7.080   2.716
13112TIP3   OH239276   5.252   4.157   0.150
13112TIP3    H139277   5.230   4.167   0.058
13112TIP3    H239278   5.174   4.187   0.197
13113TIP3   OH239279   8.061   0.012   2.617
13113TIP3    H139280   8.000   0.001   2.689
13113TIP3    H239281   8.092   0.103   2.626
13114TIP3   OH239282   5.387   5.867   4.783
13114TIP3    H139283   5.429   5.791   4.743
13114TIP3    H239284   5.346   5.913   4.709
13115TIP3   OH239285   1.318   1.659   4.524
13115TIP3    H139286   1.241   1.688   4.474
13115TIP3    H239287   1.391   1.708   4.486
13116TIP3   OH239288   5.099   7.714   1.951
13116TIP3    H139289   5.194   7.713   1.937
13116TIP3    H239290   5.089   7.734   2.044
13117TIP3   OH239291   8.168   2.272   6.733
13117TIP3    H139292   8.136   2.293   6.821
13117TIP3    H239293   8.264   2.275   6.741
13118TIP3   OH239294   3.104   6.800   0.489
13118TIP3    H139295   3.030   6.847   0.449
13118TIP3    H239296   3.078   6.708   0.485
13119TIP3   OH239297   4.595   7.671   3.435
13119TIP3    H139298   4.619   7.581   3.455
13119TIP3    H239299   4.675   7.709   3.397
13120TIP3   OH239300   3.640   0.829   1.089
13120TIP3    H139301   3.600   0.760   1.142
13120TIP3    H239302   3.687   0.781   1.020
13121TIP3   OH239303   3.245   3.663   1.558
13121TIP3    H139304   3.202   3.691   1.638
13121TIP3    H239305   3.181   3.604   1.516
13122TIP3   OH239306   7.554   0.612   5.616
13122TIP3    H139307   7.490   0.559   5.567
13122TIP3    H239308   7.613   0.645   5.549
13123TIP3   OH239309   5.299   5.287   2.551
13123TIP3    H139310   5.364   5.260   2.486
13123TIP3    H239311   5.307   5.382   2.554
13124TIP3   OH239312   4.154   0.188   6.582
13124TIP3    H139313   4.080   0.237   6.547
13124TIP3    H239314   4.191   0.142   6.506
13125TIP3   OH239315   1.607   5.289   3.164
13125TIP3    H139316   1.512   5.283   3.168
13125TIP3    H239317   1.636   5.200   3.148
13126TIP3   OH239318   4.221   0.387   5.911
13126TIP3    H139319   4.189   0.395   6.001
13126TIP3    H239320   4.201   0.471   5.870
13127TIP3   OH239321   4.591   1.797   0.520
13127TIP3    H139322   4.682   1.792   0.548
13127TIP3    H239323   4.566   1.707   0.500
13128TIP3   OH239324   2.142   1.768   2.063
13128TIP3    H139325   2.179   1.841   2.014
13128TIP3    H239326   2.217   1.730   2.110
13129TIP3   OH239327   3.352   6.302   1.274
13129TIP3    H139328   3.327   6.384   1.231
13129TIP3    H239329   3.355   6.238   1.203
13130TIP3   OH239330   8.110   1.510   3.560
13130TIP3    H139331   8.034   1.548   3.516
13130TIP3    H239332   8.080   1.423   3.588
13131TIP3   OH239333   4.997   7.909   6.772
13131TIP3    H139334   5.020   7.848   6.842
13131TIP3    H239335   5.068   7.973   6.773
13132TIP3   OH239336   5.806   4.803   3.400
13132TIP3    H139337   5.794   4.748   3.323
13132TIP3    H239338   5.829   4.889   3.365
13133TIP3   OH239339   7.741   0.702   0.568
13133TIP3    H139340   7.835   0.699   0.550
13133TIP3    H239341   7.702   0.640   0.507
13134TIP3   OH239342   2.519   2.174   0.700
13134TIP3    H139343   2.575   2.247   0.673
13134TIP3    H239344   2.523   2.175   0.795
13135TIP3   OH239345   1.639   5.627   0.820
13135TIP3    H139346   1.700   5.688   0.778
13135TIP3    H239347   1.555   5.643   0.777
13136TIP3   OH239348   4.963   7.869   3.510
13136TIP3    H139349   5.037   7.921   3.542
13136TIP3    H239350   4.935   7.818   3.586
13137TIP3   OH239351   4.625   3.944   6.753
13137TIP3    H139352   4.634   3.877   6.686
13137TIP3    H239353   4.538   3.929   6.791
13138TIP3   OH239354   1.953   5.973   2.621
13138TIP3    H139355   1.896   5.949   2.695
13138TIP3    H239356   1.985   6.060   2.643
13139TIP3   OH239357   5.387   0.193   2.046
13139TIP3    H139358   5.316   0.176   1.984
13139TIP3    H239359   5.347   0.246   2.115
13140TIP3   OH239360   4.540   0.544   2.347
13140TIP3    H139361   4.587   0.506   2.420
13140TIP3    H239362   4.595   0.526   2.271
13141TIP3   OH239363   0.371   0.202   4.884
13141TIP3    H139364   0.282   0.207   4.849
13141TIP3    H239365   0.385   0.109   4.900
13142TIP3   OH239366   5.060   2.184   5.694
13142TIP3    H139367   5.098   2.272   5.699
13142TIP3    H239368   5.005   2.177   5.772
13143TIP3   OH239369   2.507   1.239   5.658
13143TIP3    H139370   2.487   1.235   5.564
13143TIP3    H239371   2.601   1.221   5.664
13144TIP3   OH239372   7.686   2.766   0.353
13144TIP3    H139373   7.716   2.692   0.407
13144TIP3    H239374   7.649   2.725   0.275
13145TIP3   OH239375   5.397   3.495   6.870
13145TIP3    H139376   5.459   3.422   6.862
13145TIP3    H239377   5.444   3.570   6.834
13146TIP3   OH239378   5.101   4.133   2.372
13146TIP3    H139379   5.074   4.201   2.435
13146TIP3    H239380   5.082   4.171   2.286
13147TIP3   OH239381   2.704   0.849   1.770
13147TIP3    H139382   2.624   0.805   1.742
13147TIP3    H239383   2.751   0.868   1.689
13148TIP3   OH239384   2.807   4.363   5.592
13148TIP3    H139385   2.860   4.416   5.651
13148TIP3    H239386   2.848   4.374   5.507
13149TIP3   OH239387   1.540   4.298   2.980
13149TIP3    H139388   1.635   4.296   2.969
13149TIP3    H239389   1.511   4.376   2.934
13150TIP3   OH239390   0.694   6.232   5.472
13150TIP3    H139391   0.730   6.205   5.387
13150TIP3    H239392   0.619   6.175   5.485
13151TIP3   OH239393   3.954   7.418   0.527
13151TIP3    H139394   3.884   7.377   0.579
13151TIP3    H239395   4.035   7.388   0.569
13152TIP3   OH239396   2.902   1.818   0.266
13152TIP3    H139397   2.849   1.743   0.237
13152TIP3    H239398   2.838   1.882   0.298
13153TIP3   OH239399   8.145   7.627   5.572
13153TIP3    H139400   8.083   7.634   5.500
13153TIP3    H239401   8.231   7.639   5.531
13154TIP3   OH239402   5.092   6.875   1.006
13154TIP3    H139403   5.043   6.926   1.070
13154TIP3    H239404   5.151   6.821   1.059
13155TIP3   OH239405   7.812   7.289   4.565
13155TIP3    H139406   7.767   7.291   4.481
13155TIP3    H239407   7.904   7.275   4.542
13156TIP3   OH239408   4.428   7.215   6.132
13156TIP3    H139409   4.347   7.264   6.118
13156TIP3    H239410   4.449   7.178   6.046
13157TIP3   OH239411   0.565   6.813   3.701
13157TIP3    H139412   0.595   6.904   3.696
13157TIP3    H239413   0.612   6.769   3.630
13158TIP3   OH239414   6.111   1.293   3.325
13158TIP3    H139415   6.087   1.310   3.416
13158TIP3    H239416   6.173   1.219   3.330
13159TIP3   OH239417   4.411   0.367   5.360
13159TIP3    H139418   4.343   0.319   5.407
13159TIP3    H239419   4.364   0.409   5.287
13160TIP3   OH239420   7.027   7.222   1.606
13160TIP3    H139421   7.113   7.195   1.638
13160TIP3    H239422   7.027   7.198   1.513
13161TIP3   OH239423   3.547   6.250   6.613
13161TIP3    H139424   3.504   6.165   6.601
13161TIP3    H239425   3.513   6.283   6.696
13162TIP3   OH239426   6.456   7.547   0.719
13162TIP3    H139427   6.481   7.612   0.654
13162TIP3    H239428   6.360   7.544   0.714
13163TIP3   OH239429   0.292   7.036   4.704
13163TIP3    H139430   0.327   7.121   4.730
13163TIP3    H239431   0.346   7.009   4.629
13164TIP3   OH239432   1.540   2.312   5.630
13164TIP3    H139433   1.472   2.370   5.666
13164TIP3    H239434   1.554   2.246   5.699
13165TIP3   OH239435   7.403   6.509   1.150
13165TIP3    H139436   7.350   6.579   1.189
13165TIP3    H239437   7.431   6.457   1.225
13166TIP3   OH239438   6.981   4.259   0.683
13166TIP3    H139439   6.978   4.166   0.706
13166TIP3    H239440   7.050   4.266   0.617
13167TIP3   OH239441   6.969   6.561   0.931
13167TIP3    H139442   6.885   6.604   0.914
13167TIP3    H239443   6.958   6.472   0.897
13168TIP3   OH239444   0.783   3.619   3.331
13168TIP3    H139445   0.795   3.587   3.421
13168TIP3    H239446   0.688   3.627   3.321
13169TIP3   OH239447   0.813   1.999   6.844
13169TIP3    H139448   0.831   2.093   6.839
13169TIP3    H239449   0.802   1.972   6.753
13170TIP3   OH239450   8.283   5.745   6.704
13170TIP3    H139451   8.256   5.836   6.690
13170TIP3    H239452   8.218   5.710   6.765
13171TIP3   OH239453   3.090   6.794   1.770
13171TIP3    H139454   3.029   6.861   1.737
13171TIP3    H239455   3.112   6.742   1.693
13172TIP3   OH239456   5.601   6.732   5.514
13172TIP3    H139457   5.650   6.793   5.458
13172TIP3    H239458   5.540   6.788   5.563
13173TIP3   OH239459   6.241   5.488   6.815
13173TIP3    H139460   6.187   5.524   6.886
13173TIP3    H239461   6.330   5.519   6.835
13174TIP3   OH239462   7.195   1.075   1.243
13174TIP3    H139463   7.136   1.089   1.169
13174TIP3    H239464   7.147   1.014   1.299
13175TIP3   OH239465   6.761   6.874   4.726
13175TIP3    H139466   6.667   6.859   4.727
13175TIP3    H239467   6.788   6.864   4.818
13176TIP3   OH239468   1.530   5.897   0.861
13176TIP3    H139469   1.558   5.870   0.948
13176TIP3    H239470   1.606   5.881   0.805
13177TIP3   OH239471   7.990   5.110   6.412
13177TIP3    H139472   8.026   5.053   6.343
13177TIP3    H239473   7.914   5.063   6.445
13178TIP3   OH239474   2.917   4.702   5.443
13178TIP3    H139475   2.846   4.752   5.404
13178TIP3    H239476   2.907   4.613   5.408
13179TIP3   OH239477   5.016   1.836   4.333
13179TIP3    H139478   5.041   1.877   4.250
13179TIP3    H239479   5.094   1.846   4.388
13180TIP3   OH239480   8.226   4.783   0.800
13180TIP3    H139481   8.297   4.847   0.791
13180TIP3    H239482   8.179   4.810   0.879
13181TIP3   OH239483   6.925   1.226   5.179
13181TIP3    H139484   6.843   1.264   5.148
13181TIP3    H239485   6.955   1.287   5.247
13182TIP3   OH239486   5.347   2.633   6.514
13182TIP3    H139487   5.337   2.539   6.530
13182TIP3    H239488   5.274   2.674   6.559
13183TIP3   OH239489   3.121   2.198   0.006
13183TIP3    H139490   3.209   2.205  -0.031
13183TIP3    H239491   3.101   2.287   0.036
13184TIP3   OH239492   4.566   5.564   1.891
13184TIP3    H139493   4.567   5.514   1.973
13184TIP3    H239494   4.612   5.646   1.913
13185TIP3   OH239495   3.272   7.734  -0.044
13185TIP3    H139496   3.302   7.649  -0.011
13185TIP3    H239497   3.196   7.755   0.011
13186TIP3   OH239498   0.349   0.029   6.041
13186TIP3    H139499   0.315  -0.021   5.967
13186TIP3    H239500   0.275   0.038   6.101
13187TIP3   OH239501   0.674   2.256   5.535
13187TIP3    H139502   0.676   2.251   5.631
13187TIP3    H239503   0.586   2.288   5.515
13188TIP3   OH239504   0.256   7.815   4.538
13188TIP3    H139505   0.348   7.797   4.559
13188TIP3    H239506   0.229   7.881   4.601
13189TIP3   OH239507   6.248   4.863   2.423
13189TIP3    H139508   6.303   4.939   2.440
13189TIP3    H239509   6.163   4.900   2.399
13190TIP3   OH239510   0.026   1.349   1.440
13190TIP3    H139511  -0.034   1.350   1.366
13190TIP3    H239512   0.091   1.416   1.418
13191TIP3   OH239513   5.900   2.491   4.960
13191TIP3    H139514   5.928   2.499   4.869
13191TIP3    H239515   5.843   2.414   4.960
13192TIP3   OH239516   7.091   4.639   5.002
13192TIP3    H139517   7.108   4.575   5.071
13192TIP3    H239518   7.112   4.724   5.040
13193TIP3   OH239519   2.408   3.881   1.599
13193TIP3    H139520   2.429   3.807   1.543
13193TIP3    H239521   2.348   3.845   1.665
13194TIP3   OH239522   5.103   0.464   4.792
13194TIP3    H139523   5.195   0.485   4.809
13194TIP3    H239524   5.079   0.402   4.861
13195TIP3   OH239525   4.246   6.482   3.337
13195TIP3    H139526   4.249   6.504   3.430
13195TIP3    H239527   4.337   6.477   3.310
13196TIP3   OH239528   0.711   3.447   0.781
13196TIP3    H139529   0.638   3.401   0.738
13196TIP3    H239530   0.678   3.536   0.794
13197TIP3   OH239531   0.394   0.469   3.781
13197TIP3    H139532   0.469   0.463   3.722
13197TIP3    H239533   0.403   0.555   3.822
13198TIP3   OH239534   8.064   3.295   0.316
13198TIP3    H139535   8.082   3.301   0.222
13198TIP3    H239536   8.131   3.350   0.357
13199TIP3   OH239537   5.582   5.937   2.933
13199TIP3    H139538   5.517   5.867   2.933
13199TIP3    H239539   5.643   5.914   2.863
13200TIP3   OH239540   3.328   2.478   6.689
13200TIP3    H139541   3.351   2.484   6.596
13200TIP3    H239542   3.316   2.569   6.716
13201TIP3   OH239543   1.111   5.723   0.780
13201TIP3    H139544   1.130   5.720   0.686
13201TIP3    H239545   1.197   5.733   0.822
13202TIP3   OH239546   5.611   1.470   4.902
13202TIP3    H139547   5.592   1.549   4.953
13202TIP3    H239548   5.558   1.480   4.823
13203TIP3   OH239549   2.141   1.921   4.167
13203TIP3    H139550   2.166   2.009   4.141
13203TIP3    H239551   2.223   1.879   4.194
13204TIP3   OH239552   2.344   1.869   5.964
13204TIP3    H139553   2.322   1.794   6.020
13204TIP3    H239554   2.261   1.895   5.924
13205TIP3   OH239555   4.538   5.228   4.454
13205TIP3    H139556   4.553   5.196   4.365
13205TIP3    H239557   4.547   5.151   4.510
13206TIP3   OH239558   4.580   1.067   3.514
13206TIP3    H139559   4.484   1.074   3.509
13206TIP3    H239560   4.601   1.101   3.601
13207TIP3   OH239561   4.948   0.332   4.591
13207TIP3    H139562   5.020   0.291   4.640
13207TIP3    H239563   4.972   0.425   4.587
13208TIP3   OH239564   2.294   4.493   4.890
13208TIP3    H139565   2.281   4.455   4.804
13208TIP3    H239566   2.384   4.524   4.890
13209TIP3   OH239567   5.248   2.500   2.639
13209TIP3    H139568   5.254   2.578   2.584
13209TIP3    H239569   5.313   2.440   2.603
13210TIP3   OH239570   4.240   1.133   0.048
13210TIP3    H139571   4.163   1.140   0.104
13210TIP3    H239572   4.238   1.043   0.016
13211TIP3   OH239573   5.842   7.695   2.852
13211TIP3    H139574   5.867   7.603   2.844
13211TIP3    H239575   5.909   7.742   2.801
13212TIP3   OH239576   6.363   6.133   4.212
13212TIP3    H139577   6.283   6.112   4.261
13212TIP3    H239578   6.344   6.216   4.169
13213TIP3   OH239579   5.058   0.792   6.097
13213TIP3    H139580   5.055   0.745   6.181
13213TIP3    H239581   5.073   0.723   6.032
13214TIP3   OH239582   7.957   7.681   5.092
13214TIP3    H139583   7.924   7.757   5.043
13214TIP3    H239584   8.014   7.635   5.031
13215TIP3   OH239585   8.277   2.559   5.194
13215TIP3    H139586   8.219   2.521   5.259
13215TIP3    H239587   8.362   2.566   5.237
13216TIP3   OH239588   0.548   6.358   1.538
13216TIP3    H139589   0.478   6.294   1.525
13216TIP3    H239590   0.522   6.433   1.484
13217TIP3   OH239591   0.051   1.342   4.981
13217TIP3    H139592   0.135   1.310   4.948
13217TIP3    H239593  -0.003   1.264   4.990
13218TIP3   OH239594   0.866   5.716   5.963
13218TIP3    H139595   0.903   5.628   5.961
13218TIP3    H239596   0.797   5.711   6.029
13219TIP3   OH239597   6.502   4.170   0.164
13219TIP3    H139598   6.487   4.187   0.071
13219TIP3    H239599   6.589   4.205   0.181
13220TIP3   OH239600   1.049   2.136   0.034
13220TIP3    H139601   1.096   2.213   0.065
13220TIP3    H239602   1.053   2.142  -0.061
13221TIP3   OH239603   6.756   6.522   5.101
13221TIP3    H139604   6.763   6.427   5.103
13221TIP3    H239605   6.668   6.540   5.067
13222TIP3   OH239606   1.792   0.926   2.873
13222TIP3    H139607   1.858   0.871   2.832
13222TIP3    H239608   1.758   0.980   2.801
13223TIP3   OH239609   0.132   5.245   3.131
13223TIP3    H139610   0.198   5.311   3.155
13223TIP3    H239611   0.180   5.163   3.130
13224TIP3   OH239612   6.344   0.812   0.442
13224TIP3    H139613   6.387   0.797   0.526
13224TIP3    H239614   6.250   0.804   0.461
13225TIP3   OH239615   2.622   1.634   4.808
13225TIP3    H139616   2.622   1.638   4.712
13225TIP3    H239617   2.681   1.704   4.835
13226TIP3   OH239618   8.403   4.320   0.285
13226TIP3    H139619   8.451   4.238   0.291
13226TIP3    H239620   8.326   4.307   0.341
13227TIP3   OH239621   5.309   3.269   1.187
13227TIP3    H139622   5.247   3.228   1.247
13227TIP3    H239623   5.260   3.341   1.147
13228TIP3   OH239624   6.260   0.818   4.086
13228TIP3    H139625   6.243   0.912   4.079
13228TIP3    H239626   6.213   0.779   4.012
13229TIP3   OH239627   8.141   4.736   3.057
13229TIP3    H139628   8.115   4.774   2.973
13229TIP3    H239629   8.059   4.727   3.106
13230TIP3   OH239630   1.597   1.843   4.989
13230TIP3    H139631   1.583   1.856   4.895
13230TIP3    H239632   1.514   1.806   5.020
13231TIP3   OH239633   8.015   2.943   2.436
13231TIP3    H139634   8.044   2.858   2.471
13231TIP3    H239635   7.999   2.996   2.514
13232TIP3   OH239636   6.952   4.264   3.867
13232TIP3    H139637   6.962   4.254   3.772
13232TIP3    H239638   6.919   4.353   3.878
13233TIP3   OH239639   3.625   2.870   5.241
13233TIP3    H139640   3.580   2.796   5.282
13233TIP3    H239641   3.554   2.920   5.200
13234TIP3   OH239642   1.611   3.288   1.272
13234TIP3    H139643   1.642   3.324   1.189
13234TIP3    H239644   1.688   3.247   1.311
13235TIP3   OH239645   5.002   1.184   3.981
13235TIP3    H139646   4.949   1.258   3.951
13235TIP3    H239647   5.059   1.164   3.906
13236TIP3   OH239648   8.169   3.937   5.335
13236TIP3    H139649   8.139   3.938   5.425
13236TIP3    H239650   8.232   3.865   5.331
13237TIP3   OH239651   6.003   2.112   6.086
13237TIP3    H139652   5.939   2.183   6.082
13237TIP3    H239653   5.950   2.032   6.088
13238TIP3   OH239654   7.876   3.132   4.891
13238TIP3    H139655   7.788   3.122   4.928
13238TIP3    H239656   7.866   3.108   4.799
13239TIP3   OH239657   2.582   3.965   0.753
13239TIP3    H139658   2.610   4.052   0.723
13239TIP3    H239659   2.526   3.982   0.828
13240TIP3   OH239660   4.245   2.816   4.645
13240TIP3    H139661   4.182   2.887   4.659
13240TIP3    H239662   4.328   2.851   4.677
13241TIP3   OH239663   7.591   2.226   5.530
13241TIP3    H139664   7.548   2.278   5.597
13241TIP3    H239665   7.614   2.289   5.461
13242TIP3   OH239666   3.307   1.763   0.144
13242TIP3    H139667   3.238   1.830   0.148
13242TIP3    H239668   3.302   1.717   0.227
13243TIP3   OH239669   4.681   4.460   2.119
13243TIP3    H139670   4.696   4.554   2.110
13243TIP3    H239671   4.627   4.452   2.198
13244TIP3   OH239672   2.608   6.316   1.757
13244TIP3    H139673   2.593   6.259   1.833
13244TIP3    H239674   2.696   6.352   1.772
13245TIP3   OH239675   7.295   5.196   4.514
13245TIP3    H139676   7.281   5.132   4.584
13245TIP3    H239677   7.211   5.198   4.467
13246TIP3   OH239678   2.247   1.608   0.063
13246TIP3    H139679   2.241   1.513   0.047
13246TIP3    H239680   2.337   1.622   0.093
13247TIP3   OH239681   2.093   1.451   2.999
13247TIP3    H139682   2.141   1.488   2.924
13247TIP3    H239683   2.025   1.515   3.018
13248TIP3   OH239684   5.163   3.121   1.836
13248TIP3    H139685   5.203   3.034   1.839
13248TIP3    H239686   5.135   3.137   1.926
13249TIP3   OH239687   0.160   1.724   4.442
13249TIP3    H139688   0.111   1.693   4.518
13249TIP3    H239689   0.196   1.645   4.402
13250TIP3   OH239690   1.862   1.541   1.575
13250TIP3    H139691   1.825   1.616   1.530
13250TIP3    H239692   1.904   1.578   1.653
13251TIP3   OH239693   7.548   0.761   1.382
13251TIP3    H139694   7.578   0.852   1.385
13251TIP3    H239695   7.452   0.767   1.377
13252TIP3   OH239696   1.477   6.794   5.582
13252TIP3    H139697   1.468   6.803   5.677
13252TIP3    H239698   1.398   6.835   5.547
13253TIP3   OH239699   0.672   6.306   4.617
13253TIP3    H139700   0.760   6.295   4.581
13253TIP3    H239701   0.676   6.388   4.667
13254TIP3   OH239702   4.120   6.367   0.711
13254TIP3    H139703   4.073   6.289   0.683
13254TIP3    H239704   4.070   6.440   0.675
13255TIP3   OH239705   1.173   4.067   3.523
13255TIP3    H139706   1.232   4.114   3.464
13255TIP3    H239707   1.228   3.999   3.562
13256TIP3   OH239708   3.265   3.396   4.136
13256TIP3    H139709   3.227   3.466   4.190
13256TIP3    H239710   3.340   3.365   4.186
13257TIP3   OH239711   7.722   1.804   4.036
13257TIP3    H139712   7.771   1.788   3.955
13257TIP3    H239713   7.694   1.718   4.065
13258TIP3   OH239714   6.582   1.846   6.869
13258TIP3    H139715   6.487   1.855   6.860
13258TIP3    H239716   6.611   1.927   6.911
13259TIP3   OH239717   0.752   4.938   2.507
13259TIP3    H139718   0.727   5.021   2.465
13259TIP3    H239719   0.820   4.903   2.449
13260TIP3   OH239720   2.317   4.147   1.616
13260TIP3    H139721   2.328   4.053   1.613
13260TIP3    H239722   2.307   4.167   1.709
13261TIP3   OH239723   2.488   1.357   0.356
13261TIP3    H139724   2.403   1.343   0.397
13261TIP3    H239725   2.481   1.441   0.312
13262TIP3   OH239726   3.731   5.975   1.500
13262TIP3    H139727   3.737   6.069   1.482
13262TIP3    H239728   3.643   5.951   1.470
13263TIP3   OH239729   5.221   4.322   4.183
13263TIP3    H139730   5.311   4.334   4.215
13263TIP3    H239731   5.166   4.354   4.254
13264TIP3   OH239732   1.377   6.501   0.627
13264TIP3    H139733   1.364   6.529   0.718
13264TIP3    H239734   1.321   6.424   0.618
13265TIP3   OH239735   7.748   0.077   2.638
13265TIP3    H139736   7.792   0.060   2.721
13265TIP3    H239737   7.713  -0.008   2.611
13266TIP3   OH239738   6.860   6.335   3.417
13266TIP3    H139739   6.882   6.243   3.431
13266TIP3    H239740   6.944   6.380   3.410
13267TIP3   OH239741   5.885   7.413   1.421
13267TIP3    H139742   5.901   7.419   1.515
13267TIP3    H239743   5.796   7.379   1.414
13268TIP3   OH239744   6.905   6.786   1.965
13268TIP3    H139745   6.938   6.842   1.894
13268TIP3    H239746   6.929   6.833   2.045
13269TIP3   OH239747   6.058   0.875   2.393
13269TIP3    H139748   6.021   0.795   2.430
13269TIP3    H239749   6.142   0.886   2.437
13270TIP3   OH239750   6.368   7.225   4.266
13270TIP3    H139751   6.432   7.208   4.336
13270TIP3    H239752   6.319   7.143   4.258
13271TIP3   OH239753   7.974   3.264   0.876
13271TIP3    H139754   7.990   3.205   0.950
13271TIP3    H239755   8.054   3.316   0.869
13272TIP3   OH239756   2.954   1.861   6.225
13272TIP3    H139757   2.968   1.882   6.133
13272TIP3    H239758   2.874   1.908   6.248
13273TIP3   OH239759   1.976   1.395   4.914
13273TIP3    H139760   2.055   1.406   4.862
13273TIP3    H239761   1.926   1.475   4.899
13274TIP3   OH239762   0.439   7.228   0.053
13274TIP3    H139763   0.417   7.172  -0.021
13274TIP3    H239764   0.389   7.193   0.127
13275TIP3   OH239765   1.514   1.534   3.217
13275TIP3    H139766   1.559   1.489   3.288
13275TIP3    H239767   1.561   1.617   3.208
13276TIP3   OH239768   3.938   6.471   3.573
13276TIP3    H139769   3.902   6.522   3.645
13276TIP3    H239770   3.940   6.532   3.499
13277TIP3   OH239771   1.954   6.139   0.693
13277TIP3    H139772   1.911   6.184   0.621
13277TIP3    H239773   1.985   6.057   0.655
13278TIP3   OH239774   5.529   1.745   3.042
13278TIP3    H139775   5.456   1.693   3.008
13278TIP3    H239776   5.566   1.692   3.112
13279TIP3   OH239777   0.796   2.790   3.396
13279TIP3    H139778   0.808   2.879   3.362
13279TIP3    H239779   0.867   2.739   3.357
13280TIP3   OH239780   5.117   5.392  -0.026
13280TIP3    H139781   5.098   5.479   0.008
13280TIP3    H239782   5.141   5.341   0.052
13281TIP3   OH239783   1.471   5.606   1.844
13281TIP3    H139784   1.514   5.618   1.759
13281TIP3    H239785   1.440   5.516   1.843
13282TIP3   OH239786   0.337   2.439   0.657
13282TIP3    H139787   0.313   2.428   0.749
13282TIP3    H239788   0.352   2.533   0.647
13283TIP3   OH239789   5.916   7.432   4.568
13283TIP3    H139790   5.965   7.498   4.619
13283TIP3    H239791   5.828   7.468   4.561
13284TIP3   OH239792   1.856   0.816   4.405
13284TIP3    H139793   1.904   0.886   4.360
13284TIP3    H239794   1.916   0.786   4.473
13285TIP3   OH239795   3.736   5.647   3.275
13285TIP3    H139796   3.653   5.604   3.294
13285TIP3    H239797   3.773   5.669   3.361
13286TIP3   OH239798   6.482   6.543   0.752
13286TIP3    H139799   6.414   6.476   0.747
13286TIP3    H239800   6.439   6.623   0.720
13287TIP3   OH239801   0.176   3.051   1.788
13287TIP3    H139802   0.225   3.055   1.706
13287TIP3    H239803   0.084   3.055   1.761
13288TIP3   OH239804   0.251   2.296   4.281
13288TIP3    H139805   0.234   2.263   4.192
13288TIP3    H239806   0.209   2.382   4.282
13289TIP3   OH239807   2.060   5.248   2.693
13289TIP3    H139808   2.032   5.336   2.719
13289TIP3    H239809   1.983   5.193   2.706
13290TIP3   OH239810   0.792   0.948   2.708
13290TIP3    H139811   0.777   0.974   2.799
13290TIP3    H239812   0.721   0.989   2.659
13291TIP3   OH239813   5.093   7.530   3.036
13291TIP3    H139814   5.054   7.588   2.971
13291TIP3    H239815   5.139   7.588   3.096
13292TIP3   OH239816   5.912   2.522   2.263
13292TIP3    H139817   5.981   2.564   2.211
13292TIP3    H239818   5.949   2.437   2.287
13293TIP3   OH239819   1.712   7.258   0.865
13293TIP3    H139820   1.665   7.301   0.793
13293TIP3    H239821   1.802   7.250   0.833
13294TIP3   OH239822   5.991   3.960   5.676
13294TIP3    H139823   6.071   3.966   5.623
13294TIP3    H239824   5.920   3.980   5.614
13295TIP3   OH239825   6.756   5.587   1.893
13295TIP3    H139826   6.827   5.600   1.956
13295TIP3    H239827   6.715   5.673   1.884
13296TIP3   OH239828   2.553   4.028   3.375
13296TIP3    H139829   2.486   3.982   3.325
13296TIP3    H239830   2.633   4.016   3.324
13297TIP3   OH239831   1.330   3.765   6.083
13297TIP3    H139832   1.311   3.847   6.128
13297TIP3    H239833   1.405   3.728   6.130
13298TIP3   OH239834   4.647   4.440   5.623
13298TIP3    H139835   4.680   4.425   5.535
13298TIP3    H239836   4.720   4.416   5.680
13299TIP3   OH239837   5.790   4.531   5.664
13299TIP3    H139838   5.859   4.485   5.711
13299TIP3    H239839   5.768   4.473   5.591
13300TIP3   OH239840   4.804   0.516   6.164
13300TIP3    H139841   4.801   0.557   6.078
13300TIP3    H239842   4.848   0.432   6.148
13301TIP3   OH239843   0.141   4.823   1.162
13301TIP3    H139844   0.066   4.882   1.157
13301TIP3    H239845   0.125   4.758   1.093
13302TIP3   OH239846   0.712   5.547   0.768
13302TIP3    H139847   0.747   5.466   0.803
13302TIP3    H239848   0.716   5.537   0.673
13303TIP3   OH239849   6.666   0.211   1.168
13303TIP3    H139850   6.685   0.264   1.245
13303TIP3    H239851   6.583   0.167   1.189
13304TIP3   OH239852   2.068   1.866   4.786
13304TIP3    H139853   2.097   1.943   4.737
13304TIP3    H239854   2.148   1.817   4.803
13305TIP3   OH239855   3.972   3.608   4.573
13305TIP3    H139856   3.911   3.563   4.631
13305TIP3    H239857   4.038   3.645   4.631
13306TIP3   OH239858   5.169   1.613   6.616
13306TIP3    H139859   5.079   1.588   6.635
13306TIP3    H239860   5.172   1.623   6.521
13307TIP3   OH239861   6.647   0.380   0.416
13307TIP3    H139862   6.734   0.407   0.446
13307TIP3    H239863   6.658   0.288   0.391
13308TIP3   OH239864   6.987   1.770   4.034
13308TIP3    H139865   6.920   1.702   4.042
13308TIP3    H239866   6.942   1.842   3.990
13309TIP3   OH239867   6.027   4.577   3.585
13309TIP3    H139868   6.104   4.628   3.611
13309TIP3    H239869   6.063   4.493   3.555
13310TIP3   OH239870   1.850   4.655   2.665
13310TIP3    H139871   1.772   4.646   2.610
13310TIP3    H239872   1.896   4.572   2.654
13311TIP3   OH239873   4.332   6.698   2.785
13311TIP3    H139874   4.250   6.663   2.818
13311TIP3    H239875   4.312   6.790   2.765
13312TIP3   OH239876   1.400   4.154   1.952
13312TIP3    H139877   1.310   4.162   1.919
13312TIP3    H239878   1.448   4.226   1.910
13313TIP3   OH239879   8.350   3.421   6.655
13313TIP3    H139880   8.388   3.501   6.691
13313TIP3    H239881   8.420   3.356   6.661
13314TIP3   OH239882   5.174   5.270   5.285
13314TIP3    H139883   5.220   5.343   5.326
13314TIP3    H239884   5.116   5.237   5.353
13315TIP3   OH239885   7.312   7.752   0.396
13315TIP3    H139886   7.220   7.730   0.378
13315TIP3    H239887   7.308   7.817   0.466
13316TIP3   OH239888   7.751   4.892   0.964
13316TIP3    H139889   7.670   4.918   1.007
13316TIP3    H239890   7.816   4.955   0.996
13317TIP3   OH239891   7.554   3.307   1.452
13317TIP3    H139892   7.535   3.399   1.436
13317TIP3    H239893   7.484   3.277   1.511
13318TIP3   OH239894   0.529   5.347   5.277
13318TIP3    H139895   0.587   5.410   5.235
13318TIP3    H239896   0.578   5.315   5.353
13319TIP3   OH239897   5.684   0.077   3.658
13319TIP3    H139898   5.717   0.097   3.571
13319TIP3    H239899   5.589   0.075   3.649
13320TIP3   OH239900   6.889   6.919   0.999
13320TIP3    H139901   6.793   6.926   0.994
13320TIP3    H239902   6.904   6.843   1.054
13321TIP3   OH239903   2.151   5.412   3.333
13321TIP3    H139904   2.133   5.447   3.245
13321TIP3    H239905   2.241   5.440   3.351
13322TIP3   OH239906   3.462   3.572   0.836
13322TIP3    H139907   3.464   3.596   0.744
13322TIP3    H239908   3.545   3.526   0.851
13323TIP3   OH239909   4.792   7.380   3.745
13323TIP3    H139910   4.883   7.397   3.722
13323TIP3    H239911   4.782   7.414   3.834
13324TIP3   OH239912   3.637   0.540   1.976
13324TIP3    H139913   3.605   0.506   1.892
13324TIP3    H239914   3.717   0.588   1.953
13325TIP3   OH239915   1.779   7.363   1.883
13325TIP3    H139916   1.820   7.379   1.968
13325TIP3    H239917   1.711   7.298   1.901
13326TIP3   OH239918   2.484   5.631   2.225
13326TIP3    H139919   2.394   5.659   2.206
13326TIP3    H239920   2.479   5.536   2.232
13327TIP3   OH239921   5.399   7.514   6.581
13327TIP3    H139922   5.340   7.454   6.536
13327TIP3    H239923   5.485   7.472   6.577
13328TIP3   OH239924   0.835   6.334   6.501
13328TIP3    H139925   0.791   6.326   6.585
13328TIP3    H239926   0.783   6.399   6.453
13329TIP3   OH239927   3.203   0.116   4.244
13329TIP3    H139928   3.169   0.031   4.273
13329TIP3    H239929   3.265   0.094   4.175
13330TIP3   OH239930   4.888   3.367   3.507
13330TIP3    H139931   4.873   3.454   3.470
13330TIP3    H239932   4.954   3.382   3.576
13331TIP3   OH239933   7.088   1.265   0.814
13331TIP3    H139934   7.078   1.226   0.901
13331TIP3    H239935   7.164   1.323   0.822
13332TIP3   OH239936   2.925   2.705   5.504
13332TIP3    H139937   2.865   2.630   5.507
13332TIP3    H239938   2.966   2.700   5.418
13333TIP3   OH239939   4.532   4.158   1.864
13333TIP3    H139940   4.608   4.208   1.892
13333TIP3    H239941   4.465   4.224   1.845
13334TIP3   OH239942   7.377   0.159   1.315
13334TIP3    H139943   7.353   0.236   1.366
13334TIP3    H239944   7.442   0.191   1.253
13335TIP3   OH239945   1.209   6.849   0.856
13335TIP3    H139946   1.271   6.921   0.864
13335TIP3    H239947   1.171   6.860   0.769
13336TIP3   OH239948   3.632   4.965   4.186
13336TIP3    H139949   3.540   4.991   4.195
13336TIP3    H239950   3.673   5.038   4.140
13337TIP3   OH239951   4.697   2.465   1.746
13337TIP3    H139952   4.678   2.422   1.662
13337TIP3    H239953   4.754   2.538   1.723
13338TIP3   OH239954   8.219   6.976   1.648
13338TIP3    H139955   8.162   7.053   1.650
13338TIP3    H239956   8.254   6.970   1.737
13339TIP3   OH239957   3.899   4.017   5.692
13339TIP3    H139958   3.807   4.030   5.717
13339TIP3    H239959   3.897   3.938   5.638
13340TIP3   OH239960   7.123   3.516   2.575
13340TIP3    H139961   7.042   3.481   2.537
13340TIP3    H239962   7.192   3.465   2.533
13341TIP3   OH239963   6.269   1.237   5.002
13341TIP3    H139964   6.242   1.146   5.013
13341TIP3    H239965   6.190   1.288   5.019
13342TIP3   OH239966   5.682   5.255   5.162
13342TIP3    H139967   5.751   5.196   5.192
13342TIP3    H239968   5.604   5.200   5.158
13343TIP3   OH239969   1.431   2.708   6.575
13343TIP3    H139970   1.522   2.680   6.575
13343TIP3    H239971   1.388   2.649   6.638
13344TIP3   OH239972   5.011   5.122   6.271
13344TIP3    H139973   5.061   5.051   6.312
13344TIP3    H239974   4.946   5.148   6.337
13345TIP3   OH239975   7.030   0.570   0.655
13345TIP3    H139976   7.014   0.623   0.734
13345TIP3    H239977   7.105   0.515   0.678
13346TIP3   OH239978   0.260   4.567   3.527
13346TIP3    H139979   0.286   4.614   3.607
13346TIP3    H239980   0.197   4.502   3.558
13347TIP3   OH239981   2.977   6.217   1.579
13347TIP3    H139982   2.912   6.167   1.529
13347TIP3    H239983   2.926   6.260   1.648
13348TIP3   OH239984   2.064   7.766   3.246
13348TIP3    H139985   2.034   7.854   3.271
13348TIP3    H239986   1.983   7.718   3.228
13349TIP3   OH239987   0.268   6.631   0.879
13349TIP3    H139988   0.275   6.556   0.820
13349TIP3    H239989   0.292   6.706   0.825
13350TIP3   OH239990   1.642   4.610   4.910
13350TIP3    H139991   1.611   4.559   4.835
13350TIP3    H239992   1.728   4.642   4.882
13351TIP3   OH239993   7.801   2.364   3.502
13351TIP3    H139994   7.875   2.418   3.474
13351TIP3    H239995   7.729   2.393   3.447
13352TIP3   OH239996   8.258   0.104   5.066
13352TIP3    H139997   8.164   0.088   5.072
13352TIP3    H239998   8.264   0.177   5.004
13353TIP3   OH239999   5.988   4.255   0.968
13353TIP3    H140000   6.024   4.322   1.026
13353TIP3    H240001   5.914   4.218   1.017
13354TIP3   OH240002   2.247   3.405   4.052
13354TIP3    H140003   2.318   3.376   3.994
13354TIP3    H240004   2.206   3.477   4.005
13355TIP3   OH240005   1.652   4.148   0.566
13355TIP3    H140006   1.729   4.142   0.509
13355TIP3    H240007   1.643   4.061   0.604
13356TIP3   OH240008   0.312   5.058   1.159
13356TIP3    H140009   0.254   4.982   1.160
13356TIP3    H240010   0.338   5.069   1.251
13357TIP3   OH240011   2.988   7.295   5.744
13357TIP3    H140012   3.083   7.300   5.750
13357TIP3    H240013   2.957   7.294   5.834
13358TIP3   OH240014   5.084   6.042   5.005
13358TIP3    H140015   5.137   6.093   4.944
13358TIP3    H240016   5.116   5.952   4.995
13359TIP3   OH240017   2.640   4.371   3.245
13359TIP3    H140018   2.645   4.440   3.312
13359TIP3    H240019   2.712   4.312   3.266
13360TIP3   OH240020   6.989   6.428   4.003
13360TIP3    H140021   7.066   6.466   3.960
13360TIP3    H240022   6.940   6.386   3.932
13361TIP3   OH240023   2.301   5.356   4.032
13361TIP3    H140024   2.247   5.297   3.980
13361TIP3    H240025   2.311   5.311   4.116
13362TIP3   OH240026   6.387   4.297   5.867
13362TIP3    H140027   6.439   4.236   5.920
13362TIP3    H240028   6.368   4.369   5.926
13363TIP3   OH240029   4.992   7.219   4.706
13363TIP3    H140030   5.086   7.240   4.706
13363TIP3    H240031   4.973   7.196   4.615
13364TIP3   OH240032   5.405   0.232   2.362
13364TIP3    H140033   5.348   0.307   2.380
13364TIP3    H240034   5.366   0.160   2.412
13365TIP3   OH240035   7.582   5.694   5.191
13365TIP3    H140036   7.574   5.632   5.264
13365TIP3    H240037   7.506   5.750   5.199
13366TIP3   OH240038   4.929   2.917   4.917
13366TIP3    H140039   4.961   2.996   4.873
13366TIP3    H240040   4.835   2.933   4.928
13367TIP3   OH240041   7.154   1.877   2.763
13367TIP3    H140042   7.191   1.922   2.687
13367TIP3    H240043   7.226   1.874   2.826
13368TIP3   OH240044   8.092   3.694   4.871
13368TIP3    H140045   8.042   3.766   4.833
13368TIP3    H240046   8.121   3.727   4.956
13369TIP3   OH240047   8.235   4.238   2.886
13369TIP3    H140048   8.180   4.254   2.962
13369TIP3    H240049   8.197   4.160   2.845
13370TIP3   OH240050   5.090   0.085   3.819
13370TIP3    H140051   5.092   0.054   3.728
13370TIP3    H240052   5.099   0.005   3.871
13371TIP3   OH240053   8.404   1.215   4.670
13371TIP3    H140054   8.376   1.125   4.655
13371TIP3    H240055   8.323   1.265   4.676
13372TIP3   OH240056   2.876   3.955   0.907
13372TIP3    H140057   2.791   3.994   0.927
13372TIP3    H240058   2.907   3.921   0.991
13373TIP3   OH240059   5.533   7.046   3.041
13373TIP3    H140060   5.603   7.063   3.104
13373TIP3    H240061   5.454   7.082   3.082
13374TIP3   OH240062   6.407   1.003   6.519
13374TIP3    H140063   6.399   0.909   6.510
13374TIP3    H240064   6.472   1.015   6.588
13375TIP3   OH240065   1.016   1.069   2.170
13375TIP3    H140066   0.954   1.083   2.099
13375TIP3    H240067   1.066   1.150   2.174
13376TIP3   OH240068   3.141   6.102   2.510
13376TIP3    H140069   3.065   6.085   2.566
13376TIP3    H240070   3.160   6.018   2.469
13377TIP3   OH240071   2.065   2.332   6.064
13377TIP3    H140072   2.053   2.253   6.117
13377TIP3    H240073   2.036   2.404   6.120
13378TIP3   OH240074   7.900   6.329   0.873
13378TIP3    H140075   7.939   6.256   0.825
13378TIP3    H240076   7.895   6.299   0.963
13379TIP3   OH240077   5.008   7.212   1.572
13379TIP3    H140078   4.958   7.210   1.490
13379TIP3    H240079   5.043   7.300   1.576
13380TIP3   OH240080   0.934   0.009   5.779
13380TIP3    H140081   1.016  -0.007   5.827
13380TIP3    H240082   0.932  -0.059   5.712
13381TIP3   OH240083   1.290   3.080   2.291
13381TIP3    H140084   1.337   3.062   2.209
13381TIP3    H240085   1.338   3.031   2.357
13382TIP3   OH240086   7.966   4.662   3.279
13382TIP3    H140087   7.990   4.687   3.368
13382TIP3    H240088   7.870   4.671   3.276
13383TIP3   OH240089   6.807   6.256   0.055
13383TIP3    H140090   6.724   6.297   0.033
13383TIP3    H240091   6.870   6.294  -0.006
13384TIP3   OH240092   6.977   3.987   0.766
13384TIP3    H140093   7.054   3.933   0.752
13384TIP3    H240094   6.903   3.931   0.741
13385TIP3   OH240095   8.097   0.944   2.784
13385TIP3    H140096   8.169   1.002   2.811
13385TIP3    H240097   8.026   0.964   2.844
13386TIP3   OH240098   7.365   7.746   6.739
13386TIP3    H140099   7.420   7.699   6.676
13386TIP3    H240100   7.413   7.827   6.756
13387TIP3   OH240101   3.296   4.713   5.917
13387TIP3    H140102   3.213   4.667   5.919
13387TIP3    H240103   3.274   4.805   5.933
13388TIP3   OH240104   0.456   3.402   3.564
13388TIP3    H140105   0.477   3.491   3.538
13388TIP3    H240106   0.443   3.355   3.481
13389TIP3   OH240107   5.802   1.775   0.559
13389TIP3    H140108   5.791   1.870   0.549
13389TIP3    H240109   5.719   1.745   0.596
13390TIP3   OH240110   4.934   0.989   2.648
13390TIP3    H140111   4.843   1.001   2.623
13390TIP3    H240112   4.931   0.961   2.739
13391TIP3   OH240113   4.007   2.762   4.480
13391TIP3    H140114   3.962   2.751   4.564
13391TIP3    H240115   4.037   2.852   4.481
13392TIP3   OH240116   6.469   2.806   6.511
13392TIP3    H140117   6.432   2.763   6.587
13392TIP3    H240118   6.461   2.900   6.530
13393TIP3   OH240119   7.850   7.090   6.062
13393TIP3    H140120   7.847   7.185   6.075
13393TIP3    H240121   7.764   7.059   6.090
13394TIP3   OH240122   6.144   4.719   3.195
13394TIP3    H140123   6.092   4.798   3.182
13394TIP3    H240124   6.166   4.690   3.106
13395TIP3   OH240125   2.428   5.869   5.562
13395TIP3    H140126   2.471   5.901   5.641
13395TIP3    H240127   2.412   5.948   5.510
13396TIP3   OH240128   5.571   6.813   3.171
13396TIP3    H140129   5.576   6.876   3.099
13396TIP3    H240130   5.568   6.728   3.128
13397TIP3   OH240131   0.789   4.247   1.471
13397TIP3    H140132   0.749   4.226   1.556
13397TIP3    H240133   0.793   4.162   1.426
13398TIP3   OH240134   1.442   4.754   0.596
13398TIP3    H140135   1.372   4.748   0.531
13398TIP3    H240136   1.522   4.769   0.545
13399TIP3   OH240137   5.460   3.367   0.724
13399TIP3    H140138   5.447   3.318   0.805
13399TIP3    H240139   5.555   3.373   0.713
13400TIP3   OH240140   8.004   7.257   1.191
13400TIP3    H140141   7.917   7.289   1.215
13400TIP3    H240142   8.013   7.174   1.238
13401TIP3   OH240143   2.746   6.642   4.687
13401TIP3    H140144   2.824   6.691   4.661
13401TIP3    H240145   2.698   6.701   4.743
13402TIP3   OH240146   5.848   6.782   6.570
13402TIP3    H140147   5.820   6.856   6.623
13402TIP3    H240148   5.840   6.812   6.479
13403TIP3   OH240149   5.854   5.064   3.634
13403TIP3    H140150   5.892   4.983   3.599
13403TIP3    H240151   5.928   5.112   3.669
13404TIP3   OH240152   5.460   1.226   2.304
13404TIP3    H140153   5.513   1.148   2.324
13404TIP3    H240154   5.452   1.226   2.209
13405TIP3   OH240155   3.387   3.103   2.870
13405TIP3    H140156   3.378   3.089   2.775
13405TIP3    H240157   3.473   3.144   2.880
13406TIP3   OH240158   3.761   3.714   6.468
13406TIP3    H140159   3.784   3.792   6.418
13406TIP3    H240160   3.840   3.695   6.520
13407TIP3   OH240161   1.908   1.608   5.129
13407TIP3    H140162   1.866   1.642   5.050
13407TIP3    H240163   1.996   1.583   5.099
13408TIP3   OH240164   2.849   2.128   5.814
13408TIP3    H140165   2.754   2.126   5.822
13408TIP3    H240166   2.873   2.220   5.827
13409TIP3   OH240167   6.457   2.474   6.567
13409TIP3    H140168   6.462   2.425   6.649
13409TIP3    H240169   6.479   2.564   6.591
13410TIP3   OH240170   8.251   2.924   5.332
13410TIP3    H140171   8.229   2.842   5.377
13410TIP3    H240172   8.329   2.955   5.377
13411TIP3   OH240173   5.310   6.359   2.289
13411TIP3    H140174   5.358   6.433   2.325
13411TIP3    H240175   5.240   6.399   2.236
13412TIP3   OH240176   6.996   1.171   0.582
13412TIP3    H140177   7.049   1.237   0.535
13412TIP3    H240178   7.036   1.166   0.669
13413TIP3   OH240179   4.168   3.919   6.100
13413TIP3    H140180   4.200   3.857   6.034
13413TIP3    H240181   4.091   3.959   6.060
13414TIP3   OH240182   1.437   6.768   4.604
13414TIP3    H140183   1.395   6.815   4.532
13414TIP3    H240184   1.410   6.677   4.592
13415TIP3   OH240185   6.812   1.531   4.050
13415TIP3    H140186   6.871   1.461   4.079
13415TIP3    H240187   6.728   1.487   4.036
13416TIP3   OH240188   7.687   0.459   6.099
13416TIP3    H140189   7.688   0.554   6.093
13416TIP3    H240190   7.597   0.434   6.077
13417TIP3   OH240191   3.843   2.494   1.773
13417TIP3    H140192   3.843   2.498   1.678
13417TIP3    H240193   3.833   2.401   1.793
13418TIP3   OH240194   3.437   7.209   4.266
13418TIP3    H140195   3.413   7.133   4.320
13418TIP3    H240196   3.532   7.201   4.256
13419TIP3   OH240197   4.069   5.632   2.095
13419TIP3    H140198   4.129   5.586   2.035
13419TIP3    H240199   4.050   5.568   2.164
13420TIP3   OH240200   7.347   1.941   2.937
13420TIP3    H140201   7.397   2.023   2.931
13420TIP3    H240202   7.407   1.879   2.977
13421TIP3   OH240203   4.671   3.943   1.878
13421TIP3    H140204   4.613   3.868   1.885
13421TIP3    H240205   4.614   4.015   1.850
13422TIP3   OH240206   6.496   4.213   0.614
13422TIP3    H140207   6.402   4.196   0.605
13422TIP3    H240208   6.537   4.153   0.552
13423TIP3   OH240209   4.658   2.854   5.280
13423TIP3    H140210   4.619   2.767   5.273
13423TIP3    H240211   4.649   2.892   5.193
13424TIP3   OH240212   1.421   3.550   3.975
13424TIP3    H140213   1.474   3.476   3.946
13424TIP3    H240214   1.377   3.580   3.895
13425TIP3   OH240215   8.112   4.965   2.779
13425TIP3    H140216   8.173   5.007   2.839
13425TIP3    H240217   8.149   4.981   2.692
13426TIP3   OH240218   7.619   4.409   4.296
13426TIP3    H140219   7.698   4.460   4.281
13426TIP3    H240220   7.611   4.404   4.391
13427TIP3   OH240221   2.452   3.432   4.217
13427TIP3    H140222   2.543   3.441   4.191
13427TIP3    H240223   2.402   3.462   4.141
13428TIP3   OH240224   8.129   7.861   2.715
13428TIP3    H140225   8.045   7.888   2.678
13428TIP3    H240226   8.193   7.917   2.670
13429TIP3   OH240227   0.305   1.393   2.152
13429TIP3    H140228   0.227   1.351   2.188
13429TIP3    H240229   0.279   1.484   2.140
13430TIP3   OH240230   1.457   0.103   5.320
13430TIP3    H140231   1.388   0.169   5.317
13430TIP3    H240232   1.422   0.029   5.270
13431TIP3   OH240233   4.406   0.709   1.045
13431TIP3    H140234   4.499   0.711   1.066
13431TIP3    H240235   4.374   0.797   1.066
13432TIP3   OH240236   6.119   0.691   4.295
13432TIP3    H140237   6.085   0.617   4.245
13432TIP3    H240238   6.169   0.742   4.231
13433TIP3   OH240239   4.896   4.418   5.709
13433TIP3    H140240   4.928   4.440   5.621
13433TIP3    H240241   4.934   4.332   5.727
13434TIP3   OH240242   1.679   2.530   1.087
13434TIP3    H140243   1.692   2.528   1.181
13434TIP3    H240244   1.584   2.519   1.075
13435TIP3   OH240245   1.388   0.589   3.402
13435TIP3    H140246   1.303   0.556   3.429
13435TIP3    H240247   1.374   0.623   3.314
13436TIP3   OH240248   3.416   1.268   0.881
13436TIP3    H140249   3.335   1.301   0.844
13436TIP3    H240250   3.444   1.199   0.821
13437TIP3   OH240251   4.524   4.305   3.379
13437TIP3    H140252   4.536   4.306   3.474
13437TIP3    H240253   4.544   4.395   3.352
13438TIP3   OH240254   1.826   6.688   2.479
13438TIP3    H140255   1.778   6.684   2.397
13438TIP3    H240256   1.763   6.721   2.543
13439TIP3   OH240257   0.079   0.927   6.845
13439TIP3    H140258   0.045   0.893   6.928
13439TIP3    H240259   0.116   0.851   6.801
13440TIP3   OH240260   1.365   4.979   4.076
13440TIP3    H140261   1.326   4.924   4.143
13440TIP3    H240262   1.391   5.059   4.122
13441TIP3   OH240263   1.131   7.317   2.368
13441TIP3    H140264   1.039   7.295   2.378
13441TIP3    H240265   1.178   7.243   2.408
13442TIP3   OH240266   0.700   5.290   4.935
13442TIP3    H140267   0.749   5.352   4.991
13442TIP3    H240268   0.748   5.208   4.942
13443TIP3   OH240269   2.393   0.690   3.914
13443TIP3    H140270   2.302   0.671   3.940
13443TIP3    H240271   2.387   0.713   3.821
13444TIP3   OH240272   0.362   6.057   2.986
13444TIP3    H140273   0.436   6.059   3.046
13444TIP3    H240274   0.332   6.147   2.981
13445TIP3   OH240275   2.260   1.522   2.777
13445TIP3    H140276   2.208   1.601   2.762
13445TIP3    H240277   2.312   1.512   2.697
13446TIP3   OH240278   2.050   1.440   3.424
13446TIP3    H140279   2.085   1.376   3.362
13446TIP3    H240280   2.107   1.517   3.414
13447TIP3   OH240281   5.956   6.302   3.338
13447TIP3    H140282   6.003   6.316   3.420
13447TIP3    H240283   6.024   6.276   3.275
13448TIP3   OH240284   5.617   5.554   0.976
13448TIP3    H140285   5.619   5.473   0.926
13448TIP3    H240286   5.534   5.595   0.953
13449TIP3   OH240287   6.825   7.837   0.084
13449TIP3    H140288   6.878   7.851   0.006
13449TIP3    H240289   6.834   7.918   0.135
13450TIP3   OH240290   3.103   4.203   1.911
13450TIP3    H140291   3.140   4.115   1.920
13450TIP3    H240292   3.015   4.188   1.876
13451TIP3   OH240293   3.132   6.391   2.538
13451TIP3    H140294   3.120   6.296   2.530
13451TIP3    H240295   3.061   6.429   2.487
13452TIP3   OH240296   6.721   3.116   4.275
13452TIP3    H140297   6.770   3.067   4.210
13452TIP3    H240298   6.634   3.127   4.236
13453TIP3   OH240299   0.392   0.612   0.877
13453TIP3    H140300   0.396   0.691   0.824
13453TIP3    H240301   0.453   0.628   0.949
13454TIP3   OH240302   7.413   6.319   0.951
13454TIP3    H140303   7.432   6.383   1.019
13454TIP3    H240304   7.323   6.292   0.968
13455TIP3   OH240305   0.381   7.883   3.223
13455TIP3    H140306   0.364   7.826   3.149
13455TIP3    H240307   0.471   7.863   3.249
13456TIP3   OH240308   2.760   4.737   4.808
13456TIP3    H140309   2.750   4.816   4.755
13456TIP3    H240310   2.738   4.765   4.897
13457TIP3   OH240311   4.762   1.807   4.192
13457TIP3    H140312   4.822   1.818   4.266
13457TIP3    H240313   4.694   1.749   4.225
13458TIP3   OH240314   6.101   1.952   5.709
13458TIP3    H140315   6.089   2.045   5.727
13458TIP3    H240316   6.040   1.908   5.769
13459TIP3   OH240317   0.492   7.084   6.802
13459TIP3    H140318   0.567   7.137   6.828
13459TIP3    H240319   0.490   7.012   6.865
13460TIP3   OH240320   1.624   0.882   3.092
13460TIP3    H140321   1.679   0.888   3.014
13460TIP3    H240322   1.635   0.966   3.136
13461TIP3   OH240323   1.019   4.189   6.357
13461TIP3    H140324   1.101   4.145   6.336
13461TIP3    H240325   1.044   4.278   6.383
13462TIP3   OH240326   0.954   2.013   4.902
13462TIP3    H140327   1.045   2.043   4.901
13462TIP3    H240328   0.922   2.038   4.989
13463TIP3   OH240329   5.682   0.158   5.293
13463TIP3    H140330   5.695   0.250   5.318
13463TIP3    H240331   5.767   0.117   5.306
13464TIP3   OH240332   0.926   7.220   3.983
13464TIP3    H140333   0.978   7.293   3.950
13464TIP3    H240334   0.961   7.143   3.939
13465TIP3   OH240335   2.971   3.562   0.945
13465TIP3    H140336   2.894   3.522   0.986
13465TIP3    H240337   2.936   3.631   0.889
13466TIP3   OH240338   5.268   6.750   1.179
13466TIP3    H140339   5.325   6.808   1.230
13466TIP3    H240340   5.324   6.676   1.156
13467TIP3   OH240341   4.182   2.609   4.184
13467TIP3    H140342   4.178   2.699   4.216
13467TIP3    H240343   4.117   2.561   4.236
13468TIP3   OH240344   1.252   4.311   4.666
13468TIP3    H140345   1.157   4.304   4.655
13468TIP3    H240346   1.267   4.296   4.759
13469TIP3   OH240347   0.710   6.331   6.736
13469TIP3    H140348   0.742   6.378   6.813
13469TIP3    H240349   0.623   6.368   6.720
13470TIP3   OH240350   0.416   7.595   4.693
13470TIP3    H140351   0.384   7.512   4.656
13470TIP3    H240352   0.437   7.574   4.784
13471TIP3   OH240353   0.573   0.941   0.507
13471TIP3    H140354   0.543   0.981   0.425
13471TIP3    H240355   0.667   0.929   0.494
13472TIP3   OH240356   4.494   5.844   0.922
13472TIP3    H140357   4.421   5.801   0.967
13472TIP3    H240358   4.565   5.779   0.924
13473TIP3   OH240359   2.335   6.737   5.111
13473TIP3    H140360   2.260   6.784   5.075
13473TIP3    H240361   2.402   6.805   5.122
13474TIP3   OH240362   3.482   3.496   2.693
13474TIP3    H140363   3.546   3.432   2.662
13474TIP3    H240364   3.500   3.574   2.640
13475TIP3   OH240365   7.653   1.664   2.034
13475TIP3    H140366   7.656   1.575   2.071
13475TIP3    H240367   7.602   1.714   2.097
13476TIP3   OH240368   6.897   3.258   2.795
13476TIP3    H140369   6.934   3.180   2.837
13476TIP3    H240370   6.816   3.274   2.843
13477TIP3   OH240371   6.293   4.020   0.810
13477TIP3    H140372   6.263   3.929   0.811
13477TIP3    H240373   6.239   4.065   0.875
13478TIP3   OH240374   7.495   3.617   2.347
13478TIP3    H140375   7.421   3.556   2.348
13478TIP3    H240376   7.462   3.693   2.299
13479TIP3   OH240377   0.076   6.642   2.534
13479TIP3    H140378   0.142   6.650   2.603
13479TIP3    H240379   0.081   6.550   2.506
13480TIP3   OH240380   5.040   4.261   0.297
13480TIP3    H140381   4.957   4.254   0.248
13480TIP3    H240382   5.013   4.282   0.387
13481TIP3   OH240383   1.040   4.096   4.313
13481TIP3    H140384   0.969   4.156   4.289
13481TIP3    H240385   1.092   4.087   4.234
13482TIP3   OH240386   3.711   5.322   4.857
13482TIP3    H140387   3.701   5.328   4.762
13482TIP3    H240388   3.668   5.240   4.880
13483TIP3   OH240389   5.196   1.474   2.641
13483TIP3    H140390   5.186   1.389   2.598
13483TIP3    H240391   5.290   1.482   2.657
13484TIP3   OH240392   8.354   2.096   3.579
13484TIP3    H140393   8.392   2.183   3.590
13484TIP3    H240394   8.259   2.111   3.579
13485TIP3   OH240395   0.286   3.530   4.019
13485TIP3    H140396   0.237   3.544   3.939
13485TIP3    H240397   0.374   3.506   3.990
13486TIP3   OH240398   4.568   0.310   0.877
13486TIP3    H140399   4.578   0.218   0.901
13486TIP3    H240400   4.638   0.355   0.924
13487TIP3   OH240401   0.557   0.511   4.324
13487TIP3    H140402   0.566   0.418   4.344
13487TIP3    H240403   0.626   0.529   4.261
13488TIP3   OH240404   3.356   2.506   0.790
13488TIP3    H140405   3.424   2.526   0.854
13488TIP3    H240406   3.394   2.436   0.736
13489TIP3   OH240407   1.499   6.872   6.363
13489TIP3    H140408   1.578   6.892   6.313
13489TIP3    H240409   1.525   6.803   6.424
13490TIP3   OH240410   0.107   1.214   5.960
13490TIP3    H140411   0.069   1.157   5.892
13490TIP3    H240412   0.186   1.168   5.988
13491TIP3   OH240413   3.750   0.718   5.870
13491TIP3    H140414   3.746   0.749   5.780
13491TIP3    H240415   3.824   0.766   5.908
13492TIP3   OH240416   4.757   6.364   0.211
13492TIP3    H140417   4.696   6.424   0.254
13492TIP3    H240418   4.762   6.288   0.269
13493TIP3   OH240419   4.904   1.837   5.016
13493TIP3    H140420   4.832   1.777   4.996
13493TIP3    H240421   4.945   1.854   4.931
13494TIP3   OH240422   7.583   3.543   2.597
13494TIP3    H140423   7.553   3.577   2.513
13494TIP3    H240424   7.541   3.457   2.604
13495TIP3   OH240425   5.950   3.296   3.653
13495TIP3    H140426   5.870   3.298   3.601
13495TIP3    H240427   5.926   3.246   3.731
13496TIP3   OH240428   1.008   1.104   0.444
13496TIP3    H140429   1.066   1.094   0.369
13496TIP3    H240430   1.053   1.167   0.501
13497TIP3   OH240431   4.765   3.373   0.388
13497TIP3    H140432   4.677   3.348   0.359
13497TIP3    H240433   4.823   3.313   0.341
13498TIP3   OH240434   7.663   3.681   1.562
13498TIP3    H140435   7.619   3.719   1.487
13498TIP3    H240436   7.752   3.663   1.532
13499TIP3   OH240437   4.966   2.248   2.909
13499TIP3    H140438   4.990   2.157   2.897
13499TIP3    H240439   4.877   2.246   2.943
13500TIP3   OH240440   1.130   4.340   2.827
13500TIP3    H140441   1.137   4.252   2.790
13500TIP3    H240442   1.038   4.351   2.849
13501TIP3   OH240443   7.109   3.863   3.178
13501TIP3    H140444   7.040   3.835   3.118
13501TIP3    H240445   7.140   3.945   3.141
13502TIP3   OH240446   5.021   4.977   2.845
13502TIP3    H140447   4.930   5.005   2.858
13502TIP3    H240448   5.014   4.896   2.794
13503TIP3   OH240449   5.742   2.966   5.743
13503TIP3    H140450   5.799   2.975   5.819
13503TIP3    H240451   5.793   2.913   5.681
13504TIP3   OH240452   6.286   5.757   1.496
13504TIP3    H140453   6.204   5.805   1.487
13504TIP3    H240454   6.313   5.772   1.587
13505TIP3   OH240455   7.694   4.489   4.811
13505TIP3    H140456   7.626   4.463   4.873
13505TIP3    H240457   7.775   4.487   4.862
13506TIP3   OH240458   7.252   3.645   3.297
13506TIP3    H140459   7.193   3.577   3.264
13506TIP3    H240460   7.196   3.723   3.306
13507TIP3   OH240461   6.877   1.794   2.283
13507TIP3    H140462   6.838   1.832   2.204
13507TIP3    H240463   6.801   1.767   2.336
13508TIP3   OH240464   5.438   3.446   2.303
13508TIP3    H140465   5.372   3.508   2.270
13508TIP3    H240466   5.514   3.500   2.323
13509TIP3   OH240467   5.151   3.630   5.246
13509TIP3    H140468   5.231   3.588   5.216
13509TIP3    H240469   5.173   3.723   5.252
13510TIP3   OH240470   5.128   0.235   2.596
13510TIP3    H140471   5.164   0.173   2.533
13510TIP3    H240472   5.140   0.321   2.555
13511TIP3   OH240473   5.229   6.805   2.251
13511TIP3    H140474   5.274   6.733   2.208
13511TIP3    H240475   5.299   6.860   2.286
13512TIP3   OH240476   3.489   5.854   5.035
13512TIP3    H140477   3.417   5.791   5.033
13512TIP3    H240478   3.549   5.820   5.102
13513TIP3   OH240479   6.539   5.272   5.369
13513TIP3    H140480   6.533   5.177   5.375
13513TIP3    H240481   6.467   5.297   5.310
13514TIP3   OH240482   8.202   7.232   3.519
13514TIP3    H140483   8.179   7.163   3.582
13514TIP3    H240484   8.121   7.280   3.506
13515TIP3   OH240485   5.044   7.637   0.076
13515TIP3    H140486   5.133   7.617   0.047
13515TIP3    H240487   5.055   7.664   0.167
13516TIP3   OH240488   1.337   4.784   3.542
13516TIP3    H140489   1.303   4.821   3.624
13516TIP3    H240490   1.400   4.718   3.570
13517TIP3   OH240491   0.599   7.765   5.338
13517TIP3    H140492   0.584   7.843   5.391
13517TIP3    H240493   0.569   7.789   5.251
13518TIP3   OH240494   4.057   4.937   5.045
13518TIP3    H140495   4.134   4.985   5.074
13518TIP3    H240496   4.078   4.908   4.957
13519TIP3   OH240497   6.413   3.262   2.846
13519TIP3    H140498   6.424   3.357   2.839
13519TIP3    H240499   6.425   3.244   2.939
13520TIP3   OH240500   4.261   2.544   5.579
13520TIP3    H140501   4.258   2.495   5.497
13520TIP3    H240502   4.255   2.477   5.647
13521TIP3   OH240503   5.251   3.624   2.218
13521TIP3    H140504   5.186   3.658   2.157
13521TIP3    H240505   5.233   3.669   2.301
13522TIP3   OH240506   6.693   5.080   4.607
13522TIP3    H140507   6.692   5.016   4.535
13522TIP3    H240508   6.601   5.088   4.633
13523TIP3   OH240509   1.468   6.934   0.890
13523TIP3    H140510   1.541   6.881   0.858
13523TIP3    H240511   1.469   7.012   0.835
13524TIP3   OH240512   5.267   7.196   5.629
13524TIP3    H140513   5.230   7.108   5.618
13524TIP3    H240514   5.296   7.198   5.720
13525TIP3   OH240515   1.508   2.932   1.669
13525TIP3    H140516   1.443   2.881   1.718
13525TIP3    H240517   1.532   2.875   1.596
13526TIP3   OH240518   4.298   7.843   1.037
13526TIP3    H140519   4.306   7.776   0.970
13526TIP3    H240520   4.205   7.843   1.061
13527TIP3   OH240521   1.558   0.712   4.030
13527TIP3    H140522   1.602   0.768   3.966
13527TIP3    H240523   1.621   0.703   4.101
13528TIP3   OH240524   7.409   2.237   6.746
13528TIP3    H140525   7.389   2.180   6.820
13528TIP3    H240526   7.502   2.220   6.726
13529TIP3   OH240527   0.771   1.833   5.698
13529TIP3    H140528   0.748   1.769   5.630
13529TIP3    H240529   0.828   1.785   5.757
13530TIP3   OH240530   5.861   7.907   5.289
13530TIP3    H140531   5.837   7.864   5.207
13530TIP3    H240532   5.851   7.839   5.356
13531TIP3   OH240533   6.210   0.961   5.075
13531TIP3    H140534   6.255   0.881   5.103
13531TIP3    H240535   6.189   1.006   5.157
13532TIP3   OH240536   6.914   3.687   3.344
13532TIP3    H140537   6.825   3.684   3.308
13532TIP3    H240538   6.915   3.619   3.411
13533TIP3   OH240539   8.347   0.676   5.170
13533TIP3    H140540   8.305   0.732   5.105
13533TIP3    H240541   8.418   0.730   5.206
13534TIP3   OH240542   7.296   5.607   0.030
13534TIP3    H140543   7.202   5.621   0.038
13534TIP3    H240544   7.332   5.639   0.113
13535TIP3   OH240545   7.576   3.977   5.016
13535TIP3    H140546   7.500   3.937   4.972
13535TIP3    H240547   7.537   4.039   5.077
13536TIP3   OH240548   3.601   1.762   1.557
13536TIP3    H140549   3.591   1.732   1.467
13536TIP3    H240550   3.691   1.797   1.561
13537TIP3   OH240551   0.773   0.371   4.583
13537TIP3    H140552   0.761   0.411   4.669
13537TIP3    H240553   0.860   0.331   4.586
13538TIP3   OH240554   2.540   3.891   3.892
13538TIP3    H140555   2.468   3.830   3.878
13538TIP3    H240556   2.588   3.890   3.809
13539TIP3   OH240557   4.984   4.303   0.570
13539TIP3    H140558   5.047   4.305   0.642
13539TIP3    H240559   4.903   4.339   0.608
13540TIP3   OH240560   4.894   1.559   6.161
13540TIP3    H140561   4.966   1.544   6.100
13540TIP3    H240562   4.825   1.598   6.108
13541TIP3   OH240563   7.365   7.606   3.095
13541TIP3    H140564   7.408   7.581   3.177
13541TIP3    H240565   7.322   7.526   3.065
13542TIP3   OH240566   6.332   2.750   3.662
13542TIP3    H140567   6.328   2.664   3.619
13542TIP3    H240568   6.243   2.762   3.697
13543TIP3   OH240569   4.150   3.955   4.400
13543TIP3    H140570   4.215   3.893   4.366
13543TIP3    H240571   4.141   3.931   4.492
13544TIP3   OH240572   6.400   2.690   6.742
13544TIP3    H140573   6.454   2.733   6.809
13544TIP3    H240574   6.325   2.655   6.789
13545TIP3   OH240575   5.167   0.151   4.645
13545TIP3    H140576   5.235   0.131   4.709
13545TIP3    H240577   5.210   0.210   4.583
13546TIP3   OH240578   5.986   6.390   0.405
13546TIP3    H140579   6.020   6.385   0.316
13546TIP3    H240580   5.893   6.410   0.394
13547TIP3   OH240581   2.746   7.197   6.665
13547TIP3    H140582   2.832   7.156   6.658
13547TIP3    H240583   2.746   7.237   6.752
13548TIP3   OH240584   5.557   7.327   4.974
13548TIP3    H140585   5.524   7.364   4.893
13548TIP3    H240586   5.586   7.239   4.950
13549TIP3   OH240587   0.719   4.775   2.148
13549TIP3    H140588   0.647   4.721   2.180
13549TIP3    H240589   0.791   4.758   2.210
13550TIP3   OH240590   0.136   4.287   2.519
13550TIP3    H140591   0.051   4.326   2.498
13550TIP3    H240592   0.189   4.361   2.549
13551TIP3   OH240593   5.575   5.220   2.774
13551TIP3    H140594   5.596   5.132   2.806
13551TIP3    H240595   5.622   5.227   2.691
13552TIP3   OH240596   1.353   7.008   6.572
13552TIP3    H140597   1.430   7.021   6.629
13552TIP3    H240598   1.387   6.959   6.497
13553TIP3   OH240599   2.867   1.763   2.266
13553TIP3    H140600   2.866   1.857   2.245
13553TIP3    H240601   2.802   1.754   2.336
13554TIP3   OH240602   4.671   0.424   1.340
13554TIP3    H140603   4.765   0.437   1.327
13554TIP3    H240604   4.653   0.338   1.301
13555TIP3   OH240605   3.103   1.058   3.623
13555TIP3    H140606   3.190   1.027   3.648
13555TIP3    H240607   3.085   1.013   3.540
13556TIP3   OH240608   2.993   0.654   3.479
13556TIP3    H140609   3.055   0.615   3.417
13556TIP3    H240610   3.047   0.710   3.534
13557TIP3   OH240611   7.392   2.476   3.723
13557TIP3    H140612   7.441   2.477   3.805
13557TIP3    H240613   7.437   2.410   3.670
13558TIP3   OH240614   3.803   6.997   1.716
13558TIP3    H140615   3.726   6.951   1.749
13558TIP3    H240616   3.822   7.064   1.781
13559TIP3   OH240617   8.086   7.355   2.132
13559TIP3    H140618   8.003   7.375   2.176
13559TIP3    H240619   8.150   7.412   2.175
13560TIP3   OH240620   0.536   1.243   2.154
13560TIP3    H140621   0.584   1.296   2.217
13560TIP3    H240622   0.455   1.291   2.139
13561TIP3   OH240623   5.536   6.743   4.466
13561TIP3    H140624   5.539   6.740   4.562
13561TIP3    H240625   5.596   6.813   4.442
13562TIP3   OH240626   0.186   1.172   2.619
13562TIP3    H140627   0.272   1.168   2.577
13562TIP3    H240628   0.156   1.081   2.622
13563TIP3   OH240629   2.979   1.359   4.907
13563TIP3    H140630   3.021   1.443   4.889
13563TIP3    H240631   2.885   1.377   4.901
13564TIP3   OH240632   5.334   4.563   6.096
13564TIP3    H140633   5.263   4.592   6.039
13564TIP3    H240634   5.341   4.469   6.081
13565TIP3   OH240635   2.911   1.914   4.629
13565TIP3    H140636   2.959   1.946   4.552
13565TIP3    H240637   2.964   1.940   4.704
13566TIP3   OH240638   1.398   2.463   3.516
13566TIP3    H140639   1.488   2.461   3.484
13566TIP3    H240640   1.355   2.529   3.462
13567TIP3   OH240641   4.495   4.965   6.724
13567TIP3    H140642   4.574   4.978   6.776
13567TIP3    H240643   4.450   4.891   6.766
13568TIP3   OH240644   8.343   0.881   0.614
13568TIP3    H140645   8.286   0.953   0.585
13568TIP3    H240646   8.419   0.886   0.556
13569TIP3   OH240647   6.954   5.951   6.392
13569TIP3    H140648   6.998   5.891   6.331
13569TIP3    H240649   7.004   5.944   6.473
13570TIP3   OH240650   7.499   2.381   3.140
13570TIP3    H140651   7.491   2.448   3.072
13570TIP3    H240652   7.565   2.416   3.200
13571TIP3   OH240653   4.847   1.859   2.287
13571TIP3    H140654   4.873   1.944   2.321
13571TIP3    H240655   4.841   1.803   2.364
13572TIP3   OH240656   2.594   6.384   6.318
13572TIP3    H140657   2.522   6.396   6.256
13572TIP3    H240658   2.551   6.356   6.399
13573TIP3   OH240659   4.760   4.214   6.532
13573TIP3    H140660   4.700   4.139   6.519
13573TIP3    H240661   4.817   4.212   6.455
13574TIP3   OH240662   5.175   7.644   5.826
13574TIP3    H140663   5.255   7.664   5.777
13574TIP3    H240664   5.109   7.704   5.790
13575TIP3   OH240665   6.713   6.892   2.491
13575TIP3    H140666   6.631   6.853   2.521
13575TIP3    H240667   6.690   6.933   2.407
13576TIP3   OH240668   2.758   5.826   5.695
13576TIP3    H140669   2.846   5.790   5.700
13576TIP3    H240670   2.764   5.896   5.630
13577TIP3   OH240671   4.866   4.465   1.428
13577TIP3    H140672   4.869   4.523   1.504
13577TIP3    H240673   4.922   4.391   1.452
13578TIP3   OH240674   0.017   0.235   3.198
13578TIP3    H140675   0.019   0.239   3.103
13578TIP3    H240676   0.014   0.326   3.226
13579TIP3   OH240677   2.633   2.510   2.267
13579TIP3    H140678   2.588   2.455   2.331
13579TIP3    H240679   2.587   2.594   2.271
13580TIP3   OH240680   8.134   0.765   3.333
13580TIP3    H140681   8.091   0.848   3.313
13580TIP3    H240682   8.207   0.790   3.390
13581TIP3   OH240683   1.400   5.043   3.417
13581TIP3    H140684   1.326   5.047   3.356
13581TIP3    H240685   1.425   4.951   3.418
13582TIP3   OH240686   8.086   1.229   2.015
13582TIP3    H140687   8.050   1.228   2.104
13582TIP3    H240688   8.171   1.185   2.023
13583TIP3   OH240689   3.700   6.627   5.849
13583TIP3    H140690   3.701   6.632   5.753
13583TIP3    H240691   3.620   6.579   5.870
13584TIP3   OH240692   1.806   3.817   1.496
13584TIP3    H140693   1.878   3.858   1.448
13584TIP3    H240694   1.840   3.732   1.522
13585TIP3   OH240695   4.844   0.311   6.458
13585TIP3    H140696   4.897   0.388   6.482
13585TIP3    H240697   4.908   0.245   6.431
13586TIP3   OH240698   7.854   0.319   2.967
13586TIP3    H140699   7.775   0.322   2.913
13586TIP3    H240700   7.879   0.411   2.977
13587TIP3   OH240701   3.323   0.966   4.952
13587TIP3    H140702   3.267   0.931   4.883
13587TIP3    H240703   3.268   0.963   5.031
13588TIP3   OH240704   5.935   4.525   3.260
13588TIP3    H140705   6.025   4.553   3.244
13588TIP3    H240706   5.939   4.476   3.342
13589TIP3   OH240707   3.320   1.552   1.246
13589TIP3    H140708   3.315   1.533   1.339
13589TIP3    H240709   3.352   1.470   1.207
13590TIP3   OH240710   7.197   2.915   3.109
13590TIP3    H140711   7.269   2.973   3.085
13590TIP3    H240712   7.118   2.961   3.079
13591TIP3   OH240713   0.291   3.932   3.598
13591TIP3    H140714   0.329   4.018   3.580
13591TIP3    H240715   0.307   3.919   3.692
13592TIP3   OH240716   6.727   5.485   5.657
13592TIP3    H140717   6.817   5.452   5.665
13592TIP3    H240718   6.736   5.567   5.608
13593TIP3   OH240719   3.085   2.313   4.349
13593TIP3    H140720   3.028   2.339   4.421
13593TIP3    H240721   3.129   2.394   4.323
13594TIP3   OH240722   6.572   5.301   4.719
13594TIP3    H140723   6.526   5.243   4.780
13594TIP3    H240724   6.656   5.257   4.703
13595TIP3   OH240725   3.320   6.583   2.245
13595TIP3    H140726   3.274   6.588   2.161
13595TIP3    H240727   3.293   6.661   2.292
13596TIP3   OH240728   8.130   6.709   4.813
13596TIP3    H140729   8.097   6.773   4.877
13596TIP3    H240730   8.058   6.646   4.803
13597TIP3   OH240731   7.457   3.583   1.353
13597TIP3    H140732   7.547   3.606   1.330
13597TIP3    H240733   7.423   3.537   1.276
13598TIP3   OH240734   7.400   3.330   4.797
13598TIP3    H140735   7.386   3.239   4.824
13598TIP3    H240736   7.325   3.350   4.741
13599TIP3   OH240737   2.831   6.541   3.042
13599TIP3    H140738   2.764   6.602   3.012
13599TIP3    H240739   2.870   6.507   2.962
13600TIP3   OH240740   0.308   5.867   4.636
13600TIP3    H140741   0.303   5.914   4.720
13600TIP3    H240742   0.392   5.893   4.599
13601TIP3   OH240743   5.340   5.647   0.301
13601TIP3    H140744   5.432   5.676   0.305
13601TIP3    H240745   5.313   5.667   0.211
13602TIP3   OH240746   1.331   3.560   4.448
13602TIP3    H140747   1.390   3.499   4.492
13602TIP3    H240748   1.243   3.528   4.468
13603TIP3   OH240749   6.592   0.086   5.476
13603TIP3    H140750   6.624   0.056   5.391
13603TIP3    H240751   6.555   0.172   5.459
13604TIP3   OH240752   7.439   4.192   3.620
13604TIP3    H140753   7.441   4.147   3.536
13604TIP3    H240754   7.457   4.124   3.685
13605TIP3   OH240755   5.928   1.732   1.876
13605TIP3    H140756   5.842   1.761   1.846
13605TIP3    H240757   5.922   1.732   1.971
13606TIP3   OH240758   7.600   0.322   2.586
13606TIP3    H140759   7.514   0.309   2.626
13606TIP3    H240760   7.652   0.247   2.616
13607TIP3   OH240761   7.941   6.879   3.608
13607TIP3    H140762   7.920   6.824   3.532
13607TIP3    H240763   7.942   6.819   3.682
13608TIP3   OH240764   8.289   1.112   2.934
13608TIP3    H140765   8.366   1.056   2.932
13608TIP3    H240766   8.268   1.121   3.027
13609TIP3   OH240767   0.187   2.396   1.855
13609TIP3    H140768   0.113   2.451   1.829
13609TIP3    H240769   0.264   2.442   1.822
13610TIP3   OH240770   0.758   2.146   1.660
13610TIP3    H140771   0.808   2.205   1.604
13610TIP3    H240772   0.787   2.166   1.749
13611TIP3   OH240773   1.269   4.578   5.094
13611TIP3    H140774   1.303   4.586   5.006
13611TIP3    H240775   1.175   4.563   5.082
13612TIP3   OH240776   1.766   2.922   0.545
13612TIP3    H140777   1.721   2.842   0.517
13612TIP3    H240778   1.696   2.985   0.560
13613TIP3   OH240779   1.033   4.085   2.119
13613TIP3    H140780   0.979   4.131   2.184
13613TIP3    H240781   1.030   4.140   2.041
13614TIP3   OH240782   2.259   4.690   6.248
13614TIP3    H140783   2.240   4.600   6.277
13614TIP3    H240784   2.340   4.682   6.197
13615TIP3   OH240785   4.763   7.473   4.009
13615TIP3    H140786   4.681   7.486   4.056
13615TIP3    H240787   4.826   7.528   4.055
13616TIP3   OH240788   5.806   6.881   4.493
13616TIP3    H140789   5.878   6.916   4.440
13616TIP3    H240790   5.771   6.958   4.538
13617TIP3   OH240791   5.968   0.613   6.509
13617TIP3    H140792   5.947   0.676   6.441
13617TIP3    H240793   5.999   0.536   6.462
13618TIP3   OH240794   3.473   1.526   3.830
13618TIP3    H140795   3.552   1.502   3.878
13618TIP3    H240796   3.402   1.510   3.891
13619TIP3   OH240797   3.623   5.795   5.689
13619TIP3    H140798   3.536   5.835   5.695
13619TIP3    H240799   3.614   5.713   5.737
13620TIP3   OH240800   3.401   3.061   5.231
13620TIP3    H140801   3.382   3.080   5.323
13620TIP3    H240802   3.381   3.142   5.185
13621TIP3   OH240803   6.711   5.019   3.845
13621TIP3    H140804   6.650   5.072   3.896
13621TIP3    H240805   6.711   4.934   3.889
13622TIP3   OH240806   1.413   2.650   5.064
13622TIP3    H140807   1.451   2.568   5.034
13622TIP3    H240808   1.337   2.624   5.116
13623TIP3   OH240809   3.174   4.471   2.989
13623TIP3    H140810   3.172   4.536   2.918
13623TIP3    H240811   3.250   4.496   3.042
13624TIP3   OH240812   4.958   5.859   5.192
13624TIP3    H140813   4.956   5.880   5.285
13624TIP3    H240814   4.989   5.768   5.189
13625TIP3   OH240815   3.201   7.357   4.511
13625TIP3    H140816   3.117   7.372   4.555
13625TIP3    H240817   3.244   7.443   4.514
13626TIP3   OH240818   3.725   4.493   4.865
13626TIP3    H140819   3.648   4.467   4.916
13626TIP3    H240820   3.691   4.506   4.776
13627TIP3   OH240821   2.438   0.559   4.800
13627TIP3    H140822   2.527   0.525   4.788
13627TIP3    H240823   2.447   0.626   4.868
13628TIP3   OH240824   3.374   4.867   2.333
13628TIP3    H140825   3.312   4.885   2.262
13628TIP3    H240826   3.321   4.827   2.401
13629TIP3   OH240827   3.092   7.284   3.081
13629TIP3    H140828   3.004   7.275   3.117
13629TIP3    H240829   3.082   7.265   2.988
13630TIP3   OH240830   2.723   2.781   4.171
13630TIP3    H140831   2.793   2.814   4.227
13630TIP3    H240832   2.666   2.857   4.156
13631TIP3   OH240833   1.933   7.031   2.513
13631TIP3    H140834   1.843   7.000   2.524
13631TIP3    H240835   1.930   7.122   2.541
13632TIP3   OH240836   3.062   6.631   2.426
13632TIP3    H140837   3.102   6.575   2.493
13632TIP3    H240838   3.008   6.571   2.375
13633TIP3   OH240839   7.749   3.614   4.931
13633TIP3    H140840   7.671   3.561   4.945
13633TIP3    H240841   7.785   3.627   5.019
13634TIP3   OH240842   3.834   0.413   2.733
13634TIP3    H140843   3.921   0.452   2.727
13634TIP3    H240844   3.775   0.485   2.709
13635TIP3   OH240845   2.120   0.079   1.417
13635TIP3    H140846   2.059   0.132   1.469
13635TIP3    H240847   2.111   0.112   1.328
13636TIP3   OH240848   1.981   5.002   2.331
13636TIP3    H140849   1.978   4.972   2.422
13636TIP3    H240850   1.960   5.095   2.337
13637TIP3   OH240851   3.259   3.135   1.776
13637TIP3    H140852   3.301   3.153   1.860
13637TIP3    H240853   3.185   3.079   1.797
13638TIP3   OH240854   4.777   1.106   4.207
13638TIP3    H140855   4.838   1.152   4.266
13638TIP3    H240856   4.787   1.150   4.123
13639TIP3   OH240857   6.390   5.874   0.123
13639TIP3    H140858   6.474   5.919   0.113
13639TIP3    H240859   6.385   5.814   0.049
13640TIP3   OH240860   8.109   1.971   0.011
13640TIP3    H140861   8.058   1.894  -0.015
13640TIP3    H240862   8.055   2.014   0.078
13641TIP3   OH240863   0.881   0.670   2.828
13641TIP3    H140864   0.809   0.658   2.765
13641TIP3    H240865   0.917   0.756   2.806
13642TIP3   OH240866   5.788   1.943   6.210
13642TIP3    H140867   5.713   1.964   6.267
13642TIP3    H240868   5.836   1.876   6.258
13643TIP3   OH240869   0.879   3.092   5.748
13643TIP3    H140870   0.828   3.027   5.700
13643TIP3    H240871   0.921   3.042   5.818
13644TIP3   OH240872   5.016   5.369   3.021
13644TIP3    H140873   4.999   5.351   3.113
13644TIP3    H240874   4.984   5.458   3.007
13645TIP3   OH240875   4.390   4.875   3.852
13645TIP3    H140876   4.386   4.841   3.762
13645TIP3    H240877   4.443   4.811   3.899
13646TIP3   OH240878   4.148   1.708   6.322
13646TIP3    H140879   4.169   1.614   6.320
13646TIP3    H240880   4.060   1.713   6.285
13647TIP3   OH240881   7.764   6.553   2.202
13647TIP3    H140882   7.727   6.472   2.166
13647TIP3    H240883   7.738   6.621   2.139
13648TIP3   OH240884   7.778   7.582   2.561
13648TIP3    H140885   7.751   7.503   2.515
13648TIP3    H240886   7.835   7.552   2.632
13649TIP3   OH240887   2.299   1.989   3.579
13649TIP3    H140888   2.282   1.898   3.604
13649TIP3    H240889   2.294   1.989   3.483
13650TIP3   OH240890   5.519   4.475   2.938
13650TIP3    H140891   5.573   4.429   3.001
13650TIP3    H240892   5.577   4.541   2.900
13651TIP3   OH240893   8.266   1.355   2.815
13651TIP3    H140894   8.281   1.264   2.842
13651TIP3    H240895   8.349   1.383   2.776
13652TIP3   OH240896   5.573   4.705   5.741
13652TIP3    H140897   5.521   4.625   5.735
13652TIP3    H240898   5.664   4.674   5.741
13653TIP3   OH240899   4.056   1.683   0.655
13653TIP3    H140900   4.078   1.591   0.668
13653TIP3    H240901   4.090   1.728   0.733
13654TIP3   OH240902   6.206   0.920   4.474
13654TIP3    H140903   6.208   0.962   4.560
13654TIP3    H240904   6.115   0.928   4.445
13655TIP3   OH240905   4.743   7.568   5.407
13655TIP3    H140906   4.801   7.523   5.347
13655TIP3    H240907   4.796   7.580   5.487
13656TIP3   OH240908   5.453   4.640   3.228
13656TIP3    H140909   5.418   4.680   3.308
13656TIP3    H240910   5.427   4.548   3.234
13657TIP3   OH240911   2.369   7.352   5.103
13657TIP3    H140912   2.433   7.385   5.039
13657TIP3    H240913   2.310   7.298   5.050
13658TIP3   OH240914   7.068   2.141   1.913
13658TIP3    H140915   7.157   2.137   1.878
13658TIP3    H240916   7.061   2.229   1.950
13659TIP3   OH240917   7.939   6.466   4.265
13659TIP3    H140918   7.929   6.507   4.179
13659TIP3    H240919   7.980   6.381   4.247
13660TIP3   OH240920   0.675   0.896   1.142
13660TIP3    H140921   0.632   0.812   1.123
13660TIP3    H240922   0.768   0.878   1.133
13661TIP3   OH240923   5.032   0.333   2.970
13661TIP3    H140924   5.038   0.243   3.001
13661TIP3    H240925   5.074   0.385   3.039
13662TIP3   OH240926   6.921   7.895   4.588
13662TIP3    H140927   6.832   7.913   4.616
13662TIP3    H240928   6.956   7.835   4.654
13663TIP3   OH240929   3.621   0.921   2.432
13663TIP3    H140930   3.531   0.929   2.400
13663TIP3    H240931   3.625   0.979   2.508
13664TIP3   OH240932   4.192   4.238   4.030
13664TIP3    H140933   4.207   4.150   3.994
13664TIP3    H240934   4.266   4.252   4.089
13665TIP3   OH240935   8.348   0.391   1.354
13665TIP3    H140936   8.347   0.484   1.334
13665TIP3    H240937   8.345   0.347   1.269
13666TIP3   OH240938   2.611   7.158   4.182
13666TIP3    H140939   2.520   7.135   4.163
13666TIP3    H240940   2.612   7.254   4.184
13667TIP3   OH240941   5.675   6.829   5.913
13667TIP3    H140942   5.751   6.823   5.971
13667TIP3    H240943   5.630   6.745   5.922
13668TIP3   OH240944   5.565   5.442   4.471
13668TIP3    H140945   5.559   5.384   4.395
13668TIP3    H240946   5.659   5.447   4.489
13669TIP3   OH240947   4.793   6.103   0.047
13669TIP3    H140948   4.777   6.128   0.138
13669TIP3    H240949   4.796   6.185  -0.001
13670TIP3   OH240950   2.833   5.938   1.097
13670TIP3    H140951   2.870   5.985   1.171
13670TIP3    H240952   2.864   5.986   1.020
13671TIP3   OH240953   1.603   1.962   2.851
13671TIP3    H140954   1.643   2.045   2.824
13671TIP3    H240955   1.509   1.977   2.845
13672TIP3   OH240956   6.419   1.773   0.691
13672TIP3    H140957   6.490   1.722   0.652
13672TIP3    H240958   6.362   1.794   0.617
13673TIP3   OH240959   6.647   4.787   5.737
13673TIP3    H140960   6.559   4.764   5.768
13673TIP3    H240961   6.636   4.874   5.697
13674TIP3   OH240962   1.319   6.628   5.846
13674TIP3    H140963   1.246   6.568   5.829
13674TIP3    H240964   1.393   6.570   5.866
13675TIP3   OH240965   1.137   2.578   3.889
13675TIP3    H140966   1.150   2.570   3.983
13675TIP3    H240967   1.051   2.619   3.879
13676TIP3   OH240968   1.155   2.958   0.945
13676TIP3    H140969   1.120   3.047   0.932
13676TIP3    H240970   1.203   2.939   0.864
13677TIP3   OH240971   3.997   3.519   1.711
13677TIP3    H140972   4.070   3.457   1.704
13677TIP3    H240973   3.969   3.534   1.621
13678TIP3   OH240974   5.386   5.656   6.664
13678TIP3    H140975   5.369   5.708   6.585
13678TIP3    H240976   5.315   5.680   6.724
13679TIP3   OH240977   4.399   1.530   2.057
13679TIP3    H140978   4.370   1.593   2.124
13679TIP3    H240979   4.384   1.444   2.097
13680TIP3   OH240980   2.711   2.092   4.885
13680TIP3    H140981   2.715   2.105   4.790
13680TIP3    H240982   2.647   2.157   4.916
13681TIP3   OH240983   4.786   5.193   0.028
13681TIP3    H140984   4.761   5.140   0.104
13681TIP3    H240985   4.865   5.150  -0.006
13682TIP3   OH240986   6.890   7.174   1.087
13682TIP3    H140987   6.866   7.081   1.080
13682TIP3    H240988   6.814   7.221   1.054
13683TIP3   OH240989   4.296   6.514   3.015
13683TIP3    H140990   4.329   6.536   3.101
13683TIP3    H240991   4.352   6.562   2.954
13684TIP3   OH240992   7.935   4.984   5.438
13684TIP3    H140993   7.906   4.931   5.364
13684TIP3    H240994   7.861   4.982   5.499
13685TIP3   OH240995   1.919   6.143   1.420
13685TIP3    H140996   1.985   6.074   1.420
13685TIP3    H240997   1.921   6.179   1.509
13686TIP3   OH240998   7.964   3.729   0.970
13686TIP3    H140999   7.871   3.749   0.968
13686TIP3    H241000   7.970   3.644   1.013
13687TIP3   OH241001   1.910   0.131   2.944
13687TIP3    H141002   1.918   0.088   3.029
13687TIP3    H241003   1.817   0.131   2.925
13688TIP3   OH241004   4.749   7.637   0.474
13688TIP3    H141005   4.762   7.723   0.515
13688TIP3    H241006   4.835   7.595   0.480
13689TIP3   OH241007   4.770   2.387   5.698
13689TIP3    H141008   4.775   2.467   5.750
13689TIP3    H241009   4.742   2.319   5.760
13690TIP3   OH241010   5.319   2.430   0.359
13690TIP3    H141011   5.272   2.394   0.283
13690TIP3    H241012   5.337   2.521   0.335
13691TIP3   OH241013   4.788   6.483   2.846
13691TIP3    H141014   4.804   6.390   2.830
13691TIP3    H241015   4.721   6.508   2.783
13692TIP3   OH241016   4.435   4.125   1.531
13692TIP3    H141017   4.420   4.150   1.622
13692TIP3    H241018   4.474   4.202   1.490
13693TIP3   OH241019   5.097   0.249   0.378
13693TIP3    H141020   5.073   0.270   0.288
13693TIP3    H241021   5.026   0.193   0.409
13694TIP3   OH241022   7.431   3.672   4.411
13694TIP3    H141023   7.479   3.755   4.414
13694TIP3    H241024   7.457   3.627   4.490
13695TIP3   OH241025   2.705   0.402   4.236
13695TIP3    H141026   2.622   0.383   4.193
13695TIP3    H241027   2.747   0.317   4.248
13696TIP3   OH241028   8.234   2.477   5.782
13696TIP3    H141029   8.308   2.441   5.832
13696TIP3    H241030   8.208   2.555   5.832
13697TIP3   OH241031   0.524   2.861   3.203
13697TIP3    H141032   0.579   2.905   3.268
13697TIP3    H241033   0.557   2.771   3.202
13698TIP3   OH241034   6.684   5.024   3.222
13698TIP3    H141035   6.649   5.024   3.133
13698TIP3    H241036   6.616   4.984   3.275
13699TIP3   OH241037   2.845   1.119   4.302
13699TIP3    H141038   2.826   1.050   4.239
13699TIP3    H241039   2.870   1.194   4.248
13700TIP3   OH241040   1.511   1.250   3.007
13700TIP3    H141041   1.585   1.192   3.026
13700TIP3    H241042   1.483   1.281   3.092
13701TIP3   OH241043   7.700   1.023   1.381
13701TIP3    H141044   7.790   1.022   1.351
13701TIP3    H241045   7.667   1.110   1.355
13702TIP3   OH241046   4.386   6.093   0.962
13702TIP3    H141047   4.361   6.062   1.049
13702TIP3    H241048   4.420   6.016   0.918
13703TIP3   OH241049   7.662   6.866   3.138
13703TIP3    H141050   7.758   6.866   3.133
13703TIP3    H241051   7.636   6.951   3.103
13704TIP3   OH241052   1.238   2.017   4.943
13704TIP3    H141053   1.281   2.003   5.028
13704TIP3    H241054   1.260   1.939   4.892
13705TIP3   OH241055   6.112   1.658   1.468
13705TIP3    H141056   6.059   1.737   1.478
13705TIP3    H241057   6.140   1.636   1.557
13706TIP3   OH241058   7.017   4.370   1.950
13706TIP3    H141059   7.016   4.448   2.007
13706TIP3    H241060   7.109   4.359   1.926
13707TIP3   OH241061   1.375   4.421   1.012
13707TIP3    H141062   1.415   4.378   1.088
13707TIP3    H241063   1.324   4.352   0.969
13708TIP3   OH241064   1.845   3.346   4.392
13708TIP3    H141065   1.814   3.390   4.470
13708TIP3    H241066   1.843   3.253   4.414
13709TIP3   OH241067   5.783   6.654   2.190
13709TIP3    H141068   5.738   6.608   2.262
13709TIP3    H241069   5.833   6.723   2.233
13710TIP3   OH241070   4.527   6.307   4.085
13710TIP3    H141071   4.445   6.320   4.133
13710TIP3    H241072   4.589   6.369   4.124
13711TIP3   OH241073   6.121   5.268   0.139
13711TIP3    H141074   6.032   5.282   0.169
13711TIP3    H241075   6.173   5.261   0.219
13712TIP3   OH241076   7.474   4.079   3.381
13712TIP3    H141077   7.446   3.995   3.346
13712TIP3    H241078   7.564   4.089   3.351
13713TIP3   OH241079   1.100   1.734   4.370
13713TIP3    H141080   1.025   1.675   4.377
13713TIP3    H241081   1.138   1.713   4.284
13714TIP3   OH241082   0.033   4.985   4.162
13714TIP3    H141083   0.061   4.906   4.209
13714TIP3    H241084  -0.062   4.986   4.172
13715TIP3   OH241085   0.470   2.804   2.314
13715TIP3    H141086   0.511   2.850   2.241
13715TIP3    H241087   0.376   2.820   2.302
13716TIP3   OH241088   0.078   3.819   6.028
13716TIP3    H141089   0.169   3.789   6.023
13716TIP3    H241090   0.029   3.756   5.975
13717TIP3   OH241091   0.657   5.481   0.482
13717TIP3    H141092   0.621   5.439   0.404
13717TIP3    H241093   0.591   5.545   0.508
13718TIP3   OH241094   1.789   1.869   0.550
13718TIP3    H141095   1.773   1.952   0.596
13718TIP3    H241096   1.862   1.888   0.491
13719TIP3   OH241097   3.614   6.409   6.398
13719TIP3    H141098   3.588   6.339   6.458
13719TIP3    H241099   3.701   6.436   6.429
13720TIP3   OH241100   2.064   3.613   6.731
13720TIP3    H141101   2.136   3.652   6.780
13720TIP3    H241102   1.993   3.677   6.738
13721TIP3   OH241103   1.653   3.881   4.421
13721TIP3    H141104   1.712   3.808   4.402
13721TIP3    H241105   1.646   3.928   4.338
13722TIP3   OH241106   6.995   6.519   1.408
13722TIP3    H141107   7.057   6.566   1.352
13722TIP3    H241108   6.911   6.563   1.392
13723TIP3   OH241109   7.011   5.560   2.068
13723TIP3    H141110   7.085   5.618   2.084
13723TIP3    H241111   6.977   5.540   2.155
13724TIP3   OH241112   7.228   4.677   1.725
13724TIP3    H141113   7.135   4.680   1.702
13724TIP3    H241114   7.229   4.662   1.820
13725TIP3   OH241115   1.531   1.457   0.752
13725TIP3    H141116   1.537   1.543   0.711
13725TIP3    H241117   1.620   1.440   0.785
13726TIP3   OH241118   8.327   5.969   3.360
13726TIP3    H141119   8.315   6.050   3.410
13726TIP3    H241120   8.269   5.906   3.402
13727TIP3   OH241121   6.712   1.416   1.371
13727TIP3    H141122   6.782   1.460   1.322
13727TIP3    H241123   6.721   1.450   1.460
13728TIP3   OH241124   6.536   4.698   3.814
13728TIP3    H141125   6.544   4.744   3.898
13728TIP3    H241126   6.536   4.606   3.838
13729TIP3   OH241127   8.150   3.201   0.604
13729TIP3    H141128   8.217   3.263   0.574
13729TIP3    H241129   8.115   3.241   0.684
13730TIP3   OH241130   4.166   3.928   6.704
13730TIP3    H141131   4.093   3.938   6.643
13730TIP3    H241132   4.226   4.000   6.680
13731TIP3   OH241133   2.386   7.562   4.394
13731TIP3    H141134   2.469   7.528   4.427
13731TIP3    H241135   2.397   7.657   4.394
13732TIP3   OH241136   7.343   5.255   6.096
13732TIP3    H141137   7.382   5.311   6.164
13732TIP3    H241138   7.330   5.314   6.021
13733TIP3   OH241139   0.534   3.426   3.943
13733TIP3    H141140   0.530   3.349   3.887
13733TIP3    H241141   0.619   3.465   3.924
13734TIP3   OH241142   3.469   7.261   5.233
13734TIP3    H141143   3.393   7.319   5.222
13734TIP3    H241144   3.488   7.230   5.145
13735TIP3   OH241145   6.723   3.753   1.963
13735TIP3    H141146   6.642   3.803   1.972
13735TIP3    H241147   6.755   3.743   2.053
13736TIP3   OH241148   0.050   6.793   3.155
13736TIP3    H141149   0.136   6.754   3.139
13736TIP3    H241150   0.060   6.884   3.126
13737TIP3   OH241151   6.668   7.556   3.351
13737TIP3    H141152   6.607   7.543   3.279
13737TIP3    H241153   6.645   7.488   3.415
13738TIP3   OH241154   1.311   1.591   0.418
13738TIP3    H141155   1.369   1.658   0.455
13738TIP3    H241156   1.369   1.536   0.367
13739TIP3   OH241157   5.348   5.903   0.515
13739TIP3    H141158   5.365   5.991   0.547
13739TIP3    H241159   5.428   5.879   0.467
13740TIP3   OH241160   0.631   3.070   4.034
13740TIP3    H141161   0.600   3.143   4.088
13740TIP3    H241162   0.659   3.004   4.098
13741TIP3   OH241163   7.955   4.062   2.532
13741TIP3    H141164   7.996   3.982   2.500
13741TIP3    H241165   7.956   4.121   2.456
13742TIP3   OH241166   7.910   4.234   4.706
13742TIP3    H141167   7.981   4.264   4.650
13742TIP3    H241168   7.925   4.280   4.789
13743TIP3   OH241169   0.540   6.508   0.623
13743TIP3    H141170   0.521   6.602   0.628
13743TIP3    H241171   0.617   6.496   0.679
13744TIP3   OH241172   6.823   7.694   1.982
13744TIP3    H141173   6.858   7.783   1.992
13744TIP3    H241174   6.729   7.707   1.969
13745TIP3   OH241175   5.207   6.011   4.276
13745TIP3    H141176   5.238   5.926   4.247
13745TIP3    H241177   5.284   6.068   4.272
13746TIP3   OH241178   0.167   6.924   2.788
13746TIP3    H141179   0.075   6.897   2.785
13746TIP3    H241180   0.167   7.007   2.834
13747TIP3   OH241181   0.708   2.538   4.672
13747TIP3    H141182   0.692   2.525   4.579
13747TIP3    H241183   0.748   2.456   4.700
13748TIP3   OH241184   3.804   5.625   0.751
13748TIP3    H141185   3.872   5.583   0.699
13748TIP3    H241186   3.775   5.699   0.697
13749TIP3   OH241187   5.604   0.697   5.333
13749TIP3    H141188   5.555   0.665   5.409
13749TIP3    H241189   5.666   0.760   5.369
13750TIP3   OH241190   5.126   1.334   2.009
13750TIP3    H141191   5.050   1.276   2.008
13750TIP3    H241192   5.116   1.388   1.931
13751TIP3   OH241193   6.749   2.420   1.434
13751TIP3    H141194   6.844   2.423   1.447
13751TIP3    H241195   6.714   2.477   1.503
13752TIP3   OH241196   1.893   2.788   1.994
13752TIP3    H141197   1.972   2.792   2.048
13752TIP3    H241198   1.823   2.822   2.050
13753TIP3   OH241199   7.319   2.799   0.767
13753TIP3    H141200   7.235   2.822   0.805
13753TIP3    H241201   7.384   2.832   0.830
13754TIP3   OH241202   6.901   3.124   4.471
13754TIP3    H141203   6.830   3.117   4.407
13754TIP3    H241204   6.981   3.131   4.419
13755TIP3   OH241205   2.499   1.664   0.165
13755TIP3    H141206   2.583   1.622   0.183
13755TIP3    H241207   2.518   1.758   0.167
13756TIP3   OH241208   0.419   2.165   3.338
13756TIP3    H141209   0.360   2.233   3.305
13756TIP3    H241210   0.428   2.185   3.431
13757TIP3   OH241211   0.187   0.694   3.389
13757TIP3    H141212   0.210   0.699   3.296
13757TIP3    H241213   0.271   0.683   3.434
13758TIP3   OH241214   8.392   5.964   4.103
13758TIP3    H141215   8.298   5.943   4.095
13758TIP3    H241216   8.435   5.878   4.106
13759TIP3   OH241217   1.505   2.660   4.037
13759TIP3    H141218   1.491   2.633   3.946
13759TIP3    H241219   1.420   2.645   4.080
13760TIP3   OH241220   3.249   5.622   5.826
13760TIP3    H141221   3.303   5.596   5.751
13760TIP3    H241222   3.284   5.572   5.900
13761TIP3   OH241223   5.537   0.772   3.437
13761TIP3    H141224   5.632   0.773   3.434
13761TIP3    H241225   5.514   0.679   3.432
13762TIP3   OH241226   0.485   6.702   3.374
13762TIP3    H141227   0.427   6.718   3.300
13762TIP3    H241228   0.427   6.669   3.443
13763TIP3   OH241229   7.305   4.738   5.331
13763TIP3    H141230   7.227   4.788   5.353
13763TIP3    H241231   7.360   4.799   5.281
13764TIP3   OH241232   1.134   3.753   4.711
13764TIP3    H141233   1.050   3.729   4.750
13764TIP3    H241234   1.199   3.722   4.774
13765TIP3   OH241235   4.698   1.975   2.629
13765TIP3    H141236   4.787   2.003   2.611
13765TIP3    H241237   4.705   1.915   2.703
13766TIP3   OH241238   0.676   7.455   5.107
13766TIP3    H141239   0.738   7.510   5.060
13766TIP3    H241240   0.599   7.452   5.049
13767TIP3   OH241241   1.447  -0.026   3.948
13767TIP3    H141242   1.477   0.054   3.991
13767TIP3    H241243   1.432   0.000   3.857
13768TIP3   OH241244   4.623   7.311   1.381
13768TIP3    H141245   4.625   7.306   1.286
13768TIP3    H241246   4.709   7.344   1.406
13769TIP3   OH241247   4.438   5.971   4.793
13769TIP3    H141248   4.379   5.956   4.719
13769TIP3    H241249   4.410   5.910   4.860
13770TIP3   OH241250   3.882   4.222   4.687
13770TIP3    H141251   3.829   4.222   4.607
13770TIP3    H241252   3.852   4.145   4.735
13771TIP3   OH241253   1.253   4.047   6.362
13771TIP3    H141254   1.298   3.962   6.360
13771TIP3    H241255   1.298   4.096   6.431
13772TIP3   OH241256   6.085   7.587   6.694
13772TIP3    H141257   6.043   7.537   6.764
13772TIP3    H241258   6.013   7.611   6.635
13773TIP3   OH241259   0.622   4.532   2.307
13773TIP3    H141260   0.640   4.517   2.400
13773TIP3    H241261   0.539   4.580   2.306
13774TIP3   OH241262   5.421   0.359   5.390
13774TIP3    H141263   5.401   0.414   5.466
13774TIP3    H241264   5.424   0.270   5.425
13775TIP3   OH241265   5.173   1.705   6.052
13775TIP3    H141266   5.256   1.722   6.009
13775TIP3    H241267   5.119   1.664   5.985
13776TIP3   OH241268   7.665   5.811   6.061
13776TIP3    H141269   7.605   5.819   6.135
13776TIP3    H241270   7.751   5.830   6.097
13777TIP3   OH241271   7.887   3.050   0.090
13777TIP3    H141272   7.958   3.034   0.152
13777TIP3    H241273   7.830   2.974   0.098
13778TIP3   OH241274   1.019   0.487   0.690
13778TIP3    H141275   0.982   0.456   0.773
13778TIP3    H241276   0.993   0.579   0.685
13779TIP3   OH241277   2.404   0.811   2.311
13779TIP3    H141278   2.473   0.863   2.269
13779TIP3    H241279   2.439   0.790   2.398
13780TIP3   OH241280   0.187   2.934   2.050
13780TIP3    H141281   0.229   3.014   2.081
13780TIP3    H241282   0.162   2.953   1.960
13781TIP3   OH241283   7.299   5.530   0.919
13781TIP3    H141284   7.336   5.538   0.831
13781TIP3    H241285   7.374   5.537   0.978
13782TIP3   OH241286   1.251   2.104   0.813
13782TIP3    H141287   1.189   2.176   0.805
13782TIP3    H241288   1.291   2.116   0.899
13783TIP3   OH241289   8.361   1.233   6.227
13783TIP3    H141290   8.412   1.221   6.148
13783TIP3    H241291   8.306   1.309   6.210
13784TIP3   OH241292   4.204   2.565   0.260
13784TIP3    H141293   4.139   2.607   0.316
13784TIP3    H241294   4.163   2.481   0.236
13785TIP3   OH241295   3.546   6.662   2.405
13785TIP3    H141296   3.505   6.613   2.334
13785TIP3    H241297   3.481   6.727   2.430
13786TIP3   OH241298   6.849   1.163   4.611
13786TIP3    H141299   6.779   1.180   4.547
13786TIP3    H241300   6.870   1.071   4.600
13787TIP3   OH241301   5.131   5.402   4.840
13787TIP3    H141302   5.066   5.362   4.782
13787TIP3    H241303   5.085   5.474   4.882
13788TIP3   OH241304   2.605   5.634   4.685
13788TIP3    H141305   2.687   5.626   4.733
13788TIP3    H241306   2.575   5.722   4.704
13789TIP3   OH241307   2.667   0.850   3.733
13789TIP3    H141308   2.651   0.844   3.639
13789TIP3    H241309   2.755   0.888   3.740
13790TIP3   OH241310   2.750   1.841   5.959
13790TIP3    H141311   2.789   1.928   5.963
13790TIP3    H241312   2.657   1.857   5.943
13791TIP3   OH241313   4.053   5.445   2.301
13791TIP3    H141314   4.047   5.489   2.386
13791TIP3    H241315   3.983   5.380   2.302
13792TIP3   OH241316   2.367   0.174   5.018
13792TIP3    H141317   2.360   0.115   5.094
13792TIP3    H241318   2.394   0.258   5.056
13793TIP3   OH241319   1.245   6.416   3.239
13793TIP3    H141320   1.249   6.363   3.319
13793TIP3    H241321   1.301   6.492   3.257
13794TIP3   OH241322   4.711   7.029   3.965
13794TIP3    H141323   4.719   6.934   3.964
13794TIP3    H241324   4.697   7.053   3.873
13795TIP3   OH241325   3.019   7.769   0.087
13795TIP3    H141326   2.926   7.772   0.110
13795TIP3    H241327   3.050   7.858   0.102
13796TIP3   OH241328   0.383   6.472   4.017
13796TIP3    H141329   0.370   6.539   3.949
13796TIP3    H241330   0.335   6.396   3.985
13797TIP3   OH241331   3.906   1.987   6.181
13797TIP3    H141332   3.886   2.080   6.190
13797TIP3    H241333   3.905   1.954   6.271
13798TIP3   OH241334   5.841   3.904   4.755
13798TIP3    H141335   5.876   3.871   4.838
13798TIP3    H241336   5.830   3.998   4.770
13799TIP3   OH241337   0.865   5.478   1.880
13799TIP3    H141338   0.932   5.534   1.920
13799TIP3    H241339   0.810   5.450   1.953
13800TIP3   OH241340   0.293   5.315   5.124
13800TIP3    H141341   0.333   5.345   5.042
13800TIP3    H241342   0.340   5.362   5.192
13801TIP3   OH241343   1.844   3.721   2.677
13801TIP3    H141344   1.897   3.685   2.607
13801TIP3    H241345   1.757   3.732   2.639
13802TIP3   OH241346   4.095   1.276   3.063
13802TIP3    H141347   4.060   1.353   3.109
13802TIP3    H241348   4.037   1.205   3.090
13803TIP3   OH241349   4.273   2.562   6.450
13803TIP3    H141350   4.231   2.498   6.507
13803TIP3    H241351   4.241   2.647   6.481
13804TIP3   OH241352   3.110   6.780   4.052
13804TIP3    H141353   3.136   6.833   4.127
13804TIP3    H241354   3.135   6.691   4.076
13805TIP3   OH241355   0.606   3.798   1.080
13805TIP3    H141356   0.572   3.867   1.023
13805TIP3    H241357   0.592   3.830   1.169
13806TIP3   OH241358   4.086   4.677   6.178
13806TIP3    H141359   4.169   4.645   6.143
13806TIP3    H241360   4.068   4.757   6.128
13807TIP3   OH241361   0.840   2.480   2.767
13807TIP3    H141362   0.846   2.507   2.675
13807TIP3    H241363   0.810   2.389   2.764
13808TIP3   OH241364   2.928   6.947   1.060
13808TIP3    H141365   2.862   6.917   0.998
13808TIP3    H241366   2.888   7.021   1.104
13809TIP3   OH241367   3.174   3.695   3.067
13809TIP3    H141368   3.112   3.632   3.104
13809TIP3    H241369   3.125   3.738   2.996
13810TIP3   OH241370   5.983   5.025   2.550
13810TIP3    H141371   5.894   5.058   2.538
13810TIP3    H241372   5.973   4.930   2.550
13811TIP3   OH241373   7.150   0.740   4.079
13811TIP3    H141374   7.097   0.749   4.158
13811TIP3    H241375   7.196   0.657   4.090
13812TIP3   OH241376   6.528   6.554   2.351
13812TIP3    H141377   6.584   6.550   2.273
13812TIP3    H241378   6.541   6.643   2.384
13813TIP3   OH241379   4.722   7.855   0.659
13813TIP3    H141380   4.812   7.868   0.627
13813TIP3    H241381   4.675   7.933   0.628
13814TIP3   OH241382   5.237   7.525   3.697
13814TIP3    H141383   5.154   7.561   3.667
13814TIP3    H241384   5.221   7.431   3.706
13815TIP3   OH241385   6.478   4.087   3.028
13815TIP3    H141386   6.553   4.029   3.017
13815TIP3    H241387   6.407   4.030   3.056
13816TIP3   OH241388   3.485   7.270   4.953
13816TIP3    H141389   3.459   7.361   4.937
13816TIP3    H241390   3.405   7.219   4.937
13817TIP3   OH241391   3.851   1.827   1.609
13817TIP3    H141392   3.886   1.916   1.598
13817TIP3    H241393   3.910   1.786   1.672
13818TIP3   OH241394   5.349   0.843   6.681
13818TIP3    H141395   5.270   0.798   6.712
13818TIP3    H241396   5.322   0.934   6.672
13819TIP3   OH241397   1.433   1.293   0.340
13819TIP3    H141398   1.498   1.352   0.380
13819TIP3    H241399   1.474   1.265   0.259
13820TIP3   OH241400   3.337   3.465   1.868
13820TIP3    H141401   3.242   3.462   1.857
13820TIP3    H241402   3.357   3.559   1.870
13821TIP3   OH241403   5.896   7.531   6.474
13821TIP3    H141404   5.916   7.462   6.410
13821TIP3    H241405   5.946   7.607   6.444
13822TIP3   OH241406   1.053   5.695   1.097
13822TIP3    H141407   1.113   5.762   1.067
13822TIP3    H241408   0.977   5.703   1.040
13823TIP3   OH241409   4.424   2.702   0.143
13823TIP3    H141410   4.353   2.650   0.182
13823TIP3    H241411   4.476   2.732   0.218
13824TIP3   OH241412   5.908   0.861   1.829
13824TIP3    H141413   5.971   0.931   1.812
13824TIP3    H241414   5.961   0.788   1.860
13825TIP3   OH241415   3.418   7.842   5.610
13825TIP3    H141416   3.377   7.755   5.600
13825TIP3    H241417   3.411   7.861   5.703
13826TIP3   OH241418   6.638   5.968   6.513
13826TIP3    H141419   6.649   6.037   6.448
13826TIP3    H241420   6.685   5.893   6.476
13827TIP3   OH241421   0.684   3.724   6.139
13827TIP3    H141422   0.664   3.791   6.204
13827TIP3    H241423   0.607   3.667   6.139
13828TIP3   OH241424   0.286   6.463   6.876
13828TIP3    H141425   0.277   6.370   6.855
13828TIP3    H241426   0.317   6.503   6.794
13829TIP3   OH241427   6.980   6.245   6.349
13829TIP3    H141428   6.933   6.298   6.414
13829TIP3    H241429   6.956   6.155   6.371
13830TIP3   OH241430   3.631   7.145   4.622
13830TIP3    H141431   3.669   7.122   4.706
13830TIP3    H241432   3.684   7.097   4.558
13831TIP3   OH241433   2.442   6.300   6.567
13831TIP3    H141434   2.409   6.388   6.587
13831TIP3    H241435   2.398   6.244   6.630
13832TIP3   OH241436   1.737   6.887   0.592
13832TIP3    H141437   1.727   6.814   0.653
13832TIP3    H241438   1.710   6.964   0.641
13833TIP3   OH241439   0.842   3.252   3.399
13833TIP3    H141440   0.932   3.269   3.427
13833TIP3    H241441   0.788   3.311   3.452
13834TIP3   OH241442   7.463   7.906   4.436
13834TIP3    H141443   7.368   7.907   4.425
13834TIP3    H241444   7.476   7.909   4.530
13835TIP3   OH241445   2.609   2.132   5.376
13835TIP3    H141446   2.578   2.092   5.294
13835TIP3    H241447   2.540   2.112   5.439
13836TIP3   OH241448   2.255   2.516   4.903
13836TIP3    H141449   2.278   2.536   4.994
13836TIP3    H241450   2.223   2.426   4.905
13837TIP3   OH241451   7.071   7.044   0.405
13837TIP3    H141452   7.065   6.971   0.467
13837TIP3    H241453   7.130   7.106   0.449
13838TIP3   OH241454   6.310   7.732   5.202
13838TIP3    H141455   6.382   7.670   5.210
13838TIP3    H241456   6.302   7.748   5.108
13839TIP3   OH241457   2.573   2.517   3.008
13839TIP3    H141458   2.644   2.557   3.058
13839TIP3    H241459   2.614   2.442   2.964
13840TIP3   OH241460   7.345   3.391   3.768
13840TIP3    H141461   7.308   3.382   3.856
13840TIP3    H241462   7.439   3.379   3.779
13841TIP3   OH241463   6.392   3.838   1.218
13841TIP3    H141464   6.354   3.867   1.135
13841TIP3    H241465   6.466   3.898   1.232
13842TIP3   OH241466   1.203   6.729   0.552
13842TIP3    H141467   1.118   6.691   0.531
13842TIP3    H241468   1.265   6.657   0.541
13843TIP3   OH241469   1.218   6.985   1.993
13843TIP3    H141470   1.241   6.896   1.964
13843TIP3    H241471   1.239   7.040   1.918
13844TIP3   OH241472   6.653   2.690   0.758
13844TIP3    H141473   6.584   2.666   0.821
13844TIP3    H241474   6.729   2.638   0.786
13845TIP3   OH241475   7.892   4.416   0.597
13845TIP3    H141476   7.838   4.486   0.634
13845TIP3    H241477   7.982   4.446   0.609
13846TIP3   OH241478   1.988   7.098   4.171
13846TIP3    H141479   1.939   7.100   4.253
13846TIP3    H241480   2.078   7.119   4.196
13847TIP3   OH241481   3.592   2.214   6.331
13847TIP3    H141482   3.524   2.149   6.347
13847TIP3    H241483   3.606   2.256   6.416
13848TIP3   OH241484   7.797   7.682   2.138
13848TIP3    H141485   7.777   7.590   2.156
13848TIP3    H241486   7.757   7.730   2.210
13849TIP3   OH241487   8.387   0.216   2.919
13849TIP3    H141488   8.419   0.221   2.828
13849TIP3    H241489   8.297   0.248   2.914
13850TIP3   OH241490   0.281   2.013   5.243
13850TIP3    H141491   0.373   1.990   5.235
13850TIP3    H241492   0.276   2.104   5.213
13851TIP3   OH241493   6.238   0.892   1.566
13851TIP3    H141494   6.310   0.955   1.562
13851TIP3    H241495   6.271   0.821   1.621
13852TIP3   OH241496   1.652   6.518   2.813
13852TIP3    H141497   1.661   6.581   2.742
13852TIP3    H241498   1.713   6.548   2.881
13853TIP3   OH241499   4.796   5.837   0.131
13853TIP3    H141500   4.769   5.928   0.126
13853TIP3    H241501   4.767   5.808   0.218
13854TIP3   OH241502   3.466   4.955   3.885
13854TIP3    H141503   3.377   4.940   3.917
13854TIP3    H241504   3.461   4.936   3.791
13855TIP3   OH241505   4.546   4.477   0.543
13855TIP3    H141506   4.498   4.527   0.609
13855TIP3    H241507   4.635   4.468   0.579
13856TIP3   OH241508   3.852   7.016   0.352
13856TIP3    H141509   3.940   7.003   0.385
13856TIP3    H241510   3.864   7.035   0.259
13857TIP3   OH241511   0.795   0.521   0.245
13857TIP3    H141512   0.706   0.553   0.232
13857TIP3    H241513   0.850   0.598   0.234
13858TIP3   OH241514   3.913   6.127   2.754
13858TIP3    H141515   3.859   6.194   2.796
13858TIP3    H241516   3.932   6.162   2.667
13859TIP3   OH241517   0.905   1.120   6.471
13859TIP3    H141518   0.921   1.056   6.540
13859TIP3    H241519   0.874   1.198   6.517
13860TIP3   OH241520   6.612   1.913   0.377
13860TIP3    H141521   6.523   1.902   0.342
13860TIP3    H241522   6.651   1.982   0.323
13861TIP3   OH241523   4.680   6.393   3.091
13861TIP3    H141524   4.746   6.444   3.139
13861TIP3    H241525   4.704   6.404   2.999
13862TIP3   OH241526   1.486   1.071   2.052
13862TIP3    H141527   1.444   1.102   1.972
13862TIP3    H241528   1.580   1.074   2.033
13863TIP3   OH241529   8.185   2.087   5.450
13863TIP3    H141530   8.103   2.084   5.400
13863TIP3    H241531   8.170   2.155   5.515
13864TIP3   OH241532   7.344   7.767   6.423
13864TIP3    H141533   7.289   7.733   6.352
13864TIP3    H241534   7.400   7.693   6.447
13865TIP3   OH241535   7.326   3.617   1.616
13865TIP3    H141536   7.397   3.675   1.643
13865TIP3    H241537   7.344   3.598   1.524
13866TIP3   OH241538   6.553   2.581   2.002
13866TIP3    H141539   6.630   2.603   2.054
13866TIP3    H241540   6.562   2.487   1.984
13867TIP3   OH241541   3.221   2.976   6.262
13867TIP3    H141542   3.197   3.035   6.334
13867TIP3    H241543   3.161   2.902   6.270
13868TIP3   OH241544   7.200   3.907   3.620
13868TIP3    H141545   7.293   3.929   3.631
13868TIP3    H241546   7.198   3.812   3.622
13869TIP3   OH241547   3.588   6.021   4.688
13869TIP3    H141548   3.557   6.089   4.627
13869TIP3    H241549   3.518   5.956   4.690
13870TIP3   OH241550   3.300   1.909   1.314
13870TIP3    H141551   3.318   1.815   1.306
13870TIP3    H241552   3.386   1.950   1.301
13871TIP3   OH241553   2.425   3.324   5.970
13871TIP3    H141554   2.366   3.386   5.927
13871TIP3    H241555   2.472   3.283   5.898
13872TIP3   OH241556   4.657   5.669   6.017
13872TIP3    H141557   4.714   5.727   5.966
13872TIP3    H241558   4.571   5.679   5.978
13873TIP3   OH241559   6.373   3.922   3.221
13873TIP3    H141560   6.450   3.925   3.277
13873TIP3    H241561   6.379   3.836   3.177
13874TIP3   OH241562   8.104   3.490   3.616
13874TIP3    H141563   8.157   3.480   3.694
13874TIP3    H241564   8.167   3.505   3.545
13875TIP3   OH241565   5.200   2.495   0.770
13875TIP3    H141566   5.276   2.548   0.793
13875TIP3    H241567   5.131   2.558   0.753
13876TIP3   OH241568   6.636   2.955   6.004
13876TIP3    H141569   6.576   2.977   6.076
13876TIP3    H241570   6.700   3.026   6.005
13877TIP3   OH241571   7.207   1.724   3.425
13877TIP3    H141572   7.237   1.640   3.460
13877TIP3    H241573   7.249   1.789   3.482
13878TIP3   OH241574   2.015   2.467   3.863
13878TIP3    H141575   1.928   2.502   3.844
13878TIP3    H241576   1.998   2.378   3.892
13879TIP3   OH241577   4.684   5.686   6.414
13879TIP3    H141578   4.714   5.725   6.496
13879TIP3    H241579   4.690   5.592   6.429
13880TIP3   OH241580   6.568   2.611   5.621
13880TIP3    H141581   6.638   2.552   5.591
13880TIP3    H241582   6.610   2.666   5.688
13881TIP3   OH241583   3.395   3.769   5.016
13881TIP3    H141584   3.375   3.821   4.939
13881TIP3    H241585   3.343   3.689   5.006
13882TIP3   OH241586   8.110   3.863   1.872
13882TIP3    H141587   8.054   3.940   1.873
13882TIP3    H241588   8.077   3.808   1.944
13883TIP3   OH241589   3.872   5.093   5.192
13883TIP3    H141590   3.941   5.050   5.141
13883TIP3    H241591   3.827   5.021   5.236
13884TIP3   OH241592   4.440   1.451   3.976
13884TIP3    H141593   4.508   1.511   3.948
13884TIP3    H241594   4.414   1.483   4.063
13885TIP3   OH241595   7.884   2.444   2.920
13885TIP3    H141596   7.873   2.350   2.905
13885TIP3    H241597   7.932   2.450   3.002
13886TIP3   OH241598   1.921   4.854   4.495
13886TIP3    H141599   1.881   4.905   4.565
13886TIP3    H241600   1.887   4.893   4.415
13887TIP3   OH241601   1.203   3.299   2.454
13887TIP3    H141602   1.132   3.296   2.390
13887TIP3    H241603   1.271   3.242   2.417
13888TIP3   OH241604   2.922   0.795   3.835
13888TIP3    H141605   3.009   0.819   3.802
13888TIP3    H241606   2.940   0.742   3.913
13889TIP3   OH241607   7.402   4.474   1.360
13889TIP3    H141608   7.369   4.395   1.317
13889TIP3    H241609   7.323   4.523   1.385
13890TIP3   OH241610   6.352   6.789   3.324
13890TIP3    H141611   6.270   6.820   3.360
13890TIP3    H241612   6.345   6.693   3.325
13891TIP3   OH241613   7.614   4.273   5.983
13891TIP3    H141614   7.554   4.347   5.978
13891TIP3    H241615   7.666   4.289   6.062
13892TIP3   OH241616   0.653   2.665   6.482
13892TIP3    H141617   0.698   2.734   6.432
13892TIP3    H241618   0.723   2.610   6.516
13893TIP3   OH241619   7.008   7.173   6.378
13893TIP3    H141620   7.007   7.257   6.423
13893TIP3    H241621   7.062   7.116   6.433
13894TIP3   OH241622   2.823   7.908   4.603
13894TIP3    H141623   2.917   7.920   4.617
13894TIP3    H241624   2.803   7.825   4.647
13895TIP3   OH241625   6.476   5.013   6.403
13895TIP3    H141626   6.459   5.079   6.470
13895TIP3    H241627   6.507   4.937   6.453
13896TIP3   OH241628   6.830   4.097   5.412
13896TIP3    H141629   6.758   4.104   5.475
13896TIP3    H241630   6.850   4.004   5.409
13897TIP3   OH241631   3.675   2.585   3.740
13897TIP3    H141632   3.624   2.504   3.738
13897TIP3    H241633   3.712   2.587   3.829
13898TIP3   OH241634   6.206   3.483   4.607
13898TIP3    H141635   6.286   3.530   4.585
13898TIP3    H241636   6.173   3.527   4.685
13899TIP3   OH241637   1.323   6.304   6.376
13899TIP3    H141638   1.300   6.277   6.464
13899TIP3    H241639   1.419   6.297   6.373
13900TIP3   OH241640   6.046   1.305   1.506
13900TIP3    H141641   6.077   1.396   1.501
13900TIP3    H241642   6.075   1.274   1.592
13901TIP3   OH241643   0.341   3.825   6.078
13901TIP3    H141644   0.365   3.887   6.009
13901TIP3    H241645   0.388   3.856   6.155
13902TIP3   OH241646   6.741   4.592   2.217
13902TIP3    H141647   6.760   4.541   2.296
13902TIP3    H241648   6.696   4.670   2.249
13903TIP3   OH241649   1.141   3.248   0.226
13903TIP3    H141650   1.205   3.294   0.172
13903TIP3    H241651   1.057   3.284   0.200
13904TIP3   OH241652   8.138   3.684   0.235
13904TIP3    H141653   8.150   3.778   0.243
13904TIP3    H241654   8.117   3.670   0.143
13905TIP3   OH241655   1.589   7.584   1.740
13905TIP3    H141656   1.679   7.574   1.709
13905TIP3    H241657   1.597   7.635   1.820
13906TIP3   OH241658   6.485   4.783   0.805
13906TIP3    H141659   6.475   4.706   0.861
13906TIP3    H241660   6.507   4.747   0.719
13907TIP3   OH241661   7.551   3.116   0.615
13907TIP3    H141662   7.520   3.197   0.574
13907TIP3    H241663   7.576   3.061   0.541
13908TIP3   OH241664   1.652   1.837   6.487
13908TIP3    H141665   1.636   1.822   6.580
13908TIP3    H241666   1.596   1.912   6.465
13909TIP3   OH241667   3.833   6.694   3.736
13909TIP3    H141668   3.784   6.775   3.749
13909TIP3    H241669   3.924   6.721   3.735
13910TIP3   OH241670   5.450   7.275   2.079
13910TIP3    H141671   5.409   7.191   2.057
13910TIP3    H241672   5.378   7.338   2.080
13911TIP3   OH241673   6.328   6.088   1.545
13911TIP3    H141674   6.334   6.137   1.463
13911TIP3    H241675   6.235   6.069   1.556
13912TIP3   OH241676   0.882   5.689   3.895
13912TIP3    H141677   0.836   5.750   3.838
13912TIP3    H241678   0.838   5.698   3.980
13913TIP3   OH241679   4.921   2.277   1.607
13913TIP3    H141680   4.945   2.331   1.531
13913TIP3    H241681   4.966   2.319   1.680
13914TIP3   OH241682   2.058   1.098   0.675
13914TIP3    H141683   2.112   1.030   0.636
13914TIP3    H241684   1.969   1.078   0.646
13915TIP3   OH241685   6.470   2.875   4.321
13915TIP3    H141686   6.446   2.873   4.229
13915TIP3    H241687   6.563   2.898   4.322
13916TIP3   OH241688   2.859   0.887   6.560
13916TIP3    H141689   2.904   0.922   6.483
13916TIP3    H241690   2.878   0.793   6.559
13917TIP3   OH241691   7.876   3.578   4.086
13917TIP3    H141692   7.798   3.627   4.114
13917TIP3    H241693   7.848   3.533   4.007
13918TIP3   OH241694   0.450   0.700   3.899
13918TIP3    H141695   0.458   0.698   3.994
13918TIP3    H241696   0.458   0.792   3.876
13919TIP3   OH241697   4.675   7.378   0.081
13919TIP3    H141698   4.736   7.351   0.012
13919TIP3    H241699   4.728   7.431   0.141
13920TIP3   OH241700   4.548   0.165   1.356
13920TIP3    H141701   4.491   0.196   1.426
13920TIP3    H241702   4.487   0.131   1.289
13921TIP3   OH241703   0.769   0.635   4.081
13921TIP3    H141704   0.790   0.556   4.130
13921TIP3    H241705   0.701   0.608   4.020
13922TIP3   OH241706   0.904   1.527   4.266
13922TIP3    H141707   0.892   1.600   4.205
13922TIP3    H241708   0.877   1.450   4.217
13923TIP3   OH241709   3.475   4.055   4.369
13923TIP3    H141710   3.564   4.079   4.344
13923TIP3    H241711   3.424   4.136   4.356
13924TIP3   OH241712   5.857   7.099   2.347
13924TIP3    H141713   5.790   7.155   2.308
13924TIP3    H241714   5.849   7.115   2.441
13925TIP3   OH241715   6.060   4.435   1.189
13925TIP3    H141716   6.009   4.515   1.174
13925TIP3    H241717   6.148   4.467   1.209
13926TIP3   OH241718   5.545   2.275   5.780
13926TIP3    H141719   5.459   2.262   5.821
13926TIP3    H241720   5.560   2.369   5.785
13927TIP3   OH241721   4.182   7.200   1.359
13927TIP3    H141722   4.168   7.186   1.452
13927TIP3    H241723   4.163   7.115   1.319
13928TIP3   OH241724   5.148   0.477   1.222
13928TIP3    H141725   5.215   0.510   1.282
13928TIP3    H241726   5.129   0.389   1.255
13929TIP3   OH241727   7.199   6.893   2.491
13929TIP3    H141728   7.277   6.920   2.540
13929TIP3    H241729   7.200   6.797   2.495
13930TIP3   OH241730   5.922   7.440   1.895
13930TIP3    H141731   5.889   7.480   1.976
13930TIP3    H241732   5.849   7.447   1.834
13931TIP3   OH241733   7.733   1.420   0.685
13931TIP3    H141734   7.654   1.397   0.637
13931TIP3    H241735   7.703   1.442   0.773
13932TIP3   OH241736   2.024   2.737   4.929
13932TIP3    H141737   1.994   2.682   5.001
13932TIP3    H241738   2.095   2.687   4.889
13933TIP3   OH241739   3.554   4.779   5.891
13933TIP3    H141740   3.461   4.764   5.875
13933TIP3    H241741   3.560   4.797   5.985
13934TIP3   OH241742   8.164   1.514   1.454
13934TIP3    H141743   8.143   1.426   1.420
13934TIP3    H241744   8.198   1.498   1.542
13935TIP3   OH241745   4.418   5.999   3.362
13935TIP3    H141746   4.445   6.075   3.310
13935TIP3    H241747   4.345   5.961   3.313
13936TIP3   OH241748   2.585   5.167   0.206
13936TIP3    H141749   2.586   5.156   0.111
13936TIP3    H241750   2.677   5.182   0.229
13937TIP3   OH241751   1.563   0.628   5.159
13937TIP3    H141752   1.635   0.580   5.117
13937TIP3    H241753   1.534   0.690   5.092
13938TIP3   OH241754   0.237   3.842   1.011
13938TIP3    H141755   0.266   3.837   1.103
13938TIP3    H241756   0.152   3.798   1.010
13939TIP3   OH241757   5.449   1.899   0.645
13939TIP3    H141758   5.381   1.950   0.689
13939TIP3    H241759   5.477   1.835   0.710
13940TIP3   OH241760   7.071   2.402   1.980
13940TIP3    H141761   7.037   2.464   2.045
13940TIP3    H241762   7.000   2.393   1.917
13941TIP3   OH241763   5.009   2.516   2.180
13941TIP3    H141764   4.914   2.505   2.184
13941TIP3    H241765   5.044   2.454   2.244
13942TIP3   OH241766   1.166   0.395   4.112
13942TIP3    H141767   1.111   0.390   4.190
13942TIP3    H241768   1.116   0.350   4.044
13943TIP3   OH241769   0.260   2.649   3.032
13943TIP3    H141770   0.306   2.659   2.949
13943TIP3    H241771   0.323   2.607   3.090
13944TIP3   OH241772   5.894   2.240   0.328
13944TIP3    H141773   5.813   2.290   0.336
13944TIP3    H241774   5.895   2.183   0.405
13945TIP3   OH241775   6.627   3.115   3.866
13945TIP3    H141776   6.540   3.135   3.833
13945TIP3    H241777   6.638   3.171   3.942
13946TIP3   OH241778   5.648   0.565   4.823
13946TIP3    H141779   5.716   0.535   4.762
13946TIP3    H241780   5.694   0.575   4.906
13947TIP3   OH241781   4.667   5.740   0.370
13947TIP3    H141782   4.607   5.678   0.326
13947TIP3    H241783   4.711   5.687   0.436
13948TIP3   OH241784   3.802   2.630   0.788
13948TIP3    H141785   3.817   2.664   0.876
13948TIP3    H241786   3.711   2.654   0.769
13949TIP3   OH241787   6.897   5.707   4.926
13949TIP3    H141788   6.816   5.702   4.976
13949TIP3    H241789   6.878   5.771   4.857
13950TIP3   OH241790   4.279   6.250   3.074
13950TIP3    H141791   4.278   6.345   3.062
13950TIP3    H241792   4.361   6.232   3.119
13951TIP3   OH241793   7.999   2.403   2.304
13951TIP3    H141794   7.961   2.467   2.244
13951TIP3    H241795   8.024   2.329   2.249
13952TIP3   OH241796   3.794   2.781   2.169
13952TIP3    H141797   3.856   2.758   2.100
13952TIP3    H241798   3.796   2.877   2.171
13953TIP3   OH241799   7.863   0.289   5.346
13953TIP3    H141800   7.852   0.364   5.288
13953TIP3    H241801   7.876   0.327   5.433
13954TIP3   OH241802   5.207   4.309   6.212
13954TIP3    H141803   5.154   4.230   6.224
13954TIP3    H241804   5.294   4.286   6.245
13955TIP3   OH241805   7.497   4.408   3.940
13955TIP3    H141806   7.497   4.499   3.970
13955TIP3    H241807   7.559   4.407   3.867
13956TIP3   OH241808   0.950   2.824   4.918
13956TIP3    H141809   1.040   2.820   4.949
13956TIP3    H241810   0.907   2.747   4.956
13957TIP3   OH241811   7.838   3.151   1.857
13957TIP3    H141812   7.787   3.160   1.776
13957TIP3    H241813   7.787   3.198   1.922
13958TIP3   OH241814   4.564   2.630   4.959
13958TIP3    H141815   4.594   2.637   5.050
13958TIP3    H241816   4.640   2.596   4.911
13959TIP3   OH241817   1.353   4.099   5.350
13959TIP3    H141818   1.425   4.126   5.293
13959TIP3    H241819   1.302   4.039   5.296
13960TIP3   OH241820   8.128   4.045   6.796
13960TIP3    H141821   8.153   4.000   6.877
13960TIP3    H241822   8.044   4.005   6.773
13961TIP3   OH241823   0.814   5.166   3.862
13961TIP3    H141824   0.784   5.214   3.939
13961TIP3    H241825   0.746   5.101   3.846
13962TIP3   OH241826   0.832   5.359   1.173
13962TIP3    H141827   0.859   5.330   1.085
13962TIP3    H241828   0.862   5.290   1.231
13963TIP3   OH241829   1.637   5.470   2.760
13963TIP3    H141830   1.655   5.428   2.676
13963TIP3    H241831   1.680   5.415   2.825
13964TIP3   OH241832   7.818   7.420   2.185
13964TIP3    H141833   7.751   7.437   2.251
13964TIP3    H241834   7.769   7.400   2.105
13965TIP3   OH241835   7.715   3.951   1.191
13965TIP3    H141836   7.650   3.884   1.170
13965TIP3    H241837   7.756   3.920   1.272
13966TIP3   OH241838   1.202   1.945   2.079
13966TIP3    H141839   1.154   2.024   2.104
13966TIP3    H241840   1.263   1.929   2.151
13967TIP3   OH241841   6.843   1.806   6.112
13967TIP3    H141842   6.790   1.844   6.182
13967TIP3    H241843   6.829   1.712   6.119
13968TIP3   OH241844   3.109   7.900   5.556
13968TIP3    H141845   3.177   7.915   5.490
13968TIP3    H241846   3.138   7.822   5.604
13969TIP3   OH241847   8.094   5.677   5.967
13969TIP3    H141848   8.002   5.663   5.943
13969TIP3    H241849   8.138   5.595   5.942
13970TIP3   OH241850   1.056   0.880   2.684
13970TIP3    H141851   1.057   0.868   2.589
13970TIP3    H241852   0.974   0.928   2.700
13971TIP3   OH241853   5.865   4.021   3.924
13971TIP3    H141854   5.874   4.114   3.947
13971TIP3    H241855   5.840   3.978   4.006
13972TIP3   OH241856   0.740   2.481   4.179
13972TIP3    H141857   0.812   2.436   4.135
13972TIP3    H241858   0.662   2.429   4.156
13973TIP3   OH241859   3.732   0.485   3.763
13973TIP3    H141860   3.704   0.570   3.798
13973TIP3    H241861   3.734   0.498   3.668
13974TIP3   OH241862   7.005   6.313   0.633
13974TIP3    H141863   7.063   6.298   0.558
13974TIP3    H241864   7.024   6.403   0.659
13975TIP3   OH241865   1.958   2.843   2.508
13975TIP3    H141866   1.928   2.752   2.516
13975TIP3    H241867   1.971   2.872   2.598
13976TIP3   OH241868   5.618   6.470   3.661
13976TIP3    H141869   5.614   6.558   3.699
13976TIP3    H241870   5.667   6.481   3.580
13977TIP3   OH241871   4.003   0.685   2.361
13977TIP3    H141872   4.074   0.699   2.299
13977TIP3    H241873   3.961   0.771   2.369
13978TIP3   OH241874   6.724   3.720   6.747
13978TIP3    H141875   6.695   3.713   6.656
13978TIP3    H241876   6.774   3.801   6.750
13979TIP3   OH241877   0.672   3.036   1.801
13979TIP3    H141878   0.719   2.996   1.728
13979TIP3    H241879   0.740   3.074   1.856
13980TIP3   OH241880   3.328   7.422   3.098
13980TIP3    H141881   3.235   7.400   3.108
13980TIP3    H241882   3.344   7.416   3.004
13981TIP3   OH241883   4.073   2.782   2.333
13981TIP3    H141884   3.986   2.814   2.310
13981TIP3    H241885   4.107   2.847   2.395
13982TIP3   OH241886   6.591   7.634   1.413
13982TIP3    H141887   6.682   7.605   1.409
13982TIP3    H241888   6.543   7.571   1.358
13983TIP3   OH241889   2.858   0.478   1.703
13983TIP3    H141890   2.949   0.503   1.684
13983TIP3    H241891   2.814   0.481   1.619
13984TIP3   OH241892   7.895   5.889   4.801
13984TIP3    H141893   7.908   5.970   4.850
13984TIP3    H241894   7.972   5.836   4.822
13985TIP3   OH241895   0.411   7.578   3.419
13985TIP3    H141896   0.497   7.568   3.459
13985TIP3    H241897   0.366   7.496   3.438
13986TIP3   OH241898   5.144   7.461   6.423
13986TIP3    H141899   5.096   7.539   6.452
13986TIP3    H241900   5.140   7.402   6.498
13987TIP3   OH241901   2.468   5.675   5.397
13987TIP3    H141902   2.464   5.734   5.472
13987TIP3    H241903   2.439   5.728   5.323
13988TIP3   OH241904   6.014   1.349   5.063
13988TIP3    H141905   5.944   1.284   5.056
13988TIP3    H241906   6.005   1.384   5.152
13989TIP3   OH241907   2.465   5.241   1.500
13989TIP3    H141908   2.467   5.294   1.421
13989TIP3    H241909   2.556   5.239   1.531
13990TIP3   OH241910   2.281   7.522   5.324
13990TIP3    H141911   2.332   7.540   5.403
13990TIP3    H241912   2.328   7.451   5.281
13991TIP3   OH241913   7.380   6.033   6.608
13991TIP3    H141914   7.371   6.126   6.627
13991TIP3    H241915   7.420   5.996   6.686
13992TIP3   OH241916   5.833   7.825   0.712
13992TIP3    H141917   5.784   7.886   0.768
13992TIP3    H241918   5.887   7.775   0.773
13993TIP3   OH241919   3.277   4.731   2.920
13993TIP3    H141920   3.241   4.790   2.986
13993TIP3    H241921   3.237   4.760   2.838
13994TIP3   OH241922   3.664   7.172   2.954
13994TIP3    H141923   3.640   7.175   2.861
13994TIP3    H241924   3.582   7.192   3.000
13995TIP3   OH241925   6.310   2.300   5.961
13995TIP3    H141926   6.395   2.271   5.993
13995TIP3    H241927   6.309   2.275   5.868
13996TIP3   OH241928   6.263   5.894   4.627
13996TIP3    H141929   6.274   5.801   4.649
13996TIP3    H241930   6.202   5.894   4.553
13997TIP3   OH241931   4.462   3.519   0.876
13997TIP3    H141932   4.498   3.433   0.894
13997TIP3    H241933   4.471   3.567   0.958
13998TIP3   OH241934   0.586   7.477   3.898
13998TIP3    H141935   0.567   7.441   3.984
13998TIP3    H241936   0.622   7.404   3.848
13999TIP3   OH241937   4.454   3.498   1.415
13999TIP3    H141938   4.512   3.451   1.355
13999TIP3    H241939   4.512   3.527   1.486
14000TIP3   OH241940   6.592   7.033   0.961
14000TIP3    H141941   6.544   7.080   0.892
14000TIP3    H241942   6.629   7.103   1.016
14001TIP3   OH241943   0.022   5.230   3.468
14001TIP3    H141944  -0.017   5.313   3.441
14001TIP3    H241945   0.115   5.249   3.478
14002TIP3   OH241946   6.590   3.671   5.203
14002TIP3    H141947   6.591   3.747   5.261
14002TIP3    H241948   6.681   3.644   5.197
14003TIP3   OH241949   7.167   4.333   1.193
14003TIP3    H141950   7.232   4.354   1.125
14003TIP3    H241951   7.085   4.321   1.145
14004TIP3   OH241952   7.700   1.295   1.992
14004TIP3    H141953   7.696   1.290   1.896
14004TIP3    H241954   7.666   1.210   2.021
14005TIP3   OH241955   7.600   2.717   4.524
14005TIP3    H141956   7.615   2.808   4.552
14005TIP3    H241957   7.636   2.664   4.595
14006TIP3   OH241958   1.407   5.564   5.997
14006TIP3    H141959   1.423   5.608   6.081
14006TIP3    H241960   1.377   5.476   6.021
14007TIP3   OH241961   2.363   1.493   3.470
14007TIP3    H141962   2.357   1.400   3.492
14007TIP3    H241963   2.368   1.495   3.375
14008TIP3   OH241964   1.060   7.758   3.321
14008TIP3    H141965   1.028   7.769   3.411
14008TIP3    H241966   0.995   7.802   3.267
14009TIP3   OH241967   4.453   3.359   5.574
14009TIP3    H141968   4.535   3.311   5.562
14009TIP3    H241969   4.385   3.298   5.547
14010TIP3   OH241970   1.333   3.692   4.921
14010TIP3    H141971   1.260   3.667   4.979
14010TIP3    H241972   1.411   3.681   4.975
14011TIP3   OH241973   3.696   2.311   3.937
14011TIP3    H141974   3.727   2.335   4.024
14011TIP3    H241975   3.619   2.256   3.952
14012TIP3   OH241976   4.006   7.723   4.757
14012TIP3    H141977   4.060   7.718   4.836
14012TIP3    H241978   3.964   7.808   4.762
14013TIP3   OH241979   8.021   7.117   3.707
14013TIP3    H141980   8.071   7.098   3.786
14013TIP3    H241981   8.001   7.031   3.671
14014TIP3   OH241982   2.847   4.047   2.438
14014TIP3    H141983   2.805   3.967   2.408
14014TIP3    H241984   2.778   4.095   2.483
14015TIP3   OH241985   6.567   6.574   0.190
14015TIP3    H141986   6.563   6.529   0.275
14015TIP3    H241987   6.622   6.650   0.206
14016TIP3   OH241988   0.173   2.552   4.309
14016TIP3    H141989   0.189   2.628   4.252
14016TIP3    H241990   0.168   2.589   4.397
14017TIP3   OH241991   6.550   3.892   6.078
14017TIP3    H141992   6.568   3.982   6.107
14017TIP3    H241993   6.624   3.870   6.021
14018TIP3   OH241994   0.480   0.817   1.429
14018TIP3    H141995   0.463   0.904   1.392
14018TIP3    H241996   0.393   0.782   1.447
14019TIP3   OH241997   1.763   1.473   5.597
14019TIP3    H141998   1.799   1.402   5.544
14019TIP3    H241999   1.720   1.428   5.670
14020TIP3   OH242000   6.090   0.328   4.598
14020TIP3    H142001   6.021   0.393   4.588
14020TIP3    H242002   6.078   0.293   4.686
14021TIP3   OH242003   4.425   7.931   1.753
14021TIP3    H142004   4.490   7.871   1.715
14021TIP3    H242005   4.358   7.940   1.685
14022TIP3   OH242006   4.761   2.398   0.643
14022TIP3    H142007   4.809   2.400   0.560
14022TIP3    H242008   4.715   2.314   0.641
14023TIP3   OH242009   5.998   0.024   5.974
14023TIP3    H142010   5.944   0.041   5.897
14023TIP3    H242011   6.088   0.023   5.942
14024TIP3   OH242012   7.240   6.363   3.134
14024TIP3    H142013   7.234   6.400   3.046
14024TIP3    H242014   7.175   6.293   3.135
14025TIP3   OH242015   2.498   7.253   1.366
14025TIP3    H142016   2.424   7.244   1.305
14025TIP3    H242017   2.530   7.342   1.353
14026TIP3   OH242018   6.682   7.549   5.930
14026TIP3    H142019   6.711   7.603   6.004
14026TIP3    H242020   6.643   7.472   5.970
14027TIP3   OH242021   7.274   6.343   0.492
14027TIP3    H142022   7.262   6.421   0.547
14027TIP3    H242023   7.368   6.342   0.471
14028TIP3   OH242024   0.733   3.029   4.907
14028TIP3    H142025   0.806   2.968   4.892
14028TIP3    H242026   0.748   3.099   4.843
14029TIP3   OH242027   0.613   1.355   3.903
14029TIP3    H142028   0.607   1.310   3.819
14029TIP3    H242029   0.545   1.315   3.957
14030TIP3   OH242030   2.921   0.887   1.948
14030TIP3    H142031   2.892   0.957   2.006
14030TIP3    H242032   2.845   0.867   1.894
14031TIP3   OH242033   0.970   7.810   3.580
14031TIP3    H142034   0.915   7.869   3.631
14031TIP3    H242035   0.989   7.737   3.638
14032TIP3   OH242036   1.597   6.545   3.540
14032TIP3    H142037   1.563   6.513   3.456
14032TIP3    H242038   1.650   6.622   3.516
14033TIP3   OH242039   3.451   6.377   5.401
14033TIP3    H142040   3.434   6.379   5.307
14033TIP3    H242041   3.451   6.469   5.427
14034TIP3   OH242042   0.474   6.531   5.729
14034TIP3    H142043   0.519   6.479   5.662
14034TIP3    H242044   0.409   6.582   5.680
14035TIP3   OH242045   5.321   4.187   3.597
14035TIP3    H142046   5.324   4.092   3.606
14035TIP3    H242047   5.307   4.202   3.503
14036TIP3   OH242048   0.141   0.185   4.396
14036TIP3    H142049   0.222   0.231   4.379
14036TIP3    H242050   0.164   0.092   4.393
14037TIP3   OH242051   4.340   4.985   6.457
14037TIP3    H142052   4.374   5.068   6.423
14037TIP3    H242053   4.352   4.992   6.552
14038TIP3   OH242054   0.235   1.931   1.424
14038TIP3    H142055   0.219   2.000   1.360
14038TIP3    H242056   0.226   1.974   1.509
14039TIP3   OH242057   6.219   5.800   5.914
14039TIP3    H142058   6.147   5.828   5.856
14039TIP3    H242059   6.272   5.743   5.859
14040TIP3   OH242060   0.369   4.157   3.475
14040TIP3    H142061   0.342   4.198   3.393
14040TIP3    H242062   0.334   4.214   3.544
14041TIP3   OH242063   5.143   6.847   1.915
14041TIP3    H142064   5.103   6.861   1.829
14041TIP3    H242065   5.080   6.793   1.962
14042TIP3   OH242066   1.150   5.965   5.523
14042TIP3    H142067   1.206   5.904   5.474
14042TIP3    H242068   1.069   5.969   5.472
14043TIP3   OH242069   7.378   3.048   0.975
14043TIP3    H142070   7.362   3.102   0.898
14043TIP3    H242071   7.384   3.111   1.047
14044TIP3   OH242072   6.472   3.128   4.953
14044TIP3    H142073   6.408   3.065   4.985
14044TIP3    H242074   6.471   3.117   4.858
14045TIP3   OH242075   2.935   5.745   2.466
14045TIP3    H142076   2.958   5.657   2.496
14045TIP3    H242077   3.018   5.786   2.444
14046TIP3   OH242078   0.585   1.579   1.735
14046TIP3    H142079   0.586   1.605   1.827
14046TIP3    H242080   0.588   1.662   1.687
14047TIP3   OH242081   0.809   1.129   1.526
14047TIP3    H142082   0.752   1.148   1.451
14047TIP3    H242083   0.771   1.051   1.565
14048TIP3   OH242084   0.448   6.275   2.290
14048TIP3    H142085   0.478   6.202   2.344
14048TIP3    H242086   0.430   6.345   2.351
14049TIP3   OH242087   3.005   4.380   2.745
14049TIP3    H142088   3.036   4.306   2.692
14049TIP3    H242089   3.050   4.369   2.829
14050TIP3   OH242090   6.492   1.705   5.487
14050TIP3    H142091   6.535   1.744   5.563
14050TIP3    H242092   6.419   1.764   5.468
14051TIP3   OH242093   2.148   5.063   0.880
14051TIP3    H142094   2.053   5.062   0.892
14051TIP3    H242095   2.161   5.091   0.790
14052TIP3   OH242096   6.178   0.917   3.349
14052TIP3    H142097   6.084   0.922   3.366
14052TIP3    H242098   6.191   0.831   3.310
14053TIP3   OH242099   0.570   6.411   2.040
14053TIP3    H142100   0.490   6.456   2.016
14053TIP3    H242101   0.558   6.388   2.132
14054TIP3   OH242102   6.139   0.530   3.651
14054TIP3    H142103   6.051   0.566   3.645
14054TIP3    H242104   6.129   0.437   3.631
14055TIP3   OH242105   0.287   7.829   6.705
14055TIP3    H142106   0.325   7.749   6.741
14055TIP3    H242107   0.216   7.799   6.649
14056TIP3   OH242108   6.102   5.866   5.115
14056TIP3    H142109   6.076   5.841   5.026
14056TIP3    H242110   6.033   5.830   5.171
14057TIP3   OH242111   5.152   1.901   6.588
14057TIP3    H142112   5.062   1.887   6.558
14057TIP3    H242113   5.186   1.813   6.604
14058TIP3   OH242114   7.279   4.377   1.992
14058TIP3    H142115   7.318   4.322   2.060
14058TIP3    H242116   7.284   4.465   2.027
14059TIP3   OH242117   2.066   0.374   1.010
14059TIP3    H142118   2.099   0.443   0.953
14059TIP3    H242119   1.992   0.413   1.056
14060TIP3   OH242120   3.191   0.079   3.802
14060TIP3    H142121   3.251   0.136   3.849
14060TIP3    H242122   3.108   0.128   3.800
14061TIP3   OH242123   4.516   5.998   5.980
14061TIP3    H142124   4.542   6.081   6.019
14061TIP3    H242125   4.509   6.016   5.886
14062TIP3   OH242126   3.898   5.860   3.245
14062TIP3    H142127   3.834   5.927   3.220
14062TIP3    H242128   3.852   5.777   3.232
14063TIP3   OH242129   5.677   0.448   2.574
14063TIP3    H142130   5.647   0.498   2.498
14063TIP3    H242131   5.763   0.416   2.550
14064TIP3   OH242132   8.333   1.091   2.065
14064TIP3    H142133   8.407   1.106   2.006
14064TIP3    H242134   8.369   1.038   2.136
14065TIP3   OH242135   5.171   5.106   0.983
14065TIP3    H142136   5.149   5.154   0.903
14065TIP3    H242137   5.091   5.061   1.007
14066TIP3   OH242138   1.597   0.961   2.569
14066TIP3    H142139   1.527   1.000   2.518
14066TIP3    H242140   1.557   0.885   2.611
14067TIP3   OH242141   5.476   3.132   1.924
14067TIP3    H142142   5.439   3.164   2.006
14067TIP3    H242143   5.442   3.044   1.915
14068TIP3   OH242144   3.273   1.888   4.730
14068TIP3    H142145   3.272   1.888   4.826
14068TIP3    H242146   3.224   1.809   4.706
14069TIP3   OH242147   2.649   7.396   1.615
14069TIP3    H142148   2.588   7.400   1.688
14069TIP3    H242149   2.663   7.487   1.590
14070TIP3   OH242150   0.354   3.277   6.849
14070TIP3    H142151   0.286   3.236   6.795
14070TIP3    H242152   0.418   3.208   6.865
14071TIP3   OH242153   2.877   5.182   0.136
14071TIP3    H142154   2.919   5.246   0.080
14071TIP3    H242155   2.861   5.107   0.078
14072TIP3   OH242156   4.466   0.687   1.765
14072TIP3    H142157   4.385   0.638   1.773
14072TIP3    H242158   4.512   0.646   1.692
14073TIP3   OH242159   5.955   0.966   2.809
14073TIP3    H142160   5.887   0.935   2.869
14073TIP3    H242161   5.919   0.950   2.721
14074TIP3   OH242162   4.842   4.426   4.402
14074TIP3    H142163   4.774   4.470   4.454
14074TIP3    H242164   4.924   4.464   4.434
14075TIP3   OH242165   6.626   4.522   1.456
14075TIP3    H142166   6.603   4.607   1.494
14075TIP3    H242167   6.639   4.540   1.363
14076TIP3   OH242168   2.775   0.432   0.101
14076TIP3    H142169   2.703   0.369   0.098
14076TIP3    H242170   2.846   0.388   0.054
14077TIP3   OH242171   7.377   6.735   3.347
14077TIP3    H142172   7.421   6.651   3.357
14077TIP3    H242173   7.339   6.733   3.260
14078TIP3   OH242174   1.516   7.219   2.610
14078TIP3    H142175   1.559   7.218   2.695
14078TIP3    H242176   1.473   7.304   2.605
14079TIP3   OH242177   4.083   1.390   4.060
14079TIP3    H142178   3.997   1.374   4.021
14079TIP3    H242179   4.086   1.485   4.073
14080TIP3   OH242180   7.957   5.934   1.647
14080TIP3    H142181   7.976   6.024   1.622
14080TIP3    H242182   7.936   5.890   1.564
14081TIP3   OH242183   0.440   4.437   6.474
14081TIP3    H142184   0.355   4.430   6.518
14081TIP3    H242185   0.495   4.486   6.535
14082TIP3   OH242186   5.714   3.312   0.886
14082TIP3    H142187   5.630   3.278   0.918
14082TIP3    H242188   5.755   3.350   0.964
14083TIP3   OH242189   5.875   4.464   0.737
14083TIP3    H142190   5.877   4.409   0.815
14083TIP3    H242191   5.890   4.403   0.664
14084TIP3   OH242192   2.520   5.707   6.187
14084TIP3    H142193   2.598   5.720   6.133
14084TIP3    H242194   2.530   5.768   6.259
14085TIP3   OH242195   7.697   7.534   6.753
14085TIP3    H142196   7.728   7.588   6.826
14085TIP3    H242197   7.672   7.451   6.794
14086TIP3   OH242198   4.088   6.745   6.184
14086TIP3    H142199   4.031   6.732   6.109
14086TIP3    H242200   4.160   6.800   6.152
14087TIP3   OH242201   2.346   6.316   6.033
14087TIP3    H142202   2.386   6.399   6.007
14087TIP3    H242203   2.345   6.319   6.129
14088TIP3   OH242204   3.366   3.759   1.023
14088TIP3    H142205   3.403   3.702   0.955
14088TIP3    H242206   3.443   3.790   1.072
14089TIP3   OH242207   6.551   4.813   4.869
14089TIP3    H142208   6.496   4.735   4.859
14089TIP3    H242209   6.622   4.800   4.806
14090TIP3   OH242210   5.157   3.674   4.456
14090TIP3    H142211   5.180   3.597   4.507
14090TIP3    H242212   5.070   3.699   4.488
14091TIP3   OH242213   6.031   4.426   4.363
14091TIP3    H142214   6.052   4.516   4.389
14091TIP3    H242215   5.993   4.386   4.441
14092TIP3   OH242216   0.994   0.131   0.613
14092TIP3    H142217   0.911   0.166   0.579
14092TIP3    H242218   0.984   0.135   0.708
14093TIP3   OH242219   6.166   4.999   2.819
14093TIP3    H142220   6.237   4.940   2.793
14093TIP3    H242221   6.164   4.993   2.915
14094TIP3   OH242222   5.987   1.315   3.571
14094TIP3    H142223   6.048   1.251   3.607
14094TIP3    H242224   5.944   1.353   3.647
14095TIP3   OH242225   3.605   2.694   4.380
14095TIP3    H142226   3.627   2.622   4.439
14095TIP3    H242227   3.527   2.664   4.334
14096TIP3   OH242228   6.020   4.981   0.595
14096TIP3    H142229   6.055   4.899   0.629
14096TIP3    H242230   6.014   4.967   0.500
14097TIP3   OH242231   8.314   7.737   1.626
14097TIP3    H142232   8.273   7.655   1.652
14097TIP3    H242233   8.276   7.803   1.684
14098TIP3   OH242234   6.991   5.385   3.065
14098TIP3    H142235   7.071   5.352   3.024
14098TIP3    H242236   6.985   5.338   3.148
14099TIP3   OH242237   7.883   0.071   3.880
14099TIP3    H142238   7.936   0.058   3.959
14099TIP3    H242239   7.829   0.148   3.900
14100TIP3   OH242240   7.695   7.174   4.793
14100TIP3    H142241   7.717   7.220   4.712
14100TIP3    H242242   7.777   7.171   4.843
14101TIP3   OH242243   6.538   1.284   2.287
14101TIP3    H142244   6.624   1.326   2.277
14101TIP3    H242245   6.503   1.321   2.368
14102TIP3   OH242246   0.062   3.571   3.218
14102TIP3    H142247   0.106   3.654   3.196
14102TIP3    H242248   0.128   3.504   3.201
14103TIP3   OH242249   4.013   1.895   3.536
14103TIP3    H142250   4.004   1.981   3.497
14103TIP3    H242251   3.924   1.870   3.561
14104TIP3   OH242252   0.790   1.250   4.448
14104TIP3    H142253   0.774   1.158   4.470
14104TIP3    H242254   0.717   1.274   4.392
14105TIP3   OH242255   0.622   2.347   1.990
14105TIP3    H142256   0.561   2.404   2.037
14105TIP3    H242257   0.589   2.346   1.900
14106TIP3   OH242258   2.427   6.475   5.693
14106TIP3    H142259   2.391   6.517   5.771
14106TIP3    H242260   2.431   6.546   5.628
14107TIP3   OH242261   3.162   1.429   6.257
14107TIP3    H142262   3.158   1.425   6.352
14107TIP3    H242263   3.214   1.507   6.238
14108TIP3   OH242264   2.880   4.362   2.428
14108TIP3    H142265   2.959   4.354   2.375
14108TIP3    H242266   2.901   4.316   2.509
14109TIP3   OH242267   3.362   0.551   6.386
14109TIP3    H142268   3.454   0.578   6.380
14109TIP3    H242269   3.362   0.481   6.450
14110TIP3   OH242270   8.398   3.702   2.418
14110TIP3    H142271   8.471   3.692   2.479
14110TIP3    H242272   8.326   3.736   2.472
14111TIP3   OH242273   7.788   2.389   5.795
14111TIP3    H142274   7.813   2.468   5.746
14111TIP3    H242275   7.693   2.384   5.784
14112TIP3   OH242276   7.542   5.840   2.794
14112TIP3    H142277   7.545   5.783   2.717
14112TIP3    H242278   7.556   5.928   2.760
14113TIP3   OH242279   5.729   2.975   4.063
14113TIP3    H142280   5.781   2.895   4.052
14113TIP3    H242281   5.757   3.031   3.991
14114TIP3   OH242282   1.051   2.890   3.108
14114TIP3    H142283   1.086   2.810   3.069
14114TIP3    H242284   1.118   2.918   3.170
14115TIP3   OH242285   2.986   0.286   6.870
14115TIP3    H142286   2.997   0.370   6.916
14115TIP3    H242287   2.996   0.308   6.777
14116TIP3   OH242288   6.387   2.579   4.807
14116TIP3    H142289   6.456   2.524   4.844
14116TIP3    H242290   6.431   2.660   4.783
14117TIP3   OH242291   5.083   1.992   4.112
14117TIP3    H142292   5.080   2.081   4.147
14117TIP3    H242293   5.009   1.986   4.053
14118TIP3   OH242294   4.122   7.596   4.064
14118TIP3    H142295   4.162   7.680   4.088
14118TIP3    H242296   4.084   7.612   3.978
14119TIP3   OH242297   3.329   7.886   4.946
14119TIP3    H142298   3.347   7.855   4.857
14119TIP3    H242299   3.383   7.830   5.002
14120TIP3   OH242300   1.648   7.281   4.153
14120TIP3    H142301   1.726   7.311   4.106
14120TIP3    H242302   1.577   7.338   4.121
14121TIP3   OH242303   3.651   6.221   3.363
14121TIP3    H142304   3.687   6.279   3.296
14121TIP3    H242305   3.595   6.278   3.417
14122TIP3   OH242306   4.407   6.627   3.891
14122TIP3    H142307   4.486   6.680   3.890
14122TIP3    H242308   4.352   6.664   3.821
14123TIP3   OH242309   3.704   4.764   0.325
14123TIP3    H142310   3.746   4.801   0.403
14123TIP3    H242311   3.667   4.840   0.280
14124TIP3   OH242312   4.629   6.738   4.146
14124TIP3    H142313   4.707   6.773   4.190
14124TIP3    H242314   4.650   6.744   4.053
14125TIP3   OH242315   7.494   5.997   0.717
14125TIP3    H142316   7.523   5.952   0.796
14125TIP3    H242317   7.402   6.018   0.733
14126TIP3   OH242318   4.564   1.800   6.649
14126TIP3    H142319   4.640   1.850   6.679
14126TIP3    H242320   4.539   1.747   6.725
14127TIP3   OH242321   7.612   4.787   6.442
14127TIP3    H142322   7.641   4.878   6.451
14127TIP3    H242323   7.517   4.791   6.449
14128TIP3   OH242324   5.788   5.530   4.639
14128TIP3    H142325   5.880   5.552   4.654
14128TIP3    H242326   5.739   5.584   4.701
14129TIP3   OH242327   7.146   0.337   5.620
14129TIP3    H142328   7.224   0.282   5.609
14129TIP3    H242329   7.077   0.289   5.574
14130TIP3   OH242330   7.504   3.895   6.556
14130TIP3    H142331   7.528   3.943   6.477
14130TIP3    H242332   7.420   3.854   6.535
14131TIP3   OH242333   5.995   0.275   1.445
14131TIP3    H142334   6.027   0.229   1.522
14131TIP3    H242335   5.900   0.280   1.458
14132TIP3   OH242336   3.690   3.044   5.041
14132TIP3    H142337   3.701   3.003   5.127
14132TIP3    H242338   3.657   3.131   5.061
14133TIP3   OH242339   4.691   5.844   5.757
14133TIP3    H142340   4.619   5.789   5.725
14133TIP3    H242341   4.770   5.793   5.740
14134TIP3   OH242342   1.560   2.137   2.619
14134TIP3    H142343   1.535   2.222   2.656
14134TIP3    H242344   1.477   2.093   2.601
14135TIP3   OH242345   1.801   4.046   4.971
14135TIP3    H142346   1.772   4.115   4.912
14135TIP3    H242347   1.886   4.076   5.004
14136TIP3   OH242348   8.001   0.802   1.647
14136TIP3    H142349   8.081   0.825   1.694
14136TIP3    H242350   8.031   0.773   1.561
14137TIP3   OH242351   2.047   3.886   5.634
14137TIP3    H142352   2.121   3.853   5.686
14137TIP3    H242353   2.074   3.871   5.543
14138TIP3   OH242354   1.398   2.561   3.813
14138TIP3    H142355   1.404   2.500   3.740
14138TIP3    H242356   1.304   2.565   3.834
14139TIP3   OH242357   6.370   3.387   0.824
14139TIP3    H142358   6.399   3.475   0.846
14139TIP3    H242359   6.404   3.332   0.894
14140TIP3   OH242360   1.867   3.871   2.363
14140TIP3    H142361   1.894   3.954   2.402
14140TIP3    H242362   1.934   3.853   2.297
14141TIP3   OH242363   5.027   7.809   5.678
14141TIP3    H142364   4.984   7.726   5.659
14141TIP3    H242365   5.107   7.808   5.626
14142TIP3   OH242366   5.664   1.102   6.578
14142TIP3    H142367   5.612   1.087   6.657
14142TIP3    H242368   5.616   1.057   6.509
14143TIP3   OH242369   2.278   2.953   4.228
14143TIP3    H142370   2.213   3.017   4.198
14143TIP3    H242371   2.288   2.972   4.322
14144TIP3   OH242372   7.019   6.763   5.975
14144TIP3    H142373   7.026   6.668   5.965
14144TIP3    H242374   7.046   6.799   5.891
14145TIP3   OH242375   3.824   5.089   0.679
14145TIP3    H142376   3.766   5.114   0.607
14145TIP3    H242377   3.793   5.140   0.754
14146TIP3   OH242378   5.307   3.021   6.854
14146TIP3    H142379   5.351   3.096   6.893
14146TIP3    H242380   5.367   2.948   6.867
14147TIP3   OH242381   4.726   3.741   0.491
14147TIP3    H142382   4.787   3.770   0.558
14147TIP3    H242383   4.782   3.711   0.419
14148TIP3   OH242384   4.952   5.354   3.284
14148TIP3    H142385   4.885   5.288   3.305
14148TIP3    H242386   5.032   5.318   3.322
14149TIP3   OH242387   6.334   1.844   3.207
14149TIP3    H142388   6.333   1.939   3.206
14149TIP3    H242389   6.404   1.819   3.146
14150TIP3   OH242390   6.203   2.933   2.387
14150TIP3    H142391   6.274   2.996   2.387
14150TIP3    H242392   6.246   2.848   2.381
14151TIP3   OH242393   1.546   0.447   4.265
14151TIP3    H142394   1.465   0.480   4.303
14151TIP3    H242395   1.595   0.525   4.240
14152TIP3   OH242396   6.614   5.290   3.478
14152TIP3    H142397   6.539   5.350   3.469
14152TIP3    H242398   6.691   5.346   3.466
14153TIP3   OH242399   2.948   5.473   2.602
14153TIP3    H142400   2.942   5.392   2.652
14153TIP3    H242401   2.994   5.534   2.660
14154TIP3   OH242402   6.511   0.706   1.492
14154TIP3    H142403   6.529   0.763   1.567
14154TIP3    H242404   6.483   0.767   1.423
14155TIP3   OH242405   5.373   2.783   4.274
14155TIP3    H142406   5.431   2.789   4.199
14155TIP3    H242407   5.415   2.837   4.342
14156TIP3   OH242408   4.695   7.155   4.272
14156TIP3    H142409   4.622   7.215   4.257
14156TIP3    H242410   4.720   7.126   4.184
14157TIP3   OH242411   2.077   4.886   1.600
14157TIP3    H142412   2.135   4.896   1.676
14157TIP3    H242413   1.991   4.911   1.632
14158TIP3   OH242414   3.820   4.011   0.124
14158TIP3    H142415   3.811   3.948   0.052
14158TIP3    H242416   3.914   4.013   0.142
14159TIP3   OH242417   5.413   2.057   0.021
14159TIP3    H142418   5.459   2.054   0.105
14159TIP3    H242419   5.321   2.072   0.044
14160TIP3   OH242420   3.919   0.806   2.004
14160TIP3    H142421   3.901   0.899   2.021
14160TIP3    H242422   3.854   0.780   1.938
14161TIP3   OH242423   7.301   6.740   3.079
14161TIP3    H142424   7.206   6.745   3.088
14161TIP3    H242425   7.321   6.796   3.004
14162TIP3   OH242426   1.677   3.615   1.704
14162TIP3    H142427   1.670   3.572   1.619
14162TIP3    H242428   1.590   3.651   1.720
14163TIP3   OH242429   0.722   0.044   1.936
14163TIP3    H142430   0.776   0.090   1.871
14163TIP3    H242431   0.716  -0.045   1.903
14164TIP3   OH242432   5.051   5.486   6.239
14164TIP3    H142433   5.124   5.535   6.275
14164TIP3    H242434   5.043   5.409   6.296
14165TIP3   OH242435   1.362   5.823   5.923
14165TIP3    H142436   1.269   5.841   5.911
14165TIP3    H242437   1.368   5.727   5.925
14166TIP3   OH242438   6.366   0.245   4.821
14166TIP3    H142439   6.341   0.248   4.729
14166TIP3    H242440   6.351   0.154   4.846
14167TIP3   OH242441   7.987   4.228   2.314
14167TIP3    H142442   7.963   4.320   2.323
14167TIP3    H242443   7.909   4.186   2.279
14168TIP3   OH242444   4.265   4.378   1.528
14168TIP3    H142445   4.318   4.406   1.603
14168TIP3    H242446   4.213   4.305   1.561
14169TIP3   OH242447   6.698   4.096   5.732
14169TIP3    H142448   6.652   4.141   5.662
14169TIP3    H242449   6.729   4.166   5.790
14170TIP3   OH242450   0.666   2.225   2.520
14170TIP3    H142451   0.731   2.211   2.451
14170TIP3    H242452   0.718   2.233   2.600
14171TIP3   OH242453   6.237   1.760   5.130
14171TIP3    H142454   6.287   1.836   5.100
14171TIP3    H242455   6.232   1.703   5.053
14172TIP3   OH242456   6.760   0.078   6.744
14172TIP3    H142457   6.849   0.097   6.773
14172TIP3    H242458   6.710   0.072   6.825
14173TIP3   OH242459   6.118   5.933   2.320
14173TIP3    H142460   6.102   5.839   2.311
14173TIP3    H242461   6.074   5.973   2.245
14174TIP3   OH242462   2.955   5.533   5.504
14174TIP3    H142463   2.915   5.585   5.573
14174TIP3    H242464   2.932   5.579   5.423
14175TIP3   OH242465   2.112   6.498   1.073
14175TIP3    H142466   2.200   6.461   1.069
14175TIP3    H242467   2.060   6.433   1.120
14176TIP3   OH242468   4.190   2.602   1.987
14176TIP3    H142469   4.185   2.507   1.991
14176TIP3    H242470   4.211   2.629   2.077
14177TIP3   OH242471   6.301   7.407   3.514
14177TIP3    H142472   6.315   7.402   3.608
14177TIP3    H242473   6.377   7.363   3.475
14178TIP3   OH242474   4.075   2.379   0.858
14178TIP3    H142475   4.160   2.418   0.836
14178TIP3    H242476   4.022   2.392   0.779
14179TIP3   OH242477   2.057   3.882   5.142
14179TIP3    H142478   2.008   3.809   5.105
14179TIP3    H242479   2.123   3.903   5.075
14180TIP3   OH242480   4.036   5.070   4.275
14180TIP3    H142481   4.009   4.995   4.328
14180TIP3    H242482   3.969   5.137   4.292
14181TIP3   OH242483   1.542   0.915   0.189
14181TIP3    H142484   1.495   0.952   0.264
14181TIP3    H242485   1.474   0.869   0.139
14182TIP3   OH242486   3.386   3.449   0.321
14182TIP3    H142487   3.453   3.508   0.354
14182TIP3    H242488   3.359   3.398   0.397
14183TIP3   OH242489   7.488   5.654   4.090
14183TIP3    H142490   7.518   5.635   4.179
14183TIP3    H242491   7.406   5.606   4.082
14184TIP3   OH242492   7.885   0.131   1.787
14184TIP3    H142493   7.828   0.163   1.857
14184TIP3    H242494   7.902   0.040   1.810
14185TIP3   OH242495   3.182   3.308   0.530
14185TIP3    H142496   3.149   3.352   0.452
14185TIP3    H242497   3.213   3.378   0.587
14186TIP3   OH242498   8.355   1.925   6.818
14186TIP3    H142499   8.423   1.952   6.757
14186TIP3    H242500   8.299   1.867   6.766
14187TIP3   OH242501   6.566   6.500   1.921
14187TIP3    H142502   6.635   6.537   1.866
14187TIP3    H242503   6.573   6.405   1.907
14188TIP3   OH242504   4.716   0.243   6.180
14188TIP3    H142505   4.641   0.293   6.147
14188TIP3    H242506   4.730   0.174   6.114
14189TIP3   OH242507   2.037   2.068   6.627
14189TIP3    H142508   2.067   1.978   6.641
14189TIP3    H242509   2.035   2.106   6.715
14190TIP3   OH242510   3.473   5.342   3.524
14190TIP3    H142511   3.512   5.276   3.467
14190TIP3    H242512   3.477   5.423   3.472
14191TIP3   OH242513   4.117   7.806   4.529
14191TIP3    H142514   4.094   7.781   4.619
14191TIP3    H242515   4.193   7.750   4.508
14192TIP3   OH242516   0.743   0.173   3.792
14192TIP3    H142517   0.695   0.247   3.756
14192TIP3    H242518   0.786   0.133   3.716
14193TIP3   OH242519   4.850   2.115   3.751
14193TIP3    H142520   4.936   2.072   3.746
14193TIP3    H242521   4.799   2.059   3.808
14194TIP3   OH242522   3.792   3.436   6.663
14194TIP3    H142523   3.857   3.476   6.606
14194TIP3    H242524   3.731   3.392   6.604
14195TIP3   OH242525   2.204   1.027   2.585
14195TIP3    H142526   2.143   1.061   2.651
14195TIP3    H242527   2.235   1.105   2.539
14196TIP3   OH242528   7.266   5.712   2.107
14196TIP3    H142529   7.300   5.696   2.195
14196TIP3    H242530   7.343   5.704   2.050
14197TIP3   OH242531   7.422   0.611   4.926
14197TIP3    H142532   7.349   0.630   4.986
14197TIP3    H242533   7.454   0.697   4.900
14198TIP3   OH242534   7.449   2.770   1.676
14198TIP3    H142535   7.456   2.785   1.582
14198TIP3    H242536   7.539   2.767   1.707
14199TIP3   OH242537   7.562   5.297   1.228
14199TIP3    H142538   7.471   5.268   1.222
14199TIP3    H242539   7.576   5.352   1.151
14200TIP3   OH242540   1.822   2.443   5.591
14200TIP3    H142541   1.730   2.436   5.616
14200TIP3    H242542   1.868   2.465   5.672
14201TIP3   OH242543   2.598   0.092   0.794
14201TIP3    H142544   2.541   0.018   0.773
14201TIP3    H242545   2.654   0.059   0.865
14202TIP3   OH242546   0.215   0.043   5.738
14202TIP3    H142547   0.291   0.044   5.680
14202TIP3    H242548   0.146   0.088   5.688
14203TIP3   OH242549   6.549   3.426   4.771
14203TIP3    H142550   6.626   3.472   4.738
14203TIP3    H242551   6.565   3.334   4.749
14204TIP3   OH242552   2.171   2.241   3.235
14204TIP3    H142553   2.119   2.169   3.198
14204TIP3    H242554   2.174   2.307   3.166
14205TIP3   OH242555   0.999   3.788   3.599
14205TIP3    H142556   0.910   3.772   3.628
14205TIP3    H242557   0.998   3.878   3.565
14206TIP3   OH242558   0.166   0.585   3.654
14206TIP3    H142559   0.242   0.538   3.688
14206TIP3    H242560   0.198   0.674   3.638
14207TIP3   OH242561   5.359   0.146   1.129
14207TIP3    H142562   5.416   0.072   1.109
14207TIP3    H242563   5.413   0.223   1.113
14208TIP3   OH242564   0.370   4.146   3.059
14208TIP3    H142565   0.286   4.129   3.018
14208TIP3    H242566   0.352   4.214   3.124
14209TIP3   OH242567   3.783   3.670   1.575
14209TIP3    H142568   3.865   3.698   1.534
14209TIP3    H242569   3.729   3.749   1.576
14210TIP3   OH242570   4.889   4.424   3.299
14210TIP3    H142571   4.887   4.443   3.205
14210TIP3    H242572   4.961   4.477   3.333
14211TIP3   OH242573   5.046   0.484   6.814
14211TIP3    H142574   5.020   0.488   6.906
14211TIP3    H242575   5.130   0.530   6.811
14212TIP3   OH242576  -0.015   6.860   1.860
14212TIP3    H142577   0.057   6.856   1.923
14212TIP3    H242578   0.028   6.874   1.776
14213TIP3   OH242579   2.860   7.860   5.465
14213TIP3    H142580   2.818   7.946   5.475
14213TIP3    H242581   2.944   7.868   5.510
14214TIP3   OH242582   1.520   0.214   4.411
14214TIP3    H142583   1.542   0.290   4.358
14214TIP3    H242584   1.595   0.204   4.470
14215TIP3   OH242585   6.366   3.359   0.345
14215TIP3    H142586   6.338   3.419   0.276
14215TIP3    H242587   6.346   3.404   0.427
14216TIP3   OH242588   3.302   0.041   0.510
14216TIP3    H142589   3.243  -0.033   0.522
14216TIP3    H242590   3.384   0.014   0.553
14217TIP3   OH242591   5.634   1.668   4.115
14217TIP3    H142592   5.615   1.754   4.153
14217TIP3    H242593   5.722   1.647   4.145
14218TIP3   OH242594   2.561   2.150   5.859
14218TIP3    H142595   2.494   2.150   5.927
14218TIP3    H242596   2.556   2.237   5.820
14219TIP3   OH242597   5.466   7.260   2.530
14219TIP3    H142598   5.486   7.258   2.623
14219TIP3    H242599   5.428   7.347   2.516
14220TIP3   OH242600   2.917   1.178   0.101
14220TIP3    H142601   2.916   1.253   0.042
14220TIP3    H242602   2.855   1.116   0.062
14221TIP3   OH242603   3.816   0.587   6.155
14221TIP3    H142604   3.757   0.550   6.090
14221TIP3    H242605   3.904   0.563   6.125
14222TIP3   OH242606   2.500   6.516   0.899
14222TIP3    H142607   2.506   6.593   0.842
14222TIP3    H242608   2.438   6.458   0.855
14223TIP3   OH242609   4.736   2.355   6.221
14223TIP3    H142610   4.731   2.449   6.204
14223TIP3    H242611   4.645   2.327   6.229
14224TIP3   OH242612   4.739   5.218   3.943
14224TIP3    H142613   4.784   5.135   3.932
14224TIP3    H242614   4.716   5.245   3.854
14225TIP3   OH242615   6.068   6.240   5.543
14225TIP3    H142616   6.026   6.326   5.549
14225TIP3    H242617   5.998   6.181   5.515
14226TIP3   OH242618   2.934   3.120   1.746
14226TIP3    H142619   3.007   3.182   1.739
14226TIP3    H242620   2.975   3.038   1.772
14227TIP3   OH242621   7.656   3.656   0.935
14227TIP3    H142622   7.580   3.620   0.979
14227TIP3    H242623   7.630   3.745   0.911
14228TIP3   OH242624   7.105   4.200   5.181
14228TIP3    H142625   7.101   4.159   5.267
14228TIP3    H242626   7.014   4.207   5.152
14229TIP3   OH242627   4.088   4.574   4.264
14229TIP3    H142628   4.121   4.518   4.333
14229TIP3    H242629   4.034   4.517   4.209
14230TIP3   OH242630   5.228   6.658   3.283
14230TIP3    H142631   5.237   6.674   3.190
14230TIP3    H242632   5.309   6.612   3.308
14231TIP3   OH242633   1.373   0.723   3.158
14231TIP3    H142634   1.465   0.738   3.134
14231TIP3    H242635   1.339   0.809   3.180
14232TIP3   OH242636   4.617   5.020   1.910
14232TIP3    H142637   4.678   4.976   1.851
14232TIP3    H242638   4.662   5.101   1.934
14233TIP3   OH242639   1.074   3.059   6.254
14233TIP3    H142640   1.167   3.052   6.233
14233TIP3    H242641   1.070   3.119   6.329
14234TIP3   OH242642   2.758   2.956   4.409
14234TIP3    H142643   2.689   2.914   4.461
14234TIP3    H242644   2.735   3.049   4.409
14235TIP3   OH242645   7.989   1.265   6.761
14235TIP3    H142646   7.939   1.318   6.823
14235TIP3    H242647   7.923   1.216   6.713
14236TIP3   OH242648   7.460   7.529   3.371
14236TIP3    H142649   7.458   7.510   3.464
14236TIP3    H242650   7.536   7.482   3.338
14237TIP3   OH242651   4.060   7.659   1.954
14237TIP3    H142652   4.090   7.750   1.953
14237TIP3    H242653   4.111   7.616   1.885
14238TIP3   OH242654   7.340   0.543   3.657
14238TIP3    H142655   7.278   0.558   3.729
14238TIP3    H242656   7.359   0.449   3.661
14239TIP3   OH242657   1.576   7.182   4.697
14239TIP3    H142658   1.506   7.232   4.740
14239TIP3    H242659   1.616   7.131   4.767
14240TIP3   OH242660   0.467   2.315   4.777
14240TIP3    H142661   0.512   2.231   4.785
14240TIP3    H242662   0.475   2.336   4.684
14241TIP3   OH242663   4.471   3.868   5.974
14241TIP3    H142664   4.422   3.950   5.978
14241TIP3    H242665   4.535   3.882   5.905
14242TIP3   OH242666   8.034   6.495   5.209
14242TIP3    H142667   7.997   6.415   5.172
14242TIP3    H242668   7.972   6.564   5.184
14243TIP3   OH242669   0.623   1.718   3.192
14243TIP3    H142670   0.547   1.777   3.194
14243TIP3    H242671   0.585   1.631   3.183
14244TIP3   OH242672   6.023   2.840   5.690
14244TIP3    H142673   6.024   2.767   5.627
14244TIP3    H242674   6.088   2.901   5.656
14245TIP3   OH242675   7.098   0.106   2.015
14245TIP3    H142676   7.011   0.108   1.977
14245TIP3    H242677   7.152   0.062   1.949
14246TIP3   OH242678   1.718   5.577   0.117
14246TIP3    H142679   1.740   5.619   0.034
14246TIP3    H242680   1.750   5.638   0.184
14247TIP3   OH242681   6.111  -0.006   1.951
14247TIP3    H142682   6.059  -0.053   1.886
14247TIP3    H242683   6.191   0.019   1.905
14248TIP3   OH242684   3.934   1.381   5.489
14248TIP3    H142685   4.021   1.370   5.453
14248TIP3    H242686   3.913   1.474   5.473
14249TIP3   OH242687   6.710   4.448   5.379
14249TIP3    H142688   6.678   4.492   5.300
14249TIP3    H242689   6.741   4.519   5.435
14250TIP3   OH242690   7.189   3.095   5.651
14250TIP3    H142691   7.236   3.014   5.673
14250TIP3    H242692   7.118   3.098   5.715
14251TIP3   OH242693   0.143   6.401   5.584
14251TIP3    H142694   0.089   6.458   5.639
14251TIP3    H242695   0.163   6.454   5.507
14252TIP3   OH242696   7.342   1.279   3.749
14252TIP3    H142697   7.438   1.287   3.748
14252TIP3    H242698   7.311   1.360   3.789
14253TIP3   OH242699   2.848   6.706   5.659
14253TIP3    H142700   2.861   6.799   5.676
14253TIP3    H242701   2.878   6.694   5.569
14254TIP3   OH242702   4.357   5.494   5.879
14254TIP3    H142703   4.349   5.585   5.908
14254TIP3    H242704   4.363   5.443   5.960
14255TIP3   OH242705   4.167   4.103   2.897
14255TIP3    H142706   4.103   4.036   2.922
14255TIP3    H242707   4.237   4.093   2.961
14256TIP3   OH242708   7.071   3.809   4.388
14256TIP3    H142709   7.135   3.875   4.416
14256TIP3    H242710   7.116   3.759   4.320
14257TIP3   OH242711   0.279   1.272   4.757
14257TIP3    H142712   0.334   1.205   4.716
14257TIP3    H242713   0.190   1.250   4.730
14258TIP3   OH242714   4.909   7.614   4.186
14258TIP3    H142715   4.997   7.642   4.212
14258TIP3    H242716   4.858   7.694   4.184
14259TIP3   OH242717   4.342   6.414   6.838
14259TIP3    H142718   4.355   6.507   6.858
14259TIP3    H242719   4.392   6.399   6.758
14260TIP3   OH242720   2.630   5.405   4.981
14260TIP3    H142721   2.599   5.490   4.952
14260TIP3    H242722   2.551   5.361   5.013
14261TIP3   OH242723   0.126   3.641   5.645
14261TIP3    H142724   0.215   3.674   5.628
14261TIP3    H242725   0.132   3.547   5.627
14262TIP3   OH242726   7.976   3.786   5.794
14262TIP3    H142727   7.907   3.783   5.860
14262TIP3    H242728   8.031   3.860   5.820
14263TIP3   OH242729   6.608   0.196   2.099
14263TIP3    H142730   6.579   0.269   2.153
14263TIP3    H242731   6.566   0.211   2.014
14264TIP3   OH242732   0.004   0.654   3.107
14264TIP3    H142733   0.035   0.588   3.169
14264TIP3    H242734   0.084   0.687   3.066
14265TIP3   OH242735   7.355   6.283   4.628
14265TIP3    H142736   7.371   6.191   4.653
14265TIP3    H242737   7.285   6.279   4.563
14266TIP3   OH242738   2.926   2.906   3.674
14266TIP3    H142739   3.021   2.914   3.665
14266TIP3    H242740   2.907   2.935   3.763
14267TIP3   OH242741   5.562   5.715   5.630
14267TIP3    H142742   5.636   5.771   5.610
14267TIP3    H242743   5.591   5.626   5.607
14268TIP3   OH242744   6.965   3.174   0.245
14268TIP3    H142745   6.980   3.252   0.299
14268TIP3    H242746   6.955   3.103   0.308
14269TIP3   OH242747   7.708   3.995   3.037
14269TIP3    H142748   7.787   4.018   2.989
14269TIP3    H242749   7.637   4.039   2.990
14270TIP3   OH242750   5.639   2.791   4.356
14270TIP3    H142751   5.575   2.752   4.415
14270TIP3    H242752   5.689   2.716   4.321
14271TIP3   OH242753   3.331   2.265   0.657
14271TIP3    H142754   3.262   2.220   0.706
14271TIP3    H242755   3.410   2.213   0.672
14272TIP3   OH242756   8.184   3.925   0.337
14272TIP3    H142757   8.269   3.939   0.378
14272TIP3    H242758   8.176   3.995   0.273
14273TIP3   OH242759   7.996   7.184   5.419
14273TIP3    H142760   7.927   7.224   5.471
14273TIP3    H242761   8.074   7.237   5.438
14274TIP3   OH242762   4.383   2.929   2.942
14274TIP3    H142763   4.472   2.902   2.963
14274TIP3    H242764   4.363   2.888   2.858
14275TIP3   OH242765   3.525   6.994   3.979
14275TIP3    H142766   3.560   6.929   4.039
14275TIP3    H242767   3.438   6.960   3.956
14276TIP3   OH242768   8.343   7.845   1.913
14276TIP3    H142769   8.256   7.846   1.952
14276TIP3    H242770   8.380   7.760   1.938
14277TIP3   OH242771   0.990   7.135   2.007
14277TIP3    H142772   1.028   7.215   1.972
14277TIP3    H242773   1.064   7.074   2.016
14278TIP3   OH242774   1.240   1.738   4.836
14278TIP3    H142775   1.157   1.694   4.822
14278TIP3    H242776   1.286   1.732   4.752
14279TIP3   OH242777   4.032   0.169   6.832
14279TIP3    H142778   3.970   0.241   6.829
14279TIP3    H242779   4.083   0.177   6.751
14280TIP3   OH242780   8.164   3.029   6.740
14280TIP3    H142781   8.248   2.993   6.711
14280TIP3    H242782   8.187   3.097   6.803
14281TIP3   OH242783   5.969   0.291   3.544
14281TIP3    H142784   5.997   0.211   3.587
14281TIP3    H242785   5.884   0.310   3.582
14282TIP3   OH242786   6.503   3.915   1.716
14282TIP3    H142787   6.476   3.985   1.777
14282TIP3    H242788   6.420   3.878   1.685
14283TIP3   OH242789   8.075   4.648   4.575
14283TIP3    H142790   8.152   4.689   4.535
14283TIP3    H242791   8.024   4.722   4.607
14284TIP3   OH242792   6.713   0.366   5.298
14284TIP3    H142793   6.709   0.274   5.271
14284TIP3    H242794   6.664   0.413   5.230
14285TIP3   OH242795   0.336   7.593   6.248
14285TIP3    H142796   0.244   7.576   6.267
14285TIP3    H242797   0.382   7.560   6.325
14286TIP3   OH242798   1.626   1.472   3.475
14286TIP3    H142799   1.582   1.388   3.485
14286TIP3    H242800   1.659   1.493   3.562
14287TIP3   OH242801   5.666   0.250   0.833
14287TIP3    H142802   5.759   0.228   0.826
14287TIP3    H242803   5.621   0.166   0.820
14288TIP3   OH242804   4.246   0.477   5.170
14288TIP3    H142805   4.253   0.464   5.075
14288TIP3    H242806   4.171   0.422   5.195
14289TIP3   OH242807   2.581   3.884   1.799
14289TIP3    H142808   2.666   3.862   1.762
14289TIP3    H242809   2.523   3.887   1.723
14290TIP3   OH242810   2.799   0.128   4.354
14290TIP3    H142811   2.744   0.103   4.428
14290TIP3    H242812   2.793   0.054   4.293
14291TIP3   OH242813   4.655   4.584   5.048
14291TIP3    H142814   4.719   4.590   5.119
14291TIP3    H242815   4.653   4.672   5.009
14292TIP3   OH242816   1.416   2.539   3.020
14292TIP3    H142817   1.437   2.450   2.994
14292TIP3    H242818   1.492   2.568   3.071
14293TIP3   OH242819   4.875   1.430   1.080
14293TIP3    H142820   4.917   1.492   1.021
14293TIP3    H242821   4.834   1.365   1.023
14294TIP3   OH242822   2.416   0.253   4.253
14294TIP3    H142823   2.346   0.265   4.188
14294TIP3    H242824   2.405   0.163   4.283
14295TIP3   OH242825   3.733   3.679   3.873
14295TIP3    H142826   3.808   3.635   3.912
14295TIP3    H242827   3.725   3.642   3.786
14296TIP3   OH242828   7.127   2.645   5.390
14296TIP3    H142829   7.060   2.712   5.399
14296TIP3    H242830   7.109   2.583   5.461
14297TIP3   OH242831   3.551   0.692   4.147
14297TIP3    H142832   3.565   0.632   4.221
14297TIP3    H242833   3.578   0.777   4.180
14298TIP3   OH242834   6.675   4.682   6.311
14298TIP3    H142835   6.636   4.706   6.227
14298TIP3    H242836   6.602   4.653   6.364
14299TIP3   OH242837   6.984   4.066   5.668
14299TIP3    H142838   6.952   4.008   5.598
14299TIP3    H242839   6.914   4.128   5.682
14300TIP3   OH242840   1.226   2.566   5.247
14300TIP3    H142841   1.293   2.580   5.314
14300TIP3    H242842   1.145   2.552   5.297
14301TIP3   OH242843   0.438   1.141   2.512
14301TIP3    H142844   0.462   1.077   2.446
14301TIP3    H242845   0.521   1.179   2.541
14302TIP3   OH242846   8.274   5.330   0.137
14302TIP3    H142847   8.315   5.385   0.070
14302TIP3    H242848   8.347   5.299   0.190
14303TIP3   OH242849   0.891   1.654   1.151
14303TIP3    H142850   0.946   1.610   1.086
14303TIP3    H242851   0.937   1.641   1.234
14304TIP3   OH242852   3.739   0.201   3.446
14304TIP3    H142853   3.697   0.160   3.370
14304TIP3    H242854   3.818   0.149   3.461
14305TIP3   OH242855   6.572   4.809   2.224
14305TIP3    H142856   6.508   4.880   2.229
14305TIP3    H242857   6.653   4.852   2.196
14306TIP3   OH242858   6.180   7.143   4.785
14306TIP3    H142859   6.230   7.086   4.843
14306TIP3    H242860   6.142   7.209   4.842
14307TIP3   OH242861   5.208   5.203   4.025
14307TIP3    H142862   5.153   5.281   4.023
14307TIP3    H242863   5.157   5.139   4.074
14308TIP3   OH242864   1.834   7.241   2.950
14308TIP3    H142865   1.879   7.164   2.984
14308TIP3    H242866   1.880   7.315   2.991
14309TIP3   OH242867   5.889   1.495   4.855
14309TIP3    H142868   5.947   1.437   4.904
14309TIP3    H242869   5.805   1.488   4.899
14310TIP3   OH242870   3.647   7.031   2.416
14310TIP3    H142871   3.719   6.970   2.403
14310TIP3    H242872   3.577   6.978   2.452
14311TIP3   OH242873   1.109   6.226   5.634
14311TIP3    H142874   1.148   6.139   5.638
14311TIP3    H242875   1.015   6.210   5.640
14312TIP3   OH242876   0.496   7.838   0.127
14312TIP3    H142877   0.564   7.788   0.172
14312TIP3    H242878   0.428   7.774   0.106
14313TIP3   OH242879   3.945   1.395   1.572
14313TIP3    H142880   3.900   1.453   1.511
14313TIP3    H242881   3.954   1.312   1.524
14314TIP3   OH242882   4.586   6.239   6.098
14314TIP3    H142883   4.592   6.274   6.187
14314TIP3    H242884   4.648   6.292   6.048
14315TIP3   OH242885   2.826   4.250   4.727
14315TIP3    H142886   2.819   4.337   4.688
14315TIP3    H242887   2.892   4.205   4.673
14316TIP3   OH242888   8.348   6.402   3.715
14316TIP3    H142889   8.359   6.494   3.695
14316TIP3    H242890   8.257   6.383   3.691
14317TIP3   OH242891   6.185   0.517   0.380
14317TIP3    H142892   6.172   0.526   0.286
14317TIP3    H242893   6.262   0.570   0.399
14318TIP3   OH242894   6.023   0.283   3.027
14318TIP3    H142895   6.091   0.221   3.001
14318TIP3    H242896   5.947   0.259   2.974
14319TIP3   OH242897   1.811   5.652   4.019
14319TIP3    H142898   1.772   5.686   3.939
14319TIP3    H242899   1.884   5.598   3.990
14320TIP3   OH242900   2.926   7.800   2.687
14320TIP3    H142901   2.971   7.753   2.617
14320TIP3    H242902   2.848   7.837   2.645
14321TIP3   OH242903   3.123   6.683   2.717
14321TIP3    H142904   3.080   6.768   2.726
14321TIP3    H242905   3.204   6.692   2.767
14322TIP3   OH242906   1.846   3.853   1.086
14322TIP3    H142907   1.802   3.769   1.070
14322TIP3    H242908   1.775   3.917   1.087
14323TIP3   OH242909   5.333   7.791   0.496
14323TIP3    H142910   5.329   7.851   0.570
14323TIP3    H242911   5.379   7.714   0.529
14324TIP3   OH242912   5.132   2.884   5.572
14324TIP3    H142913   5.200   2.891   5.505
14324TIP3    H242914   5.050   2.894   5.524
14325TIP3   OH242915   1.366   2.726   0.413
14325TIP3    H142916   1.292   2.706   0.355
14325TIP3    H242917   1.394   2.814   0.386
14326TIP3   OH242918   0.187   5.849   5.060
14326TIP3    H142919   0.125   5.789   5.021
14326TIP3    H242920   0.164   5.935   5.024
14327TIP3   OH242921   7.362   6.060   3.685
14327TIP3    H142922   7.355   6.014   3.769
14327TIP3    H242923   7.321   6.145   3.701
14328TIP3   OH242924   4.862   6.030   1.737
14328TIP3    H142925   4.792   6.093   1.722
14328TIP3    H242926   4.818   5.953   1.773
14329TIP3   OH242927   5.505   1.095   3.670
14329TIP3    H142928   5.471   1.177   3.707
14329TIP3    H242929   5.485   1.100   3.577
14330TIP3   OH242930   3.733   6.319   4.255
14330TIP3    H142931   3.639   6.307   4.243
14330TIP3    H242932   3.742   6.370   4.335
14331TIP3   OH242933   5.278   6.137   3.944
14331TIP3    H142934   5.280   6.044   3.921
14331TIP3    H242935   5.307   6.182   3.865
14332TIP3   OH242936   5.263   4.223   4.881
14332TIP3    H142937   5.228   4.286   4.817
14332TIP3    H242938   5.358   4.229   4.870
14333TIP3   OH242939   3.463   0.395   3.106
14333TIP3    H142940   3.552   0.380   3.072
14333TIP3    H242941   3.457   0.337   3.182
14334TIP3   OH242942   3.244   6.857   1.307
14334TIP3    H142943   3.311   6.792   1.284
14334TIP3    H242944   3.218   6.895   1.223
14335TIP3   OH242945   0.772   7.700   1.266
14335TIP3    H142946   0.724   7.770   1.310
14335TIP3    H242947   0.839   7.673   1.330
14336TIP3   OH242948   4.822   6.796   6.780
14336TIP3    H142949   4.824   6.722   6.719
14336TIP3    H242950   4.815   6.756   6.867
14337TIP3   OH242951   0.091   7.052   0.856
14337TIP3    H142952   0.029   7.095   0.916
14337TIP3    H242953   0.106   6.966   0.895
14338TIP3   OH242954   2.517   5.312   2.495
14338TIP3    H142955   2.541   5.355   2.577
14338TIP3    H242956   2.551   5.223   2.504
14339TIP3   OH242957   6.745   7.945   1.386
14339TIP3    H142958   6.666   7.952   1.333
14339TIP3    H242959   6.717   7.899   1.465
14340TIP3   OH242960   6.221   4.975   5.505
14340TIP3    H142961   6.314   4.998   5.507
14340TIP3    H242962   6.181   5.029   5.574
14341TIP3   OH242963   6.360   7.714   4.935
14341TIP3    H142964   6.448   7.676   4.931
14341TIP3    H242965   6.307   7.654   4.883
14342TIP3   OH242966   5.044   2.763   0.970
14342TIP3    H142967   5.074   2.841   1.016
14342TIP3    H242968   4.960   2.788   0.933
14343TIP3   OH242969   7.991   0.498   1.215
14343TIP3    H142970   7.928   0.558   1.253
14343TIP3    H242971   7.980   0.417   1.264
14344TIP3   OH242972   4.520   6.098   5.682
14344TIP3    H142973   4.588   6.142   5.734
14344TIP3    H242974   4.464   6.170   5.651
14345TIP3   OH242975   5.589   7.733   2.957
14345TIP3    H142976   5.579   7.790   3.034
14345TIP3    H242977   5.680   7.743   2.931
14346TIP3   OH242978   0.347   4.255   4.242
14346TIP3    H142979   0.418   4.319   4.252
14346TIP3    H242980   0.299   4.259   4.324
14347TIP3   OH242981   7.341   4.861   6.685
14347TIP3    H142982   7.247   4.867   6.666
14347TIP3    H242983   7.368   4.951   6.704
14348TIP3   OH242984   4.943   4.262   5.338
14348TIP3    H142985   4.970   4.340   5.385
14348TIP3    H242986   5.024   4.215   5.320
14349TIP3   OH242987   1.630   6.955   2.032
14349TIP3    H142988   1.710   6.972   2.082
14349TIP3    H242989   1.649   6.988   1.944
14350TIP3   OH242990   1.010   1.051   0.959
14350TIP3    H142991   1.048   1.085   0.878
14350TIP3    H242992   0.970   1.127   1.001
14351TIP3   OH242993   0.395   5.824   1.367
14351TIP3    H142994   0.472   5.789   1.412
14351TIP3    H242995   0.325   5.820   1.432
14352TIP3   OH242996   3.600   2.569   6.750
14352TIP3    H142997   3.507   2.558   6.772
14352TIP3    H242998   3.624   2.653   6.790
14353TIP3   OH242999   7.657   1.737   6.247
14353TIP3    H143000   7.604   1.805   6.206
14353TIP3    H243001   7.617   1.724   6.333
14354TIP3   OH243002   4.465   5.089   5.125
14354TIP3    H143003   4.423   5.024   5.181
14354TIP3    H243004   4.393   5.143   5.092
14355TIP3   OH243005   3.759   0.488   3.458
14355TIP3    H143006   3.768   0.527   3.371
14355TIP3    H243007   3.739   0.396   3.442
14356TIP3   OH243008   5.852   6.234   4.426
14356TIP3    H143009   5.814   6.156   4.467
14356TIP3    H243010   5.791   6.257   4.356
14357TIP3   OH243011   5.501   4.911   2.056
14357TIP3    H143012   5.528   4.872   2.139
14357TIP3    H243013   5.405   4.902   2.055
14358TIP3   OH243014   6.463   6.106   6.668
14358TIP3    H143015   6.479   6.057   6.749
14358TIP3    H243016   6.511   6.059   6.601
14359TIP3   OH243017   5.135   5.165   5.893
14359TIP3    H143018   5.184   5.108   5.953
14359TIP3    H243019   5.122   5.111   5.815
14360TIP3   OH243020   3.590   5.283   2.256
14360TIP3    H143021   3.565   5.373   2.235
14360TIP3    H243022   3.610   5.286   2.350
14361TIP3   OH243023   2.940   1.757   5.648
14361TIP3    H143024   2.914   1.709   5.727
14361TIP3    H243025   2.971   1.690   5.588
14362TIP3   OH243026   4.946   2.781   6.349
14362TIP3    H143027   4.898   2.857   6.317
14362TIP3    H243028   4.879   2.725   6.387
14363TIP3   OH243029   3.683   2.998   0.656
14363TIP3    H143030   3.688   2.961   0.744
14363TIP3    H243031   3.695   2.923   0.597
14364TIP3   OH243032   4.297   3.519   3.859
14364TIP3    H143033   4.208   3.483   3.855
14364TIP3    H243034   4.345   3.472   3.790
14365TIP3   OH243035   4.652   2.121   4.589
14365TIP3    H143036   4.603   2.061   4.533
14365TIP3    H243037   4.587   2.182   4.622
14366TIP3   OH243038   1.303   3.464   1.926
14366TIP3    H143039   1.364   3.391   1.936
14366TIP3    H243040   1.327   3.504   1.842
14367TIP3   OH243041   0.359   4.610   4.403
14367TIP3    H143042   0.358   4.524   4.445
14367TIP3    H243043   0.370   4.672   4.475
14368TIP3   OH243044   7.292   4.049   1.939
14368TIP3    H143045   7.249   4.069   2.022
14368TIP3    H243046   7.229   4.076   1.872
14369TIP3   OH243047   7.278   1.542   6.575
14369TIP3    H143048   7.293   1.624   6.623
14369TIP3    H243049   7.294   1.473   6.639
14370TIP3   OH243050   0.976   4.929   3.727
14370TIP3    H143051   1.041   4.981   3.776
14370TIP3    H243052   0.962   4.979   3.646
14371TIP3   OH243053   2.508   1.809   3.287
14371TIP3    H143054   2.499   1.730   3.235
14371TIP3    H243055   2.419   1.831   3.314
14372TIP3   OH243056   0.120   2.867   1.124
14372TIP3    H143057   0.145   2.845   1.214
14372TIP3    H243058   0.202   2.865   1.075
14373TIP3   OH243059   7.255   0.979   1.534
14373TIP3    H143060   7.289   1.060   1.573
14373TIP3    H243061   7.168   1.002   1.503
14374TIP3   OH243062   0.325   4.322   1.017
14374TIP3    H143063   0.249   4.264   1.029
14374TIP3    H243064   0.380   4.305   1.093
14375TIP3   OH243065   8.199   6.778   1.174
14375TIP3    H143066   8.198   6.786   1.269
14375TIP3    H243067   8.130   6.714   1.155
14376TIP3   OH243068   0.737   3.477   1.795
14376TIP3    H143069   0.803   3.410   1.813
14376TIP3    H243070   0.778   3.535   1.731
14377TIP3   OH243071   8.048   3.875   5.076
14377TIP3    H143072   8.120   3.886   5.139
14377TIP3    H243073   8.041   3.960   5.033
14378TIP3   OH243074   0.292   4.072   0.716
14378TIP3    H143075   0.243   4.154   0.719
14378TIP3    H243076   0.306   4.056   0.623
14379TIP3   OH243077   6.009   7.335   0.411
14379TIP3    H143078   6.040   7.342   0.321
14379TIP3    H243079   5.936   7.396   0.417
14380TIP3   OH243080   5.926   7.084   0.449
14380TIP3    H143081   5.911   7.179   0.447
14380TIP3    H243082   5.846   7.048   0.486
14381TIP3   OH243083   0.364   0.568   1.921
14381TIP3    H143084   0.430   0.509   1.884
14381TIP3    H243085   0.283   0.546   1.874
14382TIP3   OH243086   7.978   0.059   6.176
14382TIP3    H143087   8.033   0.037   6.100
14382TIP3    H243088   7.910   0.116   6.140
14383TIP3   OH243089   6.602   0.245   6.121
14383TIP3    H143090   6.670   0.279   6.063
14383TIP3    H243091   6.632   0.268   6.209
14384TIP3   OH243092   1.393   6.556   2.719
14384TIP3    H143093   1.393   6.647   2.750
14384TIP3    H243094   1.465   6.515   2.767
14385TIP3   OH243095   5.481   2.973   0.816
14385TIP3    H143096   5.575   2.953   0.813
14385TIP3    H243097   5.461   3.004   0.727
14386TIP3   OH243098   3.387   5.472   5.998
14386TIP3    H143099   3.415   5.561   6.020
14386TIP3    H243100   3.469   5.424   5.986
14387TIP3   OH243101   7.456   5.513   5.394
14387TIP3    H143102   7.509   5.520   5.473
14387TIP3    H243103   7.367   5.498   5.426
14388TIP3   OH243104   3.754   1.152   1.976
14388TIP3    H143105   3.717   1.145   2.064
14388TIP3    H243106   3.696   1.213   1.931
14389TIP3   OH243107   5.578   2.743   3.137
14389TIP3    H143108   5.504   2.768   3.192
14389TIP3    H243109   5.557   2.779   3.050
14390TIP3   OH243110   7.948   5.664   6.805
14390TIP3    H143111   7.913   5.576   6.818
14390TIP3    H243112   8.018   5.673   6.869
14391TIP3   OH243113   3.550   5.412   6.548
14391TIP3    H143114   3.521   5.473   6.481
14391TIP3    H243115   3.622   5.457   6.592
14392TIP3   OH243116   7.464   2.887   2.035
14392TIP3    H143117   7.527   2.939   2.084
14392TIP3    H243118   7.382   2.897   2.084
14393TIP3   OH243119   7.225   5.346   2.930
14393TIP3    H143120   7.201   5.298   2.851
14393TIP3    H243121   7.317   5.324   2.944
14394TIP3   OH243122   5.591   2.937   2.359
14394TIP3    H143123   5.634   2.852   2.367
14394TIP3    H243124   5.653   2.990   2.309
14395TIP3   OH243125   1.657   2.958   2.719
14395TIP3    H143126   1.614   2.954   2.633
14395TIP3    H243127   1.710   2.879   2.723
14396TIP3   OH243128   7.468   0.285   2.321
14396TIP3    H143129   7.539   0.292   2.385
14396TIP3    H243130   7.512   0.266   2.238
14397TIP3   OH243131   2.489   4.590   2.135
14397TIP3    H143132   2.493   4.554   2.046
14397TIP3    H243133   2.561   4.547   2.181
14398TIP3   OH243134   2.425   7.090   2.802
14398TIP3    H143135   2.353   7.073   2.862
14398TIP3    H243136   2.386   7.142   2.731
14399TIP3   OH243137   1.004   5.475   4.243
14399TIP3    H143138   1.093   5.485   4.277
14399TIP3    H243139   0.953   5.445   4.318
14400TIP3   OH243140   6.557   2.640   2.891
14400TIP3    H143141   6.570   2.711   2.828
14400TIP3    H243142   6.483   2.669   2.945
14401TIP3   OH243143   2.869   6.124   4.446
14401TIP3    H143144   2.807   6.196   4.438
14401TIP3    H243145   2.850   6.067   4.372
14402TIP3   OH243146   5.636   4.549   1.889
14402TIP3    H143147   5.646   4.487   1.962
14402TIP3    H243148   5.546   4.580   1.897
14403TIP3   OH243149   6.249   6.889   0.964
14403TIP3    H143150   6.183   6.941   0.920
14403TIP3    H243151   6.317   6.875   0.898
14404TIP3   OH243152   7.045   1.794   1.349
14404TIP3    H143153   7.026   1.878   1.389
14404TIP3    H243154   7.048   1.812   1.256
14405TIP3   OH243155   0.754   5.831   0.246
14405TIP3    H143156   0.824   5.774   0.277
14405TIP3    H243157   0.674   5.796   0.284
14406TIP3   OH243158   4.182   7.395   0.727
14406TIP3    H143159   4.263   7.345   0.716
14406TIP3    H243160   4.149   7.370   0.813
14407TIP3   OH243161   1.530   7.607   4.718
14407TIP3    H143162   1.528   7.576   4.627
14407TIP3    H243163   1.617   7.583   4.749
14408TIP3   OH243164   8.100   6.413   1.538
14408TIP3    H143165   8.145   6.434   1.620
14408TIP3    H243166   8.008   6.431   1.557
14409TIP3   OH243167   6.096   1.127   0.595
14409TIP3    H143168   6.007   1.158   0.579
14409TIP3    H243169   6.145   1.158   0.519
14410TIP3   OH243170   3.949   5.333   0.354
14410TIP3    H143171   3.862   5.356   0.385
14410TIP3    H243172   3.993   5.296   0.431
14411TIP3   OH243173   5.282   2.763   1.622
14411TIP3    H143174   5.250   2.696   1.562
14411TIP3    H243175   5.256   2.846   1.581
14412TIP3   OH243176   3.096   2.572   4.666
14412TIP3    H143177   3.079   2.498   4.724
14412TIP3    H243178   3.191   2.583   4.668
14413TIP3   OH243179   6.009   3.453   5.864
14413TIP3    H143180   6.071   3.509   5.912
14413TIP3    H243181   6.058   3.426   5.786
14414TIP3   OH243182   3.580   0.015   0.971
14414TIP3    H143183   3.543  -0.005   1.056
14414TIP3    H243184   3.578   0.111   0.966
14415TIP3   OH243185   6.541   4.833   6.639
14415TIP3    H143186   6.628   4.802   6.612
14415TIP3    H243187   6.508   4.763   6.695
14416TIP3   OH243188   0.204   5.853   1.570
14416TIP3    H143189   0.155   5.926   1.531
14416TIP3    H243190   0.208   5.874   1.663
14417TIP3   OH243191   7.578   7.476   0.310
14417TIP3    H143192   7.487   7.478   0.339
14417TIP3    H243193   7.629   7.479   0.391
14418TIP3   OH243194   7.540   6.626   5.431
14418TIP3    H143195   7.506   6.696   5.375
14418TIP3    H243196   7.580   6.564   5.370
14419TIP3   OH243197   0.603   5.022   4.379
14419TIP3    H143198   0.544   5.034   4.453
14419TIP3    H243199   0.670   5.090   4.392
14420TIP3   OH243200   0.152   1.412   3.573
14420TIP3    H143201   0.195   1.389   3.491
14420TIP3    H243202   0.100   1.489   3.553
14421TIP3   OH243203   8.281   6.729   0.611
14421TIP3    H143204   8.220   6.721   0.538
14421TIP3    H243205   8.341   6.654   0.601
14422TIP3   OH243206   6.904   3.868   0.461
14422TIP3    H143207   6.957   3.946   0.446
14422TIP3    H243208   6.961   3.795   0.436
14423TIP3   OH243209   2.743   6.632   2.651
14423TIP3    H143210   2.656   6.593   2.641
14423TIP3    H243211   2.765   6.665   2.564
14424TIP3   OH243212   4.115   3.252   3.552
14424TIP3    H143213   4.145   3.325   3.497
14424TIP3    H243214   4.025   3.236   3.523
14425TIP3   OH243215   4.669   3.172   6.028
14425TIP3    H143216   4.640   3.201   6.114
14425TIP3    H243217   4.592   3.182   5.971
14426TIP3   OH243218   5.689   5.719   0.248
14426TIP3    H143219   5.784   5.711   0.257
14426TIP3    H243220   5.661   5.760   0.330
14427TIP3   OH243221   2.318   0.820   1.746
14427TIP3    H143222   2.285   0.826   1.656
14427TIP3    H243223   2.381   0.748   1.744
14428TIP3   OH243224   0.920   2.810   6.716
14428TIP3    H143225   0.956   2.817   6.627
14428TIP3    H243226   0.881   2.723   6.719
14429TIP3   OH243227   2.372   4.050   2.663
14429TIP3    H143228   2.297   4.098   2.697
14429TIP3    H243229   2.335   3.971   2.623
14430TIP3   OH243230   2.695   0.056   2.939
14430TIP3    H143231   2.637  -0.014   2.969
14430TIP3    H243232   2.666   0.074   2.849
14431TIP3   OH243233   1.047   6.734   2.739
14431TIP3    H143234   1.043   6.653   2.687
14431TIP3    H243235   0.955   6.759   2.750
14432TIP3   OH243236   3.854   4.660   1.887
14432TIP3    H143237   3.805   4.660   1.805
14432TIP3    H243238   3.795   4.617   1.950
14433TIP3   OH243239   2.048   3.329   1.553
14433TIP3    H143240   1.990   3.401   1.577
14433TIP3    H243241   1.995   3.275   1.494
14434TIP3   OH243242   3.684   5.722   5.203
14434TIP3    H143243   3.672   5.639   5.156
14434TIP3    H243244   3.690   5.696   5.295
14435TIP3   OH243245   4.066   6.661   2.845
14435TIP3    H143246   4.077   6.584   2.788
14435TIP3    H243247   3.971   6.671   2.853
14436TIP3   OH243248   7.014   5.853   3.347
14436TIP3    H143249   7.049   5.849   3.258
14436TIP3    H243250   7.085   5.891   3.399
14437TIP3   OH243251   1.472   5.859   6.845
14437TIP3    H143252   1.454   5.923   6.777
14437TIP3    H243253   1.493   5.779   6.798
14438TIP3   OH243254   2.380   1.071   4.661
14438TIP3    H143255   2.387   1.072   4.757
14438TIP3    H243256   2.400   0.981   4.636
14439TIP3   OH243257   8.289   7.804   4.538
14439TIP3    H143258   8.260   7.722   4.577
14439TIP3    H243259   8.331   7.778   4.456
14440TIP3   OH243260   5.007   7.535   3.559
14440TIP3    H143261   5.002   7.572   3.471
14440TIP3    H243262   4.937   7.578   3.608
14441TIP3   OH243263   5.229   1.012   3.614
14441TIP3    H143264   5.304   0.962   3.646
14441TIP3    H243265   5.159   0.991   3.676
14442TIP3   OH243266   2.090   7.897   6.513
14442TIP3    H143267   2.129   7.850   6.439
14442TIP3    H243268   2.130   7.858   6.591
14443TIP3   OH243269   0.903   5.680   2.872
14443TIP3    H143270   0.888   5.610   2.809
14443TIP3    H243271   0.986   5.720   2.845
14444TIP3   OH243272   6.505   5.644   5.092
14444TIP3    H143273   6.470   5.640   5.181
14444TIP3    H243274   6.514   5.737   5.074
14445TIP3   OH243275   2.439   7.173   2.093
14445TIP3    H143276   2.353   7.214   2.091
14445TIP3    H243277   2.478   7.203   2.176
14446TIP3   OH243278   7.137   4.258   5.788
14446TIP3    H143279   7.055   4.214   5.761
14446TIP3    H243280   7.132   4.262   5.883
14447TIP3   OH243281   1.291   6.482   4.192
14447TIP3    H143282   1.224   6.465   4.259
14447TIP3    H243283   1.298   6.578   4.190
14448TIP3   OH243284   5.438   5.291   3.014
14448TIP3    H143285   5.477   5.277   2.928
14448TIP3    H243286   5.495   5.245   3.075
14449TIP3   OH243287   4.566   5.417   6.845
14449TIP3    H143288   4.568   5.373   6.761
14449TIP3    H243289   4.624   5.366   6.902
14450TIP3   OH243290   6.180   1.091   3.583
14450TIP3    H143291   6.183   1.041   3.502
14450TIP3    H243292   6.254   1.152   3.576
14451TIP3   OH243293   5.450   5.785   1.580
14451TIP3    H143294   5.487   5.759   1.664
14451TIP3    H243295   5.357   5.762   1.586
14452TIP3   OH243296   1.257   6.287   1.185
14452TIP3    H143297   1.349   6.263   1.172
14452TIP3    H243298   1.231   6.239   1.264
14453TIP3   OH243299   4.022   7.668   1.249
14453TIP3    H143300   4.035   7.663   1.344
14453TIP3    H243301   4.063   7.751   1.224
14454TIP3   OH243302   7.819   2.358   4.300
14454TIP3    H143303   7.796   2.448   4.324
14454TIP3    H243304   7.800   2.307   4.379
14455TIP3   OH243305   5.726   1.922   2.090
14455TIP3    H143306   5.813   1.905   2.124
14455TIP3    H243307   5.700   2.006   2.128
14456TIP3   OH243308   1.661   6.806   3.857
14456TIP3    H143309   1.572   6.781   3.883
14456TIP3    H243310   1.700   6.841   3.937
14457TIP3   OH243311   2.276   6.637   6.251
14457TIP3    H143312   2.261   6.547   6.226
14457TIP3    H243313   2.321   6.631   6.336
14458TIP3   OH243314   1.699   1.323   1.828
14458TIP3    H143315   1.697   1.272   1.747
14458TIP3    H243316   1.608   1.325   1.857
14459TIP3   OH243317   3.615   7.680   4.773
14459TIP3    H143318   3.559   7.737   4.720
14459TIP3    H243319   3.612   7.595   4.729
14460TIP3   OH243320   1.119   0.892   1.929
14460TIP3    H143321   1.034   0.932   1.946
14460TIP3    H243322   1.175   0.922   2.000
14461TIP3   OH243323   7.926   3.096   4.643
14461TIP3    H143324   7.945   3.003   4.637
14461TIP3    H243325   7.855   3.111   4.580
14462TIP3   OH243326   7.261   1.983   2.532
14462TIP3    H143327   7.228   1.923   2.465
14462TIP3    H243328   7.354   1.992   2.511
14463TIP3   OH243329   5.977   2.498   1.877
14463TIP3    H143330   6.053   2.505   1.820
14463TIP3    H243331   5.972   2.582   1.922
14464TIP3   OH243332   0.182   1.478   5.919
14464TIP3    H143333   0.138   1.392   5.919
14464TIP3    H243334   0.231   1.480   5.837
14465TIP3   OH243335   4.433   5.541   1.388
14465TIP3    H143336   4.482   5.543   1.470
14465TIP3    H243337   4.477   5.606   1.333
14466TIP3   OH243338   0.082   2.000   2.161
14466TIP3    H143339   0.045   1.919   2.127
14466TIP3    H243340   0.142   2.030   2.093
14467TIP3   OH243341   4.725   5.467   3.113
14467TIP3    H143342   4.792   5.431   3.172
14467TIP3    H243343   4.710   5.555   3.146
14468TIP3   OH243344   1.214   0.566   1.203
14468TIP3    H143345   1.138   0.549   1.259
14468TIP3    H243346   1.182   0.629   1.138
14469TIP3   OH243347   2.385   4.749   1.289
14469TIP3    H143348   2.450   4.813   1.318
14469TIP3    H243349   2.429   4.701   1.218
14470TIP3   OH243350   3.346   4.760   1.344
14470TIP3    H143351   3.441   4.750   1.334
14470TIP3    H243352   3.322   4.697   1.412
14471TIP3   OH243353   1.291   5.824   4.234
14471TIP3    H143354   1.226   5.764   4.198
14471TIP3    H243355   1.369   5.770   4.246
14472TIP3   OH243356   7.718   3.921   3.643
14472TIP3    H143357   7.711   4.010   3.677
14472TIP3    H243358   7.770   3.874   3.708
14473TIP3   OH243359   7.266   4.680   5.948
14473TIP3    H143360   7.176   4.665   5.920
14473TIP3    H243361   7.260   4.693   6.042
14474TIP3   OH243362   3.493   0.968   3.980
14474TIP3    H143363   3.481   1.061   3.962
14474TIP3    H243364   3.464   0.956   4.070
14475TIP3   OH243365   4.852   4.981   3.856
14475TIP3    H143366   4.809   4.946   3.778
14475TIP3    H243367   4.820   4.926   3.928
14476TIP3   OH243368   2.054   5.679   0.161
14476TIP3    H143369   1.980   5.657   0.217
14476TIP3    H243370   2.129   5.637   0.203
14477TIP3   OH243371   7.626   7.490   2.833
14477TIP3    H143372   7.640   7.546   2.757
14477TIP3    H243373   7.617   7.550   2.907
14478TIP3   OH243374   2.164   3.970   3.889
14478TIP3    H143375   2.115   3.928   3.819
14478TIP3    H243376   2.117   4.052   3.906
14479TIP3   OH243377   8.201   7.453   1.214
14479TIP3    H143378   8.279   7.398   1.204
14479TIP3    H243379   8.127   7.393   1.200
14480TIP3   OH243380   6.467   2.356   6.814
14480TIP3    H143381   6.488   2.268   6.847
14480TIP3    H243382   6.394   2.385   6.869
14481TIP3   OH243383   3.026   3.497   1.681
14481TIP3    H143384   2.947   3.476   1.632
14481TIP3    H243385   2.999   3.565   1.743
14482TIP3   OH243386   5.407   3.655   5.833
14482TIP3    H143387   5.354   3.707   5.893
14482TIP3    H243388   5.460   3.599   5.890
14483TIP3   OH243389   0.302   3.586   5.945
14483TIP3    H143390   0.323   3.673   5.981
14483TIP3    H243391   0.250   3.544   6.014
14484TIP3   OH243392   5.918   0.126   0.824
14484TIP3    H143393   5.921   0.122   0.728
14484TIP3    H243394   5.995   0.178   0.848
14485TIP3   OH243395   6.904   4.031   2.139
14485TIP3    H143396   6.845   4.107   2.140
14485TIP3    H243397   6.851   3.959   2.172
14486TIP3   OH243398   5.703   6.594   4.229
14486TIP3    H143399   5.696   6.499   4.240
14486TIP3    H243400   5.730   6.627   4.315
14487TIP3   OH243401   3.652   1.864   5.367
14487TIP3    H143402   3.692   1.863   5.281
14487TIP3    H243403   3.690   1.940   5.411
14488TIP3   OH243404   7.509   0.356   0.667
14488TIP3    H143405   7.597   0.373   0.633
14488TIP3    H243406   7.514   0.382   0.759
14489TIP3   OH243407   8.149   0.701   0.683
14489TIP3    H143408   8.086   0.759   0.725
14489TIP3    H243409   8.221   0.758   0.657
14490TIP3   OH243410   6.855   6.400   6.538
14490TIP3    H143411   6.774   6.444   6.515
14490TIP3    H243412   6.884   6.442   6.620
14491TIP3   OH243413   4.118   5.527   1.149
14491TIP3    H143414   4.121   5.434   1.125
14491TIP3    H243415   4.151   5.573   1.072
14492TIP3   OH243416   5.603   4.265   1.300
14492TIP3    H143417   5.509   4.284   1.300
14492TIP3    H243418   5.644   4.346   1.331
14493TIP3   OH243419   4.614   0.126   2.733
14493TIP3    H143420   4.678   0.144   2.664
14493TIP3    H243421   4.667   0.106   2.810
14494TIP3   OH243422   7.264   6.042   4.753
14494TIP3    H143423   7.225   5.969   4.802
14494TIP3    H243424   7.206   6.055   4.679
14495TIP3   OH243425   1.077   7.822   6.449
14495TIP3    H143426   1.092   7.912   6.418
14495TIP3    H243427   1.062   7.771   6.369
14496TIP3   OH243428   3.845   4.329   6.443
14496TIP3    H143429   3.929   4.370   6.462
14496TIP3    H243430   3.824   4.357   6.354
14497TIP3   OH243431   0.438   4.767   6.577
14497TIP3    H143432   0.454   4.846   6.526
14497TIP3    H243433   0.373   4.793   6.643
14498TIP3   OH243434   8.375   1.077   5.732
14498TIP3    H143435   8.330   1.144   5.680
14498TIP3    H243436   8.448   1.049   5.677
14499TIP3   OH243437   7.904   1.306   1.032
14499TIP3    H143438   7.954   1.370   0.982
14499TIP3    H243439   7.930   1.221   0.996
14500TIP3   OH243440   1.512   7.557   0.249
14500TIP3    H143441   1.555   7.634   0.287
14500TIP3    H243442   1.480   7.587   0.164
14501TIP3   OH243443   3.444   1.646   3.115
14501TIP3    H143444   3.437   1.619   3.207
14501TIP3    H243445   3.378   1.715   3.105
14502TIP3   OH243446   4.971   0.476   3.275
14502TIP3    H143447   5.047   0.503   3.326
14502TIP3    H243448   4.973   0.381   3.276
14503TIP3   OH243449   3.240   0.986   0.347
14503TIP3    H143450   3.225   1.078   0.326
14503TIP3    H243451   3.258   0.945   0.262
14504TIP3   OH243452   8.390   0.810   3.761
14504TIP3    H143453   8.433   0.795   3.845
14504TIP3    H243454   8.299   0.782   3.775
14505TIP3   OH243455   2.571   0.962   2.181
14505TIP3    H143456   2.568   1.004   2.095
14505TIP3    H243457   2.655   0.989   2.218
14506TIP3   OH243458   5.613   3.007   6.047
14506TIP3    H143459   5.688   3.054   6.009
14506TIP3    H243460   5.633   2.915   6.032
14507TIP3   OH243461   6.794   0.185   0.116
14507TIP3    H143462   6.752   0.131   0.049
14507TIP3    H243463   6.793   0.273   0.080
14508TIP3   OH243464   8.135   7.583   4.554
14508TIP3    H143465   8.102   7.494   4.536
14508TIP3    H243466   8.065   7.641   4.522
14509TIP3   OH243467   3.627   4.199   2.321
14509TIP3    H143468   3.560   4.132   2.334
14509TIP3    H243469   3.604   4.240   2.238
14510TIP3   OH243470   6.848   3.577   2.956
14510TIP3    H143471   6.803   3.495   2.974
14510TIP3    H243472   6.785   3.627   2.903
14511TIP3   OH243473   1.029   5.286   4.903
14511TIP3    H143474   1.000   5.347   4.835
14511TIP3    H243475   1.026   5.337   4.984
14512TIP3   OH243476   7.783   6.854   0.116
14512TIP3    H143477   7.739   6.860   0.031
14512TIP3    H243478   7.748   6.775   0.156
14513TIP3   OH243479   7.984   3.919   0.105
14513TIP3    H143480   8.058   3.979   0.100
14513TIP3    H243481   7.924   3.961   0.167
14514TIP3   OH243482   0.317   4.465   3.964
14514TIP3    H143483   0.389   4.498   4.019
14514TIP3    H243484   0.238   4.485   4.015
14515TIP3   OH243485   2.711   6.546   6.588
14515TIP3    H143486   2.713   6.609   6.660
14515TIP3    H243487   2.773   6.478   6.613
14516TIP3   OH243488   5.478   4.321   6.002
14516TIP3    H143489   5.435   4.247   5.959
14516TIP3    H243490   5.481   4.296   6.094
14517TIP3   OH243491   0.107   0.701   5.675
14517TIP3    H143492   0.160   0.750   5.738
14517TIP3    H243493   0.070   0.768   5.617
14518TIP3   OH243494   0.354   3.539   0.875
14518TIP3    H143495   0.282   3.479   0.854
14518TIP3    H243496   0.345   3.610   0.811
14519TIP3   OH243497   6.618   5.137   0.269
14519TIP3    H143498   6.689   5.200   0.282
14519TIP3    H243499   6.541   5.178   0.308
14520TIP3   OH243500   6.472   4.545   4.792
14520TIP3    H143501   6.498   4.483   4.724
14520TIP3    H243502   6.376   4.547   4.787
14521TIP3   OH243503   7.371   5.139   6.599
14521TIP3    H143504   7.382   5.198   6.524
14521TIP3    H243505   7.306   5.182   6.654
14522TIP3   OH243506   0.490   5.576   4.583
14522TIP3    H143507   0.424   5.596   4.516
14522TIP3    H243508   0.441   5.575   4.665
14523TIP3   OH243509   1.396   4.880   3.803
14523TIP3    H143510   1.480   4.908   3.767
14523TIP3    H243511   1.389   4.927   3.886
14524TIP3   OH243512   3.115   1.533   3.198
14524TIP3    H143513   3.060   1.610   3.208
14524TIP3    H243514   3.120   1.495   3.286
14525TIP3   OH243515   1.809   2.607   5.357
14525TIP3    H143516   1.831   2.563   5.439
14525TIP3    H243517   1.820   2.700   5.377
14526TIP3   OH243518   7.814   5.847   5.163
14526TIP3    H143519   7.734   5.795   5.170
14526TIP3    H243520   7.816   5.899   5.243
14527TIP3   OH243521   5.181   5.721   1.454
14527TIP3    H143522   5.163   5.708   1.361
14527TIP3    H243523   5.143   5.645   1.497
14528TIP3   OH243524   0.297   4.310   5.705
14528TIP3    H143525   0.243   4.282   5.779
14528TIP3    H243526   0.380   4.338   5.745
14529TIP3   OH243527   5.970   0.846   0.812
14529TIP3    H143528   6.003   0.858   0.901
14529TIP3    H243529   5.892   0.902   0.807
14530TIP3   OH243530   4.752   0.393   3.565
14530TIP3    H143531   4.733   0.306   3.599
14530TIP3    H243532   4.832   0.420   3.609
14531TIP3   OH243533   7.468   7.043   4.061
14531TIP3    H143534   7.392   7.096   4.039
14531TIP3    H243535   7.498   7.076   4.145
14532TIP3   OH243536   1.726   4.075   5.661
14532TIP3    H143537   1.732   4.074   5.565
14532TIP3    H243538   1.746   4.165   5.685
14533TIP3   OH243539   7.353   0.248   2.926
14533TIP3    H143540   7.285   0.315   2.916
14533TIP3    H243541   7.337   0.211   3.013
14534TIP3   OH243542   5.132   7.509   4.037
14534TIP3    H143543   5.078   7.517   4.116
14534TIP3    H243544   5.106   7.424   4.000
14535TIP3   OH243545   2.240   0.176   1.682
14535TIP3    H143546   2.238   0.121   1.760
14535TIP3    H243547   2.298   0.130   1.621
14536TIP3   OH243548   4.558   5.569   2.728
14536TIP3    H143549   4.470   5.606   2.734
14536TIP3    H243550   4.615   5.636   2.765
14537TIP3   OH243551   7.559   1.022   1.732
14537TIP3    H143552   7.539   1.099   1.679
14537TIP3    H243553   7.653   1.009   1.722
14538TIP3   OH243554   4.414   1.434   5.292
14538TIP3    H143555   4.503   1.418   5.262
14538TIP3    H243556   4.404   1.529   5.291
14539TIP3   OH243557   1.818   1.752   5.587
14539TIP3    H143558   1.853   1.741   5.675
14539TIP3    H243559   1.791   1.664   5.560
14540TIP3   OH243560   8.039   5.792   2.765
14540TIP3    H143561   7.990   5.726   2.717
14540TIP3    H243562   7.980   5.867   2.768
14541TIP3   OH243563   1.101   2.728   2.474
14541TIP3    H143564   1.114   2.748   2.567
14541TIP3    H243565   1.010   2.700   2.469
14542TIP3   OH243566   4.411   7.295   1.199
14542TIP3    H143567   4.438   7.237   1.270
14542TIP3    H243568   4.318   7.278   1.188
14543TIP3   OH243569   4.453   4.687   1.391
14543TIP3    H143570   4.432   4.600   1.356
14543TIP3    H243571   4.502   4.730   1.320
14544TIP3   OH243572   7.704   6.503   6.391
14544TIP3    H143573   7.610   6.488   6.377
14544TIP3    H243574   7.712   6.597   6.406
14545TIP3   OH243575   6.136   5.215   2.009
14545TIP3    H143576   6.074   5.275   2.049
14545TIP3    H243577   6.222   5.252   2.029
14546TIP3   OH243578   3.315   5.831   5.483
14546TIP3    H143579   3.303   5.852   5.391
14546TIP3    H243580   3.302   5.736   5.489
14547TIP3   OH243581   3.347   6.345   3.752
14547TIP3    H143582   3.402   6.313   3.823
14547TIP3    H243583   3.263   6.301   3.764
14548TIP3   OH243584   3.112   7.542   4.962
14548TIP3    H143585   3.053   7.614   4.939
14548TIP3    H243586   3.053   7.470   4.985
14549TIP3   OH243587   3.579   6.647   5.026
14549TIP3    H143588   3.606   6.691   5.106
14549TIP3    H243589   3.649   6.665   4.963
14550TIP3   OH243590   0.366   7.815   2.287
14550TIP3    H143591   0.383   7.812   2.381
14550TIP3    H243592   0.276   7.849   2.280
14551TIP3   OH243593   2.542   6.051   6.062
14551TIP3    H143594   2.573   6.139   6.041
14551TIP3    H243595   2.491   6.061   6.142
14552TIP3   OH243596   7.936   6.894   3.134
14552TIP3    H143597   7.954   6.981   3.098
14552TIP3    H243598   8.019   6.866   3.172
14553TIP3   OH243599   4.534   6.925   0.825
14553TIP3    H143600   4.526   6.834   0.853
14553TIP3    H243601   4.443   6.956   0.820
14554TIP3   OH243602   4.687   0.656   1.928
14554TIP3    H143603   4.712   0.748   1.934
14554TIP3    H243604   4.624   0.653   1.856
14555TIP3   OH243605   2.657   0.153   4.642
14555TIP3    H143606   2.633   0.068   4.603
14555TIP3    H243607   2.593   0.214   4.606
14556TIP3   OH243608   7.846   5.618   5.903
14556TIP3    H143609   7.765   5.630   5.953
14556TIP3    H243610   7.819   5.565   5.828
14557TIP3   OH243611   5.562   6.777   0.445
14557TIP3    H143612   5.566   6.738   0.533
14557TIP3    H243613   5.539   6.705   0.387
14558TIP3   OH243614   4.714   5.004   0.641
14558TIP3    H143615   4.662   4.991   0.561
14558TIP3    H243616   4.771   4.927   0.645
14559TIP3   OH243617   1.032   2.293   5.574
14559TIP3    H143618   0.976   2.217   5.556
14559TIP3    H243619   1.102   2.259   5.629
14560TIP3   OH243620   1.564   0.872   3.705
14560TIP3    H143621   1.559   0.790   3.656
14560TIP3    H243622   1.486   0.871   3.761
14561TIP3   OH243623   5.548   7.351   0.444
14561TIP3    H143624   5.641   7.367   0.458
14561TIP3    H243625   5.518   7.310   0.525
14562TIP3   OH243626   5.447   2.856   4.849
14562TIP3    H143627   5.473   2.765   4.863
14562TIP3    H243628   5.357   2.861   4.880
14563TIP3   OH243629   2.037   0.317   1.547
14563TIP3    H143630   2.094   0.280   1.614
14563TIP3    H243631   1.967   0.361   1.596
14564TIP3   OH243632   5.685   5.329   0.579
14564TIP3    H143633   5.755   5.305   0.640
14564TIP3    H243634   5.672   5.250   0.526
14565TIP3   OH243635   7.756   5.687   3.439
14565TIP3    H143636   7.673   5.661   3.479
14565TIP3    H243637   7.769   5.624   3.368
14566TIP3   OH243638   0.975   6.771   3.714
14566TIP3    H143639   0.937   6.765   3.626
14566TIP3    H243640   1.019   6.856   3.715
14567TIP3   OH243641   7.737   7.118   4.362
14567TIP3    H143642   7.791   7.046   4.394
14567TIP3    H243643   7.790   7.160   4.294
14568TIP3   OH243644   5.771   6.939   6.346
14568TIP3    H143645   5.682   6.903   6.348
14568TIP3    H243646   5.759   7.033   6.362
14569TIP3   OH243647   3.957   2.440   4.948
14569TIP3    H143648   4.048   2.443   4.919
14569TIP3    H243649   3.943   2.525   4.990
14570TIP3   OH243650   4.306   1.979   6.105
14570TIP3    H143651   4.232   1.963   6.163
14570TIP3    H243652   4.278   2.052   6.050
14571TIP3   OH243653   6.592   5.017   5.590
14571TIP3    H143654   6.531   5.079   5.630
14571TIP3    H243655   6.546   4.986   5.511
14572TIP3   OH243656   1.481   0.499   0.862
14572TIP3    H143657   1.536   0.553   0.920
14572TIP3    H243658   1.432   0.443   0.922
14573TIP3   OH243659   1.664   5.507   6.203
14573TIP3    H143660   1.654   5.587   6.151
14573TIP3    H243661   1.630   5.437   6.147
14574TIP3   OH243662   7.373   5.936   3.948
14574TIP3    H143663   7.434   6.010   3.955
14574TIP3    H243664   7.354   5.913   4.039
14575TIP3   OH243665   6.699   1.153   1.294
14575TIP3    H143666   6.702   1.248   1.309
14575TIP3    H243667   6.613   1.137   1.255
14576TIP3   OH243668   6.983   3.558   6.520
14576TIP3    H143669   6.935   3.475   6.524
14576TIP3    H243670   7.026   3.564   6.606
14577TIP3   OH243671   2.717   3.480   4.117
14577TIP3    H143672   2.753   3.505   4.032
14577TIP3    H243673   2.705   3.563   4.163
14578TIP3   OH243674   4.173   2.045   3.310
14578TIP3    H143675   4.246   2.106   3.314
14578TIP3    H243676   4.096   2.100   3.295
14579TIP3   OH243677   8.044   5.171   6.665
14579TIP3    H143678   8.034   5.167   6.570
14579TIP3    H243679   7.999   5.093   6.698
14580TIP3   OH243680   0.891   1.609   3.195
14580TIP3    H143681   0.935   1.582   3.276
14580TIP3    H243682   0.836   1.683   3.221
14581TIP3   OH243683   1.846   1.842   4.123
14581TIP3    H143684   1.936   1.872   4.133
14581TIP3    H243685   1.793   1.922   4.129
14582TIP3   OH243686   0.020   1.866   3.421
14582TIP3    H143687   0.070   1.900   3.347
14582TIP3    H243688  -0.008   1.944   3.468
14583TIP3   OH243689   0.637   5.534   1.258
14583TIP3    H143690   0.562   5.552   1.201
14583TIP3    H243691   0.681   5.460   1.216
14584TIP3   OH243692   7.825   3.300   2.192
14584TIP3    H143693   7.889   3.340   2.133
14584TIP3    H243694   7.751   3.278   2.135
14585TIP3   OH243695   2.223   2.373   3.005
14585TIP3    H143696   2.295   2.326   2.964
14585TIP3    H243697   2.245   2.466   2.995
14586TIP3   OH243698   2.348   5.885   5.207
14586TIP3    H143699   2.271   5.851   5.161
14586TIP3    H243700   2.332   5.979   5.212
14587TIP3   OH243701   3.959   5.574   5.840
14587TIP3    H143702   4.002   5.563   5.924
14587TIP3    H243703   3.866   5.572   5.859
14588TIP3   OH243704   6.539   7.554   5.270
14588TIP3    H143705   6.563   7.463   5.255
14588TIP3    H243706   6.606   7.589   5.329
14589TIP3   OH243707   6.714   5.059   4.221
14589TIP3    H143708   6.655   5.092   4.153
14589TIP3    H243709   6.784   5.015   4.172
14590TIP3   OH243710   2.367   1.580   1.277
14590TIP3    H143711   2.439   1.559   1.336
14590TIP3    H243712   2.406   1.631   1.207
14591TIP3   OH243713   3.606   6.523   4.560
14591TIP3    H143714   3.530   6.501   4.614
14591TIP3    H243715   3.592   6.475   4.479
14592TIP3   OH243716   4.978   0.902   4.133
14592TIP3    H143717   4.924   0.980   4.150
14592TIP3    H243718   5.065   0.927   4.163
14593TIP3   OH243719   6.213   3.573   5.383
14593TIP3    H143720   6.134   3.624   5.365
14593TIP3    H243721   6.277   3.604   5.319
14594TIP3   OH243722   4.061   7.621   1.505
14594TIP3    H143723   4.037   7.589   1.592
14594TIP3    H243724   4.140   7.573   1.482
14595TIP3   OH243725   1.187   1.489   6.824
14595TIP3    H143726   1.176   1.431   6.749
14595TIP3    H243727   1.109   1.545   6.824
14596TIP3   OH243728   1.905   3.635   3.982
14596TIP3    H143729   1.891   3.557   4.036
14596TIP3    H243730   1.991   3.620   3.941
14597TIP3   OH243731   0.519   0.596   0.204
14597TIP3    H143732   0.452   0.595   0.136
14597TIP3    H243733   0.474   0.570   0.284
14598TIP3   OH243734   1.101   6.977   0.618
14598TIP3    H143735   1.133   6.899   0.572
14598TIP3    H243736   1.042   7.019   0.555
14599TIP3   OH243737   6.448   1.136   2.673
14599TIP3    H143738   6.538   1.168   2.676
14599TIP3    H243739   6.409   1.180   2.597
14600TIP3   OH243740   4.711   2.101   1.707
14600TIP3    H143741   4.683   2.043   1.637
14600TIP3    H243742   4.762   2.169   1.664
14601TIP3   OH243743   5.588   0.409   0.455
14601TIP3    H143744   5.588   0.318   0.486
14601TIP3    H243745   5.618   0.403   0.364
14602TIP3   OH243746   1.523   6.176   4.657
14602TIP3    H143747   1.575   6.253   4.633
14602TIP3    H243748   1.456   6.211   4.716
14603TIP3   OH243749   6.792   6.789  -0.012
14603TIP3    H143750   6.820   6.786   0.079
14603TIP3    H243751   6.815   6.878  -0.041
14604TIP3   OH243752   4.041   1.593   3.111
14604TIP3    H143753   3.992   1.655   3.057
14604TIP3    H243754   4.006   1.606   3.199
14605TIP3   OH243755   2.797   4.701   2.200
14605TIP3    H143756   2.792   4.733   2.110
14605TIP3    H243757   2.890   4.711   2.224
14606TIP3   OH243758   4.315   5.733   4.145
14606TIP3    H143759   4.318   5.753   4.051
14606TIP3    H243760   4.297   5.640   4.149
14607TIP3   OH243761   2.227   0.826   3.715
14607TIP3    H143762   2.186   0.911   3.731
14607TIP3    H243763   2.158   0.762   3.729
14608TIP3   OH243764   0.965   4.237   3.368
14608TIP3    H143765   0.997   4.204   3.284
14608TIP3    H243766   0.996   4.173   3.432
14609TIP3   OH243767   7.637   2.684   1.903
14609TIP3    H143768   7.624   2.613   1.966
14609TIP3    H243769   7.564   2.744   1.920
14610TIP3   OH243770   0.781   0.959   4.460
14610TIP3    H143771   0.815   0.874   4.484
14610TIP3    H243772   0.703   0.970   4.514
14611TIP3   OH243773   1.110   5.527   3.865
14611TIP3    H143774   1.071   5.595   3.809
14611TIP3    H243775   1.039   5.466   3.881
14612TIP3   OH243776   3.652   7.053   5.238
14612TIP3    H143777   3.624   7.007   5.159
14612TIP3    H243778   3.579   7.110   5.260
14613TIP3   OH243779   1.149   7.513   5.809
14613TIP3    H143780   1.140   7.489   5.901
14613TIP3    H243781   1.060   7.515   5.775
14614TIP3   OH243782   3.423   4.048   2.413
14614TIP3    H143783   3.346   4.061   2.469
14614TIP3    H243784   3.481   3.991   2.464
14615TIP3   OH243785   4.368   4.116   5.966
14615TIP3    H143786   4.273   4.103   5.971
14615TIP3    H243787   4.383   4.156   5.880
14616TIP3   OH243788   7.513   4.602   0.312
14616TIP3    H143789   7.442   4.659   0.284
14616TIP3    H243790   7.593   4.648   0.286
14617TIP3   OH243791   6.023   2.610   5.212
14617TIP3    H143792   6.066   2.630   5.128
14617TIP3    H243793   5.979   2.526   5.197
14618TIP3   OH243794   1.993   4.516   4.121
14618TIP3    H143795   1.977   4.550   4.209
14618TIP3    H243796   1.908   4.517   4.078
14619TIP3   OH243797   5.640   3.648   3.508
14619TIP3    H143798   5.705   3.718   3.499
14619TIP3    H243799   5.654   3.613   3.596
14620TIP3   OH243800   6.244   5.620   4.925
14620TIP3    H143801   6.237   5.538   4.876
14620TIP3    H243802   6.315   5.604   4.988
14621TIP3   OH243803   7.488   2.430   2.780
14621TIP3    H143804   7.396   2.423   2.803
14621TIP3    H243805   7.490   2.490   2.705
14622TIP3   OH243806   1.056   1.764   0.579
14622TIP3    H143807   1.124   1.724   0.524
14622TIP3    H243808   1.047   1.853   0.545
14623TIP3   OH243809   6.312   5.363   4.224
14623TIP3    H143810   6.219   5.340   4.222
14623TIP3    H243811   6.353   5.308   4.158
14624TIP3   OH243812   2.864   7.901   6.627
14624TIP3    H143813   2.933   7.951   6.671
14624TIP3    H243814   2.861   7.936   6.538
14625TIP3   OH243815   7.181   2.893   5.976
14625TIP3    H143816   7.206   2.810   6.015
14625TIP3    H243817   7.126   2.935   6.043
14626TIP3   OH243818   5.992   7.878   5.020
14626TIP3    H143819   5.953   7.791   5.032
14626TIP3    H243820   6.028   7.901   5.105
14627TIP3   OH243821   0.189   4.947   3.165
14627TIP3    H143822   0.281   4.926   3.146
14627TIP3    H243823   0.140   4.903   3.096
14628TIP3   OH243824   6.593   0.947   4.700
14628TIP3    H143825   6.610   1.022   4.757
14628TIP3    H243826   6.598   0.871   4.758
14629TIP3   OH243827   6.087   5.195   2.343
14629TIP3    H143828   6.089   5.147   2.260
14629TIP3    H243829   6.037   5.138   2.402
14630TIP3   OH243830   2.333   2.769   1.019
14630TIP3    H143831   2.387   2.708   1.070
14630TIP3    H243832   2.335   2.850   1.069
14631TIP3   OH243833   7.891   6.605   3.712
14631TIP3    H143834   7.958   6.538   3.695
14631TIP3    H243835   7.826   6.561   3.766
14632TIP3   OH243836   6.155   5.941   5.450
14632TIP3    H143837   6.179   6.004   5.383
14632TIP3    H243838   6.068   5.909   5.423
14633TIP3   OH243839   8.124   2.248   3.577
14633TIP3    H143840   8.122   2.305   3.500
14633TIP3    H243841   8.058   2.286   3.635
14634TIP3   OH243842   6.604   6.947   0.430
14634TIP3    H143843   6.602   6.916   0.520
14634TIP3    H243844   6.614   7.042   0.437
14635TIP3   OH243845   7.998   0.275   1.391
14635TIP3    H143846   7.921   0.256   1.444
14635TIP3    H243847   8.060   0.315   1.451
14636TIP3   OH243848   2.357   3.065   2.222
14636TIP3    H143849   2.266   3.050   2.247
14636TIP3    H243850   2.355   3.147   2.172
14637TIP3   OH243851   2.671   1.015   2.535
14637TIP3    H143852   2.603   1.074   2.569
14637TIP3    H243853   2.635   0.927   2.546
14638TIP3   OH243854   6.322   0.169   3.186
14638TIP3    H143855   6.252   0.145   3.124
14638TIP3    H243856   6.402   0.134   3.147
14639TIP3   OH243857   7.926   2.979   6.611
14639TIP3    H143858   8.017   2.972   6.641
14639TIP3    H243859   7.877   2.925   6.673
14640TIP3   OH243860   5.896   3.868   1.270
14640TIP3    H143861   5.838   3.897   1.200
14640TIP3    H243862   5.859   3.784   1.298
14641TIP3   OH243863   2.470   4.089   6.379
14641TIP3    H143864   2.444   4.144   6.453
14641TIP3    H243865   2.516   4.015   6.418
14642TIP3   OH243866   8.377   0.945   4.664
14642TIP3    H143867   8.299   0.890   4.669
14642TIP3    H243868   8.442   0.901   4.719
14643TIP3   OH243869   8.196   3.724   2.611
14643TIP3    H143870   8.112   3.679   2.603
14643TIP3    H243871   8.214   3.724   2.705
14644TIP3   OH243872   2.836   3.324   6.360
14644TIP3    H143873   2.773   3.384   6.319
14644TIP3    H243874   2.912   3.327   6.302
14645TIP3   OH243875   1.273   4.579   2.800
14645TIP3    H143876   1.257   4.484   2.806
14645TIP3    H243877   1.295   4.594   2.708
14646TIP3   OH243878   0.243   1.260   6.349
14646TIP3    H143879   0.222   1.167   6.344
14646TIP3    H243880   0.172   1.298   6.401
14647TIP3   OH243881   6.218   3.389   0.041
14647TIP3    H143882   6.132   3.429   0.052
14647TIP3    H243883   6.280   3.458   0.064
14648TIP3   OH243884   1.660   2.662   0.411
14648TIP3    H143885   1.709   2.638   0.333
14648TIP3    H243886   1.583   2.604   0.410
14649TIP3   OH243887   0.148   1.510   2.971
14649TIP3    H143888   0.139   1.541   2.881
14649TIP3    H243889   0.197   1.428   2.963
14650TIP3   OH243890   0.605   5.942   2.316
14650TIP3    H143891   0.547   5.897   2.377
14650TIP3    H243892   0.574   5.916   2.230
14651TIP3   OH243893   4.941   2.998   4.082
14651TIP3    H143894   4.925   3.000   3.987
14651TIP3    H243895   5.026   2.954   4.090
14652TIP3   OH243896   1.751   2.096   1.890
14652TIP3    H143897   1.753   2.106   1.985
14652TIP3    H243898   1.670   2.139   1.863
14653TIP3   OH243899   1.880   3.234   3.390
14653TIP3    H143900   1.849   3.184   3.465
14653TIP3    H243901   1.859   3.325   3.411
14654TIP3   OH243902   2.119   1.742   5.814
14654TIP3    H143903   2.038   1.759   5.861
14654TIP3    H243904   2.114   1.649   5.789
14655TIP3   OH243905   5.875   1.394   3.222
14655TIP3    H143906   5.960   1.388   3.264
14655TIP3    H243907   5.817   1.342   3.277
14656TIP3   OH243908   4.052   7.872   6.015
14656TIP3    H143909   3.992   7.903   5.948
14656TIP3    H243910   4.078   7.951   6.063
14657TIP3   OH243911   6.628   7.356   4.029
14657TIP3    H143912   6.557   7.293   4.029
14657TIP3    H243913   6.585   7.441   4.038
14658TIP3   OH243914   2.507   5.052   2.602
14658TIP3    H143915   2.436   5.070   2.663
14658TIP3    H243916   2.545   4.970   2.633
14659TIP3   OH243917   2.801   4.444   1.986
14659TIP3    H143918   2.786   4.459   2.079
14659TIP3    H243919   2.731   4.385   1.959
14660TIP3   OH243920   5.954   7.464   2.767
14660TIP3    H143921   6.025   7.408   2.736
14660TIP3    H243922   5.905   7.486   2.688
14661TIP3   OH243923   2.292   1.891   0.277
14661TIP3    H143924   2.254   1.816   0.323
14661TIP3    H243925   2.295   1.960   0.342
14662TIP3   OH243926   3.401   4.476   3.145
14662TIP3    H143927   3.354   4.467   3.227
14662TIP3    H243928   3.422   4.570   3.139
14663TIP3   OH243929   4.533   3.776   0.229
14663TIP3    H143930   4.571   3.702   0.180
14663TIP3    H243931   4.609   3.825   0.261
14664TIP3   OH243932   5.948   2.262   2.045
14664TIP3    H143933   5.949   2.341   1.990
14664TIP3    H243934   6.022   2.210   2.015
14665TIP3   OH243935   4.691   4.020   1.029
14665TIP3    H143936   4.697   3.944   0.971
14665TIP3    H243937   4.686   4.095   0.969
14666TIP3   OH243938   3.121   4.542   4.731
14666TIP3    H143939   3.173   4.521   4.654
14666TIP3    H243940   3.148   4.479   4.798
14667TIP3   OH243941   7.498   4.162   1.764
14667TIP3    H143942   7.575   4.213   1.787
14667TIP3    H243943   7.441   4.223   1.716
14668TIP3   OH243944   0.998   3.349   1.268
14668TIP3    H143945   1.035   3.289   1.204
14668TIP3    H243946   1.039   3.324   1.351
14669TIP3   OH243947   3.889   0.391   4.098
14669TIP3    H143948   3.964   0.386   4.039
14669TIP3    H243949   3.914   0.339   4.174
14670TIP3   OH243950   0.574   1.365   0.603
14670TIP3    H143951   0.564   1.285   0.655
14670TIP3    H243952   0.485   1.397   0.591
14671TIP3   OH243953   1.832   7.548   0.334
14671TIP3    H143954   1.792   7.612   0.394
14671TIP3    H243955   1.783   7.468   0.350
14672TIP3   OH243956   4.583   0.487   0.204
14672TIP3    H143957   4.548   0.451   0.123
14672TIP3    H243958   4.650   0.423   0.231
14673TIP3   OH243959   5.783   2.382   4.515
14673TIP3    H143960   5.763   2.442   4.587
14673TIP3    H243961   5.817   2.303   4.557
14674TIP3   OH243962   4.119   5.041   3.411
14674TIP3    H143963   4.211   5.065   3.396
14674TIP3    H243964   4.069   5.118   3.385
14675TIP3   OH243965   4.639   2.949   5.640
14675TIP3    H143966   4.561   2.940   5.696
14675TIP3    H243967   4.657   3.043   5.639
14676TIP3   OH243968   4.297   4.469   1.273
14676TIP3    H143969   4.295   4.424   1.358
14676TIP3    H243970   4.348   4.410   1.217
14677TIP3   OH243971   8.294   2.684   6.046
14677TIP3    H143972   8.252   2.758   6.089
14677TIP3    H243973   8.336   2.722   5.968
14678TIP3   OH243974   7.789   2.284   4.567
14678TIP3    H143975   7.851   2.329   4.624
14678TIP3    H243976   7.704   2.299   4.607
14679TIP3   OH243977   7.036   2.141   4.479
14679TIP3    H143978   6.983   2.068   4.445
14679TIP3    H243979   7.126   2.109   4.476
14680TIP3   OH243980   7.332   0.732   6.723
14680TIP3    H143981   7.363   0.757   6.636
14680TIP3    H243982   7.322   0.637   6.718
14681TIP3   OH243983   7.414   1.950   1.137
14681TIP3    H143984   7.356   1.991   1.074
14681TIP3    H243985   7.365   1.951   1.219
14682TIP3   OH243986   5.049   7.576   4.713
14682TIP3    H143987   5.066   7.669   4.703
14682TIP3    H243988   4.955   7.567   4.699
14683TIP3   OH243989   6.831   6.712   6.500
14683TIP3    H143990   6.769   6.667   6.557
14683TIP3    H243991   6.777   6.762   6.440
14684TIP3   OH243992   6.660   5.454   0.784
14684TIP3    H143993   6.698   5.510   0.716
14684TIP3    H243994   6.695   5.490   0.866
14685TIP3   OH243995   3.762   0.660   4.795
14685TIP3    H143996   3.766   0.700   4.882
14685TIP3    H243997   3.757   0.734   4.735
14686TIP3   OH243998   4.268   6.326   3.678
14686TIP3    H143999   4.359   6.314   3.706
14686TIP3    H244000   4.225   6.245   3.704
14687TIP3   OH244001   7.056   0.016   4.954
14687TIP3    H144002   7.110   0.015   4.875
14687TIP3    H244003   7.112   0.057   5.020
14688TIP3   OH244004   7.129   4.484   5.217
14688TIP3    H144005   7.077   4.407   5.241
14688TIP3    H244006   7.206   4.480   5.273
14689TIP3   OH244007   2.563   6.170   2.001
14689TIP3    H144008   2.619   6.163   2.077
14689TIP3    H244009   2.533   6.081   1.985
14690TIP3   OH244010   1.691   5.681   6.423
14690TIP3    H144011   1.699   5.621   6.349
14690TIP3    H244012   1.781   5.703   6.447
14691TIP3   OH244013   2.077   2.030   1.462
14691TIP3    H144014   2.134   2.024   1.385
14691TIP3    H244015   2.136   2.019   1.536
14692TIP3   OH244016   3.727   3.393   5.982
14692TIP3    H144017   3.665   3.450   6.027
14692TIP3    H244018   3.763   3.338   6.051
14693TIP3   OH244019   1.463   5.459   3.443
14693TIP3    H144020   1.401   5.448   3.371
14693TIP3    H244021   1.412   5.445   3.522
14694TIP3   OH244022   3.027   2.025   5.601
14694TIP3    H144023   3.033   2.046   5.694
14694TIP3    H244024   3.021   1.929   5.598
14695TIP3   OH244025   6.577   4.020   1.047
14695TIP3    H144026   6.542   4.083   0.983
14695TIP3    H244027   6.581   4.070   1.129
14696TIP3   OH244028   3.813   5.124   4.030
14696TIP3    H144029   3.860   5.207   4.026
14696TIP3    H244030   3.869   5.061   3.985
14697TIP3   OH244031   6.569   5.272   2.260
14697TIP3    H144032   6.623   5.350   2.245
14697TIP3    H244033   6.581   5.219   2.181
14698TIP3   OH244034   8.178   5.677   1.920
14698TIP3    H144035   8.140   5.763   1.938
14698TIP3    H244036   8.145   5.654   1.833
14699TIP3   OH244037   7.264   6.504   2.900
14699TIP3    H144038   7.258   6.592   2.938
14699TIP3    H244039   7.211   6.508   2.820
14700TIP3   OH244040   5.850   7.758   2.199
14700TIP3    H144041   5.872   7.798   2.115
14700TIP3    H244042   5.911   7.800   2.261
14701TIP3   OH244043   1.316   4.738   4.214
14701TIP3    H144044   1.255   4.769   4.281
14701TIP3    H244045   1.402   4.743   4.257
14702TIP3   OH244046   3.117   3.851   1.750
14702TIP3    H144047   3.030   3.812   1.760
14702TIP3    H244048   3.102   3.931   1.700
14703TIP3   OH244049   3.814   3.776   5.892
14703TIP3    H144050   3.902   3.739   5.889
14703TIP3    H244051   3.774   3.749   5.809
14704TIP3   OH244052   7.194   7.469   0.332
14704TIP3    H144053   7.223   7.511   0.412
14704TIP3    H244054   7.252   7.504   0.264
14705TIP3   OH244055   2.426   6.576   6.504
14705TIP3    H144056   2.517   6.549   6.511
14705TIP3    H244057   2.415   6.643   6.572
14706TIP3   OH244058   5.298   5.776   0.046
14706TIP3    H144059   5.264   5.801  -0.040
14706TIP3    H244060   5.336   5.856   0.082
14707TIP3   OH244061   5.101   6.841   5.032
14707TIP3    H144062   5.195   6.820   5.033
14707TIP3    H244063   5.097   6.933   5.055
14708TIP3   OH244064   7.223   6.541   0.094
14708TIP3    H144065   7.145   6.584   0.131
14708TIP3    H244066   7.296   6.596   0.123
14709TIP3   OH244067   0.060   2.199   5.013
14709TIP3    H144068   0.029   2.276   4.966
14709TIP3    H244069   0.021   2.206   5.100
14710TIP3   OH244070   5.341   7.611   5.467
14710TIP3    H144071   5.361   7.642   5.556
14710TIP3    H244072   5.427   7.596   5.428
14711TIP3   OH244073   6.314   2.487   0.531
14711TIP3    H144074   6.409   2.476   0.537
14711TIP3    H244075   6.301   2.582   0.531
14712TIP3   OH244076   7.764   4.569   6.585
14712TIP3    H144077   7.776   4.566   6.680
14712TIP3    H244078   7.716   4.651   6.570
14713TIP3   OH244079   3.632   2.167   4.171
14713TIP3    H144080   3.648   2.107   4.243
14713TIP3    H244081   3.584   2.115   4.106
14714TIP3   OH244082   7.278   0.320   1.953
14714TIP3    H144083   7.237   0.243   1.992
14714TIP3    H244084   7.232   0.394   1.992
14715TIP3   OH244085   3.215   3.449   4.684
14715TIP3    H144086   3.232   3.402   4.602
14715TIP3    H244087   3.258   3.395   4.751
14716TIP3   OH244088   6.545   2.676   1.638
14716TIP3    H144089   6.568   2.589   1.670
14716TIP3    H244090   6.477   2.706   1.699
14717TIP3   OH244091   5.904   4.063   2.424
14717TIP3    H144092   5.930   4.032   2.511
14717TIP3    H244093   5.987   4.078   2.378
14718TIP3   OH244094   5.612   3.594   1.433
14718TIP3    H144095   5.558   3.637   1.367
14718TIP3    H244096   5.700   3.594   1.397
14719TIP3   OH244097   6.247   7.442   6.366
14719TIP3    H144098   6.321   7.490   6.403
14719TIP3    H244099   6.230   7.373   6.429
14720TIP3   OH244100   2.486   3.065   2.795
14720TIP3    H144101   2.477   3.069   2.891
14720TIP3    H244102   2.558   3.003   2.781
14721TIP3   OH244103   7.348   5.802   4.537
14721TIP3    H144104   7.256   5.782   4.519
14721TIP3    H244105   7.363   5.769   4.625
14722TIP3   OH244106   8.227   3.744   6.169
14722TIP3    H144107   8.197   3.819   6.220
14722TIP3    H244108   8.282   3.781   6.101
14723TIP3   OH244109   4.238   1.486   1.838
14723TIP3    H144110   4.277   1.516   1.920
14723TIP3    H244111   4.313   1.464   1.783
14724TIP3   OH244112   1.032   3.433   3.939
14724TIP3    H144113   1.008   3.460   4.028
14724TIP3    H244114   1.026   3.337   3.941
14725TIP3   OH244115   7.116   6.577   0.656
14725TIP3    H144116   7.181   6.606   0.720
14725TIP3    H244117   7.073   6.658   0.627
14726TIP3   OH244118   3.483   5.435   4.608
14726TIP3    H144119   3.431   5.462   4.533
14726TIP3    H244120   3.572   5.426   4.574
14727TIP3   OH244121   6.143   6.951   2.248
14727TIP3    H144122   6.238   6.942   2.247
14727TIP3    H244123   6.127   7.043   2.228
14728TIP3   OH244124   2.773   4.841   0.659
14728TIP3    H144125   2.780   4.928   0.698
14728TIP3    H244126   2.848   4.835   0.600
14729TIP3   OH244127   6.664   4.236   4.439
14729TIP3    H144128   6.648   4.294   4.365
14729TIP3    H244129   6.618   4.278   4.513
14730TIP3   OH244130   3.476   1.727   4.311
14730TIP3    H144131   3.419   1.676   4.368
14730TIP3    H244132   3.418   1.790   4.268
14731TIP3   OH244133   8.280   4.046   2.649
14731TIP3    H144134   8.373   4.043   2.673
14731TIP3    H244135   8.238   3.987   2.711
14732TIP3   OH244136   7.926   4.952   6.777
14732TIP3    H144137   7.982   4.900   6.719
14732TIP3    H244138   7.879   4.887   6.830
14733TIP3   OH244139   1.597   3.808   0.428
14733TIP3    H144140   1.553   3.733   0.387
14733TIP3    H244141   1.557   3.885   0.386
14734TIP3   OH244142   1.216   1.154   4.788
14734TIP3    H144143   1.216   1.123   4.697
14734TIP3    H244144   1.154   1.096   4.833
14735TIP3   OH244145   0.659   2.667   5.119
14735TIP3    H144146   0.598   2.604   5.157
14735TIP3    H244147   0.612   2.750   5.120
14736TIP3   OH244148   7.476   3.506   5.001
14736TIP3    H144149   7.446   3.439   4.939
14736TIP3    H244150   7.434   3.483   5.084
14737TIP3   OH244151   1.133   7.688   2.234
14737TIP3    H144152   1.057   7.637   2.207
14737TIP3    H244153   1.174   7.635   2.302
14738TIP3   OH244154   4.872   2.084   4.298
14738TIP3    H144155   4.954   2.134   4.304
14738TIP3    H244156   4.885   2.010   4.357
14739TIP3   OH244157   0.195   6.830   0.382
14739TIP3    H144158   0.183   6.886   0.459
14739TIP3    H244159   0.144   6.751   0.402
14740TIP3   OH244160   7.010   5.892   0.494
14740TIP3    H144161   7.084   5.871   0.551
14740TIP3    H244162   7.048   5.940   0.421
14741TIP3   OH244163   0.063   2.331   1.070
14741TIP3    H144164   0.112   2.384   1.133
14741TIP3    H244165  -0.020   2.313   1.115
14742TIP3   OH244166   5.971   3.488   2.487
14742TIP3    H144167   6.046   3.523   2.534
14742TIP3    H244168   6.007   3.418   2.433
14743TIP3   OH244169   2.588   0.829   5.557
14743TIP3    H144170   2.680   0.855   5.544
14743TIP3    H244171   2.570   0.851   5.648
14744TIP3   OH244172   7.625   1.903   2.780
14744TIP3    H144173   7.614   1.953   2.861
14744TIP3    H244174   7.586   1.818   2.799
14745TIP3   OH244175   7.690   7.209   5.691
14745TIP3    H144176   7.732   7.269   5.630
14745TIP3    H244177   7.666   7.263   5.766
14746TIP3   OH244178   6.219   0.432   2.077
14746TIP3    H144179   6.197   0.453   2.168
14746TIP3    H244180   6.145   0.381   2.046
14747TIP3   OH244181   4.902   0.910   0.054
14747TIP3    H144182   4.808   0.893   0.059
14747TIP3    H244183   4.942   0.833   0.094
14748TIP3   OH244184   8.028   2.620   4.501
14748TIP3    H144185   8.099   2.645   4.442
14748TIP3    H244186   8.012   2.698   4.553
14749TIP3   OH244187   4.813   3.985   2.152
14749TIP3    H144188   4.757   4.019   2.082
14749TIP3    H244189   4.760   3.994   2.231
14750TIP3   OH244190   1.320  -0.025   0.579
14750TIP3    H144191   1.282   0.050   0.534
14750TIP3    H244192   1.414  -0.010   0.577
14751TIP3   OH244193   6.395   4.831   3.054
14751TIP3    H144194   6.484   4.862   3.034
14751TIP3    H244195   6.350   4.908   3.087
14752TIP3   OH244196   1.347   1.171   1.090
14752TIP3    H144197   1.306   1.217   1.163
14752TIP3    H244198   1.282   1.175   1.019
14753TIP3   OH244199   0.789   1.293   4.092
14753TIP3    H144200   0.760   1.295   4.001
14753TIP3    H244201   0.839   1.212   4.099
14754TIP3   OH244202   3.587   3.035   1.560
14754TIP3    H144203   3.533   3.111   1.538
14754TIP3    H244204   3.539   2.991   1.629
14755TIP3   OH244205   7.770   3.531   2.384
14755TIP3    H144206   7.678   3.555   2.369
14755TIP3    H244207   7.788   3.462   2.320
14756TIP3   OH244208   7.527   6.178   3.925
14756TIP3    H144209   7.592   6.217   3.866
14756TIP3    H244210   7.578   6.141   3.997
14757TIP3   OH244211   7.347   6.473   5.239
14757TIP3    H144212   7.295   6.552   5.228
14757TIP3    H244213   7.305   6.408   5.182
14758TIP3   OH244214   2.031   7.834   4.908
14758TIP3    H144215   2.069   7.749   4.929
14758TIP3    H244216   2.028   7.881   4.991
14759TIP3   OH244217   0.987   0.756   6.365
14759TIP3    H144218   1.040   0.786   6.291
14759TIP3    H244219   1.051   0.744   6.435
14760TIP3   OH244220   2.226   6.288   5.628
14760TIP3    H144221   2.135   6.318   5.626
14760TIP3    H244222   2.275   6.367   5.653
14761TIP3   OH244223   5.396   6.519   4.097
14761TIP3    H144224   5.386   6.558   4.183
14761TIP3    H244225   5.475   6.560   4.061
14762TIP3   OH244226   1.304   1.858   6.668
14762TIP3    H144227   1.321   1.820   6.754
14762TIP3    H244228   1.232   1.806   6.632
14763TIP3   OH244229   3.159   2.323   0.405
14763TIP3    H144230   3.222   2.299   0.337
14763TIP3    H244231   3.180   2.266   0.479
14764TIP3   OH244232   1.856   4.575   5.158
14764TIP3    H144233   1.812   4.661   5.160
14764TIP3    H244234   1.914   4.581   5.082
14765TIP3   OH244235   2.261   3.097   4.495
14765TIP3    H144236   2.340   3.101   4.549
14765TIP3    H244237   2.225   3.185   4.498
14766TIP3   OH244238   6.736   6.992   1.246
14766TIP3    H144239   6.701   7.048   1.315
14766TIP3    H244240   6.662   6.936   1.221
14767TIP3   OH244241   0.152   3.291   3.378
14767TIP3    H144242   0.092   3.220   3.399
14767TIP3    H244243   0.203   3.258   3.303
14768TIP3   OH244244   7.282   4.675   2.286
14768TIP3    H144245   7.291   4.645   2.376
14768TIP3    H244246   7.326   4.760   2.284
14769TIP3   OH244247   7.032   2.066   1.451
14769TIP3    H144248   7.040   2.154   1.415
14769TIP3    H244249   6.939   2.057   1.471
14770TIP3   OH244250   5.360   1.473   1.542
14770TIP3    H144251   5.358   1.427   1.458
14770TIP3    H244252   5.312   1.416   1.602
14771TIP3   OH244253   7.587   5.174   5.497
14771TIP3    H144254   7.649   5.110   5.531
14771TIP3    H244255   7.642   5.240   5.454
14772TIP3   OH244256   2.378   6.931   4.338
14772TIP3    H144257   2.347   6.848   4.374
14772TIP3    H244258   2.470   6.936   4.364
14773TIP3   OH244259   3.872   4.814   3.243
14773TIP3    H144260   3.943   4.820   3.307
14773TIP3    H244261   3.916   4.793   3.160
14774TIP3   OH244262   5.589   0.807   6.807
14774TIP3    H144263   5.508   0.811   6.756
14774TIP3    H244264   5.659   0.816   6.742
14775TIP3   OH244265   0.804   5.234   2.492
14775TIP3    H144266   0.778   5.292   2.564
14775TIP3    H244267   0.836   5.293   2.424
14776TIP3   OH244268   5.724   2.364   1.164
14776TIP3    H144269   5.665   2.439   1.159
14776TIP3    H244270   5.725   2.327   1.076
14777TIP3   OH244271   0.188   4.812   4.329
14777TIP3    H144272   0.233   4.730   4.313
14777TIP3    H244273   0.167   4.811   4.422
14778TIP3   OH244274   4.394   0.947   4.511
14778TIP3    H144275   4.468   0.973   4.566
14778TIP3    H244276   4.419   0.863   4.474
14779TIP3   OH244277   2.597   3.768   0.565
14779TIP3    H144278   2.593   3.828   0.639
14779TIP3    H244279   2.595   3.681   0.604
14780TIP3   OH244280   7.769   4.203   5.064
14780TIP3    H144281   7.842   4.193   5.125
14780TIP3    H244282   7.714   4.126   5.078
14781TIP3   OH244283   4.471   5.410   2.974
14781TIP3    H144284   4.519   5.395   2.892
14781TIP3    H244285   4.539   5.430   3.038
14782TIP3   OH244286   2.044   7.545   6.463
14782TIP3    H144287   2.042   7.564   6.556
14782TIP3    H244288   2.039   7.449   6.458
14783TIP3   OH244289   0.820   4.638   4.532
14783TIP3    H144290   0.803   4.730   4.554
14783TIP3    H244291   0.816   4.635   4.436
14784TIP3   OH244292   2.599   4.398   4.544
14784TIP3    H144293   2.673   4.448   4.578
14784TIP3    H244294   2.615   4.391   4.450
14785TIP3   OH244295   4.766   6.434   2.259
14785TIP3    H144296   4.785   6.476   2.175
14785TIP3    H244297   4.724   6.351   2.235
14786TIP3   OH244298   5.538   0.236   4.976
14786TIP3    H144299   5.606   0.219   5.041
14786TIP3    H244300   5.482   0.302   5.017
14787TIP3   OH244301   5.805   3.430   6.058
14787TIP3    H144302   5.861   3.362   6.022
14787TIP3    H244303   5.819   3.506   6.002
14788TIP3   OH244304   6.340   6.292   1.353
14788TIP3    H144305   6.310   6.340   1.276
14788TIP3    H244306   6.330   6.354   1.425
14789TIP3   OH244307   8.308   3.382   5.734
14789TIP3    H144308   8.233   3.324   5.749
14789TIP3    H244309   8.384   3.325   5.742
14790TIP3   OH244310   0.548   0.900   6.755
14790TIP3    H144311   0.482   0.870   6.818
14790TIP3    H244312   0.611   0.950   6.807
14791TIP3   OH244313   4.545   5.962   0.478
14791TIP3    H144314   4.612   5.897   0.459
14791TIP3    H244315   4.470   5.911   0.510
14792TIP3   OH244316   4.037   6.131   1.378
14792TIP3    H144317   4.055   6.037   1.384
14792TIP3    H244318   3.942   6.138   1.381
14793TIP3   OH244319   6.397   5.012   2.198
14793TIP3    H144320   6.310   4.973   2.203
14793TIP3    H244321   6.416   5.041   2.288
14794TIP3   OH244322   4.506  -0.036   0.724
14794TIP3    H144323   4.456  -0.066   0.800
14794TIP3    H244324   4.464   0.046   0.698
14795TIP3   OH244325   1.128   7.595   3.715
14795TIP3    H144326   1.207   7.571   3.667
14795TIP3    H244327   1.158   7.651   3.786
14796TIP3   OH244328   6.991   3.814   2.916
14796TIP3    H144329   6.985   3.719   2.911
14796TIP3    H244330   7.052   3.839   2.846
14797TIP3   OH244331   7.210   5.862   0.697
14797TIP3    H144332   7.255   5.786   0.660
14797TIP3    H244333   7.244   5.870   0.786
14798TIP3   OH244334   4.521   0.769   3.599
14798TIP3    H144335   4.560   0.851   3.568
14798TIP3    H244336   4.468   0.739   3.525
14799TIP3   OH244337   0.079   2.441   4.846
14799TIP3    H144338   0.026   2.466   4.771
14799TIP3    H244339   0.101   2.524   4.889
14800TIP3   OH244340   3.081   4.602   6.622
14800TIP3    H144341   3.161   4.643   6.655
14800TIP3    H244342   3.099   4.508   6.627
14801TIP3   OH244343   6.437   1.687   6.539
14801TIP3    H144344   6.403   1.600   6.559
14801TIP3    H244345   6.359   1.740   6.522
14802TIP3   OH244346   0.934   4.683   6.022
14802TIP3    H144347   0.914   4.622   6.093
14802TIP3    H244348   0.971   4.760   6.067
14803TIP3   OH244349   7.616   6.235   5.102
14803TIP3    H144350   7.601   6.247   5.008
14803TIP3    H244351   7.573   6.152   5.123
14804TIP3   OH244352   6.140   5.131   5.987
14804TIP3    H144353   6.155   5.217   6.026
14804TIP3    H244354   6.075   5.148   5.918
14805TIP3   OH244355   2.141   2.786   0.466
14805TIP3    H144356   2.142   2.700   0.424
14805TIP3    H244357   2.099   2.771   0.550
14806TIP3   OH244358   2.333   0.445   2.460
14806TIP3    H144359   2.310   0.450   2.367
14806TIP3    H244360   2.253   0.415   2.503
14807TIP3   OH244361   7.675   1.494   2.277
14807TIP3    H144362   7.769   1.505   2.284
14807TIP3    H244363   7.662   1.399   2.276
14808TIP3   OH244364   3.199   1.156   3.175
14808TIP3    H144365   3.199   1.162   3.079
14808TIP3    H244366   3.236   1.240   3.204
14809TIP3   OH244367   0.857   0.380   6.617
14809TIP3    H144368   0.938   0.341   6.583
14809TIP3    H244369   0.846   0.341   6.703
14810TIP3   OH244370   2.829   7.470   0.379
14810TIP3    H144371   2.819   7.478   0.284
14810TIP3    H244372   2.891   7.398   0.391
14811TIP3   OH244373   6.197   1.159   6.449
14811TIP3    H144374   6.171   1.110   6.371
14811TIP3    H244375   6.289   1.136   6.462
14812TIP3   OH244376   3.693   5.321   1.490
14812TIP3    H144377   3.620   5.371   1.527
14812TIP3    H244378   3.762   5.386   1.475
14813TIP3   OH244379   6.696   0.724   1.034
14813TIP3    H144380   6.696   0.791   0.966
14813TIP3    H244381   6.616   0.739   1.083
14814TIP3   OH244382   5.369   7.857   3.762
14814TIP3    H144383   5.275   7.870   3.773
14814TIP3    H244384   5.386   7.879   3.670
14815TIP3   OH244385   1.922   5.659   0.685
14815TIP3    H144386   1.963   5.630   0.767
14815TIP3    H244387   1.994   5.692   0.632
14816TIP3   OH244388   6.044   3.623   5.063
14816TIP3    H144389   6.038   3.535   5.026
14816TIP3    H244390   6.138   3.636   5.078
14817TIP3   OH244391   2.805   6.782   4.194
14817TIP3    H144392   2.868   6.837   4.242
14817TIP3    H244393   2.838   6.693   4.206
14818TIP3   OH244394   5.694   6.295   0.560
14818TIP3    H144395   5.703   6.336   0.474
14818TIP3    H244396   5.623   6.343   0.602
14819TIP3   OH244397   3.799   2.682   3.100
14819TIP3    H144398   3.809   2.774   3.076
14819TIP3    H244399   3.887   2.645   3.093
14820TIP3   OH244400   7.906   5.587   6.358
14820TIP3    H144401   7.952   5.650   6.414
14820TIP3    H244402   7.967   5.514   6.348
14821TIP3   OH244403   2.877   6.309   6.374
14821TIP3    H144404   2.797   6.318   6.322
14821TIP3    H244405   2.846   6.284   6.461
14822TIP3   OH244406   6.021   0.502   2.699
14822TIP3    H144407   5.944   0.517   2.754
14822TIP3    H244408   6.062   0.588   2.691
14823TIP3   OH244409   2.181   5.391   3.036
14823TIP3    H144410   2.190   5.483   3.063
14823TIP3    H244411   2.169   5.396   2.941
14824TIP3   OH244412   6.153   1.929   0.808
14824TIP3    H144413   6.204   1.959   0.883
14824TIP3    H244414   6.216   1.924   0.736
14825TIP3   OH244415   6.610   0.577   6.197
14825TIP3    H144416   6.631   0.563   6.289
14825TIP3    H244417   6.536   0.519   6.180
14826TIP3   OH244418   1.255   1.369   5.338
14826TIP3    H144419   1.224   1.279   5.327
14826TIP3    H244420   1.319   1.363   5.409
14827TIP3   OH244421   5.732   3.898   6.560
14827TIP3    H144422   5.711   3.899   6.653
14827TIP3    H244423   5.826   3.878   6.557
14828TIP3   OH244424   2.337   7.818   3.641
14828TIP3    H144425   2.422   7.855   3.615
14828TIP3    H244426   2.360   7.738   3.688
14829TIP3   OH244427   6.537   0.803   2.203
14829TIP3    H144428   6.546   0.867   2.132
14829TIP3    H244429   6.532   0.718   2.159
14830TIP3   OH244430   5.333   5.018   5.376
14830TIP3    H144431   5.372   5.008   5.463
14830TIP3    H244432   5.324   5.113   5.365
14831TIP3   OH244433   5.603   4.214   0.297
14831TIP3    H144434   5.697   4.221   0.279
14831TIP3    H244435   5.572   4.304   0.300
14832TIP3   OH244436   4.778   0.297   0.242
14832TIP3    H144437   4.818   0.281   0.157
14832TIP3    H244438   4.764   0.209   0.279
14833TIP3   OH244439   5.964   7.673   0.323
14833TIP3    H144440   5.964   7.768   0.311
14833TIP3    H244441   6.055   7.647   0.307
14834TIP3   OH244442   1.634   1.553   6.139
14834TIP3    H144443   1.586   1.471   6.151
14834TIP3    H244444   1.692   1.536   6.065
14835TIP3   OH244445   5.778   5.718   3.069
14835TIP3    H144446   5.779   5.632   3.110
14835TIP3    H244447   5.808   5.702   2.979
14836TIP3   OH244448   3.843   0.226   3.846
14836TIP3    H144449   3.896   0.236   3.925
14836TIP3    H244450   3.807   0.313   3.830
14837TIP3   OH244451   5.437   0.962   4.800
14837TIP3    H144452   5.435   0.956   4.896
14837TIP3    H244453   5.472   1.049   4.782
14838TIP3   OH244454   2.010   3.886   6.784
14838TIP3    H144455   1.927   3.886   6.832
14838TIP3    H244456   2.068   3.941   6.836
14839TIP3   OH244457   3.085   5.599   6.129
14839TIP3    H144458   3.037   5.666   6.177
14839TIP3    H244459   3.171   5.639   6.113
14840TIP3   OH244460   4.599   3.268   3.164
14840TIP3    H144461   4.591   3.342   3.225
14840TIP3    H244462   4.611   3.192   3.220
14841TIP3   OH244463   3.228   2.232   6.070
14841TIP3    H144464   3.224   2.211   6.164
14841TIP3    H244465   3.313   2.276   6.059
14842TIP3   OH244466   1.079   7.221   4.878
14842TIP3    H144467   1.039   7.204   4.963
14842TIP3    H244468   1.170   7.242   4.898
14843TIP3   OH244469   4.744   1.465   5.268
14843TIP3    H144470   4.807   1.409   5.223
14843TIP3    H244471   4.795   1.541   5.296
14844TIP3   OH244472   7.370   4.632   4.063
14844TIP3    H144473   7.287   4.676   4.045
14844TIP3    H244474   7.362   4.600   4.152
14845TIP3   OH244475   0.441   3.856   1.313
14845TIP3    H144476   0.374   3.921   1.331
14845TIP3    H244477   0.501   3.862   1.387
14846TIP3   OH244478   7.239   0.947   6.859
14846TIP3    H144479   7.188   0.986   6.787
14846TIP3    H244480   7.279   0.870   6.821
14847TIP3   OH244481   5.128   2.678   2.450
14847TIP3    H144482   5.159   2.767   2.434
14847TIP3    H244483   5.053   2.668   2.391
14848TIP3   OH244484   2.492   7.534   6.831
14848TIP3    H144485   2.534   7.452   6.859
14848TIP3    H244486   2.455   7.513   6.745
14849TIP3   OH244487   1.324   7.356   2.020
14849TIP3    H144488   1.360   7.443   2.005
14849TIP3    H244489   1.247   7.371   2.073
14850TIP3   OH244490   8.225   3.939   5.868
14850TIP3    H144491   8.252   3.972   5.782
14850TIP3    H244492   8.240   3.845   5.863
14851TIP3   OH244493   1.825   2.573   0.862
14851TIP3    H144494   1.917   2.581   0.887
14851TIP3    H244495   1.778   2.564   0.946
14852TIP3   OH244496   3.896   1.791   2.928
14852TIP3    H144497   3.927   1.854   2.993
14852TIP3    H244498   3.820   1.832   2.888
14853TIP3   OH244499   3.107   4.070   4.962
14853TIP3    H144500   3.023   4.115   4.973
14853TIP3    H244501   3.084   3.990   4.914
14854TIP3   OH244502   0.049   7.396   0.553
14854TIP3    H144503   0.058   7.477   0.603
14854TIP3    H244504   0.112   7.336   0.593
14855TIP3   OH244505   4.151   4.590   1.760
14855TIP3    H144506   4.241   4.615   1.737
14855TIP3    H244507   4.110   4.570   1.676
14856TIP3   OH244508   3.905   6.586   0.031
14856TIP3    H144509   3.829   6.556  -0.018
14856TIP3    H244510   3.882   6.569   0.123
14857TIP3   OH244511   8.120   2.980   6.034
14857TIP3    H144512   8.172   3.043   5.984
14857TIP3    H244513   8.081   2.923   5.968
14858TIP3   OH244514   7.957   1.494   2.399
14858TIP3    H144515   8.026   1.453   2.452
14858TIP3    H244516   8.004   1.549   2.337
14859TIP3   OH244517   3.421   5.821   0.920
14859TIP3    H144518   3.483   5.886   0.886
14859TIP3    H244519   3.468   5.738   0.916
14860TIP3   OH244520   7.354   3.489   4.241
14860TIP3    H144521   7.387   3.546   4.311
14860TIP3    H244522   7.419   3.499   4.171
14861TIP3   OH244523   3.852   4.042   2.396
14861TIP3    H144524   3.852   3.975   2.327
14861TIP3    H244525   3.783   4.103   2.370
14862TIP3   OH244526   7.002   6.572   5.591
14862TIP3    H144527   6.931   6.548   5.531
14862TIP3    H244528   7.055   6.634   5.540
14863TIP3   OH244529   1.895   0.988   2.448
14863TIP3    H144530   1.913   1.081   2.460
14863TIP3    H244531   1.860   0.959   2.532
14864TIP3   OH244532   2.280   1.666   4.735
14864TIP3    H144533   2.347   1.653   4.668
14864TIP3    H244534   2.276   1.583   4.783
14865TIP3   OH244535   2.602   4.321   1.092
14865TIP3    H144536   2.639   4.375   1.023
14865TIP3    H244537   2.608   4.375   1.171
14866TIP3   OH244538   4.283   3.013   5.114
14866TIP3    H144539   4.371   3.039   5.085
14866TIP3    H244540   4.298   2.938   5.171
14867TIP3   OH244541   5.913   1.840   5.886
14867TIP3    H144542   5.906   1.753   5.847
14867TIP3    H244543   5.966   1.828   5.964
14868TIP3   OH244544   3.667   7.873   3.843
14868TIP3    H144545   3.643   7.896   3.932
14868TIP3    H244546   3.755   7.836   3.850
14869TIP3   OH244547   3.573   6.102   1.975
14869TIP3    H144548   3.630   6.026   1.964
14869TIP3    H244549   3.529   6.111   1.890
14870TIP3   OH244550   6.443   2.702   0.373
14870TIP3    H144551   6.357   2.730   0.405
14870TIP3    H244552   6.489   2.785   0.355
14871TIP3   OH244553   7.477   4.293   5.431
14871TIP3    H144554   7.476   4.380   5.391
14871TIP3    H244555   7.473   4.310   5.525
14872TIP3   OH244556   1.931   2.919   1.710
14872TIP3    H144557   1.966   3.008   1.725
14872TIP3    H244558   1.890   2.896   1.793
14873TIP3   OH244559   5.093   4.812   1.676
14873TIP3    H144560   5.129   4.885   1.727
14873TIP3    H244561   5.133   4.822   1.589
14874TIP3   OH244562   0.323   5.626   4.801
14874TIP3    H144563   0.377   5.594   4.874
14874TIP3    H244564   0.276   5.701   4.837
14875TIP3   OH244565   6.568   1.416   2.870
14875TIP3    H144566   6.594   1.327   2.894
14875TIP3    H244567   6.481   1.427   2.908
14876TIP3   OH244568   3.464   7.812   1.284
14876TIP3    H144569   3.481   7.722   1.256
14876TIP3    H244570   3.368   7.817   1.291
14877TIP3   OH244571   0.681   3.326   3.688
14877TIP3    H144572   0.761   3.371   3.664
14877TIP3    H244573   0.611   3.376   3.646
14878TIP3   OH244574   7.103   2.212   2.621
14878TIP3    H144575   7.054   2.233   2.542
14878TIP3    H244576   7.150   2.131   2.600
14879TIP3   OH244577   5.106   0.937   6.402
14879TIP3    H144578   5.018   0.955   6.369
14879TIP3    H244579   5.131   0.854   6.361
14880TIP3   OH244580   7.453   3.413   5.723
14880TIP3    H144581   7.535   3.454   5.752
14880TIP3    H244582   7.458   3.323   5.757
14881TIP3   OH244583   5.699   0.039   5.872
14881TIP3    H144584   5.630  -0.026   5.854
14881TIP3    H244585   5.657   0.102   5.930
14882TIP3   OH244586   3.437   7.564   5.691
14882TIP3    H144587   3.441   7.487   5.635
14882TIP3    H244588   3.523   7.569   5.732
14883TIP3   OH244589   7.015   1.258   1.079
14883TIP3    H144590   6.943   1.294   1.130
14883TIP3    H244591   7.084   1.324   1.086
14884TIP3   OH244592   6.441   0.428   3.219
14884TIP3    H144593   6.442   0.440   3.313
14884TIP3    H244594   6.388   0.349   3.205
14885TIP3   OH244595   7.751   5.923   4.447
14885TIP3    H144596   7.831   5.912   4.396
14885TIP3    H244597   7.728   5.835   4.475
14886TIP3   OH244598   6.470   1.575   1.537
14886TIP3    H144599   6.533   1.548   1.603
14886TIP3    H244600   6.395   1.606   1.588
14887TIP3   OH244601   1.605   4.628   2.268
14887TIP3    H144602   1.585   4.575   2.191
14887TIP3    H244603   1.637   4.711   2.232
14888TIP3   OH244604   1.242   0.791   4.660
14888TIP3    H144605   1.214   0.879   4.687
14888TIP3    H244606   1.261   0.800   4.567
14889TIP3   OH244607   2.413   5.101   5.854
14889TIP3    H144608   2.353   5.055   5.912
14889TIP3    H244609   2.368   5.182   5.831
14890TIP3   OH244610   2.763   4.831   3.890
14890TIP3    H144611   2.692   4.874   3.841
14890TIP3    H244612   2.824   4.902   3.911
14891TIP3   OH244613   2.858   3.463   5.402
14891TIP3    H144614   2.857   3.558   5.390
14891TIP3    H244615   2.789   3.431   5.344
14892TIP3   OH244616   7.509   6.239   1.768
14892TIP3    H144617   7.588   6.202   1.808
14892TIP3    H244618   7.542   6.312   1.715
14893TIP3   OH244619   5.924   5.049   4.782
14893TIP3    H144620   5.864   5.116   4.750
14893TIP3    H244621   6.011   5.087   4.769
14894TIP3   OH244622   2.614   1.022   0.521
14894TIP3    H144623   2.554   0.954   0.489
14894TIP3    H244624   2.647   1.063   0.441
14895TIP3   OH244625   1.575   0.075   0.498
14895TIP3    H144626   1.559   0.161   0.537
14895TIP3    H244627   1.581   0.092   0.404
14896TIP3   OH244628   1.637   3.852   0.691
14896TIP3    H144629   1.661   3.779   0.748
14896TIP3    H244630   1.608   3.811   0.609
14897TIP3   OH244631   2.195   1.927   5.306
14897TIP3    H144632   2.102   1.906   5.296
14897TIP3    H244633   2.222   1.881   5.386
14898TIP3   OH244634   7.410   7.155   6.067
14898TIP3    H144635   7.363   7.226   6.111
14898TIP3    H244636   7.346   7.117   6.007
14899TIP3   OH244637   2.627   3.859   3.606
14899TIP3    H144638   2.587   3.907   3.533
14899TIP3    H244639   2.721   3.865   3.590
14900TIP3   OH244640   2.202   6.527   2.330
14900TIP3    H144641   2.182   6.580   2.408
14900TIP3    H244642   2.272   6.576   2.286
14901TIP3   OH244643   1.714   0.229   5.665
14901TIP3    H144644   1.644   0.295   5.656
14901TIP3    H244645   1.676   0.162   5.722
14902TIP3   OH244646   2.681   2.727   1.698
14902TIP3    H144647   2.719   2.645   1.668
14902TIP3    H244648   2.670   2.716   1.793
14903TIP3   OH244649   5.575   5.547   1.462
14903TIP3    H144650   5.660   5.503   1.462
14903TIP3    H244651   5.515   5.484   1.422
14904TIP3   OH244652   2.438   4.693   1.658
14904TIP3    H144653   2.452   4.665   1.567
14904TIP3    H244654   2.386   4.773   1.651
14905TIP3   OH244655   7.601   6.542   3.346
14905TIP3    H144656   7.678   6.584   3.306
14905TIP3    H244657   7.580   6.471   3.286
14906TIP3   OH244658   4.331   6.384   5.865
14906TIP3    H144659   4.251   6.364   5.914
14906TIP3    H244660   4.316   6.350   5.777
14907TIP3   OH244661   7.727   5.588   0.155
14907TIP3    H144662   7.805   5.643   0.168
14907TIP3    H244663   7.694   5.573   0.244
14908TIP3   OH244664   2.603   0.116   0.438
14908TIP3    H144665   2.532   0.054   0.458
14908TIP3    H244666   2.570   0.201   0.466
14909TIP3   OH244667   2.021   7.754   1.833
14909TIP3    H144668   1.963   7.744   1.758
14909TIP3    H244669   2.095   7.805   1.799
14910TIP3   OH244670   7.731   3.547   3.818
14910TIP3    H144671   7.794   3.601   3.770
14910TIP3    H244672   7.776   3.462   3.827
14911TIP3   OH244673   6.792   4.572   0.460
14911TIP3    H144674   6.866   4.620   0.422
14911TIP3    H244675   6.827   4.484   0.474
14912TIP3   OH244676   8.392   5.076   3.699
14912TIP3    H144677   8.406   5.126   3.619
14912TIP3    H244678   8.297   5.075   3.711
14913TIP3   OH244679   3.843   0.683   6.782
14913TIP3    H144680   3.808   0.727   6.859
14913TIP3    H244681   3.777   0.697   6.714
14914TIP3   OH244682   7.344   1.748   1.558
14914TIP3    H144683   7.361   1.660   1.527
14914TIP3    H244684   7.314   1.736   1.649
14915TIP3   OH244685   5.484   5.493   6.285
14915TIP3    H144686   5.424   5.563   6.260
14915TIP3    H244687   5.441   5.413   6.256
14916TIP3   OH244688   0.127   0.126   4.787
14916TIP3    H144689   0.058   0.169   4.736
14916TIP3    H244690   0.136   0.040   4.745
14917TIP3   OH244691   3.703   0.404   6.613
14917TIP3    H144692   3.745   0.385   6.696
14917TIP3    H244693   3.642   0.475   6.633
14918TIP3   OH244694   1.272   3.656   1.350
14918TIP3    H144695   1.331   3.726   1.377
14918TIP3    H244696   1.264   3.666   1.256
14919TIP3   OH244697   2.340   5.316   0.252
14919TIP3    H144698   2.417   5.274   0.217
14919TIP3    H244699   2.333   5.283   0.342
14920TIP3   OH244700   3.190   4.365   1.666
14920TIP3    H144701   3.202   4.274   1.693
14920TIP3    H244702   3.095   4.375   1.660
14921TIP3   OH244703   6.278   6.016   3.453
14921TIP3    H144704   6.245   6.100   3.422
14921TIP3    H244705   6.338   5.987   3.384
14922TIP3   OH244706   2.322   0.284   1.220
14922TIP3    H144707   2.271   0.223   1.167
14922TIP3    H244708   2.389   0.230   1.261
14923TIP3   OH244709   8.110   0.106   3.124
14923TIP3    H144710   8.034   0.079   3.177
14923TIP3    H244711   8.162   0.160   3.184
14924TIP3   OH244712   4.260   5.843   3.083
14924TIP3    H144713   4.215   5.765   3.051
14924TIP3    H244714   4.201   5.879   3.149
14925TIP3   OH244715   0.245   2.293   2.117
14925TIP3    H144716   0.276   2.206   2.094
14925TIP3    H244717   0.231   2.337   2.032
14926TIP3   OH244718   5.715   1.291   1.725
14926TIP3    H144719   5.716   1.226   1.654
14926TIP3    H244720   5.625   1.290   1.757
14927TIP3   OH244721   5.832   6.483   2.710
14927TIP3    H144722   5.825   6.436   2.627
14927TIP3    H244723   5.926   6.496   2.723
14928TIP3   OH244724   4.949   4.721   2.326
14928TIP3    H144725   4.882   4.785   2.350
14928TIP3    H244726   4.920   4.640   2.366
14929TIP3   OH244727   3.943   7.026   6.185
14929TIP3    H144728   4.005   7.084   6.142
14929TIP3    H244729   3.987   6.941   6.189
14930TIP3   OH244730   0.929   5.072   4.477
14930TIP3    H144731   0.996   5.070   4.409
14930TIP3    H244732   0.868   5.141   4.449
14931TIP3   OH244733   1.816   3.168   6.648
14931TIP3    H144734   1.897   3.219   6.646
14931TIP3    H244735   1.753   3.225   6.693
14932TIP3   OH244736   8.262   3.321   2.930
14932TIP3    H144737   8.243   3.355   2.843
14932TIP3    H244738   8.287   3.398   2.981
14933TIP3   OH244739   6.317   1.805   1.225
14933TIP3    H144740   6.280   1.752   1.296
14933TIP3    H244741   6.316   1.746   1.149
14934TIP3   OH244742   0.068   6.650   3.999
14934TIP3    H144743  -0.012   6.598   4.004
14934TIP3    H244744   0.071   6.700   4.080
14935TIP3   OH244745   7.414   5.590   0.625
14935TIP3    H144746   7.452   5.651   0.688
14935TIP3    H244747   7.483   5.576   0.561
14936TIP3   OH244748   1.011   3.989   1.531
14936TIP3    H144749   0.989   3.933   1.457
14936TIP3    H244750   1.085   4.042   1.500
14937TIP3   OH244751   6.631   2.174   3.982
14937TIP3    H144752   6.564   2.242   3.974
14937TIP3    H244753   6.682   2.200   4.058
14938TIP3   OH244754   6.284   7.302   0.948
14938TIP3    H144755   6.321   7.249   1.019
14938TIP3    H244756   6.282   7.391   0.984
14939TIP3   OH244757   1.885   0.353   5.377
14939TIP3    H144758   1.978   0.340   5.394
14939TIP3    H244759   1.848   0.264   5.376
14940TIP3   OH244760   7.492   1.837   0.391
14940TIP3    H144761   7.584   1.816   0.408
14940TIP3    H244762   7.483   1.831   0.296
14941TIP3   OH244763   6.157   7.668   4.051
14941TIP3    H144764   6.220   7.716   3.997
14941TIP3    H244765   6.072   7.699   4.022
14942TIP3   OH244766   8.147   4.548   0.640
14942TIP3    H144767   8.235   4.571   0.612
14942TIP3    H244768   8.119   4.621   0.695
14943TIP3   OH244769   7.766   0.765   0.982
14943TIP3    H144770   7.748   0.823   0.908
14943TIP3    H244771   7.687   0.771   1.037
14944TIP3   OH244772   3.021   2.946   4.239
14944TIP3    H144773   3.074   3.002   4.296
14944TIP3    H244774   2.965   2.897   4.300
14945TIP3   OH244775   2.134   7.646   4.494
14945TIP3    H144776   2.152   7.731   4.535
14945TIP3    H244777   2.221   7.607   4.482
14946TIP3   OH244778   4.236   5.474   5.074
14946TIP3    H144779   4.160   5.522   5.042
14946TIP3    H244780   4.253   5.510   5.161
14947TIP3   OH244781   1.552   7.219   1.955
14947TIP3    H144782   1.458   7.238   1.959
14947TIP3    H244783   1.557   7.124   1.961
14948TIP3   OH244784   7.199   7.879   1.927
14948TIP3    H144785   7.267   7.849   1.866
14948TIP3    H244786   7.216   7.973   1.937
14949TIP3   OH244787   0.100   0.913   2.616
14949TIP3    H144788   0.111   0.861   2.696
14949TIP3    H244789   0.148   0.865   2.549
14950TIP3   OH244790   8.053   7.174   0.617
14950TIP3    H144791   8.051   7.179   0.521
14950TIP3    H244792   8.107   7.097   0.636
14951TIP3   OH244793   3.320   6.245   0.455
14951TIP3    H144794   3.305   6.201   0.538
14951TIP3    H244795   3.378   6.186   0.406
14952TIP3   OH244796   1.332   4.483   3.300
14952TIP3    H144797   1.371   4.401   3.268
14952TIP3    H244798   1.290   4.459   3.382
14953TIP3   OH244799   1.586   4.003   3.555
14953TIP3    H144800   1.665   3.980   3.603
14953TIP3    H244801   1.520   4.016   3.623
14954TIP3   OH244802   4.866   5.346   0.737
14954TIP3    H144803   4.798   5.279   0.738
14954TIP3    H244804   4.946   5.300   0.762
14955TIP3   OH244805   7.130   6.239   4.160
14955TIP3    H144806   7.223   6.259   4.167
14955TIP3    H244807   7.088   6.323   4.139
14956TIP3   OH244808   2.197   4.551   5.645
14956TIP3    H144809   2.212   4.555   5.739
14956TIP3    H244810   2.255   4.618   5.608
14957TIP3   OH244811   1.427   4.584   6.434
14957TIP3    H144812   1.482   4.507   6.420
14957TIP3    H244813   1.338   4.551   6.427
14958TIP3   OH244814   6.971   4.516   6.648
14958TIP3    H144815   6.894   4.571   6.655
14958TIP3    H244816   6.939   4.434   6.610
14959TIP3   OH244817   4.508   7.874   3.001
14959TIP3    H144818   4.502   7.826   3.083
14959TIP3    H244819   4.601   7.875   2.980
14960TIP3   OH244820   2.050   4.621   5.326
14960TIP3    H144821   2.063   4.544   5.383
14960TIP3    H244822   1.977   4.596   5.269
14961TIP3   OH244823   1.174   0.516   2.155
14961TIP3    H144824   1.181   0.541   2.063
14961TIP3    H244825   1.109   0.576   2.191
14962TIP3   OH244826   6.193   4.524   4.823
14962TIP3    H144827   6.181   4.548   4.915
14962TIP3    H244828   6.176   4.430   4.821
14963TIP3   OH244829   5.904   2.780   4.881
14963TIP3    H144830   5.898   2.691   4.918
14963TIP3    H244831   5.830   2.827   4.920
14964TIP3   OH244832   6.027  -0.011   0.280
14964TIP3    H144833   6.027   0.067   0.226
14964TIP3    H244834   5.984   0.016   0.361
14965TIP3   OH244835   2.767   2.023   2.182
14965TIP3    H144836   2.697   2.055   2.238
14965TIP3    H244837   2.797   2.100   2.134
14966TIP3   OH244838   5.143   1.361   2.966
14966TIP3    H144839   5.108   1.324   2.885
14966TIP3    H244840   5.199   1.292   3.002
14967TIP3   OH244841   4.840   4.171   2.734
14967TIP3    H144842   4.770   4.226   2.699
14967TIP3    H244843   4.826   4.171   2.828
14968TIP3   OH244844   1.669   3.068   6.439
14968TIP3    H144845   1.729   3.098   6.507
14968TIP3    H244846   1.583   3.101   6.467
14969TIP3   OH244847   6.073   6.543   5.002
14969TIP3    H144848   6.088   6.602   5.076
14969TIP3    H244849   5.985   6.564   4.972
14970TIP3   OH244850   7.389   7.449   1.685
14970TIP3    H144851   7.376   7.412   1.772
14970TIP3    H244852   7.301   7.463   1.652
14971TIP3   OH244853   5.584   0.067   4.158
14971TIP3    H144854   5.630   0.123   4.096
14971TIP3    H244855   5.596  -0.022   4.124
14972TIP3   OH244856   4.209   4.420   4.478
14972TIP3    H144857   4.279   4.356   4.460
14972TIP3    H244858   4.247   4.481   4.541
14973TIP3   OH244859   7.955   4.157   4.104
14973TIP3    H144860   7.898   4.227   4.071
14973TIP3    H244861   7.970   4.180   4.195
14974TIP3   OH244862   4.984   1.727   1.937
14974TIP3    H144863   5.027   1.646   1.962
14974TIP3    H244864   5.036   1.760   1.864
14975TIP3   OH244865   0.523   6.091   3.500
14975TIP3    H144866   0.472   6.042   3.564
14975TIP3    H244867   0.604   6.115   3.546
14976TIP3   OH244868   0.742   6.316   3.553
14976TIP3    H144869   0.744   6.363   3.470
14976TIP3    H244870   0.716   6.381   3.617
14977TIP3   OH244871   5.315   3.908   3.650
14977TIP3    H144872   5.291   3.816   3.636
14977TIP3    H244873   5.296   3.923   3.743
14978TIP3   OH244874   1.608   1.795   6.780
14978TIP3    H144875   1.597   1.866   6.842
14978TIP3    H244876   1.535   1.735   6.798
14979TIP3   OH244877   4.027   7.301   3.922
14979TIP3    H144878   4.046   7.394   3.930
14979TIP3    H244879   3.939   7.291   3.957
14980TIP3   OH244880   5.861   0.222   2.798
14980TIP3    H144881   5.851   0.235   2.704
14980TIP3    H244882   5.776   0.249   2.835
14981TIP3   OH244883   0.991   5.751   1.902
14981TIP3    H144884   1.079   5.782   1.923
14981TIP3    H244885   0.987   5.752   1.807
14982TIP3   OH244886   0.106   2.229   3.357
14982TIP3    H144887   0.017   2.249   3.330
14982TIP3    H244888   0.107   2.134   3.370
14983TIP3   OH244889   5.504   3.238   3.863
14983TIP3    H144890   5.439   3.185   3.909
14983TIP3    H244891   5.455   3.315   3.833
14984TIP3   OH244892   3.199   2.595   5.865
14984TIP3    H144893   3.180   2.580   5.772
14984TIP3    H244894   3.288   2.630   5.866
14985TIP3   OH244895   4.861   5.490   6.718
14985TIP3    H144896   4.911   5.530   6.789
14985TIP3    H244897   4.770   5.507   6.739
14986TIP3   OH244898   5.998   3.240   4.426
14986TIP3    H144899   5.908   3.211   4.411
14986TIP3    H244900   6.052   3.167   4.396
14987TIP3   OH244901   5.605   0.693   2.722
14987TIP3    H144902   5.610   0.613   2.670
14987TIP3    H244903   5.550   0.670   2.797
14988TIP3   OH244904   1.118   2.369   0.154
14988TIP3    H144905   1.143   2.454   0.118
14988TIP3    H244906   1.155   2.368   0.243
14989TIP3   OH244907   3.106   6.476   3.112
14989TIP3    H144908   3.135   6.405   3.055
14989TIP3    H244909   3.045   6.527   3.058
14990TIP3   OH244910   3.188   7.194   5.036
14990TIP3    H144911   3.135   7.264   5.075
14990TIP3    H244912   3.224   7.147   5.111
14991TIP3   OH244913   3.382   4.334   1.216
14991TIP3    H144914   3.424   4.391   1.152
14991TIP3    H244915   3.387   4.246   1.178
14992TIP3   OH244916   2.406   6.026   3.876
14992TIP3    H144917   2.312   6.026   3.895
14992TIP3    H244918   2.426   6.117   3.853
14993TIP3   OH244919   6.257   2.206   0.524
14993TIP3    H144920   6.337   2.163   0.494
14993TIP3    H244921   6.276   2.299   0.520
14994TIP3   OH244922   1.475   7.202   0.969
14994TIP3    H144923   1.500   7.195   1.061
14994TIP3    H244924   1.558   7.214   0.922
14995TIP3   OH244925   2.854   4.859   5.818
14995TIP3    H144926   2.900   4.910   5.885
14995TIP3    H244927   2.762   4.860   5.846
14996TIP3   OH244928   7.564   2.507   6.377
14996TIP3    H144929   7.516   2.439   6.331
14996TIP3    H244930   7.646   2.464   6.404
14997TIP3   OH244931   6.065   4.944   4.287
14997TIP3    H144932   6.087   5.030   4.320
14997TIP3    H244933   6.001   4.960   4.217
14998TIP3   OH244934   7.588   6.376   0.463
14998TIP3    H144935   7.565   6.344   0.551
14998TIP3    H244936   7.659   6.320   0.434
14999TIP3   OH244937   6.310   7.360   2.440
14999TIP3    H144938   6.228   7.332   2.398
14999TIP3    H244939   6.365   7.390   2.368
15000TIP3   OH244940   6.033   2.828   5.974
15000TIP3    H144941   6.086   2.753   6.001
15000TIP3    H244942   6.039   2.828   5.879
15001TIP3   OH244943   5.806   2.217   1.629
15001TIP3    H144944   5.806   2.310   1.651
15001TIP3    H244945   5.777   2.214   1.538
15002TIP3   OH244946   7.410   0.813   6.444
15002TIP3    H144947   7.442   0.731   6.407
15002TIP3    H244948   7.357   0.852   6.375
15003TIP3   OH244949   2.347   7.079   3.156
15003TIP3    H144950   2.378   7.034   3.235
15003TIP3    H244951   2.272   7.028   3.127
15004TIP3   OH244952   3.776   2.011   0.040
15004TIP3    H144953   3.715   2.001   0.113
15004TIP3    H244954   3.847   2.065   0.075
15005TIP3   OH244955   7.856   2.162   2.934
15005TIP3    H144956   7.838   2.209   3.015
15005TIP3    H244957   7.948   2.136   2.941
15006TIP3   OH244958   6.047   4.880   3.565
15006TIP3    H144959   6.011   4.804   3.518
15006TIP3    H244960   6.131   4.849   3.599
15007TIP3   OH244961   1.906   6.166   2.198
15007TIP3    H144962   1.895   6.206   2.112
15007TIP3    H244963   1.999   6.172   2.216
15008TIP3   OH244964   7.252   4.982   4.678
15008TIP3    H144965   7.315   4.934   4.731
15008TIP3    H244966   7.172   4.984   4.732
15009TIP3   OH244967   0.434   2.661   4.688
15009TIP3    H144968   0.494   2.734   4.702
15009TIP3    H244969   0.492   2.584   4.685
15010TIP3   OH244970   1.311   5.504   5.263
15010TIP3    H144971   1.321   5.442   5.334
15010TIP3    H244972   1.401   5.523   5.235
15011TIP3   OH244973   6.566   4.542   0.279
15011TIP3    H144974   6.533   4.595   0.207
15011TIP3    H244975   6.639   4.592   0.315
15012TIP3   OH244976   1.561   0.671   2.184
15012TIP3    H144977   1.480   0.722   2.179
15012TIP3    H244978   1.629   0.737   2.197
15013TIP3   OH244979   7.461   7.330   4.814
15013TIP3    H144980   7.552   7.306   4.833
15013TIP3    H244981   7.446   7.299   4.725
15014TIP3   OH244982   4.971   7.879   0.979
15014TIP3    H144983   4.881   7.848   0.978
15014TIP3    H244984   4.975   7.939   1.054
15015TIP3   OH244985   6.051   2.510   4.738
15015TIP3    H144986   5.989   2.557   4.683
15015TIP3    H244987   6.131   2.505   4.686
15016TIP3   OH244988   3.749   1.801   6.009
15016TIP3    H144989   3.663   1.834   5.983
15016TIP3    H244990   3.787   1.871   6.062
15017TIP3   OH244991   4.252   0.199   3.034
15017TIP3    H144992   4.167   0.184   2.993
15017TIP3    H244993   4.289   0.112   3.045
15018TIP3   OH244994   7.635   2.603   2.909
15018TIP3    H144995   7.728   2.582   2.913
15018TIP3    H244996   7.596   2.530   2.860
15019TIP3   OH244997   1.195   2.486   3.233
15019TIP3    H144998   1.192   2.417   3.300
15019TIP3    H244999   1.259   2.455   3.169
15020TIP3   OH245000   1.508   6.811   0.281
15020TIP3    H145001   1.583   6.868   0.265
15020TIP3    H245002   1.542   6.743   0.339
15021TIP3   OH245003   1.858   4.562   5.827
15021TIP3    H145004   1.767   4.552   5.856
15021TIP3    H245005   1.855   4.547   5.733
15022TIP3   OH245006   6.496   0.015   0.797
15022TIP3    H145007   6.524   0.074   0.726
15022TIP3    H245008   6.573   0.007   0.853
15023TIP3   OH245009   2.246   2.195   5.402
15023TIP3    H145010   2.234   2.104   5.374
15023TIP3    H245011   2.213   2.197   5.492
15024TIP3   OH245012   6.629   7.245   5.753
15024TIP3    H145013   6.593   7.258   5.665
15024TIP3    H245014   6.622   7.151   5.768
15025TIP3   OH245015   6.023   7.362   4.272
15025TIP3    H145016   6.069   7.329   4.349
15025TIP3    H245017   5.944   7.309   4.267
15026TIP3   OH245018   7.253   6.215   1.273
15026TIP3    H145019   7.218   6.266   1.200
15026TIP3    H245020   7.329   6.170   1.237
15027TIP3   OH245021   8.112   3.292   0.032
15027TIP3    H145022   8.027   3.266  -0.005
15027TIP3    H245023   8.160   3.210   0.041
15028TIP3   OH245024   7.020   4.658   2.957
15028TIP3    H145025   6.998   4.588   3.019
15028TIP3    H245026   7.038   4.734   3.012
15029TIP3   OH245027   5.412   0.575   6.489
15029TIP3    H145028   5.449   0.500   6.444
15029TIP3    H245029   5.421   0.555   6.582
15030TIP3   OH245030   5.698   0.233   3.163
15030TIP3    H145031   5.714   0.325   3.139
15030TIP3    H245032   5.602   0.226   3.166
15031TIP3   OH245033   6.599   0.150   2.822
15031TIP3    H145034   6.539   0.079   2.842
15031TIP3    H245035   6.646   0.166   2.903
15032TIP3   OH245036   7.634   7.409   1.538
15032TIP3    H145037   7.655   7.342   1.604
15032TIP3    H245038   7.566   7.462   1.579
15033TIP3   OH245039   1.041   0.973   2.942
15033TIP3    H145040   1.068   0.946   2.855
15033TIP3    H245041   1.037   1.069   2.938
15034TIP3   OH245042   5.175   6.035   1.103
15034TIP3    H145043   5.187   6.072   1.190
15034TIP3    H245044   5.239   6.080   1.049
15035TIP3   OH245045   3.702   5.071   1.597
15035TIP3    H145046   3.757   5.090   1.673
15035TIP3    H245047   3.703   5.152   1.546
15036TIP3   OH245048   0.172   5.078   3.936
15036TIP3    H145049   0.097   5.085   3.878
15036TIP3    H245050   0.134   5.069   4.024
15037TIP3   OH245051   6.512   3.860   5.423
15037TIP3    H145052   6.468   3.904   5.350
15037TIP3    H245053   6.476   3.903   5.501
15038TIP3   OH245054   0.417   0.152   6.307
15038TIP3    H145055   0.434   0.059   6.295
15038TIP3    H245056   0.330   0.166   6.269
15039TIP3   OH245057   7.638   4.148   6.371
15039TIP3    H145058   7.617   4.211   6.440
15039TIP3    H245059   7.625   4.197   6.289
15040TIP3   OH245060   7.649   1.422   0.961
15040TIP3    H145061   7.736   1.382   0.971
15040TIP3    H245062   7.653   1.501   1.015
15041TIP3   OH245063   6.137   3.904   1.074
15041TIP3    H145064   6.112   3.849   0.999
15041TIP3    H245065   6.073   3.882   1.142
15042TIP3   OH245066   0.051   3.958   0.784
15042TIP3    H145067   0.141   3.988   0.774
15042TIP3    H245068   0.031   3.916   0.701
15043TIP3   OH245069   7.626   6.143   4.689
15043TIP3    H145070   7.604   6.058   4.727
15043TIP3    H245071   7.619   6.129   4.595
15044TIP3   OH245072   4.710   4.113   5.777
15044TIP3    H145073   4.681   4.028   5.746
15044TIP3    H245074   4.641   4.174   5.749
15045TIP3   OH245075   0.185   3.114   4.368
15045TIP3    H145076   0.219   3.163   4.294
15045TIP3    H245077   0.104   3.159   4.392
15046TIP3   OH245078   6.968   1.081   4.076
15046TIP3    H145079   6.908   1.009   4.056
15046TIP3    H245080   6.944   1.150   4.015
15047TIP3   OH245081   0.140   5.614   0.593
15047TIP3    H145082   0.192   5.693   0.577
15047TIP3    H245083   0.061   5.626   0.541
15048TIP3   OH245084   0.913   1.484   2.834
15048TIP3    H145085   0.916   1.459   2.741
15048TIP3    H245086   0.960   1.568   2.837
15049TIP3   OH245087   2.849   2.990   5.419
15049TIP3    H145088   2.794   2.931   5.367
15049TIP3    H245089   2.910   3.028   5.356
15050TIP3   OH245090   4.633   1.064   2.787
15050TIP3    H145091   4.653   1.006   2.860
15050TIP3    H245092   4.636   1.152   2.824
15051TIP3   OH245093   1.773   2.927   6.052
15051TIP3    H145094   1.740   3.003   6.005
15051TIP3    H245095   1.705   2.907   6.117
15052TIP3   OH245096   1.627   3.080   0.063
15052TIP3    H145097   1.696   3.112   0.006
15052TIP3    H245098   1.660   2.997   0.097
15053TIP3   OH245099   0.290   1.360   5.383
15053TIP3    H145100   0.352   1.291   5.408
15053TIP3    H245101   0.326   1.440   5.422
15054TIP3   OH245102   2.635   5.550   0.554
15054TIP3    H145103   2.650   5.525   0.645
15054TIP3    H245104   2.587   5.632   0.559
15055TIP3   OH245105   4.215   5.686   6.541
15055TIP3    H145106   4.136   5.735   6.561
15055TIP3    H245107   4.286   5.749   6.552
15056TIP3   OH245108   4.333   2.809   2.682
15056TIP3    H145109   4.352   2.802   2.589
15056TIP3    H245110   4.280   2.733   2.703
15057TIP3   OH245111   7.795   3.814   4.249
15057TIP3    H145112   7.860   3.848   4.188
15057TIP3    H245113   7.844   3.794   4.329
15058TIP3   OH245114   2.715   6.469   0.236
15058TIP3    H145115   2.665   6.462   0.154
15058TIP3    H245116   2.669   6.537   0.285
15059TIP3   OH245117   0.332   1.063   1.603
15059TIP3    H145118   0.421   1.092   1.623
15059TIP3    H245119   0.331   0.970   1.627
15060TIP3   OH245120   6.042   5.844   0.606
15060TIP3    H145121   6.106   5.893   0.656
15060TIP3    H245122   5.959   5.855   0.654
15061TIP3   OH245123   7.391   4.894   1.822
15061TIP3    H145124   7.330   4.820   1.823
15061TIP3    H245125   7.475   4.856   1.847
15062TIP3   OH245126   0.476   3.831   4.570
15062TIP3    H145127   0.539   3.768   4.536
15062TIP3    H245128   0.396   3.817   4.519
15063TIP3   OH245129   7.578   0.535   6.513
15063TIP3    H145130   7.550   0.488   6.591
15063TIP3    H245131   7.652   0.589   6.542
15064TIP3   OH245132   0.967   7.531   3.084
15064TIP3    H145133   0.980   7.442   3.115
15064TIP3    H245134   0.873   7.537   3.065
15065TIP3   OH245135   3.660   1.718   1.011
15065TIP3    H145136   3.645   1.632   0.973
15065TIP3    H245137   3.736   1.752   0.965
15066TIP3   OH245138   2.449   7.595   5.524
15066TIP3    H145139   2.418   7.593   5.614
15066TIP3    H245140   2.529   7.649   5.527
15067TIP3   OH245141   8.129   0.622   4.180
15067TIP3    H145142   8.181   0.695   4.147
15067TIP3    H245143   8.079   0.660   4.253
15068TIP3   OH245144   1.072   6.447   4.018
15068TIP3    H145145   1.077   6.537   3.986
15068TIP3    H245146   1.130   6.445   4.094
15069TIP3   OH245147   8.185   4.093   2.153
15069TIP3    H145148   8.252   4.066   2.216
15069TIP3    H245149   8.108   4.114   2.207
15070TIP3   OH245150   6.323   4.924   6.833
15070TIP3    H145151   6.377   4.850   6.859
15070TIP3    H245152   6.359   4.952   6.749
15071TIP3   OH245153   2.930   4.594   0.385
15071TIP3    H145154   2.954   4.601   0.292
15071TIP3    H245155   2.955   4.679   0.422
15072TIP3   OH245156   1.068   5.451   1.687
15072TIP3    H145157   1.034   5.538   1.662
15072TIP3    H245158   1.027   5.433   1.771
15073TIP3   OH245159   6.355   6.504   3.640
15073TIP3    H145160   6.404   6.432   3.600
15073TIP3    H245161   6.401   6.583   3.612
15074TIP3   OH245162   3.168   5.900   2.117
15074TIP3    H145163   3.244   5.894   2.059
15074TIP3    H245164   3.095   5.871   2.063
15075TIP3   OH245165   5.846   3.183   2.947
15075TIP3    H145166   5.928   3.191   2.897
15075TIP3    H245167   5.815   3.273   2.956
15076TIP3   OH245168   1.816   7.720   5.934
15076TIP3    H145169   1.812   7.630   5.903
15076TIP3    H245170   1.788   7.773   5.859
15077TIP3   OH245171   0.973   5.234   6.388
15077TIP3    H145172   0.942   5.241   6.298
15077TIP3    H245173   1.036   5.162   6.386
15078TIP3   OH245174   6.216   7.153   0.273
15078TIP3    H145175   6.161   7.079   0.299
15078TIP3    H245176   6.241   7.195   0.356
15079TIP3   OH245177   1.649   0.220   5.090
15079TIP3    H145178   1.690   0.156   5.033
15079TIP3    H245179   1.571   0.176   5.123
15080TIP3   OH245180   5.171   0.384   0.131
15080TIP3    H145181   5.143   0.324   0.062
15080TIP3    H245182   5.266   0.382   0.128
15081TIP3   OH245183   5.275   1.513   5.628
15081TIP3    H145184   5.350   1.459   5.603
15081TIP3    H245185   5.307   1.603   5.622
15082TIP3   OH245186   0.102   5.855   5.943
15082TIP3    H145187   0.139   5.834   6.030
15082TIP3    H245188   0.042   5.928   5.960
15083TIP3   OH245189   3.567   5.111   4.928
15083TIP3    H145190   3.516   5.033   4.904
15083TIP3    H245191   3.581   5.102   5.022
15084TIP3   OH245192   8.048   7.310   6.337
15084TIP3    H145193   8.003   7.394   6.322
15084TIP3    H245194   8.109   7.302   6.264
15085TIP3   OH245195   7.826   5.706   0.651
15085TIP3    H145196   7.885   5.772   0.616
15085TIP3    H245197   7.868   5.676   0.732
15086TIP3   OH245198   4.631   1.125   0.694
15086TIP3    H145199   4.584   1.044   0.716
15086TIP3    H245200   4.722   1.099   0.687
15087TIP3   OH245201   0.225   4.704   2.452
15087TIP3    H145202   0.320   4.709   2.447
15087TIP3    H245203   0.200   4.646   2.380
15088TIP3   OH245204   6.968   5.798   5.940
15088TIP3    H145205   6.924   5.867   5.890
15088TIP3    H245206   6.917   5.719   5.922
15089TIP3   OH245207   0.764   7.209   2.923
15089TIP3    H145208   0.831   7.239   2.984
15089TIP3    H245209   0.700   7.164   2.979
15090TIP3   OH245210   8.292   3.683   5.129
15090TIP3    H145211   8.365   3.692   5.190
15090TIP3    H245212   8.333   3.680   5.043
15091TIP3   OH245213   3.651   2.403   2.183
15091TIP3    H145214   3.710   2.422   2.109
15091TIP3    H245215   3.678   2.316   2.213
15092TIP3   OH245216   1.260   7.433   0.064
15092TIP3    H145217   1.315   7.469  -0.006
15092TIP3    H245218   1.185   7.396   0.018
15093TIP3   OH245219   6.462   2.077   6.690
15093TIP3    H145220   6.398   2.137   6.652
15093TIP3    H245221   6.538   2.083   6.633
15094TIP3   OH245222   4.034   6.110   4.111
15094TIP3    H145223   4.029   6.132   4.204
15094TIP3    H245224   3.957   6.153   4.073
15095TIP3   OH245225   1.528   5.530   4.709
15095TIP3    H145226   1.575   5.447   4.716
15095TIP3    H245227   1.463   5.515   4.639
15096TIP3   OH245228   1.228   7.109   1.295
15096TIP3    H145229   1.257   7.027   1.255
15096TIP3    H245230   1.298   7.132   1.356
15097TIP3   OH245231   4.225   0.576   1.811
15097TIP3    H145232   4.156   0.594   1.746
15097TIP3    H245233   4.222   0.651   1.870
15098TIP3   OH245234   7.484   4.124   4.084
15098TIP3    H145235   7.521   4.189   4.144
15098TIP3    H245236   7.392   4.147   4.079
15099TIP3   OH245237   4.351   0.014   1.899
15099TIP3    H145238   4.275  -0.013   1.950
15099TIP3    H245239   4.389   0.086   1.949
15100TIP3   OH245240   5.588   7.094   5.882
15100TIP3    H145241   5.614   7.002   5.890
15100TIP3    H245242   5.641   7.127   5.809
15101TIP3   OH245243   0.183   4.169   4.024
15101TIP3    H145244   0.118   4.239   4.036
15101TIP3    H245245   0.251   4.188   4.089
15102TIP3   OH245246   1.176   6.603   4.658
15102TIP3    H145247   1.252   6.546   4.667
15102TIP3    H245248   1.161   6.607   4.563
15103TIP3   OH245249   2.700   1.769   4.538
15103TIP3    H145250   2.688   1.823   4.460
15103TIP3    H245251   2.767   1.815   4.589
15104TIP3   OH245252   1.258   2.801   2.044
15104TIP3    H145253   1.163   2.792   2.037
15104TIP3    H245254   1.278   2.781   2.136
15105TIP3   OH245255   4.653   3.486   6.509
15105TIP3    H145256   4.638   3.392   6.520
15105TIP3    H245257   4.707   3.492   6.430
15106TIP3   OH245258   4.911   7.566   3.282
15106TIP3    H145259   4.830   7.553   3.232
15106TIP3    H245260   4.962   7.628   3.230
15107TIP3   OH245261   2.745   4.566   0.998
15107TIP3    H145262   2.806   4.631   1.032
15107TIP3    H245263   2.797   4.514   0.937
15108TIP3   OH245264   1.189   2.214   2.413
15108TIP3    H145265   1.220   2.141   2.466
15108TIP3    H245266   1.193   2.290   2.471
15109TIP3   OH245267   0.584   2.570   0.283
15109TIP3    H145268   0.585   2.665   0.281
15109TIP3    H245269   0.515   2.545   0.221
15110TIP3   OH245270   1.945   5.382   4.300
15110TIP3    H145271   1.895   5.300   4.301
15110TIP3    H245272   1.955   5.405   4.393
15111TIP3   OH245273   1.168   0.325   5.313
15111TIP3    H145274   1.259   0.355   5.303
15111TIP3    H245275   1.121   0.366   5.241
15112TIP3   OH245276   7.541   5.579   1.343
15112TIP3    H145277   7.572   5.503   1.293
15112TIP3    H245278   7.452   5.555   1.370
15113TIP3   OH245279   6.322   7.132   6.232
15113TIP3    H145280   6.287   7.198   6.290
15113TIP3    H245281   6.417   7.139   6.242
15114TIP3   OH245282   3.869   6.892   6.618
15114TIP3    H145283   3.883   6.814   6.565
15114TIP3    H245284   3.777   6.914   6.604
15115TIP3   OH245285   4.210   1.354   1.512
15115TIP3    H145286   4.142   1.406   1.554
15115TIP3    H245287   4.242   1.297   1.582
15116TIP3   OH245288   1.376   2.985   2.558
15116TIP3    H145289   1.336   2.941   2.633
15116TIP3    H245290   1.409   3.068   2.593
15117TIP3   OH245291   0.513   4.559   0.351
15117TIP3    H145292   0.520   4.588   0.441
15117TIP3    H245293   0.418   4.560   0.333
15118TIP3   OH245294   7.627   4.915   2.766
15118TIP3    H145295   7.686   4.958   2.828
15118TIP3    H245296   7.565   4.983   2.740
15119TIP3   OH245297   1.554   0.853   4.981
15119TIP3    H145298   1.543   0.926   5.042
15119TIP3    H245299   1.614   0.886   4.915
15120TIP3   OH245300   3.991   6.240   0.280
15120TIP3    H145301   3.990   6.213   0.372
15120TIP3    H245302   3.943   6.323   0.278
15121TIP3   OH245303   0.438   6.348   3.692
15121TIP3    H145304   0.439   6.437   3.656
15121TIP3    H245305   0.371   6.303   3.641
15122TIP3   OH245306   6.201   3.962   6.413
15122TIP3    H145307   6.192   4.049   6.375
15122TIP3    H245308   6.293   3.956   6.438
15123TIP3   OH245309   4.202   4.903   1.341
15123TIP3    H145310   4.128   4.933   1.287
15123TIP3    H245311   4.170   4.823   1.383
15124TIP3   OH245312   5.071   1.201   5.368
15124TIP3    H145313   5.069   1.179   5.461
15124TIP3    H245314   5.103   1.122   5.325
15125TIP3   OH245315   1.785   2.850   3.647
15125TIP3    H145316   1.740   2.907   3.709
15125TIP3    H245317   1.862   2.899   3.619
15126TIP3   OH245318   4.081   1.821   5.326
15126TIP3    H145319   4.109   1.849   5.239
15126TIP3    H245320   4.153   1.766   5.358
15127TIP3   OH245321   5.395   6.199   0.407
15127TIP3    H145322   5.419   6.197   0.500
15127TIP3    H245323   5.306   6.234   0.406
15128TIP3   OH245324   3.856   3.211   3.489
15128TIP3    H145325   3.812   3.246   3.412
15128TIP3    H245326   3.787   3.164   3.536
15129TIP3   OH245327   8.178   1.731   4.367
15129TIP3    H145328   8.247   1.790   4.395
15129TIP3    H245329   8.144   1.694   4.449
15130TIP3   OH245330   6.478   2.176   1.404
15130TIP3    H145331   6.553   2.219   1.445
15130TIP3    H245332   6.445   2.117   1.471
15131TIP3   OH245333   7.130   5.629   1.146
15131TIP3    H145334   7.146   5.604   1.055
15131TIP3    H245335   7.184   5.707   1.160
15132TIP3   OH245336   7.322   2.609   1.861
15132TIP3    H145337   7.384   2.660   1.810
15132TIP3    H245338   7.241   2.611   1.811
15133TIP3   OH245339   6.257   4.609   6.662
15133TIP3    H145340   6.305   4.621   6.580
15133TIP3    H245341   6.202   4.532   6.646
15134TIP3   OH245342   0.645   0.814   5.711
15134TIP3    H145343   0.668   0.856   5.628
15134TIP3    H245344   0.551   0.829   5.721
15135TIP3   OH245345   1.805   7.104   1.085
15135TIP3    H145346   1.745   7.123   1.013
15135TIP3    H245347   1.775   7.161   1.156
15136TIP3   OH245348   2.517   7.555   2.230
15136TIP3    H145349   2.435   7.592   2.197
15136TIP3    H245350   2.571   7.541   2.152
15137TIP3   OH245351   6.906   2.817   3.618
15137TIP3    H145352   6.849   2.817   3.695
15137TIP3    H245353   6.981   2.869   3.644
15138TIP3   OH245354   0.982   7.205   2.618
15138TIP3    H145355   0.888   7.218   2.612
15138TIP3    H245356   0.993   7.148   2.694
15139TIP3   OH245357   2.720   3.487   1.061
15139TIP3    H145358   2.644   3.441   1.025
15139TIP3    H245359   2.725   3.457   1.152
15140TIP3   OH245360   0.110   3.217   6.722
15140TIP3    H145361   0.132   3.224   6.629
15140TIP3    H245362   0.086   3.125   6.734
15141TIP3   OH245363   6.169   5.353   5.386
15141TIP3    H145364   6.172   5.313   5.472
15141TIP3    H245365   6.076   5.365   5.367
15142TIP3   OH245366   0.794   5.632   3.405
15142TIP3    H145367   0.820   5.605   3.317
15142TIP3    H245368   0.698   5.633   3.402
15143TIP3   OH245369   6.574   0.846   5.854
15143TIP3    H145370   6.546   0.889   5.935
15143TIP3    H245371   6.606   0.917   5.799
15144TIP3   OH245372   4.193   2.266   1.783
15144TIP3    H145373   4.285   2.283   1.801
15144TIP3    H245374   4.145   2.324   1.843
15145TIP3   OH245375   5.715   0.925   2.929
15145TIP3    H145376   5.631   0.884   2.951
15145TIP3    H245377   5.726   0.993   2.995
15146TIP3   OH245378   2.373   5.042   2.008
15146TIP3    H145379   2.427   4.985   2.063
15146TIP3    H245380   2.297   5.063   2.063
15147TIP3   OH245381   0.543   3.730   2.616
15147TIP3    H145382   0.595   3.651   2.628
15147TIP3    H245383   0.516   3.727   2.524
15148TIP3   OH245384   2.311   3.861   6.230
15148TIP3    H145385   2.345   3.780   6.267
15148TIP3    H245386   2.315   3.924   6.302
15149TIP3   OH245387   0.948   0.612   3.835
15149TIP3    H145388   0.937   0.523   3.802
15149TIP3    H245389   0.884   0.620   3.905
15150TIP3   OH245390   7.886   3.339   3.897
15150TIP3    H145391   7.974   3.314   3.869
15150TIP3    H245392   7.881   3.313   3.989
15151TIP3   OH245393   4.523   1.802   3.843
15151TIP3    H145394   4.498   1.873   3.902
15151TIP3    H245395   4.618   1.809   3.836
15152TIP3   OH245396   3.261   5.203   3.926
15152TIP3    H145397   3.203   5.266   3.970
15152TIP3    H245398   3.341   5.204   3.979
15153TIP3   OH245399   4.085   0.339   1.260
15153TIP3    H145400   4.108   0.431   1.257
15153TIP3    H245401   3.995   0.335   1.229
15154TIP3   OH245402   4.539   1.583   0.358
15154TIP3    H145403   4.569   1.510   0.413
15154TIP3    H245404   4.444   1.572   0.354
15155TIP3   OH245405   7.610   2.753   5.813
15155TIP3    H145406   7.670   2.773   5.886
15155TIP3    H245407   7.652   2.791   5.736
15156TIP3   OH245408   6.171   7.314   2.650
15156TIP3    H145409   6.213   7.245   2.701
15156TIP3    H245410   6.239   7.345   2.590
15157TIP3   OH245411   6.904   1.843   4.937
15157TIP3    H145412   6.914   1.921   4.884
15157TIP3    H245413   6.928   1.771   4.879
15158TIP3   OH245414   5.394   1.556   0.381
15158TIP3    H145415   5.332   1.512   0.439
15158TIP3    H245416   5.427   1.487   0.324
15159TIP3   OH245417   3.046   1.927   6.709
15159TIP3    H145418   3.063   1.969   6.793
15159TIP3    H245419   2.951   1.934   6.697
15160TIP3   OH245420   7.619   3.430   0.564
15160TIP3    H145421   7.678   3.384   0.505
15160TIP3    H245422   7.669   3.440   0.645
15161TIP3   OH245423   2.480   0.490   3.656
15161TIP3    H145424   2.546   0.514   3.721
15161TIP3    H245425   2.455   0.573   3.616
15162TIP3   OH245426   6.066   0.531   0.860
15162TIP3    H145427   6.048   0.614   0.815
15162TIP3    H245428   5.980   0.496   0.881
15163TIP3   OH245429   2.279   5.172   4.303
15163TIP3    H145430   2.256   5.110   4.233
15163TIP3    H245431   2.215   5.157   4.372
15164TIP3   OH245432   2.413   1.367   6.597
15164TIP3    H145433   2.386   1.429   6.530
15164TIP3    H245434   2.378   1.403   6.679
15165TIP3   OH245435   6.849   4.195   3.286
15165TIP3    H145436   6.906   4.138   3.337
15165TIP3    H245437   6.891   4.201   3.200
15166TIP3   OH245438   7.929   7.695   2.941
15166TIP3    H145439   7.895   7.629   3.001
15166TIP3    H245440   8.004   7.734   2.987
15167TIP3   OH245441   6.781   4.461   3.187
15167TIP3    H145442   6.764   4.556   3.192
15167TIP3    H245443   6.766   4.430   3.276
15168TIP3   OH245444   7.765   1.606   3.176
15168TIP3    H145445   7.694   1.664   3.151
15168TIP3    H245446   7.724   1.519   3.182
15169TIP3   OH245447   4.861   4.658   2.732
15169TIP3    H145448   4.894   4.651   2.642
15169TIP3    H245449   4.774   4.619   2.728
15170TIP3   OH245450   2.951   0.060   2.227
15170TIP3    H145451   2.867   0.106   2.232
15170TIP3    H245452   3.016   0.125   2.252
15171TIP3   OH245453   2.860   0.433   0.901
15171TIP3    H145454   2.892   0.394   0.983
15171TIP3    H245455   2.800   0.502   0.929
15172TIP3   OH245456   6.634   5.855   5.742
15172TIP3    H145457   6.561   5.858   5.803
15172TIP3    H245458   6.670   5.944   5.744
15173TIP3   OH245459   2.456   6.806   1.545
15173TIP3    H145460   2.386   6.870   1.535
15173TIP3    H245461   2.455   6.756   1.464
15174TIP3   OH245462   0.100   4.360   1.298
15174TIP3    H145463   0.067   4.274   1.325
15174TIP3    H245464   0.027   4.399   1.249
15175TIP3   OH245465   1.501   3.908   4.174
15175TIP3    H145466   1.539   3.867   4.097
15175TIP3    H245467   1.422   3.858   4.192
15176TIP3   OH245468   4.501   7.904   6.410
15176TIP3    H145469   4.596   7.912   6.415
15176TIP3    H245470   4.481   7.900   6.317
15177TIP3   OH245471   7.652   2.442   1.313
15177TIP3    H145472   7.600   2.522   1.300
15177TIP3    H245473   7.682   2.448   1.403
15178TIP3   OH245474   3.621   2.829   6.828
15178TIP3    H145475   3.661   2.833   6.915
15178TIP3    H245476   3.562   2.904   6.825
15179TIP3   OH245477   5.674   4.840   0.467
15179TIP3    H145478   5.582   4.854   0.447
15179TIP3    H245479   5.674   4.799   0.554
15180TIP3   OH245480   2.606   7.120   5.866
15180TIP3    H145481   2.555   7.128   5.946
15180TIP3    H245482   2.603   7.207   5.826
15181TIP3   OH245483   3.960   1.809   4.349
15181TIP3    H145484   3.877   1.762   4.341
15181TIP3    H245485   3.979   1.839   4.261
15182TIP3   OH245486   7.653   6.632   0.241
15182TIP3    H145487   7.575   6.669   0.199
15182TIP3    H245488   7.634   6.538   0.248
15183TIP3   OH245489   0.737   7.547   2.863
15183TIP3    H145490   0.757   7.493   2.786
15183TIP3    H245491   0.682   7.617   2.829
15184TIP3   OH245492   7.281   4.912   4.147
15184TIP3    H145493   7.271   4.935   4.054
15184TIP3    H245494   7.375   4.907   4.161
15185TIP3   OH245495   3.897   4.618   1.590
15185TIP3    H145496   3.886   4.650   1.501
15185TIP3    H245497   3.829   4.551   1.600
15186TIP3   OH245498   4.278   5.531   3.119
15186TIP3    H145499   4.325   5.482   3.052
15186TIP3    H245500   4.202   5.568   3.073
15187TIP3   OH245501   2.342   2.527   1.954
15187TIP3    H145502   2.423   2.476   1.957
15187TIP3    H245503   2.297   2.506   2.036
15188TIP3   OH245504   6.499   1.358   6.426
15188TIP3    H145505   6.423   1.404   6.459
15188TIP3    H245506   6.477   1.265   6.433
15189TIP3   OH245507   1.670   2.450   4.402
15189TIP3    H145508   1.726   2.528   4.403
15189TIP3    H245509   1.725   2.381   4.438
15190TIP3   OH245510   5.744   5.412   5.806
15190TIP3    H145511   5.783   5.442   5.724
15190TIP3    H245512   5.710   5.491   5.847
15191TIP3   OH245513   5.687   3.527   3.772
15191TIP3    H145514   5.770   3.553   3.813
15191TIP3    H245515   5.673   3.437   3.801
15192TIP3   OH245516   5.106   3.414   5.618
15192TIP3    H145517   5.047   3.487   5.640
15192TIP3    H245518   5.193   3.454   5.617
15193TIP3   OH245519   1.016   1.729   2.961
15193TIP3    H145520   1.107   1.754   2.977
15193TIP3    H245521   1.004   1.648   3.010
15194TIP3   OH245522   3.154   0.793   5.700
15194TIP3    H145523   3.229   0.762   5.751
15194TIP3    H245524   3.181   0.878   5.666
15195TIP3   OH245525   8.259   4.209   1.679
15195TIP3    H145526   8.275   4.174   1.767
15195TIP3    H245527   8.247   4.132   1.624
15196TIP3   OH245528   3.031   7.191   3.424
15196TIP3    H145529   3.006   7.269   3.374
15196TIP3    H245530   3.099   7.222   3.484
15197TIP3   OH245531   1.791   0.807   0.189
15197TIP3    H145532   1.793   0.760   0.106
15197TIP3    H245533   1.698   0.827   0.203
15198TIP3   OH245534   3.251   7.157   0.320
15198TIP3    H145535   3.305   7.221   0.274
15198TIP3    H245536   3.196   7.210   0.378
15199TIP3   OH245537   7.157   4.110   0.962
15199TIP3    H145538   7.110   4.044   1.013
15199TIP3    H245539   7.100   4.187   0.963
15200TIP3   OH245540   6.091   7.784   5.809
15200TIP3    H145541   6.051   7.774   5.722
15200TIP3    H245542   6.054   7.713   5.861
15201TIP3   OH245543   7.751   7.695   1.719
15201TIP3    H145544   7.756   7.752   1.795
15201TIP3    H245545   7.662   7.707   1.686
15202TIP3   OH245546   7.521   6.548   2.393
15202TIP3    H145547   7.430   6.520   2.404
15202TIP3    H245548   7.523   6.593   2.308
15203TIP3   OH245549   3.658   3.357   0.168
15203TIP3    H145550   3.690   3.286   0.223
15203TIP3    H245551   3.583   3.393   0.215
15204TIP3   OH245552   0.413   0.435   6.095
15204TIP3    H145553   0.435   0.443   6.188
15204TIP3    H245554   0.494   0.407   6.053
15205TIP3   OH245555   5.553   1.138   2.828
15205TIP3    H145556   5.575   1.187   2.749
15205TIP3    H245557   5.629   1.148   2.885
15206TIP3   OH245558   8.304   0.215   3.562
15206TIP3    H145559   8.321   0.283   3.627
15206TIP3    H245560   8.380   0.157   3.567
15207TIP3   OH245561   3.460   4.371   0.108
15207TIP3    H145562   3.488   4.460   0.128
15207TIP3    H245563   3.539   4.327   0.077
15208TIP3   OH245564   6.773   6.586   1.740
15208TIP3    H145565   6.734   6.563   1.656
15208TIP3    H245566   6.853   6.535   1.745
15209TIP3   OH245567   3.958   0.256   4.314
15209TIP3    H145568   3.924   0.322   4.374
15209TIP3    H245569   4.026   0.211   4.363
15210TIP3   OH245570   2.748   2.503   5.597
15210TIP3    H145571   2.766   2.513   5.690
15210TIP3    H245572   2.780   2.415   5.576
15211TIP3   OH245573   2.623   0.998   3.458
15211TIP3    H145574   2.680   1.045   3.519
15211TIP3    H245575   2.681   0.937   3.412
15212TIP3   OH245576   0.731   3.719   3.675
15212TIP3    H145577   0.667   3.701   3.606
15212TIP3    H245578   0.687   3.780   3.734
15213TIP3   OH245579   0.142   0.386   1.557
15213TIP3    H145580   0.178   0.298   1.566
15213TIP3    H245581   0.071   0.376   1.494
15214TIP3   OH245582   1.817   5.410   1.185
15214TIP3    H145583   1.831   5.358   1.264
15214TIP3    H245584   1.721   5.416   1.177
15215TIP3   OH245585   5.761   1.270   3.417
15215TIP3    H145586   5.707   1.343   3.445
15215TIP3    H245587   5.837   1.272   3.476
15216TIP3   OH245588   0.899   4.505   0.388
15216TIP3    H145589   0.881   4.524   0.480
15216TIP3    H245590   0.841   4.563   0.339
15217TIP3   OH245591   7.028   2.732   6.538
15217TIP3    H145592   6.957   2.794   6.553
15217TIP3    H245593   7.106   2.786   6.527
15218TIP3   OH245594   2.854   6.140   4.141
15218TIP3    H145595   2.895   6.120   4.057
15218TIP3    H245596   2.788   6.072   4.152
15219TIP3   OH245597   3.811   6.235   4.000
15219TIP3    H145598   3.777   6.264   4.085
15219TIP3    H245599   3.782   6.302   3.938
15220TIP3   OH245600   7.998   2.280   2.583
15220TIP3    H145601   7.940   2.336   2.532
15220TIP3    H245602   7.941   2.211   2.617
15221TIP3   OH245603   3.274   5.043   1.032
15221TIP3    H145604   3.301   5.078   0.948
15221TIP3    H245605   3.303   5.108   1.096
15222TIP3   OH245606   7.211   2.593   5.124
15222TIP3    H145607   7.181   2.612   5.213
15222TIP3    H245608   7.273   2.520   5.134
15223TIP3   OH245609   0.431   1.993   6.609
15223TIP3    H145610   0.423   2.083   6.639
15223TIP3    H245611   0.346   1.972   6.570
15224TIP3   OH245612   0.283   5.072   5.271
15224TIP3    H145613   0.286   5.016   5.194
15224TIP3    H245614   0.277   5.161   5.236
15225TIP3   OH245615   1.844   4.409   2.076
15225TIP3    H145616   1.861   4.459   2.156
15225TIP3    H245617   1.775   4.458   2.031
15226TIP3   OH245618   2.733   2.625   6.193
15226TIP3    H145619   2.818   2.592   6.165
15226TIP3    H245620   2.671   2.558   6.164
15227TIP3   OH245621   1.234   7.744   1.496
15227TIP3    H145622   1.274   7.660   1.517
15227TIP3    H245623   1.265   7.803   1.564
15228TIP3   OH245624   0.698   1.802   1.620
15228TIP3    H145625   0.697   1.883   1.568
15228TIP3    H245626   0.770   1.751   1.584
15229TIP3   OH245627   4.324   3.645   2.107
15229TIP3    H145628   4.231   3.632   2.127
15229TIP3    H245629   4.363   3.668   2.191
15230TIP3   OH245630   2.521   3.608   6.418
15230TIP3    H145631   2.522   3.546   6.491
15230TIP3    H245632   2.603   3.593   6.373
15231TIP3   OH245633   1.548   1.842   2.453
15231TIP3    H145634   1.611   1.869   2.520
15231TIP3    H245635   1.579   1.756   2.424
15232TIP3   OH245636   2.686   2.766   0.386
15232TIP3    H145637   2.600   2.809   0.379
15232TIP3    H245638   2.674   2.681   0.343
15233TIP3   OH245639   1.421   3.252   3.955
15233TIP3    H145640   1.504   3.208   3.974
15233TIP3    H245641   1.410   3.314   4.027
15234TIP3   OH245642   1.332   3.392   1.350
15234TIP3    H145643   1.418   3.370   1.315
15234TIP3    H245644   1.328   3.487   1.349
15235TIP3   OH245645   1.063   0.676   4.181
15235TIP3    H145646   1.107   0.599   4.146
15235TIP3    H245647   0.979   0.644   4.213
15236TIP3   OH245648   4.752   5.234   1.024
15236TIP3    H145649   4.703   5.252   1.105
15236TIP3    H245650   4.690   5.185   0.969
15237TIP3   OH245651   3.281   1.628   2.026
15237TIP3    H145652   3.241   1.547   2.058
15237TIP3    H245653   3.288   1.684   2.103
15238TIP3   OH245654   3.367   6.656   6.660
15238TIP3    H145655   3.334   6.720   6.724
15238TIP3    H245656   3.462   6.662   6.668
15239TIP3   OH245657   4.910   2.106   2.380
15239TIP3    H145658   4.927   2.131   2.471
15239TIP3    H245659   4.851   2.174   2.348
15240TIP3   OH245660   0.960   2.488   2.070
15240TIP3    H145661   0.978   2.580   2.051
15240TIP3    H245662   1.045   2.445   2.064
15241TIP3   OH245663   3.642   3.099   0.037
15241TIP3    H145664   3.632   3.189   0.067
15241TIP3    H245665   3.583   3.049   0.094
15242TIP3   OH245666   6.349   2.995   1.210
15242TIP3    H145667   6.431   2.989   1.160
15242TIP3    H245668   6.360   2.932   1.281
15243TIP3   OH245669   6.161   7.044   3.907
15243TIP3    H145670   6.157   6.948   3.900
15243TIP3    H245671   6.079   7.073   3.866
15244TIP3   OH245672   4.746   1.047   1.757
15244TIP3    H145673   4.769   1.095   1.678
15244TIP3    H245674   4.652   1.034   1.752
15245TIP3   OH245675   2.644   2.113   0.970
15245TIP3    H145676   2.683   2.198   0.989
15245TIP3    H245677   2.716   2.051   0.981
15246TIP3   OH245678   0.945   2.574   3.257
15246TIP3    H145679   1.040   2.564   3.271
15246TIP3    H245680   0.923   2.508   3.191
15247TIP3   OH245681   4.639   6.972   0.075
15247TIP3    H145682   4.619   7.056   0.033
15247TIP3    H245683   4.558   6.922   0.066
15248TIP3   OH245684   2.371   2.064   1.067
15248TIP3    H145685   2.362   2.144   1.015
15248TIP3    H245686   2.461   2.036   1.054
15249TIP3   OH245687   1.905   6.631   1.235
15249TIP3    H145688   1.890   6.576   1.311
15249TIP3    H245689   2.000   6.630   1.223
15250TIP3   OH245690   1.788   3.877   0.209
15250TIP3    H145691   1.800   3.949   0.270
15250TIP3    H245692   1.742   3.810   0.259
15251TIP3   OH245693   2.297   3.243   5.154
15251TIP3    H145694   2.263   3.300   5.223
15251TIP3    H245695   2.320   3.303   5.083
15252TIP3   OH245696   0.916   5.269   1.543
15252TIP3    H145697   0.964   5.254   1.462
15252TIP3    H245698   0.971   5.330   1.592
15253TIP3   OH245699   0.039   0.182   4.071
15253TIP3    H145700   0.132   0.202   4.064
15253TIP3    H245701   0.026   0.160   4.163
15254TIP3   OH245702   3.630   6.493   3.408
15254TIP3    H145703   3.610   6.576   3.366
15254TIP3    H245704   3.721   6.501   3.436
15255TIP3   OH245705   6.641   4.015   2.284
15255TIP3    H145706   6.613   4.097   2.326
15255TIP3    H245707   6.695   3.972   2.350
15256TIP3   OH245708   5.234   2.560   4.432
15256TIP3    H145709   5.223   2.466   4.417
15256TIP3    H245710   5.322   2.580   4.400
15257TIP3   OH245711   2.748   2.316   0.134
15257TIP3    H145712   2.811   2.287   0.068
15257TIP3    H245713   2.773   2.269   0.214
15258TIP3   OH245714   5.793   7.501   0.428
15258TIP3    H145715   5.740   7.557   0.483
15258TIP3    H245716   5.853   7.560   0.382
15259TIP3   OH245717   4.337   6.465   4.406
15259TIP3    H145718   4.351   6.371   4.398
15259TIP3    H245719   4.330   6.495   4.315
15260TIP3   OH245720   2.411   2.714   2.572
15260TIP3    H145721   2.485   2.674   2.618
15260TIP3    H245722   2.447   2.795   2.536
15261TIP3   OH245723   3.131   6.683   1.519
15261TIP3    H145724   3.148   6.595   1.485
15261TIP3    H245725   3.151   6.741   1.445
15262TIP3   OH245726   1.580   6.951   3.326
15262TIP3    H145727   1.591   6.875   3.270
15262TIP3    H245728   1.669   6.976   3.352
15263TIP3   OH245729   4.725   3.792   0.884
15263TIP3    H145730   4.710   3.712   0.833
15263TIP3    H245731   4.802   3.832   0.842
15264TIP3   OH245732   0.436   1.771   0.706
15264TIP3    H145733   0.427   1.832   0.633
15264TIP3    H245734   0.431   1.684   0.667
15265TIP3   OH245735   8.301   0.149   6.302
15265TIP3    H145736   8.286   0.066   6.256
15265TIP3    H245737   8.228   0.204   6.275
15266TIP3   OH245738   2.336   2.846   1.967
15266TIP3    H145739   2.295   2.855   2.053
15266TIP3    H245740   2.308   2.760   1.935
15267TIP3   OH245741   4.440   6.345   4.988
15267TIP3    H145742   4.492   6.266   5.002
15267TIP3    H245743   4.391   6.328   4.908
15268TIP3   OH245744   3.202   5.647   0.353
15268TIP3    H145745   3.189   5.737   0.386
15268TIP3    H245746   3.178   5.592   0.427
15269TIP3   OH245747   5.092   1.111   0.942
15269TIP3    H145748   5.142   1.045   0.894
15269TIP3    H245749   5.001   1.093   0.921
15270TIP3   OH245750   7.182   0.550   0.110
15270TIP3    H145751   7.260   0.603   0.129
15270TIP3    H245752   7.185   0.479   0.174
15271TIP3   OH245753   2.453   7.527   4.722
15271TIP3    H145754   2.358   7.521   4.733
15271TIP3    H245755   2.469   7.621   4.706
15272TIP3   OH245756   0.401   7.560   2.920
15272TIP3    H145757   0.355   7.512   2.989
15272TIP3    H245758   0.471   7.501   2.893
15273TIP3   OH245759   3.724   5.660   5.478
15273TIP3    H145760   3.791   5.615   5.528
15273TIP3    H245761   3.676   5.712   5.542
15274TIP3   OH245762   5.887   0.487   2.112
15274TIP3    H145763   5.918   0.397   2.111
15274TIP3    H245764   5.803   0.485   2.066
15275TIP3   OH245765   1.418   2.168   1.075
15275TIP3    H145766   1.353   2.229   1.112
15275TIP3    H245767   1.404   2.087   1.123
15276TIP3   OH245768   2.754   7.859   2.478
15276TIP3    H145769   2.689   7.789   2.478
15276TIP3    H245770   2.811   7.839   2.403
15277TIP3   OH245771   2.226   6.153   6.749
15277TIP3    H145772   2.265   6.084   6.696
15277TIP3    H245773   2.132   6.136   6.746
15278TIP3   OH245774   2.855   1.743   0.746
15278TIP3    H145775   2.838   1.650   0.728
15278TIP3    H245776   2.776   1.773   0.790
15279TIP3   OH245777   6.210   6.992  -0.010
15279TIP3    H145778   6.157   6.967   0.066
15279TIP3    H245779   6.154   7.050  -0.061
15280TIP3   OH245780   7.725   3.667   1.244
15280TIP3    H145781   7.819   3.659   1.259
15280TIP3    H245782   7.711   3.632   1.156
15281TIP3   OH245783   8.091   1.790   1.398
15281TIP3    H145784   8.110   1.825   1.485
15281TIP3    H245785   8.111   1.697   1.404
15282TIP3   OH245786   5.710   4.667   6.708
15282TIP3    H145787   5.650   4.741   6.696
15282TIP3    H245788   5.690   4.633   6.795
15283TIP3   OH245789   7.154   4.185   1.706
15283TIP3    H145790   7.188   4.164   1.619
15283TIP3    H245791   7.081   4.124   1.718
15284TIP3   OH245792   4.177   2.222   6.301
15284TIP3    H145793   4.209   2.151   6.356
15284TIP3    H245794   4.100   2.256   6.347
15285TIP3   OH245795   3.596   1.187   6.275
15285TIP3    H145796   3.622   1.187   6.367
15285TIP3    H245797   3.653   1.121   6.234
15286TIP3   OH245798   4.301   3.967   6.339
15286TIP3    H145799   4.281   3.970   6.246
15286TIP3    H245800   4.250   4.038   6.377
15287TIP3   OH245801   2.362   6.973   4.873
15287TIP3    H145802   2.331   6.900   4.926
15287TIP3    H245803   2.436   6.937   4.823
15288TIP3   OH245804   8.079   4.013   3.270
15288TIP3    H145805   8.056   3.928   3.233
15288TIP3    H245806   8.019   4.025   3.343
15289TIP3   OH245807   5.377   3.804   3.334
15289TIP3    H145808   5.345   3.762   3.254
15289TIP3    H245809   5.298   3.822   3.385
15290TIP3   OH245810   4.950   4.721   3.575
15290TIP3    H145811   5.008   4.750   3.645
15290TIP3    H245812   5.007   4.672   3.516
15291TIP3   OH245813   8.391   2.946   3.361
15291TIP3    H145814   8.314   3.001   3.348
15291TIP3    H245815   8.414   2.917   3.272
15292TIP3   OH245816   0.039   2.985   6.146
15292TIP3    H145817  -0.002   3.032   6.074
15292TIP3    H245818   0.068   2.902   6.107
15293TIP3   OH245819   5.642   6.845   2.722
15293TIP3    H145820   5.717   6.820   2.669
15293TIP3    H245821   5.620   6.766   2.772
15294TIP3   OH245822   0.377   2.914   5.685
15294TIP3    H145823   0.401   2.855   5.613
15294TIP3    H245824   0.348   2.855   5.755
15295TIP3   OH245825   7.222   0.458   5.898
15295TIP3    H145826   7.176   0.437   5.979
15295TIP3    H245827   7.155   0.455   5.830
15296TIP3   OH245828   0.530   6.492   2.991
15296TIP3    H145829   0.548   6.572   3.039
15296TIP3    H245830   0.502   6.522   2.904
15297TIP3   OH245831   3.102   2.352   2.322
15297TIP3    H145832   3.185   2.354   2.274
15297TIP3    H245833   3.099   2.435   2.369
15298TIP3   OH245834   0.814   7.069   5.015
15298TIP3    H145835   0.725   7.036   5.030
15298TIP3    H245836   0.871   7.005   5.059
15299TIP3   OH245837   4.852   6.097   4.536
15299TIP3    H145838   4.848   6.136   4.449
15299TIP3    H245839   4.869   6.171   4.595
15300TIP3   OH245840   3.928   3.274   2.779
15300TIP3    H145841   3.973   3.215   2.718
15300TIP3    H245842   3.998   3.306   2.837
15301TIP3   OH245843   8.296   7.309   5.389
15301TIP3    H145844   8.275   7.328   5.298
15301TIP3    H245845   8.314   7.215   5.390
15302TIP3   OH245846   1.321   2.764   6.306
15302TIP3    H145847   1.354   2.768   6.395
15302TIP3    H245848   1.226   2.759   6.316
15303TIP3   OH245849   1.802   6.802   5.141
15303TIP3    H145850   1.712   6.826   5.117
15303TIP3    H245851   1.801   6.801   5.237
15304TIP3   OH245852   2.157   5.181   5.802
15304TIP3    H145853   2.121   5.188   5.713
15304TIP3    H245854   2.138   5.091   5.828
15305TIP3   OH245855   3.728   2.865   3.483
15305TIP3    H145856   3.737   2.956   3.455
15305TIP3    H245857   3.696   2.869   3.573
15306TIP3   OH245858   2.223   7.203   4.941
15306TIP3    H145859   2.290   7.138   4.920
15306TIP3    H245860   2.143   7.168   4.903
15307TIP3   OH245861   2.669   6.162   6.781
15307TIP3    H145862   2.634   6.079   6.811
15307TIP3    H245863   2.706   6.203   6.859
15308TIP3   OH245864   3.564   3.169   2.069
15308TIP3    H145865   3.470   3.154   2.062
15308TIP3    H245866   3.592   3.191   1.980
15309TIP3   OH245867   3.061   3.099   5.105
15309TIP3    H145868   3.138   3.143   5.069
15309TIP3    H245869   3.057   3.126   5.197
15310TIP3   OH245870   3.698   4.252   0.033
15310TIP3    H145871   3.742   4.210  -0.041
15310TIP3    H245872   3.742   4.217   0.110
15311TIP3   OH245873   2.024   0.718   4.594
15311TIP3    H145874   1.949   0.734   4.651
15311TIP3    H245875   2.093   0.774   4.629
15312TIP3   OH245876   7.568   0.783   3.812
15312TIP3    H145877   7.660   0.811   3.811
15312TIP3    H245878   7.520   0.855   3.770
15313TIP3   OH245879   4.684   3.356   4.211
15313TIP3    H145880   4.742   3.288   4.179
15313TIP3    H245881   4.644   3.392   4.131
15314TIP3   OH245882   5.270   4.138   1.654
15314TIP3    H145883   5.339   4.193   1.692
15314TIP3    H245884   5.309   4.103   1.574
15315TIP3   OH245885   3.010   1.402   1.701
15315TIP3    H145886   2.974   1.315   1.714
15315TIP3    H245887   2.959   1.438   1.628
15316TIP3   OH245888  -0.013   7.052   5.389
15316TIP3    H145889  -0.040   6.960   5.390
15316TIP3    H245890   0.061   7.056   5.450
15317TIP3   OH245891   6.329   0.635   5.609
15317TIP3    H145892   6.328   0.707   5.546
15317TIP3    H245893   6.259   0.656   5.671
15318TIP3   OH245894   1.926   6.559   0.699
15318TIP3    H145895   2.000   6.527   0.647
15318TIP3    H245896   1.940   6.522   0.786
15319TIP3   OH245897   7.954   2.115   2.316
15319TIP3    H145898   8.043   2.124   2.351
15319TIP3    H245899   7.932   2.023   2.330
15320TIP3   OH245900   2.708   5.829   2.267
15320TIP3    H145901   2.783   5.800   2.318
15320TIP3    H245902   2.639   5.766   2.288
15321TIP3   OH245903   5.832   1.878   5.388
15321TIP3    H145904   5.831   1.881   5.292
15321TIP3    H245905   5.784   1.799   5.410
15322TIP3   OH245906   1.955   7.143   4.548
15322TIP3    H145907   1.892   7.121   4.479
15322TIP3    H245908   2.030   7.180   4.501
15323TIP3   OH245909   0.885   5.402   6.846
15323TIP3    H145910   0.901   5.394   6.752
15323TIP3    H245911   0.792   5.420   6.853
15324TIP3   OH245912   7.598   4.211   2.887
15324TIP3    H145913   7.685   4.222   2.849
15324TIP3    H245914   7.543   4.184   2.813
15325TIP3   OH245915   1.800   5.105   4.401
15325TIP3    H145916   1.731   5.125   4.338
15325TIP3    H245917   1.754   5.094   4.485
15326TIP3   OH245918   2.939   5.023   3.940
15326TIP3    H145919   2.916   5.075   3.862
15326TIP3    H245920   2.985   5.085   3.997
15327TIP3   OH245921   4.990   0.303   6.034
15327TIP3    H145922   5.001   0.378   5.976
15327TIP3    H245923   4.950   0.236   5.979
15328TIP3   OH245924   4.216   4.182   2.621
15328TIP3    H145925   4.188   4.151   2.707
15328TIP3    H245926   4.151   4.247   2.596
15329TIP3   OH245927   4.783   2.514   4.824
15329TIP3    H145928   4.753   2.457   4.753
15329TIP3    H245929   4.801   2.598   4.782
15330TIP3   OH245930   3.505   0.464   4.789
15330TIP3    H145931   3.596   0.453   4.814
15330TIP3    H245932   3.501   0.551   4.748
15331TIP3   OH245933   1.528   6.875   5.227
15331TIP3    H145934   1.533   6.952   5.283
15331TIP3    H245935   1.454   6.891   5.169
15332TIP3   OH245936   2.885   3.027   2.782
15332TIP3    H145937   2.809   2.969   2.792
15332TIP3    H245938   2.860   3.088   2.714
15333TIP3   OH245939   5.044   7.397   4.917
15333TIP3    H145940   5.064   7.481   4.875
15333TIP3    H245941   5.007   7.344   4.846
15334TIP3   OH245942   4.235   1.055   4.277
15334TIP3    H145943   4.162   1.098   4.322
15334TIP3    H245944   4.276   1.002   4.345
15335TIP3   OH245945   3.827  -0.011   5.651
15335TIP3    H145946   3.829   0.074   5.695
15335TIP3    H245947   3.747  -0.053   5.683
15336TIP3   OH245948   0.694   0.581   2.240
15336TIP3    H145949   0.668   0.520   2.171
15336TIP3    H245950   0.727   0.526   2.311
15337TIP3   OH245951   7.232   0.650   2.554
15337TIP3    H145952   7.242   0.564   2.595
15337TIP3    H245953   7.253   0.712   2.623
15338TIP3   OH245954   4.388   1.367   4.486
15338TIP3    H145955   4.434   1.295   4.529
15338TIP3    H245956   4.397   1.350   4.393
15339TIP3   OH245957   3.030   4.118   5.972
15339TIP3    H145958   3.094   4.055   6.004
15339TIP3    H245959   3.064   4.146   5.887
15340TIP3   OH245960   0.926   3.157   4.454
15340TIP3    H145961   0.973   3.121   4.528
15340TIP3    H245962   0.982   3.138   4.378
15341TIP3   OH245963   7.195   1.647   4.888
15341TIP3    H145964   7.284   1.615   4.874
15341TIP3    H245965   7.177   1.630   4.980
15342TIP3   OH245966   2.063   3.924   4.512
15342TIP3    H145967   2.090   3.834   4.493
15342TIP3    H245968   2.098   3.976   4.440
15343TIP3   OH245969   5.371   1.668   0.091
15343TIP3    H145970   5.396   1.580   0.119
15343TIP3    H245971   5.434   1.726   0.134
15344TIP3   OH245972   6.622   7.803   3.167
15344TIP3    H145973   6.694   7.741   3.156
15344TIP3    H245974   6.557   7.777   3.102
15345TIP3   OH245975   1.837   1.733   3.755
15345TIP3    H145976   1.814   1.743   3.662
15345TIP3    H245977   1.885   1.813   3.776
15346TIP3   OH245978   5.873   2.207   0.035
15346TIP3    H145979   5.888   2.194   0.129
15346TIP3    H245980   5.788   2.168   0.018
15347TIP3   OH245981   5.391   2.379   1.533
15347TIP3    H145982   5.448   2.304   1.516
15347TIP3    H245983   5.374   2.375   1.627
15348TIP3   OH245984   3.243   0.906   0.062
15348TIP3    H145985   3.280   0.835   0.011
15348TIP3    H245986   3.224   0.975  -0.002
15349TIP3   OH245987   0.953   7.794   3.006
15349TIP3    H145988   0.951   7.707   3.047
15349TIP3    H245989   0.986   7.778   2.918
15350TIP3   OH245990   1.283   2.984   5.311
15350TIP3    H145991   1.260   2.927   5.238
15350TIP3    H245992   1.371   2.955   5.338
15351TIP3   OH245993   5.602   6.240   2.608
15351TIP3    H145994   5.586   6.231   2.702
15351TIP3    H245995   5.693   6.211   2.596
15352TIP3   OH245996   2.950   6.171   6.688
15352TIP3    H145997   2.894   6.217   6.750
15352TIP3    H245998   3.039   6.183   6.721
15353TIP3   OH245999   8.070   1.944   6.760
15353TIP3    H146000   7.984   1.933   6.801
15353TIP3    H246001   8.099   2.031   6.785
15354TIP3   OH246002   0.782   6.442   0.764
15354TIP3    H146003   0.728   6.388   0.822
15354TIP3    H246004   0.858   6.387   0.744
15355TIP3   OH246005   3.483   7.225   3.762
15355TIP3    H146006   3.478   7.150   3.821
15355TIP3    H246007   3.565   7.213   3.715
15356TIP3   OH246008   5.253   0.921   5.571
15356TIP3    H146009   5.323   0.977   5.603
15356TIP3    H246010   5.172   0.968   5.594
15357TIP3   OH246011   5.042   5.411   0.395
15357TIP3    H146012   5.057   5.502   0.422
15357TIP3    H246013   4.969   5.416   0.333
15358TIP3   OH246014   6.510   5.742   6.276
15358TIP3    H146015   6.564   5.739   6.197
15358TIP3    H246016   6.570   5.718   6.347
15359TIP3   OH246017   0.900   5.533   5.572
15359TIP3    H146018   0.937   5.583   5.499
15359TIP3    H246019   0.865   5.600   5.631
15360TIP3   OH246020   5.719   3.494   4.988
15360TIP3    H146021   5.727   3.525   5.078
15360TIP3    H246022   5.677   3.566   4.941
15361TIP3   OH246023   7.623   1.561   4.149
15361TIP3    H146024   7.528   1.570   4.156
15361TIP3    H246025   7.636   1.486   4.091
15362TIP3   OH246026   6.246   3.665   2.490
15362TIP3    H146027   6.219   3.757   2.482
15362TIP3    H246028   6.268   3.639   2.400
15363TIP3   OH246029   4.493   7.354   5.242
15363TIP3    H146030   4.465   7.263   5.246
15363TIP3    H246031   4.566   7.354   5.179
15364TIP3   OH246032   4.206   1.093   1.882
15364TIP3    H146033   4.128   1.136   1.915
15364TIP3    H246034   4.255   1.162   1.837
15365TIP3   OH246035   1.366   6.006   4.482
15365TIP3    H146036   1.381   5.980   4.391
15365TIP3    H246037   1.426   6.079   4.497
15366TIP3   OH246038   0.722   7.055   2.477
15366TIP3    H146039   0.646   6.999   2.458
15366TIP3    H246040   0.691   7.114   2.546
15367TIP3   OH246041   4.404   3.773   1.657
15367TIP3    H146042   4.324   3.777   1.709
15367TIP3    H246043   4.469   3.734   1.716
15368TIP3   OH246044   3.142   1.750   2.283
15368TIP3    H146045   3.047   1.738   2.278
15368TIP3    H246046   3.175   1.669   2.322
15369TIP3   OH246047   0.695   7.128   4.492
15369TIP3    H146048   0.601   7.112   4.478
15369TIP3    H246049   0.702   7.149   4.585
15370TIP3   OH246050   5.088   6.915   6.174
15370TIP3    H146051   5.156   6.877   6.230
15370TIP3    H246052   5.015   6.853   6.179
15371TIP3   OH246053   1.759   5.637   4.280
15371TIP3    H146054   1.766   5.653   4.186
15371TIP3    H246055   1.810   5.557   4.294
   8.40197   7.92145   6.86018   0.00000   0.00000  -2.80066   0.00000  -2.80066  -3.96073
