Title t=  42.00000 step= 21000
29212
    1ASP      N    1   1.723   1.375   1.872
    1ASP    HT1    2   1.803   1.349   1.933
    1ASP    HT2    3   1.681   1.464   1.905
    1ASP    HT3    4   1.767   1.379   1.778
    1ASP     CA    5   1.636   1.264   1.879
    1ASP     HA    6   1.546   1.294   1.827
    1ASP     CB    7   1.717   1.143   1.826
    1ASP    HB1    8   1.652   1.053   1.825
    1ASP    HB2    9   1.816   1.124   1.872
    1ASP     CG   10   1.745   1.150   1.678
    1ASP    OD1   11   1.680   1.230   1.610
    1ASP    OD2   12   1.831   1.073   1.630
    1ASP      C   13   1.591   1.229   2.020
    1ASP      O   14   1.661   1.277   2.105
    2GLY      N   15   1.484   1.151   2.040
    2GLY     HN   16   1.436   1.108   1.963
    2GLY     CA   17   1.426   1.124   2.173
    2GLY    HA1   18   1.495   1.061   2.228
    2GLY    HA2   19   1.330   1.078   2.155
    2GLY      C   20   1.398   1.238   2.260
    2GLY      O   21   1.377   1.354   2.207
    3ASP      N   22   1.388   1.213   2.392
    3ASP     HN   23   1.377   1.118   2.419
    3ASP     CA   24   1.351   1.300   2.495
    3ASP     HA   25   1.255   1.339   2.465
    3ASP     CB   26   1.355   1.215   2.625
    3ASP    HB1   27   1.332   1.285   2.709
    3ASP    HB2   28   1.451   1.170   2.658
    3ASP     CG   29   1.232   1.126   2.641
    3ASP    OD1   30   1.216   1.075   2.753
    3ASP    OD2   31   1.162   1.096   2.541
    3ASP      C   32   1.438   1.428   2.508
    3ASP      O   33   1.550   1.443   2.461
    4GLY      N   34   1.377   1.538   2.565
    4GLY     HN   35   1.281   1.543   2.594
    4GLY     CA   36   1.461   1.660   2.577
    4GLY    HA1   37   1.458   1.714   2.484
    4GLY    HA2   38   1.562   1.637   2.605
    4GLY      C   39   1.417   1.757   2.685
    4GLY      O   40   1.366   1.707   2.788
    5PRO      N   41   1.429   1.882   2.672
    5PRO     CD   42   1.446   1.960   2.547
    5PRO    HD1   43   1.362   1.940   2.476
    5PRO    HD2   44   1.551   1.957   2.510
    5PRO     CA   45   1.380   1.964   2.782
    5PRO     HA   46   1.432   1.937   2.873
    5PRO     CB   47   1.447   2.101   2.740
    5PRO    HB1   48   1.558   2.088   2.745
    5PRO    HB2   49   1.418   2.185   2.805
    5PRO     CG   50   1.420   2.104   2.592
    5PRO    HG1   51   1.315   2.129   2.567
    5PRO    HG2   52   1.488   2.171   2.535
    5PRO      C   53   1.231   1.961   2.810
    5PRO      O   54   1.153   1.980   2.713
    6GLY      N   55   1.192   1.935   2.935
    6GLY     HN   56   1.272   1.913   2.991
    6GLY     CA   57   1.053   1.937   2.984
    6GLY    HA1   58   1.054   1.872   3.071
    6GLY    HA2   59   0.986   1.896   2.910
    6GLY      C   60   1.016   2.073   3.015
    6GLY      O   61   1.065   2.174   2.971
    7ASP      N   62   0.907   2.076   3.102
    7ASP     HN   63   0.870   1.991   3.139
    7ASP     CA   64   0.852   2.191   3.180
    7ASP     HA   65   0.850   2.267   3.104
    7ASP     CB   66   0.711   2.164   3.242
    7ASP    HB1   67   0.674   2.251   3.301
    7ASP    HB2   68   0.714   2.071   3.303
    7ASP     CG   69   0.610   2.146   3.130
    7ASP    OD1   70   0.502   2.084   3.154
    7ASP    OD2   71   0.629   2.202   3.020
    7ASP      C   72   0.960   2.228   3.287
    7ASP      O   73   1.025   2.136   3.334
    8PRO      N   74   0.987   2.355   3.327
    8PRO     CD   75   0.905   2.468   3.289
    8PRO    HD1   76   0.802   2.433   3.268
    8PRO    HD2   77   0.935   2.516   3.193
    8PRO     CA   78   1.065   2.387   3.453
    8PRO     HA   79   1.167   2.359   3.436
    8PRO     CB   80   1.055   2.536   3.479
    8PRO    HB1   81   1.135   2.590   3.425
    8PRO    HB2   82   1.062   2.572   3.583
    8PRO     CG   83   0.913   2.562   3.410
    8PRO    HG1   84   0.842   2.533   3.491
    8PRO    HG2   85   0.895   2.671   3.406
    8PRO      C   86   1.029   2.307   3.578
    8PRO      O   87   0.912   2.277   3.609
    9GLY      N   88   1.133   2.266   3.653
    9GLY     HN   89   1.219   2.307   3.622
    9GLY     CA   90   1.120   2.175   3.768
    9GLY    HA1   91   1.221   2.175   3.808
    9GLY    HA2   92   1.103   2.074   3.733
    9GLY      C   93   1.027   2.219   3.877
    9GLY      O   94   0.979   2.328   3.869
   10ASP      N   95   1.000   2.130   3.977
   10ASP     HN   96   1.046   2.041   3.978
   10ASP     CA   97   0.885   2.140   4.070
   10ASP     HA   98   0.796   2.162   4.011
   10ASP     CB   99   0.878   2.010   4.152
   10ASP    HB1  100   0.793   2.018   4.223
   10ASP    HB2  101   0.977   1.999   4.202
   10ASP     CG  102   0.842   1.891   4.077
   10ASP    OD1  103   0.771   1.895   3.972
   10ASP    OD2  104   0.876   1.788   4.130
   10ASP      C  105   0.895   2.253   4.171
   10ASP      O  106   0.796   2.314   4.203
   11GLY      N  107   1.015   2.281   4.228
   11GLY     HN  108   1.095   2.224   4.214
   11GLY     CA  109   1.035   2.405   4.296
   11GLY    HA1  110   0.984   2.477   4.233
   11GLY    HA2  111   1.140   2.423   4.315
   11GLY      C  112   0.967   2.408   4.434
   11GLY    OT1  113   0.948   2.307   4.501
   11GLY    OT2  114   0.922   2.520   4.470
   12LIT    LIT  115   3.915   6.091   0.702
   13LIT    LIT  116   1.833   2.957   5.297
   14LIT    LIT  117   2.798   0.998   0.942
   15LIT    LIT  118   3.385   1.552   2.322
   16LIT    LIT  119   0.873   2.441   4.651
   17LIT    LIT  120   3.818   5.830   5.112
   18LIT    LIT  121   2.809   2.588   4.112
   19LIT    LIT  122   1.571   5.653   0.807
   20LIT    LIT  123   7.000   2.580   4.000
   21LIT    LIT  124   1.540   0.566   2.499
   22LIT    LIT  125   2.713   0.649   5.693
   23LIT    LIT  126   1.016   0.891   0.002
   24LIT    LIT  127   6.772   4.644   3.764
   25LIT    LIT  128   0.422   2.183   2.989
   26LIT    LIT  129   0.798   1.846   3.799
   27LIT    LIT  130   4.239   0.843   3.600
   28LIT    LIT  131   4.768   1.989   0.575
   29LIT    LIT  132   0.667   3.041   2.859
   30LIT    LIT  133   7.113   1.677   2.299
   31LIT    LIT  134   4.369   1.249   2.425
   32LIT    LIT  135   7.112   1.216   1.621
   33LIT    LIT  136   4.257   3.465   2.641
   34LIT    LIT  137   5.041   1.597   4.606
   35LIT    LIT  138   0.815   2.195   2.669
   36LIT    LIT  139   5.959   5.275   0.671
   37LIT    LIT  140   3.248   4.773   0.955
   38LIT    LIT  141   0.829   1.447   5.061
   39LIT    LIT  142   1.841   0.970   1.473
   40LIT    LIT  143   4.507   0.074   2.745
   41LIT    LIT  144   3.162   1.404   3.634
   42LIT    LIT  145   1.034   1.030   2.671
   43CLA    CLA  146   4.480   0.078   3.007
   44CLA    CLA  147   5.094   1.853   4.161
   45CLA    CLA  148   3.300   3.451   3.817
   46CLA    CLA  149   6.040   2.904   0.572
   47CLA    CLA  150   0.469   1.385   2.668
   48CLA    CLA  151   4.740   5.391   0.152
   49CLA    CLA  152   2.768   5.843   3.698
   50CLA    CLA  153   3.932   4.674   0.753
   51CLA    CLA  154   0.325   1.031   2.038
   52CLA    CLA  155   3.109   4.605   3.586
   53CLA    CLA  156   3.869   2.277   1.937
   54CLA    CLA  157   3.236   0.977   1.874
   55CLA    CLA  158   6.821   3.232   5.274
   56CLA    CLA  159   6.296   0.854   5.434
   57CLA    CLA  160   7.031   2.247   4.221
   58CLA    CLA  161   4.110   3.425   2.463
   59CLA    CLA  162   4.930   0.906   1.111
   60CLA    CLA  163   7.111   6.510   3.661
   61CLA    CLA  164   1.074   0.460   1.133
   62CLA    CLA  165   3.674   6.539   0.247
   63CLA    CLA  166   0.266   0.972   0.780
   64CLA    CLA  167   3.670   2.560   0.499
   65CLA    CLA  168   6.157   5.272   2.253
   66CLA    CLA  169   4.237   0.713   2.163
   67CLA    CLA  170   5.673   2.353   2.061
   68CLA    CLA  171   0.739   3.004   2.458
   69CLA    CLA  172   4.624   3.768   2.174
   70TIP3   OH2  173   7.027   6.767   5.601
   70TIP3    H1  174   6.980   6.756   5.684
   70TIP3    H2  175   6.963   6.808   5.543
   71TIP3   OH2  176   0.364   4.935   3.137
   71TIP3    H1  177   0.397   5.009   3.086
   71TIP3    H2  178   0.286   4.970   3.181
   72TIP3   OH2  179   3.670   4.770   4.242
   72TIP3    H1  180   3.738   4.787   4.308
   72TIP3    H2  181   3.589   4.762   4.293
   73TIP3   OH2  182   4.027   3.362   0.389
   73TIP3    H1  183   4.042   3.456   0.392
   73TIP3    H2  184   4.105   3.326   0.346
   74TIP3   OH2  185   3.869   5.863   3.625
   74TIP3    H1  186   3.949   5.841   3.672
   74TIP3    H2  187   3.896   5.873   3.534
   75TIP3   OH2  188   2.721   4.668   2.759
   75TIP3    H1  189   2.728   4.742   2.819
   75TIP3    H2  190   2.805   4.623   2.767
   76TIP3   OH2  191   2.977   6.461   4.533
   76TIP3    H1  192   2.921   6.392   4.569
   76TIP3    H2  193   3.066   6.426   4.541
   77TIP3   OH2  194   4.845   1.394   1.160
   77TIP3    H1  195   4.895   1.367   1.237
   77TIP3    H2  196   4.799   1.472   1.188
   78TIP3   OH2  197   4.979   1.104   5.202
   78TIP3    H1  198   4.969   1.042   5.274
   78TIP3    H2  199   5.072   1.128   5.205
   79TIP3   OH2  200   1.286   3.904   4.231
   79TIP3    H1  201   1.233   3.978   4.263
   79TIP3    H2  202   1.222   3.837   4.209
   80TIP3   OH2  203   2.895   0.611   0.897
   80TIP3    H1  204   2.959   0.630   0.966
   80TIP3    H2  205   2.873   0.519   0.908
   81TIP3   OH2  206   6.802   3.430   4.386
   81TIP3    H1  207   6.831   3.345   4.353
   81TIP3    H2  208   6.809   3.423   4.481
   82TIP3   OH2  209   3.988   5.556   2.746
   82TIP3    H1  210   4.059   5.504   2.707
   82TIP3    H2  211   3.914   5.496   2.747
   83TIP3   OH2  212   1.175   2.871   0.931
   83TIP3    H1  213   1.228   2.846   0.855
   83TIP3    H2  214   1.205   2.814   1.001
   84TIP3   OH2  215   5.333   0.175   2.288
   84TIP3    H1  216   5.406   0.119   2.317
   84TIP3    H2  217   5.361   0.208   2.203
   85TIP3   OH2  218   6.641   1.759   2.751
   85TIP3    H1  219   6.643   1.787   2.843
   85TIP3    H2  220   6.566   1.805   2.714
   86TIP3   OH2  221   6.870   1.396   3.337
   86TIP3    H1  222   6.955   1.433   3.315
   86TIP3    H2  223   6.811   1.433   3.271
   87TIP3   OH2  224   1.434   5.942   2.651
   87TIP3    H1  225   1.346   5.914   2.675
   87TIP3    H2  226   1.423   5.992   2.570
   88TIP3   OH2  227   0.383   4.886   3.672
   88TIP3    H1  228   0.312   4.949   3.668
   88TIP3    H2  229   0.397   4.859   3.581
   89TIP3   OH2  230   6.869   5.518   3.269
   89TIP3    H1  231   6.932   5.581   3.234
   89TIP3    H2  232   6.911   5.482   3.346
   90TIP3   OH2  233   1.078   5.259   4.200
   90TIP3    H1  234   1.119   5.236   4.117
   90TIP3    H2  235   1.145   5.309   4.247
   91TIP3   OH2  236   2.816   3.453   4.691
   91TIP3    H1  237   2.783   3.510   4.761
   91TIP3    H2  238   2.759   3.377   4.694
   92TIP3   OH2  239   2.816   0.858   0.599
   92TIP3    H1  240   2.876   0.933   0.605
   92TIP3    H2  241   2.855   0.802   0.531
   93TIP3   OH2  242   0.186   4.882   4.295
   93TIP3    H1  243   0.181   4.812   4.229
   93TIP3    H2  244   0.179   4.836   4.378
   94TIP3   OH2  245   3.652   0.130   1.649
   94TIP3    H1  246   3.590   0.153   1.580
   94TIP3    H2  247   3.604   0.141   1.730
   95TIP3   OH2  248   3.579   4.189   5.487
   95TIP3    H1  249   3.603   4.247   5.560
   95TIP3    H2  250   3.662   4.154   5.456
   96TIP3   OH2  251   0.866   0.980   0.805
   96TIP3    H1  252   0.845   1.029   0.884
   96TIP3    H2  253   0.827   1.031   0.734
   97TIP3   OH2  254   3.230   5.730   3.315
   97TIP3    H1  255   3.146   5.704   3.351
   97TIP3    H2  256   3.244   5.671   3.240
   98TIP3   OH2  257   0.170   1.271   1.932
   98TIP3    H1  258   0.232   1.201   1.953
   98TIP3    H2  259   0.203   1.348   1.978
   99TIP3   OH2  260   0.990   5.937   2.150
   99TIP3    H1  261   0.962   6.012   2.097
   99TIP3    H2  262   0.908   5.893   2.174
  100TIP3   OH2  263   0.809   0.135   5.028
  100TIP3    H1  264   0.751   0.196   5.073
  100TIP3    H2  265   0.860   0.095   5.098
  101TIP3   OH2  266   5.510   1.931   1.347
  101TIP3    H1  267   5.573   1.897   1.411
  101TIP3    H2  268   5.564   1.972   1.280
  102TIP3   OH2  269   3.201   1.123   2.980
  102TIP3    H1  270   3.164   1.134   3.068
  102TIP3    H2  271   3.135   1.162   2.922
  103TIP3   OH2  272   5.597   1.136   1.846
  103TIP3    H1  273   5.507   1.163   1.828
  103TIP3    H2  274   5.651   1.191   1.790
  104TIP3   OH2  275   5.612   3.250   4.790
  104TIP3    H1  276   5.601   3.156   4.802
  104TIP3    H2  277   5.552   3.273   4.719
  105TIP3   OH2  278   6.078   3.675   1.778
  105TIP3    H1  279   6.040   3.588   1.788
  105TIP3    H2  280   6.157   3.660   1.725
  106TIP3   OH2  281   2.746   0.647   4.988
  106TIP3    H1  282   2.829   0.694   4.995
  106TIP3    H2  283   2.697   0.695   4.921
  107TIP3   OH2  284   4.641   1.853   0.610
  107TIP3    H1  285   4.634   1.783   0.545
  107TIP3    H2  286   4.617   1.810   0.692
  108TIP3   OH2  287   3.537   2.183   2.856
  108TIP3    H1  288   3.588   2.189   2.775
  108TIP3    H2  289   3.567   2.102   2.897
  109TIP3   OH2  290   1.251   5.916   2.282
  109TIP3    H1  291   1.169   5.917   2.233
  109TIP3    H2  292   1.295   5.836   2.254
  110TIP3   OH2  293   0.450   0.607   2.771
  110TIP3    H1  294   0.537   0.590   2.808
  110TIP3    H2  295   0.442   0.703   2.772
  111TIP3   OH2  296   4.627   4.352   5.298
  111TIP3    H1  297   4.543   4.326   5.334
  111TIP3    H2  298   4.617   4.446   5.279
  112TIP3   OH2  299   0.065   1.253   5.257
  112TIP3    H1  300   0.081   1.161   5.278
  112TIP3    H2  301  -0.029   1.265   5.268
  113TIP3   OH2  302   2.743   6.039   4.210
  113TIP3    H1  303   2.702   6.004   4.130
  113TIP3    H2  304   2.811   6.097   4.178
  114TIP3   OH2  305   2.499   0.188   4.916
  114TIP3    H1  306   2.547   0.122   4.865
  114TIP3    H2  307   2.566   0.247   4.949
  115TIP3   OH2  308   3.858   1.165   4.570
  115TIP3    H1  309   3.862   1.260   4.586
  115TIP3    H2  310   3.849   1.126   4.657
  116TIP3   OH2  311   3.948   3.749   1.404
  116TIP3    H1  312   3.905   3.783   1.483
  116TIP3    H2  313   3.944   3.654   1.414
  117TIP3   OH2  314   3.375   6.383   1.585
  117TIP3    H1  315   3.367   6.334   1.667
  117TIP3    H2  316   3.407   6.469   1.612
  118TIP3   OH2  317   0.037   4.972   4.568
  118TIP3    H1  318   0.014   5.005   4.481
  118TIP3    H2  319   0.057   4.880   4.555
  119TIP3   OH2  320   1.192   5.575   1.020
  119TIP3    H1  321   1.199   5.570   0.924
  119TIP3    H2  322   1.098   5.581   1.036
  120TIP3   OH2  323   1.940   0.789   2.513
  120TIP3    H1  324   1.864   0.825   2.465
  120TIP3    H2  325   1.990   0.867   2.539
  121TIP3   OH2  326   1.491   6.136   2.025
  121TIP3    H1  327   1.562   6.197   2.045
  121TIP3    H2  328   1.508   6.060   2.081
  122TIP3   OH2  329   7.072   4.432   2.318
  122TIP3    H1  330   7.127   4.354   2.304
  122TIP3    H2  331   7.077   4.480   2.235
  123TIP3   OH2  332   0.706   5.678   3.168
  123TIP3    H1  333   0.773   5.656   3.104
  123TIP3    H2  334   0.747   5.660   3.253
  124TIP3   OH2  335   5.761   0.722   1.863
  124TIP3    H1  336   5.746   0.649   1.924
  124TIP3    H2  337   5.779   0.680   1.779
  125TIP3   OH2  338   5.872   3.069   3.188
  125TIP3    H1  339   5.967   3.077   3.180
  125TIP3    H2  340   5.858   3.044   3.279
  126TIP3   OH2  341   0.683   5.018   2.961
  126TIP3    H1  342   0.714   5.027   3.051
  126TIP3    H2  343   0.612   5.081   2.953
  127TIP3   OH2  344   1.211   0.803   5.505
  127TIP3    H1  345   1.207   0.708   5.500
  127TIP3    H2  346   1.252   0.821   5.589
  128TIP3   OH2  347   4.648   1.695   2.831
  128TIP3    H1  348   4.608   1.721   2.914
  128TIP3    H2  349   4.574   1.665   2.777
  129TIP3   OH2  350   2.576   1.045   4.618
  129TIP3    H1  351   2.670   1.052   4.603
  129TIP3    H2  352   2.545   0.988   4.548
  130TIP3   OH2  353   5.396   2.109   0.158
  130TIP3    H1  354   5.318   2.090   0.210
  130TIP3    H2  355   5.436   2.023   0.143
  131TIP3   OH2  356   0.272   3.518   0.471
  131TIP3    H1  357   0.295   3.503   0.563
  131TIP3    H2  358   0.299   3.609   0.454
  132TIP3   OH2  359   6.346   2.046   4.183
  132TIP3    H1  360   6.441   2.040   4.189
  132TIP3    H2  361   6.323   2.001   4.102
  133TIP3   OH2  362   0.697   2.407   3.690
  133TIP3    H1  363   0.630   2.370   3.631
  133TIP3    H2  364   0.775   2.356   3.671
  134TIP3   OH2  365   2.820   3.662   3.019
  134TIP3    H1  366   2.797   3.743   3.065
  134TIP3    H2  367   2.765   3.663   2.941
  135TIP3   OH2  368   0.735   4.065   4.724
  135TIP3    H1  369   0.675   4.135   4.700
  135TIP3    H2  370   0.814   4.081   4.673
  136TIP3   OH2  371   1.966   1.507   0.219
  136TIP3    H1  372   2.059   1.507   0.195
  136TIP3    H2  373   1.921   1.538   0.140
  137TIP3   OH2  374   1.407   1.203   0.200
  137TIP3    H1  375   1.418   1.149   0.122
  137TIP3    H2  376   1.496   1.228   0.225
  138TIP3   OH2  377   5.343   1.757   1.197
  138TIP3    H1  378   5.391   1.809   1.261
  138TIP3    H2  379   5.409   1.696   1.162
  139TIP3   OH2  380   6.528   0.153   3.762
  139TIP3    H1  381   6.579   0.072   3.765
  139TIP3    H2  382   6.462   0.137   3.695
  140TIP3   OH2  383   1.680   1.241   0.254
  140TIP3    H1  384   1.762   1.201   0.224
  140TIP3    H2  385   1.691   1.249   0.349
  141TIP3   OH2  386   1.542   0.529   2.895
  141TIP3    H1  387   1.583   0.607   2.858
  141TIP3    H2  388   1.584   0.518   2.981
  142TIP3   OH2  389   0.582   5.613   2.280
  142TIP3    H1  390   0.672   5.609   2.312
  142TIP3    H2  391   0.588   5.660   2.196
  143TIP3   OH2  392   2.393   0.091   1.769
  143TIP3    H1  393   2.424   0.030   1.701
  143TIP3    H2  394   2.328   0.145   1.724
  144TIP3   OH2  395   0.824   5.268   0.521
  144TIP3    H1  396   0.841   5.300   0.432
  144TIP3    H2  397   0.764   5.331   0.559
  145TIP3   OH2  398   2.786   3.542   3.285
  145TIP3    H1  399   2.812   3.590   3.207
  145TIP3    H2  400   2.852   3.473   3.294
  146TIP3   OH2  401   2.792   3.672   0.319
  146TIP3    H1  402   2.815   3.639   0.232
  146TIP3    H2  403   2.720   3.614   0.348
  147TIP3   OH2  404   1.479   6.320   2.892
  147TIP3    H1  405   1.510   6.251   2.833
  147TIP3    H2  406   1.484   6.400   2.840
  148TIP3   OH2  407   4.264   0.757   3.293
  148TIP3    H1  408   4.344   0.706   3.303
  148TIP3    H2  409   4.201   0.695   3.255
  149TIP3   OH2  410   6.463   1.350   4.313
  149TIP3    H1  411   6.473   1.377   4.404
  149TIP3    H2  412   6.521   1.274   4.304
  150TIP3   OH2  413   6.777   5.565   1.624
  150TIP3    H1  414   6.731   5.576   1.707
  150TIP3    H2  415   6.813   5.652   1.604
  151TIP3   OH2  416   6.257   0.640   3.852
  151TIP3    H1  417   6.162   0.649   3.841
  151TIP3    H2  418   6.290   0.629   3.763
  152TIP3   OH2  419   7.200   6.299   0.619
  152TIP3    H1  420   7.162   6.274   0.535
  152TIP3    H2  421   7.253   6.224   0.645
  153TIP3   OH2  422   2.763   3.131   3.526
  153TIP3    H1  423   2.775   3.140   3.431
  153TIP3    H2  424   2.777   3.038   3.543
  154TIP3   OH2  425   6.888   6.590   2.409
  154TIP3    H1  426   6.858   6.633   2.330
  154TIP3    H2  427   6.949   6.652   2.449
  155TIP3   OH2  428   1.924   2.256   0.235
  155TIP3    H1  429   1.982   2.180   0.231
  155TIP3    H2  430   1.937   2.292   0.323
  156TIP3   OH2  431   3.634   2.663   3.381
  156TIP3    H1  432   3.698   2.733   3.371
  156TIP3    H2  433   3.604   2.645   3.292
  157TIP3   OH2  434   5.751   5.300   4.579
  157TIP3    H1  435   5.816   5.343   4.523
  157TIP3    H2  436   5.742   5.212   4.541
  158TIP3   OH2  437   3.636   0.024   3.515
  158TIP3    H1  438   3.684   0.029   3.597
  158TIP3    H2  439   3.697   0.057   3.449
  159TIP3   OH2  440   0.678   3.513   5.575
  159TIP3    H1  441   0.587   3.495   5.598
  159TIP3    H2  442   0.717   3.548   5.655
  160TIP3   OH2  443   3.091   5.684   0.246
  160TIP3    H1  444   3.032   5.653   0.315
  160TIP3    H2  445   3.047   5.760   0.209
  161TIP3   OH2  446   6.356   3.057   1.812
  161TIP3    H1  447   6.408   3.091   1.885
  161TIP3    H2  448   6.332   3.135   1.762
  162TIP3   OH2  449   5.655   0.370   4.109
  162TIP3    H1  450   5.651   0.463   4.086
  162TIP3    H2  451   5.725   0.335   4.055
  163TIP3   OH2  452   0.916   4.859   5.478
  163TIP3    H1  453   0.913   4.789   5.544
  163TIP3    H2  454   0.893   4.815   5.396
  164TIP3   OH2  455   5.340   4.447   1.386
  164TIP3    H1  456   5.345   4.542   1.394
  164TIP3    H2  457   5.365   4.415   1.473
  165TIP3   OH2  458   1.774   5.137  -0.038
  165TIP3    H1  459   1.722   5.139   0.042
  165TIP3    H2  460   1.737   5.065  -0.089
  166TIP3   OH2  461   5.972   6.126   4.597
  166TIP3    H1  462   6.046   6.174   4.634
  166TIP3    H2  463   6.002   6.035   4.594
  167TIP3   OH2  464   6.512   3.742   2.487
  167TIP3    H1  465   6.603   3.758   2.514
  167TIP3    H2  466   6.460   3.795   2.547
  168TIP3   OH2  467   5.180   4.576   1.776
  168TIP3    H1  468   5.240   4.651   1.766
  168TIP3    H2  469   5.196   4.545   1.865
  169TIP3   OH2  470   6.534   4.709   1.350
  169TIP3    H1  471   6.533   4.747   1.438
  169TIP3    H2  472   6.602   4.759   1.303
  170TIP3   OH2  473   5.211   1.962   0.858
  170TIP3    H1  474   5.200   2.030   0.924
  170TIP3    H2  475   5.299   1.927   0.874
  171TIP3   OH2  476   3.190   4.657   5.277
  171TIP3    H1  477   3.245   4.734   5.267
  171TIP3    H2  478   3.224   4.614   5.356
  172TIP3   OH2  479   4.225   2.060   5.347
  172TIP3    H1  480   4.188   1.984   5.391
  172TIP3    H2  481   4.318   2.056   5.366
  173TIP3   OH2  482   0.401   0.097   4.549
  173TIP3    H1  483   0.493   0.117   4.533
  173TIP3    H2  484   0.400   0.003   4.570
  174TIP3   OH2  485   1.968   1.575   2.518
  174TIP3    H1  486   1.879   1.597   2.490
  174TIP3    H2  487   2.024   1.606   2.446
  175TIP3   OH2  488   3.759   6.514   1.422
  175TIP3    H1  489   3.736   6.457   1.349
  175TIP3    H2  490   3.698   6.588   1.415
  176TIP3   OH2  491   3.165   1.000   0.424
  176TIP3    H1  492   3.083   1.047   0.409
  176TIP3    H2  493   3.232   1.055   0.383
  177TIP3   OH2  494   3.811   4.687   3.737
  177TIP3    H1  495   3.743   4.733   3.787
  177TIP3    H2  496   3.795   4.713   3.646
  178TIP3   OH2  497   3.525   3.370   3.319
  178TIP3    H1  498   3.616   3.378   3.289
  178TIP3    H2  499   3.534   3.352   3.413
  179TIP3   OH2  500   6.187   6.258   2.871
  179TIP3    H1  501   6.208   6.179   2.820
  179TIP3    H2  502   6.183   6.227   2.962
  180TIP3   OH2  503   2.013   2.380   2.384
  180TIP3    H1  504   2.082   2.433   2.346
  180TIP3    H2  505   1.988   2.426   2.464
  181TIP3   OH2  506   0.487   0.994   3.026
  181TIP3    H1  507   0.535   1.068   3.063
  181TIP3    H2  508   0.405   0.992   3.076
  182TIP3   OH2  509   0.957   1.406   2.802
  182TIP3    H1  510   1.043   1.440   2.827
  182TIP3    H2  511   0.909   1.399   2.884
  183TIP3   OH2  512   2.632   5.580   3.789
  183TIP3    H1  513   2.699   5.522   3.827
  183TIP3    H2  514   2.681   5.656   3.758
  184TIP3   OH2  515   0.706   5.452   4.540
  184TIP3    H1  516   0.710   5.358   4.556
  184TIP3    H2  517   0.745   5.463   4.453
  185TIP3   OH2  518   6.074   4.046   5.810
  185TIP3    H1  519   6.081   3.961   5.853
  185TIP3    H2  520   5.996   4.085   5.849
  186TIP3   OH2  521   2.758   2.924   2.560
  186TIP3    H1  522   2.720   2.859   2.619
  186TIP3    H2  523   2.688   2.943   2.497
  187TIP3   OH2  524   0.819   5.226   4.866
  187TIP3    H1  525   0.845   5.313   4.835
  187TIP3    H2  526   0.778   5.185   4.789
  188TIP3   OH2  527   6.718   5.741   2.423
  188TIP3    H1  528   6.783   5.739   2.352
  188TIP3    H2  529   6.652   5.803   2.393
  189TIP3   OH2  530   0.237   2.287   4.465
  189TIP3    H1  531   0.188   2.219   4.512
  189TIP3    H2  532   0.210   2.277   4.374
  190TIP3   OH2  533   1.202   0.851   4.964
  190TIP3    H1  534   1.171   0.902   5.038
  190TIP3    H2  535   1.244   0.775   5.003
  191TIP3   OH2  536   2.222   6.355   3.110
  191TIP3    H1  537   2.273   6.324   3.036
  191TIP3    H2  538   2.131   6.341   3.084
  192TIP3   OH2  539   6.289   6.760   0.901
  192TIP3    H1  540   6.221   6.807   0.853
  192TIP3    H2  541   6.241   6.697   0.955
  193TIP3   OH2  542   4.064   2.131   5.148
  193TIP3    H1  543   4.111   2.106   5.227
  193TIP3    H2  544   4.128   2.119   5.077
  194TIP3   OH2  545   1.266   3.946   1.009
  194TIP3    H1  546   1.242   4.029   0.968
  194TIP3    H2  547   1.360   3.953   1.024
  195TIP3   OH2  548   1.997   2.302   0.497
  195TIP3    H1  549   2.072   2.340   0.543
  195TIP3    H2  550   1.996   2.210   0.524
  196TIP3   OH2  551   5.074   2.835   4.928
  196TIP3    H1  552   5.153   2.789   4.900
  196TIP3    H2  553   5.029   2.857   4.847
  197TIP3   OH2  554   4.651   1.378   0.393
  197TIP3    H1  555   4.688   1.292   0.410
  197TIP3    H2  556   4.639   1.416   0.480
  198TIP3   OH2  557   2.123   6.474   2.333
  198TIP3    H1  558   2.172   6.394   2.352
  198TIP3    H2  559   2.190   6.538   2.307
  199TIP3   OH2  560   6.016   1.378   1.302
  199TIP3    H1  561   6.006   1.402   1.394
  199TIP3    H2  562   6.100   1.417   1.277
  200TIP3   OH2  563   4.861   2.958   3.135
  200TIP3    H1  564   4.954   2.963   3.115
  200TIP3    H2  565   4.835   2.872   3.101
  201TIP3   OH2  566   2.308   4.795   2.908
  201TIP3    H1  567   2.322   4.880   2.867
  201TIP3    H2  568   2.377   4.739   2.872
  202TIP3   OH2  569   1.964   3.703   2.124
  202TIP3    H1  570   2.054   3.709   2.093
  202TIP3    H2  571   1.965   3.630   2.186
  203TIP3   OH2  572   0.871   2.135   1.588
  203TIP3    H1  573   0.811   2.201   1.624
  203TIP3    H2  574   0.828   2.105   1.508
  204TIP3   OH2  575   1.402   1.884   1.916
  204TIP3    H1  576   1.358   1.922   1.992
  204TIP3    H2  577   1.375   1.792   1.916
  205TIP3   OH2  578   5.067   1.651   3.174
  205TIP3    H1  579   5.003   1.583   3.154
  205TIP3    H2  580   5.051   1.672   3.266
  206TIP3   OH2  581   1.394   4.269   2.783
  206TIP3    H1  582   1.400   4.343   2.844
  206TIP3    H2  583   1.463   4.285   2.718
  207TIP3   OH2  584   1.994   0.908   4.193
  207TIP3    H1  585   1.921   0.850   4.172
  207TIP3    H2  586   2.049   0.856   4.253
  208TIP3   OH2  587   2.013   3.253   0.507
  208TIP3    H1  588   1.931   3.235   0.462
  208TIP3    H2  589   2.081   3.227   0.445
  209TIP3   OH2  590   6.221   4.089   0.691
  209TIP3    H1  591   6.133   4.056   0.710
  209TIP3    H2  592   6.212   4.133   0.607
  210TIP3   OH2  593   6.360   4.606   3.322
  210TIP3    H1  594   6.328   4.563   3.242
  210TIP3    H2  595   6.387   4.693   3.293
  211TIP3   OH2  596   4.857   2.436   1.250
  211TIP3    H1  597   4.885   2.524   1.225
  211TIP3    H2  598   4.787   2.415   1.188
  212TIP3   OH2  599   6.970   5.513   3.517
  212TIP3    H1  600   6.925   5.472   3.591
  212TIP3    H2  601   7.061   5.486   3.526
  213TIP3   OH2  602   2.467   2.715   4.386
  213TIP3    H1  603   2.395   2.684   4.331
  213TIP3    H2  604   2.443   2.806   4.406
  214TIP3   OH2  605   0.265   3.101   3.067
  214TIP3    H1  606   0.301   3.064   3.148
  214TIP3    H2  607   0.284   3.194   3.072
  215TIP3   OH2  608   6.714   0.503   3.756
  215TIP3    H1  609   6.761   0.428   3.719
  215TIP3    H2  610   6.764   0.527   3.834
  216TIP3   OH2  611   1.427   0.504   3.195
  216TIP3    H1  612   1.412   0.599   3.190
  216TIP3    H2  613   1.522   0.495   3.195
  217TIP3   OH2  614   4.543   6.300   0.049
  217TIP3    H1  615   4.539   6.209   0.022
  217TIP3    H2  616   4.603   6.342  -0.013
  218TIP3   OH2  617   1.056   0.907   4.271
  218TIP3    H1  618   1.116   0.957   4.326
  218TIP3    H2  619   1.086   0.816   4.280
  219TIP3   OH2  620   4.497   2.593   1.971
  219TIP3    H1  621   4.532   2.641   2.046
  219TIP3    H2  622   4.419   2.549   2.005
  220TIP3   OH2  623   0.337   0.837   0.354
  220TIP3    H1  624   0.337   0.766   0.418
  220TIP3    H2  625   0.244   0.858   0.343
  221TIP3   OH2  626   7.241   4.471   4.046
  221TIP3    H1  627   7.248   4.442   3.955
  221TIP3    H2  628   7.164   4.528   4.047
  222TIP3   OH2  629   5.719   5.224   2.270
  222TIP3    H1  630   5.671   5.299   2.236
  222TIP3    H2  631   5.730   5.242   2.363
  223TIP3   OH2  632   3.633   2.025   3.108
  223TIP3    H1  633   3.673   2.099   3.154
  223TIP3    H2  634   3.705   1.964   3.094
  224TIP3   OH2  635   1.980   6.048   0.755
  224TIP3    H1  636   2.046   6.111   0.784
  224TIP3    H2  637   1.977   5.983   0.825
  225TIP3   OH2  638   2.717   6.033   5.157
  225TIP3    H1  639   2.660   6.070   5.224
  225TIP3    H2  640   2.662   6.026   5.079
  226TIP3   OH2  641   4.412   1.531   5.243
  226TIP3    H1  642   4.470   1.489   5.306
  226TIP3    H2  643   4.332   1.550   5.292
  227TIP3   OH2  644   1.450   6.400   0.144
  227TIP3    H1  645   1.379   6.417   0.083
  227TIP3    H2  646   1.427   6.316   0.185
  228TIP3   OH2  647   5.301   3.811   2.084
  228TIP3    H1  648   5.337   3.769   2.161
  228TIP3    H2  649   5.373   3.861   2.047
  229TIP3   OH2  650   2.893   0.078   4.978
  229TIP3    H1  651   2.843   0.008   4.936
  229TIP3    H2  652   2.836   0.109   5.048
  230TIP3   OH2  653   4.862   0.688   1.929
  230TIP3    H1  654   4.817   0.692   2.013
  230TIP3    H2  655   4.947   0.730   1.945
  231TIP3   OH2  656   2.087   6.169   2.618
  231TIP3    H1  657   2.157   6.139   2.559
  231TIP3    H2  658   2.010   6.120   2.590
  232TIP3   OH2  659   5.977   1.372   2.879
  232TIP3    H1  660   5.972   1.429   2.956
  232TIP3    H2  661   6.052   1.315   2.895
  233TIP3   OH2  662   2.944   0.179   4.711
  233TIP3    H1  663   2.929   0.273   4.703
  233TIP3    H2  664   2.935   0.161   4.804
  234TIP3   OH2  665   3.125   2.718   2.156
  234TIP3    H1  666   3.045   2.727   2.209
  234TIP3    H2  667   3.130   2.625   2.136
  235TIP3   OH2  668   4.317   6.322   1.187
  235TIP3    H1  669   4.408   6.318   1.159
  235TIP3    H2  670   4.316   6.277   1.272
  236TIP3   OH2  671   0.096   6.737   3.915
  236TIP3    H1  672   0.149   6.724   3.993
  236TIP3    H2  673   0.089   6.650   3.876
  237TIP3   OH2  674   1.678   5.669   5.421
  237TIP3    H1  675   1.758   5.704   5.462
  237TIP3    H2  676   1.665   5.725   5.344
  238TIP3   OH2  677   4.443   2.280   4.123
  238TIP3    H1  678   4.463   2.266   4.216
  238TIP3    H2  679   4.481   2.204   4.078
  239TIP3   OH2  680   0.730   0.046   1.200
  239TIP3    H1  681   0.743  -0.044   1.231
  239TIP3    H2  682   0.660   0.081   1.254
  240TIP3   OH2  683   4.628   2.570   1.729
  240TIP3    H1  684   4.613   2.552   1.822
  240TIP3    H2  685   4.647   2.664   1.726
  241TIP3   OH2  686   2.368   5.377   3.265
  241TIP3    H1  687   2.302   5.344   3.203
  241TIP3    H2  688   2.383   5.305   3.326
  242TIP3   OH2  689   4.451   1.615   4.466
  242TIP3    H1  690   4.421   1.657   4.547
  242TIP3    H2  691   4.441   1.521   4.482
  243TIP3   OH2  692   1.389   3.870   3.579
  243TIP3    H1  693   1.363   3.805   3.645
  243TIP3    H2  694   1.432   3.940   3.629
  244TIP3   OH2  695   1.057   1.197   2.082
  244TIP3    H1  696   0.970   1.161   2.065
  244TIP3    H2  697   1.066   1.196   2.177
  245TIP3   OH2  698   1.108   4.551   3.698
  245TIP3    H1  699   1.161   4.475   3.724
  245TIP3    H2  700   1.162   4.626   3.723
  246TIP3   OH2  701   5.180   3.987   5.465
  246TIP3    H1  702   5.191   3.959   5.375
  246TIP3    H2  703   5.114   3.928   5.501
  247TIP3   OH2  704   6.189   1.134   3.462
  247TIP3    H1  705   6.217   1.166   3.548
  247TIP3    H2  706   6.131   1.061   3.480
  248TIP3   OH2  707   3.767   4.305   3.967
  248TIP3    H1  708   3.742   4.367   4.036
  248TIP3    H2  709   3.685   4.264   3.940
  249TIP3   OH2  710   4.303   6.180   0.438
  249TIP3    H1  711   4.372   6.119   0.464
  249TIP3    H2  712   4.334   6.216   0.355
  250TIP3   OH2  713   4.362   1.422   2.985
  250TIP3    H1  714   4.361   1.422   3.081
  250TIP3    H2  715   4.423   1.493   2.962
  251TIP3   OH2  716   6.505   5.068   0.418
  251TIP3    H1  717   6.484   5.122   0.341
  251TIP3    H2  718   6.422   5.026   0.440
  252TIP3   OH2  719   1.960   0.046   4.180
  252TIP3    H1  720   1.954   0.005   4.266
  252TIP3    H2  721   2.051   0.033   4.153
  253TIP3   OH2  722   4.095   3.438   1.143
  253TIP3    H1  723   4.175   3.395   1.173
  253TIP3    H2  724   4.043   3.451   1.222
  254TIP3   OH2  725   4.612   1.018   5.802
  254TIP3    H1  726   4.689   1.049   5.849
  254TIP3    H2  727   4.563   1.097   5.780
  255TIP3   OH2  728   4.653   3.954   0.877
  255TIP3    H1  729   4.615   3.972   0.790
  255TIP3    H2  730   4.702   3.873   0.865
  256TIP3   OH2  731   2.524   1.486   0.228
  256TIP3    H1  732   2.516   1.471   0.134
  256TIP3    H2  733   2.529   1.398   0.266
  257TIP3   OH2  734   5.849   0.952   5.908
  257TIP3    H1  735   5.773   0.982   5.859
  257TIP3    H2  736   5.850   0.857   5.895
  258TIP3   OH2  737   3.875   3.797   4.366
  258TIP3    H1  738   3.863   3.799   4.271
  258TIP3    H2  739   3.940   3.865   4.383
  259TIP3   OH2  740   3.478   5.675   2.890
  259TIP3    H1  741   3.518   5.588   2.892
  259TIP3    H2  742   3.387   5.659   2.865
  260TIP3   OH2  743   3.327   4.117   0.501
  260TIP3    H1  744   3.422   4.128   0.508
  260TIP3    H2  745   3.314   4.073   0.417
  261TIP3   OH2  746   1.645   0.142   2.996
  261TIP3    H1  747   1.559   0.101   3.001
  261TIP3    H2  748   1.674   0.149   3.087
  262TIP3   OH2  749   2.690   3.752   5.899
  262TIP3    H1  750   2.782   3.769   5.878
  262TIP3    H2  751   2.684   3.656   5.902
  263TIP3   OH2  752   6.088   0.712   3.026
  263TIP3    H1  753   6.157   0.773   3.051
  263TIP3    H2  754   6.011   0.740   3.076
  264TIP3   OH2  755   3.107   5.709   4.642
  264TIP3    H1  756   3.016   5.681   4.631
  264TIP3    H2  757   3.156   5.658   4.577
  265TIP3   OH2  758   0.481   2.993   2.167
  265TIP3    H1  759   0.415   3.052   2.130
  265TIP3    H2  760   0.564   3.024   2.131
  266TIP3   OH2  761   0.360   1.960   1.622
  266TIP3    H1  762   0.281   1.935   1.671
  266TIP3    H2  763   0.433   1.935   1.680
  267TIP3   OH2  764   2.264   6.401   4.247
  267TIP3    H1  765   2.285   6.491   4.223
  267TIP3    H2  766   2.320   6.347   4.190
  268TIP3   OH2  767   5.549   3.343   2.589
  268TIP3    H1  768   5.593   3.300   2.662
  268TIP3    H2  769   5.568   3.287   2.513
  269TIP3   OH2  770   6.938   4.093  -0.019
  269TIP3    H1  771   6.912   4.027   0.047
  269TIP3    H2  772   7.027   4.068  -0.043
  270TIP3   OH2  773   4.096   3.639   3.038
  270TIP3    H1  774   4.099   3.732   3.057
  270TIP3    H2  775   4.054   3.600   3.114
  271TIP3   OH2  776   3.119   6.006   3.309
  271TIP3    H1  777   3.155   5.917   3.312
  271TIP3    H2  778   3.146   6.040   3.224
  272TIP3   OH2  779   2.012   5.411   4.216
  272TIP3    H1  780   2.036   5.491   4.169
  272TIP3    H2  781   1.930   5.433   4.260
  273TIP3   OH2  782   2.668   0.549   1.729
  273TIP3    H1  783   2.759   0.575   1.742
  273TIP3    H2  784   2.657   0.545   1.634
  274TIP3   OH2  785   4.368   0.250   4.149
  274TIP3    H1  786   4.386   0.344   4.156
  274TIP3    H2  787   4.272   0.244   4.146
  275TIP3   OH2  788   2.370   2.099   5.416
  275TIP3    H1  789   2.323   2.016   5.410
  275TIP3    H2  790   2.321   2.158   5.359
  276TIP3   OH2  791   3.186   5.374   0.037
  276TIP3    H1  792   3.219   5.456  -0.001
  276TIP3    H2  793   3.091   5.380   0.027
  277TIP3   OH2  794   5.409   5.087   5.617
  277TIP3    H1  795   5.485   5.057   5.567
  277TIP3    H2  796   5.445   5.142   5.686
  278TIP3   OH2  797   4.957   5.878   2.927
  278TIP3    H1  798   5.033   5.893   2.984
  278TIP3    H2  799   4.885   5.923   2.971
  279TIP3   OH2  800   4.987   2.211   2.699
  279TIP3    H1  801   4.982   2.119   2.674
  279TIP3    H2  802   4.988   2.259   2.616
  280TIP3   OH2  803   3.869   5.763   4.027
  280TIP3    H1  804   3.956   5.740   3.993
  280TIP3    H2  805   3.848   5.847   3.985
  281TIP3   OH2  806   2.012   0.806   3.853
  281TIP3    H1  807   1.972   0.739   3.908
  281TIP3    H2  808   2.099   0.819   3.889
  282TIP3   OH2  809   5.094   4.284   2.846
  282TIP3    H1  810   5.086   4.346   2.773
  282TIP3    H2  811   5.023   4.221   2.832
  283TIP3   OH2  812   1.888   2.200   1.499
  283TIP3    H1  813   1.960   2.137   1.493
  283TIP3    H2  814   1.812   2.148   1.525
  284TIP3   OH2  815   2.137   3.360   5.737
  284TIP3    H1  816   2.070   3.429   5.733
  284TIP3    H2  817   2.138   3.334   5.829
  285TIP3   OH2  818   1.250   0.024   4.603
  285TIP3    H1  819   1.268   0.060   4.516
  285TIP3    H2  820   1.276   0.094   4.663
  286TIP3   OH2  821   3.013   5.651   3.448
  286TIP3    H1  822   2.918   5.660   3.445
  286TIP3    H2  823   3.039   5.696   3.528
  287TIP3   OH2  824   5.850   2.407   3.402
  287TIP3    H1  825   5.919   2.386   3.339
  287TIP3    H2  826   5.886   2.478   3.454
  288TIP3   OH2  827   5.591   3.059   1.192
  288TIP3    H1  828   5.556   3.058   1.103
  288TIP3    H2  829   5.615   3.150   1.208
  289TIP3   OH2  830   4.530   4.656   0.464
  289TIP3    H1  831   4.504   4.569   0.495
  289TIP3    H2  832   4.578   4.695   0.538
  290TIP3   OH2  833   0.573   5.510   1.351
  290TIP3    H1  834   0.499   5.509   1.412
  290TIP3    H2  835   0.576   5.421   1.317
  291TIP3   OH2  836   6.666   1.698   2.180
  291TIP3    H1  837   6.581   1.731   2.152
  291TIP3    H2  838   6.680   1.619   2.127
  292TIP3   OH2  839   6.836   0.388   5.090
  292TIP3    H1  840   6.771   0.449   5.125
  292TIP3    H2  841   6.851   0.417   5.000
  293TIP3   OH2  842   6.508   2.582   2.227
  293TIP3    H1  843   6.463   2.665   2.210
  293TIP3    H2  844   6.447   2.515   2.194
  294TIP3   OH2  845   0.058   3.246   4.387
  294TIP3    H1  846  -0.007   3.245   4.456
  294TIP3    H2  847   0.140   3.267   4.432
  295TIP3   OH2  848   6.624   6.676   3.514
  295TIP3    H1  849   6.604   6.585   3.493
  295TIP3    H2  850   6.719   6.683   3.506
  296TIP3   OH2  851   4.816   4.130   1.304
  296TIP3    H1  852   4.895   4.167   1.263
  296TIP3    H2  853   4.748   4.195   1.287
  297TIP3   OH2  854   4.641   3.520   2.432
  297TIP3    H1  855   4.670   3.561   2.350
  297TIP3    H2  856   4.713   3.461   2.455
  298TIP3   OH2  857   0.252   3.969   1.403
  298TIP3    H1  858   0.199   4.019   1.465
  298TIP3    H2  859   0.190   3.942   1.335
  299TIP3   OH2  860   0.313   4.102   4.880
  299TIP3    H1  861   0.368   4.029   4.851
  299TIP3    H2  862   0.298   4.154   4.800
  300TIP3   OH2  863   0.881   6.035   4.408
  300TIP3    H1  864   0.793   6.023   4.443
  300TIP3    H2  865   0.879   5.993   4.322
  301TIP3   OH2  866   5.095   4.128   5.760
  301TIP3    H1  867   5.043   4.051   5.740
  301TIP3    H2  868   5.112   4.169   5.675
  302TIP3   OH2  869   2.856   3.729   4.053
  302TIP3    H1  870   2.944   3.690   4.053
  302TIP3    H2  871   2.872   3.821   4.032
  303TIP3   OH2  872   2.400   0.253   4.334
  303TIP3    H1  873   2.319   0.287   4.297
  303TIP3    H2  874   2.380   0.162   4.358
  304TIP3   OH2  875   7.163   3.097   5.387
  304TIP3    H1  876   7.134   3.145   5.309
  304TIP3    H2  877   7.092   3.034   5.403
  305TIP3   OH2  878   2.778   0.771   4.667
  305TIP3    H1  879   2.717   0.758   4.740
  305TIP3    H2  880   2.729   0.742   4.590
  306TIP3   OH2  881   3.635   2.196   4.490
  306TIP3    H1  882   3.596   2.282   4.506
  306TIP3    H2  883   3.704   2.213   4.426
  307TIP3   OH2  884   6.222   4.238   3.491
  307TIP3    H1  885   6.310   4.219   3.523
  307TIP3    H2  886   6.191   4.309   3.548
  308TIP3   OH2  887   1.116   3.265   1.345
  308TIP3    H1  888   1.077   3.259   1.432
  308TIP3    H2  889   1.052   3.224   1.287
  309TIP3   OH2  890   3.589   6.732   1.439
  309TIP3    H1  891   3.571   6.822   1.467
  309TIP3    H2  892   3.532   6.719   1.364
  310TIP3   OH2  893  -0.005   0.707   1.922
  310TIP3    H1  894   0.045   0.782   1.888
  310TIP3    H2  895   0.055   0.633   1.915
  311TIP3   OH2  896   4.069   6.534   2.919
  311TIP3    H1  897   4.039   6.610   2.968
  311TIP3    H2  898   3.991   6.503   2.873
  312TIP3   OH2  899   2.988   5.428   2.997
  312TIP3    H1  900   2.940   5.464   3.072
  312TIP3    H2  901   2.948   5.469   2.921
  313TIP3   OH2  902   1.755   2.632   4.447
  313TIP3    H1  903   1.677   2.579   4.430
  313TIP3    H2  904   1.737   2.716   4.405
  314TIP3   OH2  905   2.493   1.569   4.326
  314TIP3    H1  906   2.521   1.540   4.412
  314TIP3    H2  907   2.461   1.490   4.283
  315TIP3   OH2  908   4.582   3.811   2.587
  315TIP3    H1  909   4.569   3.741   2.522
  315TIP3    H2  910   4.579   3.892   2.535
  316TIP3   OH2  911   4.058   5.785   2.915
  316TIP3    H1  912   3.994   5.725   2.877
  316TIP3    H2  913   4.049   5.773   3.009
  317TIP3   OH2  914   0.909   5.880   0.176
  317TIP3    H1  915   0.878   5.789   0.172
  317TIP3    H2  916   0.924   5.896   0.269
  318TIP3   OH2  917   2.150   0.440   4.988
  318TIP3    H1  918   2.215   0.396   5.043
  318TIP3    H2  919   2.165   0.404   4.900
  319TIP3   OH2  920   2.830   2.920   1.468
  319TIP3    H1  921   2.823   3.014   1.449
  319TIP3    H2  922   2.921   2.898   1.447
  320TIP3   OH2  923   0.143   2.375   1.396
  320TIP3    H1  924   0.103   2.355   1.481
  320TIP3    H2  925   0.160   2.289   1.358
  321TIP3   OH2  926   4.611   1.876   1.084
  321TIP3    H1  927   4.612   1.847   1.176
  321TIP3    H2  928   4.606   1.971   1.089
  322TIP3   OH2  929   3.354   4.004   4.588
  322TIP3    H1  930   3.262   4.024   4.607
  322TIP3    H2  931   3.402   4.080   4.620
  323TIP3   OH2  932   1.719   5.471   0.566
  323TIP3    H1  933   1.794   5.530   0.555
  323TIP3    H2  934   1.653   5.507   0.507
  324TIP3   OH2  935   0.264   2.378   3.713
  324TIP3    H1  936   0.198   2.309   3.706
  324TIP3    H2  937   0.332   2.352   3.651
  325TIP3   OH2  938   1.120   5.035   3.067
  325TIP3    H1  939   1.126   5.079   2.982
  325TIP3    H2  940   1.195   5.067   3.117
  326TIP3   OH2  941   3.137   0.051   0.733
  326TIP3    H1  942   3.142  -0.027   0.678
  326TIP3    H2  943   3.073   0.107   0.689
  327TIP3   OH2  944   0.422   0.404   1.359
  327TIP3    H1  945   0.340   0.422   1.406
  327TIP3    H2  946   0.400   0.417   1.267
  328TIP3   OH2  947   3.242   3.911   3.755
  328TIP3    H1  948   3.226   3.947   3.842
  328TIP3    H2  949   3.236   3.985   3.696
  329TIP3   OH2  950   0.804   6.580   5.604
  329TIP3    H1  951   0.709   6.589   5.609
  329TIP3    H2  952   0.821   6.488   5.621
  330TIP3   OH2  953   4.594   2.171   2.407
  330TIP3    H1  954   4.635   2.097   2.362
  330TIP3    H2  955   4.514   2.187   2.357
  331TIP3   OH2  956   1.466   2.506   1.624
  331TIP3    H1  957   1.553   2.511   1.585
  331TIP3    H2  958   1.454   2.590   1.668
  332TIP3   OH2  959   6.210   3.790   1.209
  332TIP3    H1  960   6.204   3.724   1.279
  332TIP3    H2  961   6.278   3.756   1.150
  333TIP3   OH2  962  -0.031   5.856   2.935
  333TIP3    H1  963   0.033   5.785   2.925
  333TIP3    H2  964   0.019   5.928   2.972
  334TIP3   OH2  965   5.155   5.563   2.741
  334TIP3    H1  966   5.081   5.624   2.742
  334TIP3    H2  967   5.207   5.587   2.818
  335TIP3   OH2  968   3.899   4.652   1.047
  335TIP3    H1  969   3.805   4.651   1.064
  335TIP3    H2  970   3.907   4.651   0.952
  336TIP3   OH2  971   1.453   4.275   4.684
  336TIP3    H1  972   1.466   4.184   4.711
  336TIP3    H2  973   1.458   4.273   4.589
  337TIP3   OH2  974   0.457   1.650   2.504
  337TIP3    H1  975   0.451   1.570   2.556
  337TIP3    H2  976   0.455   1.620   2.413
  338TIP3   OH2  977   2.213   4.192   1.006
  338TIP3    H1  978   2.172   4.163   1.088
  338TIP3    H2  979   2.150   4.253   0.969
  339TIP3   OH2  980   3.863   0.351   0.572
  339TIP3    H1  981   3.793   0.315   0.627
  339TIP3    H2  982   3.846   0.446   0.571
  340TIP3   OH2  983   1.656   5.311   4.802
  340TIP3    H1  984   1.612   5.396   4.803
  340TIP3    H2  985   1.710   5.313   4.724
  341TIP3   OH2  986   6.444   6.618   1.928
  341TIP3    H1  987   6.412   6.687   1.986
  341TIP3    H2  988   6.365   6.568   1.905
  342TIP3   OH2  989   5.256   4.556   4.187
  342TIP3    H1  990   5.332   4.531   4.240
  342TIP3    H2  991   5.197   4.480   4.192
  343TIP3   OH2  992   5.660   6.688  -0.011
  343TIP3    H1  993   5.667   6.646   0.075
  343TIP3    H2  994   5.622   6.774   0.007
  344TIP3   OH2  995   2.186   5.685   0.813
  344TIP3    H1  996   2.210   5.778   0.819
  344TIP3    H2  997   2.091   5.684   0.821
  345TIP3   OH2  998   3.163   4.583   4.382
  345TIP3    H1  999   3.110   4.661   4.396
  345TIP3    H2 1000   3.177   4.581   4.287
  346TIP3   OH2 1001   4.108   5.610   2.068
  346TIP3    H1 1002   4.113   5.630   2.161
  346TIP3    H2 1003   4.160   5.678   2.026
  347TIP3   OH2 1004   0.868   1.559   1.406
  347TIP3    H1 1005   0.795   1.610   1.369
  347TIP3    H2 1006   0.922   1.536   1.331
  348TIP3   OH2 1007   5.501   6.139   0.432
  348TIP3    H1 1008   5.409   6.142   0.458
  348TIP3    H2 1009   5.542   6.213   0.477
  349TIP3   OH2 1010   5.282   6.510   1.772
  349TIP3    H1 1011   5.313   6.591   1.733
  349TIP3    H2 1012   5.195   6.531   1.807
  350TIP3   OH2 1013   2.586   3.277   5.062
  350TIP3    H1 1014   2.555   3.252   5.150
  350TIP3    H2 1015   2.629   3.361   5.075
  351TIP3   OH2 1016   4.716   2.699   5.479
  351TIP3    H1 1017   4.784   2.748   5.434
  351TIP3    H2 1018   4.673   2.764   5.535
  352TIP3   OH2 1019   3.875   6.624   4.194
  352TIP3    H1 1020   3.923   6.696   4.153
  352TIP3    H2 1021   3.787   6.629   4.158
  353TIP3   OH2 1022   5.352   3.573   0.106
  353TIP3    H1 1023   5.396   3.500   0.063
  353TIP3    H2 1024   5.260   3.546   0.112
  354TIP3   OH2 1025   5.291   1.683   0.352
  354TIP3    H1 1026   5.363   1.638   0.396
  354TIP3    H2 1027   5.289   1.770   0.392
  355TIP3   OH2 1028   6.892   0.476   4.456
  355TIP3    H1 1029   6.965   0.472   4.394
  355TIP3    H2 1030   6.846   0.557   4.432
  356TIP3   OH2 1031   3.699   0.832   1.709
  356TIP3    H1 1032   3.687   0.797   1.621
  356TIP3    H2 1033   3.611   0.832   1.747
  357TIP3   OH2 1034   0.159   4.059   3.436
  357TIP3    H1 1035   0.210   4.005   3.497
  357TIP3    H2 1036   0.170   4.149   3.469
  358TIP3   OH2 1037   5.456   2.258   4.246
  358TIP3    H1 1038   5.368   2.276   4.213
  358TIP3    H2 1039   5.450   2.170   4.282
  359TIP3   OH2 1040   1.035   5.677   1.341
  359TIP3    H1 1041   1.058   5.769   1.334
  359TIP3    H2 1042   1.029   5.661   1.436
  360TIP3   OH2 1043   1.971   0.545   2.621
  360TIP3    H1 1044   1.954   0.639   2.607
  360TIP3    H2 1045   2.049   0.527   2.569
  361TIP3   OH2 1046   4.336   3.841   3.669
  361TIP3    H1 1047   4.397   3.875   3.604
  361TIP3    H2 1048   4.380   3.855   3.753
  362TIP3   OH2 1049   1.802   0.319   2.809
  362TIP3    H1 1050   1.763   0.248   2.861
  362TIP3    H2 1051   1.729   0.380   2.796
  363TIP3   OH2 1052   4.038   4.299   4.805
  363TIP3    H1 1053   4.092   4.220   4.806
  363TIP3    H2 1054   4.092   4.363   4.759
  364TIP3   OH2 1055   4.791   5.803   0.689
  364TIP3    H1 1056   4.877   5.778   0.656
  364TIP3    H2 1057   4.742   5.721   0.693
  365TIP3   OH2 1058   7.169   0.279   5.745
  365TIP3    H1 1059   7.197   0.355   5.695
  365TIP3    H2 1060   7.234   0.212   5.725
  366TIP3   OH2 1061   6.467   2.854   2.824
  366TIP3    H1 1062   6.434   2.767   2.801
  366TIP3    H2 1063   6.562   2.845   2.821
  367TIP3   OH2 1064   1.293   2.255   0.068
  367TIP3    H1 1065   1.311   2.230   0.159
  367TIP3    H2 1066   1.198   2.267   0.064
  368TIP3   OH2 1067   6.736   6.568   3.206
  368TIP3    H1 1068   6.742   6.532   3.294
  368TIP3    H2 1069   6.721   6.493   3.149
  369TIP3   OH2 1070   4.199   1.284   2.331
  369TIP3    H1 1071   4.118   1.332   2.348
  369TIP3    H2 1072   4.220   1.303   2.239
  370TIP3   OH2 1073   0.085   0.358   4.119
  370TIP3    H1 1074   0.177   0.371   4.099
  370TIP3    H2 1075   0.048   0.324   4.038
  371TIP3   OH2 1076   0.843   4.527   0.997
  371TIP3    H1 1077   0.898   4.532   0.918
  371TIP3    H2 1078   0.904   4.537   1.070
  372TIP3   OH2 1079   0.700   4.643   0.123
  372TIP3    H1 1080   0.653   4.578   0.071
  372TIP3    H2 1081   0.732   4.594   0.199
  373TIP3   OH2 1082   3.429   0.681   3.241
  373TIP3    H1 1083   3.354   0.626   3.218
  373TIP3    H2 1084   3.399   0.731   3.317
  374TIP3   OH2 1085   6.820   5.614   4.416
  374TIP3    H1 1086   6.913   5.602   4.437
  374TIP3    H2 1087   6.786   5.665   4.490
  375TIP3   OH2 1088   2.338   6.295   2.387
  375TIP3    H1 1089   2.311   6.207   2.416
  375TIP3    H2 1090   2.405   6.279   2.321
  376TIP3   OH2 1091   4.663   2.387   0.624
  376TIP3    H1 1092   4.581   2.437   0.619
  376TIP3    H2 1093   4.725   2.448   0.664
  377TIP3   OH2 1094   4.179   2.670   3.068
  377TIP3    H1 1095   4.235   2.660   2.991
  377TIP3    H2 1096   4.234   2.717   3.131
  378TIP3   OH2 1097   1.099   4.094   4.321
  378TIP3    H1 1098   1.052   4.122   4.242
  378TIP3    H2 1099   1.102   4.173   4.375
  379TIP3   OH2 1100   4.773   3.623   5.177
  379TIP3    H1 1101   4.829   3.581   5.112
  379TIP3    H2 1102   4.784   3.570   5.255
  380TIP3   OH2 1103   6.894   2.688   4.113
  380TIP3    H1 1104   6.809   2.667   4.151
  380TIP3    H2 1105   6.919   2.771   4.154
  381TIP3   OH2 1106   3.898   4.101   3.650
  381TIP3    H1 1107   3.859   4.035   3.592
  381TIP3    H2 1108   3.966   4.054   3.698
  382TIP3   OH2 1109   4.439   3.906   3.937
  382TIP3    H1 1110   4.504   3.941   3.998
  382TIP3    H2 1111   4.370   3.972   3.936
  383TIP3   OH2 1112   6.496   2.728   0.592
  383TIP3    H1 1113   6.504   2.812   0.637
  383TIP3    H2 1114   6.512   2.749   0.500
  384TIP3   OH2 1115   4.059   6.442   3.746
  384TIP3    H1 1116   4.118   6.386   3.797
  384TIP3    H2 1117   4.105   6.525   3.740
  385TIP3   OH2 1118   2.642   1.134   2.280
  385TIP3    H1 1119   2.551   1.162   2.290
  385TIP3    H2 1120   2.637   1.058   2.222
  386TIP3   OH2 1121   3.382   2.259   0.728
  386TIP3    H1 1122   3.409   2.192   0.665
  386TIP3    H2 1123   3.456   2.267   0.787
  387TIP3   OH2 1124   6.721   5.339   2.968
  387TIP3    H1 1125   6.643   5.300   2.928
  387TIP3    H2 1126   6.794   5.306   2.916
  388TIP3   OH2 1127   4.624   5.165   2.356
  388TIP3    H1 1128   4.656   5.244   2.400
  388TIP3    H2 1129   4.532   5.159   2.383
  389TIP3   OH2 1130   1.207   3.952   1.439
  389TIP3    H1 1131   1.143   3.935   1.370
  389TIP3    H2 1132   1.175   3.901   1.514
  390TIP3   OH2 1133   5.328   5.282   1.750
  390TIP3    H1 1134   5.300   5.208   1.804
  390TIP3    H2 1135   5.278   5.356   1.784
  391TIP3   OH2 1136   2.364   3.192   0.841
  391TIP3    H1 1137   2.382   3.262   0.904
  391TIP3    H2 1138   2.269   3.191   0.833
  392TIP3   OH2 1139   0.741   4.356   3.851
  392TIP3    H1 1140   0.648   4.356   3.826
  392TIP3    H2 1141   0.761   4.263   3.868
  393TIP3   OH2 1142   4.528   5.474   5.680
  393TIP3    H1 1143   4.549   5.426   5.760
  393TIP3    H2 1144   4.537   5.409   5.610
  394TIP3   OH2 1145   6.780   4.365   0.041
  394TIP3    H1 1146   6.857   4.386  -0.012
  394TIP3    H2 1147   6.739   4.291  -0.004
  395TIP3   OH2 1148   5.398   6.277   2.295
  395TIP3    H1 1149   5.378   6.184   2.310
  395TIP3    H2 1150   5.457   6.300   2.367
  396TIP3   OH2 1151   1.368   6.351   4.840
  396TIP3    H1 1152   1.421   6.416   4.794
  396TIP3    H2 1153   1.351   6.390   4.925
  397TIP3   OH2 1154   1.549   3.361   2.282
  397TIP3    H1 1155   1.457   3.380   2.299
  397TIP3    H2 1156   1.580   3.436   2.231
  398TIP3   OH2 1157   2.053   4.694   0.855
  398TIP3    H1 1158   2.107   4.650   0.790
  398TIP3    H2 1159   2.111   4.706   0.930
  399TIP3   OH2 1160   4.843   0.251   0.943
  399TIP3    H1 1161   4.894   0.328   0.917
  399TIP3    H2 1162   4.773   0.286   0.998
  400TIP3   OH2 1163   7.004   5.649   0.209
  400TIP3    H1 1164   6.945   5.594   0.260
  400TIP3    H2 1165   6.966   5.737   0.214
  401TIP3   OH2 1166   5.398   2.395   5.565
  401TIP3    H1 1167   5.314   2.416   5.605
  401TIP3    H2 1168   5.431   2.479   5.533
  402TIP3   OH2 1169   4.251   2.542   0.761
  402TIP3    H1 1170   4.334   2.558   0.805
  402TIP3    H2 1171   4.236   2.622   0.710
  403TIP3   OH2 1172   1.814   2.366   1.116
  403TIP3    H1 1173   1.837   2.297   1.054
  403TIP3    H2 1174   1.897   2.407   1.139
  404TIP3   OH2 1175   1.333   3.018   3.918
  404TIP3    H1 1176   1.327   3.017   3.823
  404TIP3    H2 1177   1.292   3.101   3.943
  405TIP3   OH2 1178   1.417   3.151   3.671
  405TIP3    H1 1179   1.394   3.092   3.599
  405TIP3    H2 1180   1.425   3.237   3.630
  406TIP3   OH2 1181   0.070   2.576   4.609
  406TIP3    H1 1182   0.136   2.553   4.544
  406TIP3    H2 1183  -0.013   2.566   4.564
  407TIP3   OH2 1184   5.407   0.082   3.190
  407TIP3    H1 1185   5.392   0.104   3.281
  407TIP3    H2 1186   5.320   0.061   3.155
  408TIP3   OH2 1187   1.063   4.032   2.266
  408TIP3    H1 1188   0.983   4.025   2.318
  408TIP3    H2 1189   1.051   3.969   2.195
  409TIP3   OH2 1190   4.700   3.322   5.214
  409TIP3    H1 1191   4.640   3.355   5.281
  409TIP3    H2 1192   4.667   3.234   5.193
  410TIP3   OH2 1193   0.066   3.503   0.974
  410TIP3    H1 1194  -0.005   3.442   0.992
  410TIP3    H2 1195   0.116   3.508   1.056
  411TIP3   OH2 1196   2.338   5.264   1.338
  411TIP3    H1 1197   2.280   5.272   1.414
  411TIP3    H2 1198   2.426   5.275   1.373
  412TIP3   OH2 1199   6.011   3.926   5.565
  412TIP3    H1 1200   6.024   3.999   5.626
  412TIP3    H2 1201   5.952   3.960   5.498
  413TIP3   OH2 1202   2.897   3.383   2.938
  413TIP3    H1 1203   2.888   3.470   2.975
  413TIP3    H2 1204   2.941   3.396   2.854
  414TIP3   OH2 1205   2.796   0.705   1.263
  414TIP3    H1 1206   2.846   0.631   1.227
  414TIP3    H2 1207   2.765   0.673   1.348
  415TIP3   OH2 1208   0.229   0.346   0.746
  415TIP3    H1 1209   0.312   0.388   0.767
  415TIP3    H2 1210   0.232   0.332   0.652
  416TIP3   OH2 1211   4.507   3.509   1.116
  416TIP3    H1 1212   4.569   3.503   1.189
  416TIP3    H2 1213   4.501   3.602   1.097
  417TIP3   OH2 1214   1.318   4.823   0.618
  417TIP3    H1 1215   1.386   4.816   0.685
  417TIP3    H2 1216   1.279   4.736   0.613
  418TIP3   OH2 1217   5.580   3.049   3.509
  418TIP3    H1 1218   5.619   2.962   3.514
  418TIP3    H2 1219   5.496   3.040   3.554
  419TIP3   OH2 1220   6.383   5.381   0.749
  419TIP3    H1 1221   6.329   5.411   0.676
  419TIP3    H2 1222   6.443   5.454   0.766
  420TIP3   OH2 1223   5.849   1.841   3.334
  420TIP3    H1 1224   5.776   1.852   3.394
  420TIP3    H2 1225   5.881   1.752   3.351
  421TIP3   OH2 1226   3.050   1.937   3.447
  421TIP3    H1 1227   3.122   1.885   3.483
  421TIP3    H2 1228   3.040   2.010   3.509
  422TIP3   OH2 1229   5.288   2.186   5.819
  422TIP3    H1 1230   5.277   2.279   5.838
  422TIP3    H2 1231   5.376   2.179   5.782
  423TIP3   OH2 1232   7.025   0.593   1.764
  423TIP3    H1 1233   7.072   0.621   1.843
  423TIP3    H2 1234   6.941   0.638   1.769
  424TIP3   OH2 1235   6.152   3.925   1.572
  424TIP3    H1 1236   6.109   3.924   1.657
  424TIP3    H2 1237   6.191   4.012   1.564
  425TIP3   OH2 1238   1.035   3.049   4.079
  425TIP3    H1 1239   1.116   3.101   4.071
  425TIP3    H2 1240   0.975   3.089   4.016
  426TIP3   OH2 1241   2.765   0.031   4.163
  426TIP3    H1 1242   2.712   0.102   4.197
  426TIP3    H2 1243   2.802   0.066   4.082
  427TIP3   OH2 1244   6.374   1.647   0.345
  427TIP3    H1 1245   6.284   1.626   0.369
  427TIP3    H2 1246   6.426   1.621   0.421
  428TIP3   OH2 1247   2.199   6.545   1.292
  428TIP3    H1 1248   2.276   6.602   1.293
  428TIP3    H2 1249   2.177   6.533   1.384
  429TIP3   OH2 1250   6.826   2.338   1.811
  429TIP3    H1 1251   6.890   2.386   1.757
  429TIP3    H2 1252   6.836   2.376   1.898
  430TIP3   OH2 1253   4.380   1.212   4.158
  430TIP3    H1 1254   4.344   1.126   4.138
  430TIP3    H2 1255   4.475   1.201   4.147
  431TIP3   OH2 1256   2.446   3.698   1.568
  431TIP3    H1 1257   2.356   3.729   1.558
  431TIP3    H2 1258   2.440   3.630   1.636
  432TIP3   OH2 1259   0.478   2.529   2.463
  432TIP3    H1 1260   0.388   2.520   2.493
  432TIP3    H2 1261   0.486   2.621   2.438
  433TIP3   OH2 1262   4.331   1.716   1.220
  433TIP3    H1 1263   4.285   1.635   1.197
  433TIP3    H2 1264   4.404   1.686   1.275
  434TIP3   OH2 1265   2.307   2.441  -0.006
  434TIP3    H1 1266   2.267   2.466   0.078
  434TIP3    H2 1267   2.321   2.524  -0.051
  435TIP3   OH2 1268   3.396   4.460   4.765
  435TIP3    H1 1269   3.474   4.503   4.730
  435TIP3    H2 1270   3.349   4.530   4.812
  436TIP3   OH2 1271   6.474   6.170   5.817
  436TIP3    H1 1272   6.421   6.091   5.826
  436TIP3    H2 1273   6.563   6.141   5.838
  437TIP3   OH2 1274   2.652   1.778   2.778
  437TIP3    H1 1275   2.603   1.702   2.807
  437TIP3    H2 1276   2.603   1.853   2.811
  438TIP3   OH2 1277   2.884   0.148   0.616
  438TIP3    H1 1278   2.839   0.115   0.693
  438TIP3    H2 1279   2.906   0.070   0.565
  439TIP3   OH2 1280   7.140   5.230   5.352
  439TIP3    H1 1281   7.069   5.247   5.414
  439TIP3    H2 1282   7.152   5.313   5.306
  440TIP3   OH2 1283   0.062   5.912   4.057
  440TIP3    H1 1284   0.019   5.864   4.128
  440TIP3    H2 1285   0.002   5.901   3.983
  441TIP3   OH2 1286   5.505   3.918   4.345
  441TIP3    H1 1287   5.543   3.909   4.432
  441TIP3    H2 1288   5.577   3.899   4.285
  442TIP3   OH2 1289   0.211   6.583   3.668
  442TIP3    H1 1290   0.132   6.532   3.685
  442TIP3    H2 1291   0.278   6.517   3.651
  443TIP3   OH2 1292   5.162   2.232   2.911
  443TIP3    H1 1293   5.238   2.193   2.867
  443TIP3    H2 1294   5.104   2.259   2.839
  444TIP3   OH2 1295   6.617   0.666   3.981
  444TIP3    H1 1296   6.619   0.613   3.901
  444TIP3    H2 1297   6.670   0.617   4.044
  445TIP3   OH2 1298   5.783   3.219   4.196
  445TIP3    H1 1299   5.706   3.193   4.247
  445TIP3    H2 1300   5.751   3.291   4.141
  446TIP3   OH2 1301   6.006   2.459   4.189
  446TIP3    H1 1302   6.093   2.418   4.189
  446TIP3    H2 1303   5.965   2.427   4.109
  447TIP3   OH2 1304   4.932   2.492   3.971
  447TIP3    H1 1305   4.982   2.494   4.053
  447TIP3    H2 1306   4.841   2.480   3.999
  448TIP3   OH2 1307   4.208   4.868   1.826
  448TIP3    H1 1308   4.287   4.814   1.837
  448TIP3    H2 1309   4.137   4.805   1.814
  449TIP3   OH2 1310   0.688   6.068   4.863
  449TIP3    H1 1311   0.616   6.047   4.922
  449TIP3    H2 1312   0.683   6.163   4.851
  450TIP3   OH2 1313   1.020   4.184   2.697
  450TIP3    H1 1314   1.001   4.168   2.604
  450TIP3    H2 1315   1.116   4.182   2.702
  451TIP3   OH2 1316   2.572   1.505   0.539
  451TIP3    H1 1317   2.615   1.423   0.513
  451TIP3    H2 1318   2.478   1.484   0.537
  452TIP3   OH2 1319   3.608   0.042   4.541
  452TIP3    H1 1320   3.541  -0.019   4.510
  452TIP3    H2 1321   3.688   0.015   4.496
  453TIP3   OH2 1322   3.953   0.685   3.869
  453TIP3    H1 1323   3.975   0.712   3.780
  453TIP3    H2 1324   3.926   0.593   3.860
  454TIP3   OH2 1325   2.985   4.784   3.376
  454TIP3    H1 1326   3.056   4.728   3.410
  454TIP3    H2 1327   2.921   4.786   3.447
  455TIP3   OH2 1328   7.270   0.974   0.397
  455TIP3    H1 1329   7.193   1.029   0.412
  455TIP3    H2 1330   7.334   1.004   0.462
  456TIP3   OH2 1331   4.894   1.082   3.995
  456TIP3    H1 1332   4.981   1.045   3.987
  456TIP3    H2 1333   4.867   1.102   3.905
  457TIP3   OH2 1334   1.932   3.763   0.422
  457TIP3    H1 1335   1.961   3.751   0.513
  457TIP3    H2 1336   1.943   3.856   0.406
  458TIP3   OH2 1337   4.457   3.748   1.468
  458TIP3    H1 1338   4.532   3.761   1.411
  458TIP3    H2 1339   4.466   3.659   1.502
  459TIP3   OH2 1340   6.615   0.794   1.715
  459TIP3    H1 1341   6.640   0.768   1.804
  459TIP3    H2 1342   6.521   0.776   1.710
  460TIP3   OH2 1343   2.067   4.936   4.147
  460TIP3    H1 1344   2.008   4.870   4.111
  460TIP3    H2 1345   2.130   4.953   4.077
  461TIP3   OH2 1346   3.253   2.859   1.180
  461TIP3    H1 1347   3.344   2.859   1.210
  461TIP3    H2 1348   3.251   2.798   1.107
  462TIP3   OH2 1349   5.541   0.033   5.182
  462TIP3    H1 1350   5.601   0.031   5.257
  462TIP3    H2 1351   5.490   0.113   5.193
  463TIP3   OH2 1352   5.246   2.611   3.759
  463TIP3    H1 1353   5.210   2.699   3.749
  463TIP3    H2 1354   5.296   2.614   3.841
  464TIP3   OH2 1355   2.869   5.203   3.616
  464TIP3    H1 1356   2.853   5.297   3.610
  464TIP3    H2 1357   2.860   5.172   3.526
  465TIP3   OH2 1358   5.669   5.520   4.157
  465TIP3    H1 1359   5.612   5.555   4.226
  465TIP3    H2 1360   5.699   5.597   4.109
  466TIP3   OH2 1361   5.372   0.417   4.211
  466TIP3    H1 1362   5.381   0.505   4.248
  466TIP3    H2 1363   5.458   0.377   4.224
  467TIP3   OH2 1364   3.513   5.463   5.383
  467TIP3    H1 1365   3.479   5.526   5.319
  467TIP3    H2 1366   3.579   5.513   5.432
  468TIP3   OH2 1367   2.627   1.507   2.376
  468TIP3    H1 1368   2.698   1.444   2.371
  468TIP3    H2 1369   2.654   1.579   2.319
  469TIP3   OH2 1370   4.538   4.908   3.759
  469TIP3    H1 1371   4.444   4.920   3.752
  469TIP3    H2 1372   4.559   4.840   3.694
  470TIP3   OH2 1373   0.740   5.398   3.700
  470TIP3    H1 1374   0.749   5.303   3.712
  470TIP3    H2 1375   0.809   5.436   3.754
  471TIP3   OH2 1376   5.943   0.899   4.192
  471TIP3    H1 1377   5.946   0.804   4.180
  471TIP3    H2 1378   5.902   0.932   4.113
  472TIP3   OH2 1379   6.869   6.447   5.765
  472TIP3    H1 1380   6.882   6.403   5.849
  472TIP3    H2 1381   6.775   6.460   5.759
  473TIP3   OH2 1382   6.392   1.056   0.884
  473TIP3    H1 1383   6.443   0.993   0.833
  473TIP3    H2 1384   6.365   1.122   0.820
  474TIP3   OH2 1385   6.188   4.445   4.426
  474TIP3    H1 1386   6.173   4.365   4.475
  474TIP3    H2 1387   6.283   4.447   4.411
  475TIP3   OH2 1388   4.765   2.600   0.315
  475TIP3    H1 1389   4.786   2.525   0.260
  475TIP3    H2 1390   4.847   2.647   0.325
  476TIP3   OH2 1391   1.053   1.755   4.311
  476TIP3    H1 1392   1.020   1.827   4.365
  476TIP3    H2 1393   0.988   1.746   4.241
  477TIP3   OH2 1394   5.880   4.725   2.109
  477TIP3    H1 1395   5.839   4.773   2.037
  477TIP3    H2 1396   5.879   4.787   2.182
  478TIP3   OH2 1397   0.780   6.774   2.731
  478TIP3    H1 1398   0.743   6.728   2.806
  478TIP3    H2 1399   0.866   6.803   2.760
  479TIP3   OH2 1400   1.850   6.188   3.615
  479TIP3    H1 1401   1.851   6.215   3.523
  479TIP3    H2 1402   1.909   6.113   3.619
  480TIP3   OH2 1403   2.733   0.691   2.858
  480TIP3    H1 1404   2.812   0.728   2.898
  480TIP3    H2 1405   2.709   0.754   2.791
  481TIP3   OH2 1406   2.296   0.683   2.713
  481TIP3    H1 1407   2.346   0.604   2.732
  481TIP3    H2 1408   2.242   0.659   2.638
  482TIP3   OH2 1409   0.334   5.237   2.116
  482TIP3    H1 1410   0.332   5.326   2.083
  482TIP3    H2 1411   0.343   5.247   2.211
  483TIP3   OH2 1412   5.106   6.670   2.799
  483TIP3    H1 1413   5.016   6.649   2.773
  483TIP3    H2 1414   5.097   6.717   2.882
  484TIP3   OH2 1415   6.233   3.670   1.443
  484TIP3    H1 1416   6.241   3.759   1.478
  484TIP3    H2 1417   6.307   3.622   1.481
  485TIP3   OH2 1418   7.170   0.398   0.660
  485TIP3    H1 1419   7.121   0.315   0.662
  485TIP3    H2 1420   7.242   0.384   0.722
  486TIP3   OH2 1421   6.939   3.669   0.380
  486TIP3    H1 1422   6.858   3.717   0.393
  486TIP3    H2 1423   6.913   3.587   0.338
  487TIP3   OH2 1424   2.859   0.424   0.481
  487TIP3    H1 1425   2.897   0.358   0.539
  487TIP3    H2 1426   2.790   0.377   0.434
  488TIP3   OH2 1427   4.704   2.225   3.616
  488TIP3    H1 1428   4.781   2.206   3.669
  488TIP3    H2 1429   4.657   2.293   3.664
  489TIP3   OH2 1430   6.700   1.971   5.838
  489TIP3    H1 1431   6.791   1.969   5.809
  489TIP3    H2 1432   6.672   1.879   5.836
  490TIP3   OH2 1433   6.443   0.976   1.533
  490TIP3    H1 1434   6.447   0.936   1.446
  490TIP3    H2 1435   6.421   0.903   1.591
  491TIP3   OH2 1436   0.857   1.297   3.070
  491TIP3    H1 1437   0.827   1.217   3.027
  491TIP3    H2 1438   0.777   1.339   3.102
  492TIP3   OH2 1439   2.514   5.257   0.934
  492TIP3    H1 1440   2.482   5.187   0.877
  492TIP3    H2 1441   2.531   5.330   0.875
  493TIP3   OH2 1442   4.337   5.252   0.400
  493TIP3    H1 1443   4.272   5.196   0.358
  493TIP3    H2 1444   4.401   5.271   0.332
  494TIP3   OH2 1445   2.956   2.526   1.454
  494TIP3    H1 1446   2.974   2.436   1.427
  494TIP3    H2 1447   2.873   2.548   1.413
  495TIP3   OH2 1448   1.547   1.230   3.110
  495TIP3    H1 1449   1.593   1.296   3.162
  495TIP3    H2 1450   1.561   1.148   3.157
  496TIP3   OH2 1451   5.948   4.642   3.165
  496TIP3    H1 1452   5.918   4.551   3.174
  496TIP3    H2 1453   5.953   4.656   3.070
  497TIP3   OH2 1454   5.617   4.047   5.729
  497TIP3    H1 1455   5.610   4.134   5.767
  497TIP3    H2 1456   5.665   3.996   5.794
  498TIP3   OH2 1457   1.102   0.244   2.713
  498TIP3    H1 1458   1.036   0.175   2.704
  498TIP3    H2 1459   1.177   0.200   2.754
  499TIP3   OH2 1460   4.574   0.373   5.412
  499TIP3    H1 1461   4.610   0.291   5.378
  499TIP3    H2 1462   4.555   0.425   5.334
  500TIP3   OH2 1463   1.619   1.783   5.066
  500TIP3    H1 1464   1.621   1.861   5.121
  500TIP3    H2 1465   1.637   1.816   4.978
  501TIP3   OH2 1466   2.313   0.801   5.028
  501TIP3    H1 1467   2.231   0.840   4.997
  501TIP3    H2 1468   2.304   0.800   5.123
  502TIP3   OH2 1469   0.774   5.574   3.931
  502TIP3    H1 1470   0.869   5.567   3.941
  502TIP3    H2 1471   0.754   5.663   3.959
  503TIP3   OH2 1472   1.361   2.679   3.216
  503TIP3    H1 1473   1.333   2.735   3.144
  503TIP3    H2 1474   1.455   2.666   3.202
  504TIP3   OH2 1475   3.181   4.148   1.426
  504TIP3    H1 1476   3.095   4.177   1.457
  504TIP3    H2 1477   3.201   4.206   1.353
  505TIP3   OH2 1478   2.159   1.191   1.466
  505TIP3    H1 1479   2.136   1.281   1.444
  505TIP3    H2 1480   2.150   1.186   1.561
  506TIP3   OH2 1481   1.191   4.303   3.803
  506TIP3    H1 1482   1.285   4.319   3.791
  506TIP3    H2 1483   1.180   4.295   3.898
  507TIP3   OH2 1484   0.869   6.578   4.109
  507TIP3    H1 1485   0.814   6.503   4.134
  507TIP3    H2 1486   0.808   6.651   4.102
  508TIP3   OH2 1487   7.186   0.162   3.006
  508TIP3    H1 1488   7.143   0.078   3.024
  508TIP3    H2 1489   7.253   0.140   2.941
  509TIP3   OH2 1490   4.437   0.030   0.773
  509TIP3    H1 1491   4.347   0.047   0.800
  509TIP3    H2 1492   4.452   0.088   0.698
  510TIP3   OH2 1493   3.077   4.308   4.775
  510TIP3    H1 1494   3.044   4.381   4.828
  510TIP3    H2 1495   3.007   4.291   4.712
  511TIP3   OH2 1496   3.979   2.485   2.647
  511TIP3    H1 1497   4.024   2.471   2.730
  511TIP3    H2 1498   3.999   2.408   2.594
  512TIP3   OH2 1499   5.664   5.461   5.116
  512TIP3    H1 1500   5.663   5.554   5.094
  512TIP3    H2 1501   5.584   5.448   5.168
  513TIP3   OH2 1502   0.126   1.004   4.265
  513TIP3    H1 1503   0.145   0.916   4.231
  513TIP3    H2 1504   0.197   1.058   4.231
  514TIP3   OH2 1505   5.686   3.409   4.067
  514TIP3    H1 1506   5.674   3.377   3.978
  514TIP3    H2 1507   5.645   3.496   4.067
  515TIP3   OH2 1508   0.729   1.640   2.056
  515TIP3    H1 1509   0.786   1.717   2.067
  515TIP3    H2 1510   0.782   1.579   2.004
  516TIP3   OH2 1511   1.042   6.435   1.812
  516TIP3    H1 1512   1.075   6.524   1.806
  516TIP3    H2 1513   0.987   6.435   1.890
  517TIP3   OH2 1514   0.694   4.108   0.551
  517TIP3    H1 1515   0.649   4.182   0.591
  517TIP3    H2 1516   0.765   4.148   0.500
  518TIP3   OH2 1517   0.161   6.662   1.843
  518TIP3    H1 1518   0.229   6.695   1.784
  518TIP3    H2 1519   0.118   6.593   1.793
  519TIP3   OH2 1520   4.927   1.056   3.309
  519TIP3    H1 1521   4.931   0.996   3.234
  519TIP3    H2 1522   4.993   1.123   3.289
  520TIP3   OH2 1523   6.008   5.842   4.600
  520TIP3    H1 1524   6.079   5.818   4.660
  520TIP3    H2 1525   6.021   5.786   4.524
  521TIP3   OH2 1526   0.506   2.473   3.263
  521TIP3    H1 1527   0.480   2.563   3.280
  521TIP3    H2 1528   0.571   2.479   3.193
  522TIP3   OH2 1529   6.376   0.764   3.556
  522TIP3    H1 1530   6.309   0.772   3.488
  522TIP3    H2 1531   6.438   0.699   3.522
  523TIP3   OH2 1532   4.918   2.793   5.748
  523TIP3    H1 1533   4.943   2.793   5.840
  523TIP3    H2 1534   4.858   2.867   5.739
  524TIP3   OH2 1535   4.054   6.263   0.123
  524TIP3    H1 1536   4.006   6.275   0.206
  524TIP3    H2 1537   3.990   6.286   0.056
  525TIP3   OH2 1538   2.474   5.062   0.180
  525TIP3    H1 1539   2.553   5.010   0.194
  525TIP3    H2 1540   2.446   5.085   0.269
  526TIP3   OH2 1541   1.511   5.481   5.023
  526TIP3    H1 1542   1.542   5.420   5.091
  526TIP3    H2 1543   1.417   5.466   5.019
  527TIP3   OH2 1544   2.794   2.998   1.783
  527TIP3    H1 1545   2.794   2.999   1.687
  527TIP3    H2 1546   2.885   2.981   1.806
  528TIP3   OH2 1547   4.872   5.593   2.466
  528TIP3    H1 1548   4.934   5.643   2.521
  528TIP3    H2 1549   4.786   5.617   2.499
  529TIP3   OH2 1550   5.063   4.679   3.646
  529TIP3    H1 1551   5.153   4.663   3.615
  529TIP3    H2 1552   5.053   4.618   3.720
  530TIP3   OH2 1553   4.420   5.510   4.808
  530TIP3    H1 1554   4.335   5.554   4.809
  530TIP3    H2 1555   4.484   5.581   4.810
  531TIP3   OH2 1556   2.278   2.139   1.026
  531TIP3    H1 1557   2.337   2.090   0.970
  531TIP3    H2 1558   2.303   2.231   1.014
  532TIP3   OH2 1559   1.566   0.288   0.739
  532TIP3    H1 1560   1.587   0.229   0.666
  532TIP3    H2 1561   1.639   0.277   0.800
  533TIP3   OH2 1562   3.159   2.192   1.641
  533TIP3    H1 1563   3.192   2.282   1.643
  533TIP3    H2 1564   3.195   2.155   1.560
  534TIP3   OH2 1565   1.924   6.633   5.440
  534TIP3    H1 1566   2.007   6.607   5.399
  534TIP3    H2 1567   1.875   6.552   5.450
  535TIP3   OH2 1568   3.509   5.037   2.389
  535TIP3    H1 1569   3.450   5.109   2.367
  535TIP3    H2 1570   3.541   5.005   2.305
  536TIP3   OH2 1571   5.400   4.783   1.799
  536TIP3    H1 1572   5.470   4.821   1.852
  536TIP3    H2 1573   5.415   4.817   1.711
  537TIP3   OH2 1574   6.583   4.549   4.641
  537TIP3    H1 1575   6.517   4.520   4.705
  537TIP3    H2 1576   6.659   4.494   4.658
  538TIP3   OH2 1577   3.509   5.557   1.901
  538TIP3    H1 1578   3.590   5.581   1.947
  538TIP3    H2 1579   3.460   5.638   1.895
  539TIP3   OH2 1580   4.034   2.411   2.942
  539TIP3    H1 1581   4.103   2.344   2.941
  539TIP3    H2 1582   3.988   2.397   3.025
  540TIP3   OH2 1583   4.272   0.497   4.170
  540TIP3    H1 1584   4.246   0.528   4.257
  540TIP3    H2 1585   4.189   0.474   4.127
  541TIP3   OH2 1586   4.886   4.371   5.605
  541TIP3    H1 1587   4.817   4.319   5.647
  541TIP3    H2 1588   4.956   4.308   5.588
  542TIP3   OH2 1589   4.292   4.483   2.033
  542TIP3    H1 1590   4.277   4.532   2.114
  542TIP3    H2 1591   4.263   4.542   1.963
  543TIP3   OH2 1592   1.597   3.165   1.493
  543TIP3    H1 1593   1.598   3.257   1.520
  543TIP3    H2 1594   1.508   3.151   1.461
  544TIP3   OH2 1595   3.372   6.157   0.102
  544TIP3    H1 1596   3.399   6.185   0.014
  544TIP3    H2 1597   3.437   6.194   0.160
  545TIP3   OH2 1598   0.250   5.149   3.953
  545TIP3    H1 1599   0.339   5.184   3.960
  545TIP3    H2 1600   0.242   5.119   3.863
  546TIP3   OH2 1601   5.487   4.239   2.492
  546TIP3    H1 1602   5.403   4.282   2.482
  546TIP3    H2 1603   5.552   4.310   2.488
  547TIP3   OH2 1604   6.466   2.261   5.391
  547TIP3    H1 1605   6.473   2.302   5.477
  547TIP3    H2 1606   6.557   2.250   5.362
  548TIP3   OH2 1607   2.275   2.206   0.124
  548TIP3    H1 1608   2.295   2.286   0.076
  548TIP3    H2 1609   2.317   2.218   0.210
  549TIP3   OH2 1610   4.914   5.086   4.631
  549TIP3    H1 1611   4.867   5.131   4.561
  549TIP3    H2 1612   4.847   5.036   4.677
  550TIP3   OH2 1613   6.799   6.346   2.580
  550TIP3    H1 1614   6.849   6.288   2.522
  550TIP3    H2 1615   6.816   6.434   2.547
  551TIP3   OH2 1616   0.663   3.431   1.981
  551TIP3    H1 1617   0.589   3.395   2.031
  551TIP3    H2 1618   0.734   3.437   2.045
  552TIP3   OH2 1619   2.047   0.015   3.134
  552TIP3    H1 1620   2.040  -0.076   3.164
  552TIP3    H2 1621   2.029   0.067   3.212
  553TIP3   OH2 1622   7.070   2.307   5.474
  553TIP3    H1 1623   7.004   2.245   5.503
  553TIP3    H2 1624   7.058   2.383   5.530
  554TIP3   OH2 1625   4.675   1.938   5.455
  554TIP3    H1 1626   4.581   1.946   5.469
  554TIP3    H2 1627   4.683   1.888   5.374
  555TIP3   OH2 1628   3.632   5.071   4.133
  555TIP3    H1 1629   3.726   5.050   4.131
  555TIP3    H2 1630   3.609   5.072   4.225
  556TIP3   OH2 1631   1.399   4.791   2.959
  556TIP3    H1 1632   1.445   4.821   3.037
  556TIP3    H2 1633   1.370   4.871   2.916
  557TIP3   OH2 1634   1.757   4.632   5.283
  557TIP3    H1 1635   1.746   4.578   5.362
  557TIP3    H2 1636   1.701   4.590   5.218
  558TIP3   OH2 1637   6.563   0.961   3.574
  558TIP3    H1 1638   6.489   0.902   3.563
  558TIP3    H2 1639   6.600   0.970   3.486
  559TIP3   OH2 1640   1.040   3.263   5.608
  559TIP3    H1 1641   0.962   3.313   5.583
  559TIP3    H2 1642   1.008   3.174   5.623
  560TIP3   OH2 1643   4.154   4.713   1.178
  560TIP3    H1 1644   4.154   4.688   1.270
  560TIP3    H2 1645   4.062   4.707   1.151
  561TIP3   OH2 1646   2.219   4.437   2.868
  561TIP3    H1 1647   2.145   4.385   2.837
  561TIP3    H2 1648   2.290   4.419   2.806
  562TIP3   OH2 1649   4.207   3.121   2.493
  562TIP3    H1 1650   4.290   3.132   2.538
  562TIP3    H2 1651   4.176   3.210   2.477
  563TIP3   OH2 1652   0.313   4.961   1.928
  563TIP3    H1 1653   0.395   4.994   1.889
  563TIP3    H2 1654   0.271   4.912   1.857
  564TIP3   OH2 1655   3.688   1.495   0.429
  564TIP3    H1 1656   3.606   1.542   0.448
  564TIP3    H2 1657   3.724   1.473   0.514
  565TIP3   OH2 1658   4.734   5.516   0.671
  565TIP3    H1 1659   4.804   5.470   0.625
  565TIP3    H2 1660   4.654   5.486   0.628
  566TIP3   OH2 1661   3.009   6.085   0.750
  566TIP3    H1 1662   3.043   6.166   0.711
  566TIP3    H2 1663   2.986   6.110   0.840
  567TIP3   OH2 1664   5.168   4.458   4.825
  567TIP3    H1 1665   5.098   4.399   4.796
  567TIP3    H2 1666   5.234   4.401   4.864
  568TIP3   OH2 1667   4.001   2.513   2.081
  568TIP3    H1 1668   3.947   2.444   2.042
  568TIP3    H2 1669   3.937   2.578   2.110
  569TIP3   OH2 1670   6.441   4.848   3.131
  569TIP3    H1 1671   6.367   4.901   3.101
  569TIP3    H2 1672   6.497   4.910   3.177
  570TIP3   OH2 1673   1.094   1.278   3.200
  570TIP3    H1 1674   1.003   1.267   3.172
  570TIP3    H2 1675   1.144   1.225   3.138
  571TIP3   OH2 1676   1.618   2.196   1.312
  571TIP3    H1 1677   1.588   2.275   1.357
  571TIP3    H2 1678   1.710   2.212   1.294
  572TIP3   OH2 1679   2.618   4.498   2.501
  572TIP3    H1 1680   2.649   4.417   2.540
  572TIP3    H2 1681   2.696   4.541   2.468
  573TIP3   OH2 1682   0.957   1.767   5.521
  573TIP3    H1 1683   0.930   1.748   5.611
  573TIP3    H2 1684   1.053   1.770   5.525
  574TIP3   OH2 1685   1.279   0.280   0.167
  574TIP3    H1 1686   1.315   0.367   0.146
  574TIP3    H2 1687   1.185   0.289   0.152
  575TIP3   OH2 1688   4.778   3.498  -0.004
  575TIP3    H1 1689   4.745   3.507   0.086
  575TIP3    H2 1690   4.714   3.443  -0.048
  576TIP3   OH2 1691   2.359   0.393   0.065
  576TIP3    H1 1692   2.365   0.346  -0.018
  576TIP3    H2 1693   2.274   0.436   0.062
  577TIP3   OH2 1694   6.708   4.177   2.814
  577TIP3    H1 1695   6.758   4.241   2.864
  577TIP3    H2 1696   6.676   4.115   2.880
  578TIP3   OH2 1697   6.561   4.048   5.521
  578TIP3    H1 1698   6.619   4.015   5.589
  578TIP3    H2 1699   6.473   4.034   5.555
  579TIP3   OH2 1700   3.726   3.844   1.678
  579TIP3    H1 1701   3.689   3.874   1.762
  579TIP3    H2 1702   3.675   3.892   1.612
  580TIP3   OH2 1703   1.920   5.163   3.009
  580TIP3    H1 1704   1.861   5.207   3.070
  580TIP3    H2 1705   1.924   5.072   3.039
  581TIP3   OH2 1706   5.443   4.861   2.460
  581TIP3    H1 1707   5.363   4.910   2.478
  581TIP3    H2 1708   5.497   4.875   2.539
  582TIP3   OH2 1709   6.074   0.945   3.835
  582TIP3    H1 1710   6.049   0.857   3.806
  582TIP3    H2 1711   6.000   0.974   3.888
  583TIP3   OH2 1712   2.722   0.366   4.942
  583TIP3    H1 1713   2.756   0.317   5.017
  583TIP3    H2 1714   2.744   0.457   4.961
  584TIP3   OH2 1715   2.777   1.003   1.954
  584TIP3    H1 1716   2.853   1.010   1.895
  584TIP3    H2 1717   2.741   1.092   1.956
  585TIP3   OH2 1718   6.575   1.273   5.082
  585TIP3    H1 1719   6.535   1.284   5.168
  585TIP3    H2 1720   6.665   1.302   5.094
  586TIP3   OH2 1721   3.607   0.065   0.881
  586TIP3    H1 1722   3.614   0.133   0.814
  586TIP3    H2 1723   3.697   0.042   0.902
  587TIP3   OH2 1724   0.948   6.174   2.041
  587TIP3    H1 1725   1.035   6.207   2.019
  587TIP3    H2 1726   0.893   6.252   2.049
  588TIP3   OH2 1727   7.104   3.989   0.842
  588TIP3    H1 1728   7.113   3.898   0.871
  588TIP3    H2 1729   7.126   3.986   0.749
  589TIP3   OH2 1730   4.957   2.462   3.098
  589TIP3    H1 1731   4.952   2.527   3.028
  589TIP3    H2 1732   4.937   2.379   3.055
  590TIP3   OH2 1733   6.301   6.562   1.433
  590TIP3    H1 1734   6.231   6.607   1.481
  590TIP3    H2 1735   6.381   6.589   1.477
  591TIP3   OH2 1736   5.472   3.699   3.412
  591TIP3    H1 1737   5.515   3.784   3.422
  591TIP3    H2 1738   5.479   3.678   3.319
  592TIP3   OH2 1739   6.799   5.036   3.468
  592TIP3    H1 1740   6.846   5.086   3.402
  592TIP3    H2 1741   6.728   5.094   3.497
  593TIP3   OH2 1742   3.148   2.449   2.089
  593TIP3    H1 1743   3.216   2.382   2.080
  593TIP3    H2 1744   3.070   2.410   2.050
  594TIP3   OH2 1745   6.524   1.676   1.497
  594TIP3    H1 1746   6.606   1.627   1.493
  594TIP3    H2 1747   6.476   1.635   1.569
  595TIP3   OH2 1748   3.955   5.625   5.555
  595TIP3    H1 1749   3.983   5.571   5.482
  595TIP3    H2 1750   4.026   5.619   5.619
  596TIP3   OH2 1751   2.673   2.185   3.732
  596TIP3    H1 1752   2.677   2.279   3.716
  596TIP3    H2 1753   2.628   2.148   3.656
  597TIP3   OH2 1754   1.576   5.726   2.457
  597TIP3    H1 1755   1.579   5.691   2.546
  597TIP3    H2 1756   1.536   5.812   2.466
  598TIP3   OH2 1757   0.502   4.490   2.913
  598TIP3    H1 1758   0.548   4.573   2.925
  598TIP3    H2 1759   0.424   4.513   2.862
  599TIP3   OH2 1760   5.123   3.672   5.195
  599TIP3    H1 1761   5.171   3.754   5.180
  599TIP3    H2 1762   5.144   3.648   5.285
  600TIP3   OH2 1763   2.540   6.259   3.194
  600TIP3    H1 1764   2.581   6.292   3.114
  600TIP3    H2 1765   2.447   6.272   3.180
  601TIP3   OH2 1766   7.110   0.066   1.677
  601TIP3    H1 1767   7.064   0.148   1.695
  601TIP3    H2 1768   7.202   0.091   1.669
  602TIP3   OH2 1769   1.812   6.526   2.231
  602TIP3    H1 1770   1.906   6.523   2.213
  602TIP3    H2 1771   1.772   6.548   2.147
  603TIP3   OH2 1772   4.727   4.206   4.554
  603TIP3    H1 1773   4.725   4.290   4.510
  603TIP3    H2 1774   4.661   4.213   4.623
  604TIP3   OH2 1775   5.460   1.366   4.417
  604TIP3    H1 1776   5.386   1.386   4.360
  604TIP3    H2 1777   5.425   1.374   4.506
  605TIP3   OH2 1778   5.119   4.239   5.507
  605TIP3    H1 1779   5.188   4.299   5.478
  605TIP3    H2 1780   5.153   4.152   5.487
  606TIP3   OH2 1781   5.246   1.163   5.248
  606TIP3    H1 1782   5.321   1.105   5.259
  606TIP3    H2 1783   5.269   1.218   5.173
  607TIP3   OH2 1784   6.559   5.023   4.826
  607TIP3    H1 1785   6.610   5.103   4.837
  607TIP3    H2 1786   6.624   4.954   4.815
  608TIP3   OH2 1787   2.172   3.990   4.147
  608TIP3    H1 1788   2.117   4.005   4.070
  608TIP3    H2 1789   2.247   3.941   4.114
  609TIP3   OH2 1790   2.410   2.119   0.372
  609TIP3    H1 1791   2.469   2.187   0.340
  609TIP3    H2 1792   2.429   2.043   0.317
  610TIP3   OH2 1793   5.449   2.403   2.821
  610TIP3    H1 1794   5.507   2.459   2.874
  610TIP3    H2 1795   5.368   2.453   2.812
  611TIP3   OH2 1796   0.294   4.375   3.222
  611TIP3    H1 1797   0.216   4.418   3.260
  611TIP3    H2 1798   0.301   4.412   3.134
  612TIP3   OH2 1799   0.969   0.450   5.206
  612TIP3    H1 1800   0.969   0.376   5.267
  612TIP3    H2 1801   1.045   0.502   5.232
  613TIP3   OH2 1802   3.821   1.916   3.808
  613TIP3    H1 1803   3.873   1.995   3.824
  613TIP3    H2 1804   3.739   1.932   3.856
  614TIP3   OH2 1805   1.696   4.236   0.835
  614TIP3    H1 1806   1.772   4.178   0.839
  614TIP3    H2 1807   1.691   4.274   0.923
  615TIP3   OH2 1808   5.426   2.822   0.072
  615TIP3    H1 1809   5.470   2.904   0.047
  615TIP3    H2 1810   5.496   2.766   0.103
  616TIP3   OH2 1811   1.689   5.162   5.047
  616TIP3    H1 1812   1.627   5.208   5.104
  616TIP3    H2 1813   1.679   5.204   4.962
  617TIP3   OH2 1814   6.223   3.825   4.167
  617TIP3    H1 1815   6.222   3.747   4.221
  617TIP3    H2 1816   6.200   3.896   4.227
  618TIP3   OH2 1817   0.747   0.275   3.822
  618TIP3    H1 1818   0.739   0.204   3.758
  618TIP3    H2 1819   0.841   0.284   3.836
  619TIP3   OH2 1820   1.041   2.176   2.316
  619TIP3    H1 1821   1.073   2.264   2.337
  619TIP3    H2 1822   0.987   2.190   2.238
  620TIP3   OH2 1823   1.936   2.300   4.613
  620TIP3    H1 1824   2.010   2.266   4.562
  620TIP3    H2 1825   1.859   2.276   4.561
  621TIP3   OH2 1826   5.616   6.783   5.734
  621TIP3    H1 1827   5.591   6.753   5.647
  621TIP3    H2 1828   5.659   6.708   5.774
  622TIP3   OH2 1829   4.176   3.866   2.049
  622TIP3    H1 1830   4.248   3.853   2.112
  622TIP3    H2 1831   4.140   3.952   2.072
  623TIP3   OH2 1832   7.203   1.472   3.342
  623TIP3    H1 1833   7.137   1.540   3.355
  623TIP3    H2 1834   7.190   1.443   3.251
  624TIP3   OH2 1835   3.875   3.863   3.520
  624TIP3    H1 1836   3.791   3.896   3.488
  624TIP3    H2 1837   3.871   3.769   3.507
  625TIP3   OH2 1838   1.935   0.144   4.853
  625TIP3    H1 1839   1.955   0.151   4.947
  625TIP3    H2 1840   1.941   0.233   4.820
  626TIP3   OH2 1841   1.450   3.880   0.756
  626TIP3    H1 1842   1.375   3.849   0.807
  626TIP3    H2 1843   1.424   3.867   0.665
  627TIP3   OH2 1844   3.912   3.193   4.690
  627TIP3    H1 1845   3.877   3.237   4.768
  627TIP3    H2 1846   3.924   3.102   4.717
  628TIP3   OH2 1847   5.215   2.961   0.675
  628TIP3    H1 1848   5.159   2.906   0.730
  628TIP3    H2 1849   5.191   2.937   0.586
  629TIP3   OH2 1850   2.884   0.190   3.948
  629TIP3    H1 1851   2.822   0.156   3.884
  629TIP3    H2 1852   2.967   0.197   3.900
  630TIP3   OH2 1853   0.790   2.925   3.618
  630TIP3    H1 1854   0.735   2.846   3.612
  630TIP3    H2 1855   0.844   2.911   3.695
  631TIP3   OH2 1856   5.019   5.521   1.730
  631TIP3    H1 1857   4.987   5.530   1.820
  631TIP3    H2 1858   4.981   5.596   1.684
  632TIP3   OH2 1859   2.809   3.523   0.971
  632TIP3    H1 1860   2.856   3.606   0.968
  632TIP3    H2 1861   2.838   3.475   0.893
  633TIP3   OH2 1862   5.766   5.055   4.456
  633TIP3    H1 1863   5.735   4.965   4.467
  633TIP3    H2 1864   5.858   5.045   4.429
  634TIP3   OH2 1865   5.846   5.196   0.123
  634TIP3    H1 1866   5.812   5.128   0.064
  634TIP3    H2 1867   5.895   5.254   0.066
  635TIP3   OH2 1868   2.577   4.159   4.473
  635TIP3    H1 1869   2.526   4.150   4.393
  635TIP3    H2 1870   2.665   4.130   4.448
  636TIP3   OH2 1871   5.325   3.168   4.190
  636TIP3    H1 1872   5.303   3.206   4.105
  636TIP3    H2 1873   5.244   3.126   4.219
  637TIP3   OH2 1874   1.246   0.171   5.776
  637TIP3    H1 1875   1.228   0.078   5.765
  637TIP3    H2 1876   1.160   0.211   5.789
  638TIP3   OH2 1877   2.288   1.858   4.291
  638TIP3    H1 1878   2.236   1.777   4.286
  638TIP3    H2 1879   2.317   1.863   4.382
  639TIP3   OH2 1880   4.672   2.678   5.168
  639TIP3    H1 1881   4.682   2.671   5.263
  639TIP3    H2 1882   4.715   2.760   5.145
  640TIP3   OH2 1883   6.237   0.466   3.109
  640TIP3    H1 1884   6.235   0.387   3.056
  640TIP3    H2 1885   6.208   0.535   3.049
  641TIP3   OH2 1886   0.042   3.376   0.490
  641TIP3    H1 1887  -0.027   3.433   0.456
  641TIP3    H2 1888   0.123   3.420   0.466
  642TIP3   OH2 1889   6.315   3.582   2.231
  642TIP3    H1 1890   6.377   3.529   2.181
  642TIP3    H2 1891   6.318   3.546   2.319
  643TIP3   OH2 1892  -0.014   2.492   1.169
  643TIP3    H1 1893   0.048   2.452   1.108
  643TIP3    H2 1894   0.016   2.464   1.255
  644TIP3   OH2 1895   1.163   6.624   2.509
  644TIP3    H1 1896   1.154   6.718   2.489
  644TIP3    H2 1897   1.074   6.595   2.527
  645TIP3   OH2 1898   6.565   6.138   2.478
  645TIP3    H1 1899   6.570   6.099   2.391
  645TIP3    H2 1900   6.503   6.210   2.469
  646TIP3   OH2 1901   0.053   3.897   2.362
  646TIP3    H1 1902   0.146   3.875   2.367
  646TIP3    H2 1903   0.041   3.965   2.429
  647TIP3   OH2 1904   1.984   0.709   4.775
  647TIP3    H1 1905   1.993   0.672   4.863
  647TIP3    H2 1906   1.913   0.772   4.783
  648TIP3   OH2 1907   3.964   1.242   0.360
  648TIP3    H1 1908   3.912   1.228   0.439
  648TIP3    H2 1909   3.910   1.300   0.306
  649TIP3   OH2 1910   1.879   4.333   5.039
  649TIP3    H1 1911   1.807   4.395   5.045
  649TIP3    H2 1912   1.881   4.307   4.946
  650TIP3   OH2 1913   4.469   4.158   0.951
  650TIP3    H1 1914   4.379   4.127   0.953
  650TIP3    H2 1915   4.520   4.081   0.924
  651TIP3   OH2 1916   3.761   1.274   3.055
  651TIP3    H1 1917   3.688   1.336   3.047
  651TIP3    H2 1918   3.755   1.241   3.145
  652TIP3   OH2 1919   5.322   3.305   3.118
  652TIP3    H1 1920   5.372   3.229   3.149
  652TIP3    H2 1921   5.265   3.328   3.191
  653TIP3   OH2 1922   7.084   5.987   5.770
  653TIP3    H1 1923   7.117   5.967   5.858
  653TIP3    H2 1924   7.007   5.930   5.760
  654TIP3   OH2 1925   0.879   4.477   3.092
  654TIP3    H1 1926   0.905   4.466   3.001
  654TIP3    H2 1927   0.894   4.570   3.110
  655TIP3   OH2 1928   3.644   2.018   0.865
  655TIP3    H1 1929   3.717   2.060   0.911
  655TIP3    H2 1930   3.625   2.076   0.791
  656TIP3   OH2 1931   7.127   1.018   0.992
  656TIP3    H1 1932   7.142   0.940   0.938
  656TIP3    H2 1933   7.214   1.055   1.006
  657TIP3   OH2 1934   4.749   6.335   5.456
  657TIP3    H1 1935   4.792   6.411   5.495
  657TIP3    H2 1936   4.679   6.314   5.517
  658TIP3   OH2 1937   5.499   0.613   4.951
  658TIP3    H1 1938   5.468   0.647   5.035
  658TIP3    H2 1939   5.527   0.690   4.902
  659TIP3   OH2 1940   5.122   6.470   1.160
  659TIP3    H1 1941   5.039   6.470   1.112
  659TIP3    H2 1942   5.180   6.415   1.108
  660TIP3   OH2 1943   2.404   3.067   3.866
  660TIP3    H1 1944   2.385   3.148   3.913
  660TIP3    H2 1945   2.451   3.095   3.787
  661TIP3   OH2 1946   6.979   4.141   1.130
  661TIP3    H1 1947   6.900   4.191   1.110
  661TIP3    H2 1948   6.999   4.093   1.049
  662TIP3   OH2 1949   4.440   1.862   1.497
  662TIP3    H1 1950   4.459   1.915   1.575
  662TIP3    H2 1951   4.398   1.924   1.437
  663TIP3   OH2 1952   0.249   5.788   1.877
  663TIP3    H1 1953   0.181   5.776   1.811
  663TIP3    H2 1954   0.326   5.746   1.840
  664TIP3   OH2 1955   0.029   1.262   4.971
  664TIP3    H1 1956   0.059   1.232   5.057
  664TIP3    H2 1957   0.082   1.211   4.908
  665TIP3   OH2 1958   4.101   0.701   3.639
  665TIP3    H1 1959   4.140   0.617   3.665
  665TIP3    H2 1960   4.029   0.677   3.581
  666TIP3   OH2 1961   6.613   3.625   0.946
  666TIP3    H1 1962   6.691   3.606   0.893
  666TIP3    H2 1963   6.630   3.583   1.030
  667TIP3   OH2 1964   4.683   6.505   4.068
  667TIP3    H1 1965   4.637   6.440   4.015
  667TIP3    H2 1966   4.754   6.456   4.110
  668TIP3   OH2 1967   2.980   5.858   2.380
  668TIP3    H1 1968   3.059   5.886   2.334
  668TIP3    H2 1969   2.914   5.923   2.357
  669TIP3   OH2 1970   4.090   5.297   2.348
  669TIP3    H1 1971   4.006   5.340   2.337
  669TIP3    H2 1972   4.094   5.233   2.277
  670TIP3   OH2 1973   5.195   4.547   2.204
  670TIP3    H1 1974   5.177   4.638   2.183
  670TIP3    H2 1975   5.165   4.498   2.128
  671TIP3   OH2 1976   6.299   0.791   2.778
  671TIP3    H1 1977   6.314   0.854   2.708
  671TIP3    H2 1978   6.243   0.838   2.841
  672TIP3   OH2 1979   3.975   3.589   3.558
  672TIP3    H1 1980   4.052   3.592   3.614
  672TIP3    H2 1981   3.902   3.606   3.617
  673TIP3   OH2 1982   1.171   4.929   1.061
  673TIP3    H1 1983   1.096   4.931   1.002
  673TIP3    H2 1984   1.245   4.955   1.006
  674TIP3   OH2 1985   5.823   2.779   2.886
  674TIP3    H1 1986   5.856   2.773   2.796
  674TIP3    H2 1987   5.756   2.847   2.882
  675TIP3   OH2 1988   6.020   5.664   1.347
  675TIP3    H1 1989   5.968   5.727   1.398
  675TIP3    H2 1990   5.958   5.594   1.326
  676TIP3   OH2 1991   2.634   5.691   1.586
  676TIP3    H1 1992   2.684   5.772   1.601
  676TIP3    H2 1993   2.697   5.632   1.544
  677TIP3   OH2 1994   0.525   6.185   3.106
  677TIP3    H1 1995   0.611   6.152   3.129
  677TIP3    H2 1996   0.465   6.142   3.168
  678TIP3   OH2 1997   1.284   4.207   5.742
  678TIP3    H1 1998   1.299   4.190   5.835
  678TIP3    H2 1999   1.257   4.122   5.706
  679TIP3   OH2 2000   1.881   5.405   5.051
  679TIP3    H1 2001   1.857   5.494   5.079
  679TIP3    H2 2002   1.846   5.348   5.119
  680TIP3   OH2 2003   7.166   3.278   3.578
  680TIP3    H1 2004   7.168   3.369   3.608
  680TIP3    H2 2005   7.089   3.274   3.520
  681TIP3   OH2 2006   4.877   2.877   2.125
  681TIP3    H1 2007   4.824   2.955   2.141
  681TIP3    H2 2008   4.939   2.874   2.198
  682TIP3   OH2 2009   5.285   1.814   3.527
  682TIP3    H1 2010   5.302   1.743   3.590
  682TIP3    H2 2011   5.362   1.871   3.535
  683TIP3   OH2 2012   0.917   3.648   1.847
  683TIP3    H1 2013   0.823   3.664   1.856
  683TIP3    H2 2014   0.925   3.590   1.771
  684TIP3   OH2 2015   2.529   5.936   5.581
  684TIP3    H1 2016   2.621   5.909   5.594
  684TIP3    H2 2017   2.481   5.853   5.577
  685TIP3   OH2 2018   5.154   6.203   3.678
  685TIP3    H1 2019   5.245   6.232   3.669
  685TIP3    H2 2020   5.130   6.172   3.590
  686TIP3   OH2 2021   6.737   0.627   0.127
  686TIP3    H1 2022   6.795   0.697   0.158
  686TIP3    H2 2023   6.656   0.640   0.177
  687TIP3   OH2 2024   4.658   4.937   5.023
  687TIP3    H1 2025   4.737   4.961   5.072
  687TIP3    H2 2026   4.663   4.842   5.014
  688TIP3   OH2 2027   5.751   6.070   2.639
  688TIP3    H1 2028   5.830   6.096   2.591
  688TIP3    H2 2029   5.773   6.083   2.731
  689TIP3   OH2 2030   3.210   5.027   0.180
  689TIP3    H1 2031   3.130   5.071   0.209
  689TIP3    H2 2032   3.215   5.046   0.086
  690TIP3   OH2 2033   4.971   1.863   3.054
  690TIP3    H1 2034   4.948   1.853   2.962
  690TIP3    H2 2035   5.006   1.777   3.080
  691TIP3   OH2 2036   3.209   3.445   2.946
  691TIP3    H1 2037   3.179   3.354   2.940
  691TIP3    H2 2038   3.200   3.467   3.038
  692TIP3   OH2 2039   6.521   6.655   4.018
  692TIP3    H1 2040   6.540   6.568   3.983
  692TIP3    H2 2041   6.599   6.678   4.069
  693TIP3   OH2 2042   5.901   3.468   2.792
  693TIP3    H1 2043   5.951   3.427   2.863
  693TIP3    H2 2044   5.864   3.394   2.743
  694TIP3   OH2 2045   1.318   1.428   4.381
  694TIP3    H1 2046   1.396   1.426   4.437
  694TIP3    H2 2047   1.335   1.362   4.314
  695TIP3   OH2 2048   6.986   0.814   5.353
  695TIP3    H1 2049   6.984   0.719   5.340
  695TIP3    H2 2050   6.926   0.829   5.426
  696TIP3   OH2 2051   0.599   0.148   5.869
  696TIP3    H1 2052   0.620   0.237   5.842
  696TIP3    H2 2053   0.668   0.094   5.830
  697TIP3   OH2 2054   2.677   0.276   3.313
  697TIP3    H1 2055   2.732   0.209   3.273
  697TIP3    H2 2056   2.711   0.285   3.402
  698TIP3   OH2 2057   3.467   6.646   0.733
  698TIP3    H1 2058   3.543   6.589   0.740
  698TIP3    H2 2059   3.448   6.649   0.639
  699TIP3   OH2 2060   6.043   5.919   3.309
  699TIP3    H1 2061   6.061   5.826   3.296
  699TIP3    H2 2062   6.043   5.930   3.404
  700TIP3   OH2 2063   0.640   4.088   2.629
  700TIP3    H1 2064   0.564   4.116   2.578
  700TIP3    H2 2065   0.610   4.010   2.676
  701TIP3   OH2 2066   2.711   4.186   2.806
  701TIP3    H1 2067   2.656   4.108   2.798
  701TIP3    H2 2068   2.654   4.251   2.848
  702TIP3   OH2 2069   0.389   4.016   5.197
  702TIP3    H1 2070   0.422   3.934   5.234
  702TIP3    H2 2071   0.317   3.990   5.140
  703TIP3   OH2 2072   2.960   1.516   1.431
  703TIP3    H1 2073   2.895   1.503   1.363
  703TIP3    H2 2074   3.009   1.434   1.435
  704TIP3   OH2 2075   4.095   6.027   0.352
  704TIP3    H1 2076   4.179   6.057   0.387
  704TIP3    H2 2077   4.040   6.014   0.429
  705TIP3   OH2 2078   5.375   0.523   2.817
  705TIP3    H1 2079   5.457   0.478   2.835
  705TIP3    H2 2080   5.391   0.614   2.843
  706TIP3   OH2 2081   3.906   0.408   1.098
  706TIP3    H1 2082   3.822   0.449   1.119
  706TIP3    H2 2083   3.895   0.317   1.126
  707TIP3   OH2 2084   3.437   3.820   1.247
  707TIP3    H1 2085   3.481   3.866   1.175
  707TIP3    H2 2086   3.443   3.727   1.223
  708TIP3   OH2 2087   6.884   1.297   5.673
  708TIP3    H1 2088   6.926   1.383   5.674
  708TIP3    H2 2089   6.863   1.279   5.764
  709TIP3   OH2 2090   5.801   1.988   4.563
  709TIP3    H1 2091   5.892   1.981   4.533
  709TIP3    H2 2092   5.804   1.961   4.655
  710TIP3   OH2 2093   0.130   0.948   5.784
  710TIP3    H1 2094   0.111   1.006   5.857
  710TIP3    H2 2095   0.085   0.866   5.806
  711TIP3   OH2 2096   3.268   5.667   1.383
  711TIP3    H1 2097   3.273   5.756   1.349
  711TIP3    H2 2098   3.310   5.671   1.469
  712TIP3   OH2 2099   1.047   1.638   0.287
  712TIP3    H1 2100   1.009   1.589   0.360
  712TIP3    H2 2101   0.973   1.685   0.249
  713TIP3   OH2 2102   0.634   6.126   5.330
  713TIP3    H1 2103   0.684   6.134   5.411
  713TIP3    H2 2104   0.566   6.193   5.336
  714TIP3   OH2 2105   4.331   1.220   1.128
  714TIP3    H1 2106   4.285   1.173   1.058
  714TIP3    H2 2107   4.422   1.190   1.121
  715TIP3   OH2 2108   2.779   2.205   4.618
  715TIP3    H1 2109   2.796   2.135   4.681
  715TIP3    H2 2110   2.748   2.278   4.672
  716TIP3   OH2 2111   3.445   2.516   2.746
  716TIP3    H1 2112   3.537   2.490   2.746
  716TIP3    H2 2113   3.434   2.567   2.826
  717TIP3   OH2 2114   1.705   6.392   0.479
  717TIP3    H1 2115   1.752   6.424   0.402
  717TIP3    H2 2116   1.631   6.342   0.442
  718TIP3   OH2 2117   5.309   0.905   3.282
  718TIP3    H1 2118   5.363   0.902   3.203
  718TIP3    H2 2119   5.314   0.996   3.311
  719TIP3   OH2 2120   7.093   6.531   4.901
  719TIP3    H1 2121   7.123   6.549   4.990
  719TIP3    H2 2122   7.116   6.439   4.886
  720TIP3   OH2 2123   4.244   4.011   1.004
  720TIP3    H1 2124   4.264   3.918   1.005
  720TIP3    H2 2125   4.166   4.020   1.058
  721TIP3   OH2 2126   5.123   0.259   5.005
  721TIP3    H1 2127   5.177   0.308   4.942
  721TIP3    H2 2128   5.039   0.303   5.005
  722TIP3   OH2 2129   5.201   4.086   2.579
  722TIP3    H1 2130   5.194   3.991   2.572
  722TIP3    H2 2131   5.138   4.110   2.648
  723TIP3   OH2 2132   2.906   2.326   1.949
  723TIP3    H1 2133   2.875   2.331   1.858
  723TIP3    H2 2134   2.910   2.233   1.968
  724TIP3   OH2 2135   6.159   4.192   1.003
  724TIP3    H1 2136   6.170   4.100   1.028
  724TIP3    H2 2137   6.247   4.230   1.012
  725TIP3   OH2 2138   3.433   4.775   1.011
  725TIP3    H1 2139   3.478   4.714   1.069
  725TIP3    H2 2140   3.502   4.810   0.955
  726TIP3   OH2 2141   5.953   3.429   3.672
  726TIP3    H1 2142   5.880   3.487   3.696
  726TIP3    H2 2143   6.018   3.442   3.741
  727TIP3   OH2 2144   1.956   6.074   3.325
  727TIP3    H1 2145   1.922   6.160   3.347
  727TIP3    H2 2146   1.994   6.085   3.238
  728TIP3   OH2 2147   0.458   1.648   5.699
  728TIP3    H1 2148   0.403   1.694   5.635
  728TIP3    H2 2149   0.396   1.596   5.751
  729TIP3   OH2 2150   1.276   1.684   0.105
  729TIP3    H1 2151   1.314   1.598   0.085
  729TIP3    H2 2152   1.200   1.665   0.160
  730TIP3   OH2 2153   0.588   6.040   2.833
  730TIP3    H1 2154   0.609   6.020   2.924
  730TIP3    H2 2155   0.563   5.956   2.795
  731TIP3   OH2 2156   2.483   0.555   5.074
  731TIP3    H1 2157   2.452   0.619   5.010
  731TIP3    H2 2158   2.533   0.492   5.023
  732TIP3   OH2 2159   2.471   1.419   0.849
  732TIP3    H1 2160   2.429   1.494   0.808
  732TIP3    H2 2161   2.504   1.453   0.932
  733TIP3   OH2 2162   6.893   0.949   3.038
  733TIP3    H1 2163   6.863   0.872   2.989
  733TIP3    H2 2164   6.945   0.913   3.109
  734TIP3   OH2 2165   4.420   5.806   0.689
  734TIP3    H1 2166   4.404   5.746   0.761
  734TIP3    H2 2167   4.398   5.892   0.723
  735TIP3   OH2 2168   4.141   3.550   5.308
  735TIP3    H1 2169   4.071   3.593   5.258
  735TIP3    H2 2170   4.210   3.616   5.313
  736TIP3   OH2 2171   7.160   3.023   3.699
  736TIP3    H1 2172   7.223   2.973   3.647
  736TIP3    H2 2173   7.176   3.114   3.675
  737TIP3   OH2 2174   2.714   0.985   0.353
  737TIP3    H1 2175   2.746   0.964   0.441
  737TIP3    H2 2176   2.674   0.903   0.323
  738TIP3   OH2 2177   1.585   1.584   1.963
  738TIP3    H1 2178   1.535   1.608   2.040
  738TIP3    H2 2179   1.588   1.664   1.910
  739TIP3   OH2 2180   2.504   1.988   2.929
  739TIP3    H1 2181   2.498   2.081   2.906
  739TIP3    H2 2182   2.571   1.985   2.997
  740TIP3   OH2 2183   1.540   4.757   0.805
  740TIP3    H1 2184   1.507   4.669   0.825
  740TIP3    H2 2185   1.631   4.743   0.781
  741TIP3   OH2 2186   0.458   0.975   2.341
  741TIP3    H1 2187   0.520   0.906   2.316
  741TIP3    H2 2188   0.402   0.985   2.264
  742TIP3   OH2 2189   5.878   4.268   3.461
  742TIP3    H1 2190   5.900   4.357   3.486
  742TIP3    H2 2191   5.950   4.240   3.405
  743TIP3   OH2 2192   2.963   4.546   4.918
  743TIP3    H1 2193   2.899   4.596   4.867
  743TIP3    H2 2194   2.919   4.529   5.001
  744TIP3   OH2 2195   5.313   6.733   0.763
  744TIP3    H1 2196   5.331   6.797   0.832
  744TIP3    H2 2197   5.224   6.703   0.781
  745TIP3   OH2 2198   0.892   0.705   0.067
  745TIP3    H1 2199   0.888   0.629   0.124
  745TIP3    H2 2200   0.838   0.682  -0.009
  746TIP3   OH2 2201   6.382   5.937   4.683
  746TIP3    H1 2202   6.437   6.002   4.728
  746TIP3    H2 2203   6.294   5.953   4.717
  747TIP3   OH2 2204   3.264   6.518   3.781
  747TIP3    H1 2205   3.344   6.466   3.787
  747TIP3    H2 2206   3.241   6.516   3.688
  748TIP3   OH2 2207   4.968   0.550   1.713
  748TIP3    H1 2208   4.906   0.507   1.656
  748TIP3    H2 2209   4.916   0.614   1.762
  749TIP3   OH2 2210   0.096   6.137   2.741
  749TIP3    H1 2211   0.169   6.138   2.803
  749TIP3    H2 2212   0.136   6.118   2.656
  750TIP3   OH2 2213   4.292   5.732   1.834
  750TIP3    H1 2214   4.351   5.789   1.884
  750TIP3    H2 2215   4.276   5.780   1.752
  751TIP3   OH2 2216   6.351   0.754   1.662
  751TIP3    H1 2217   6.281   0.749   1.597
  751TIP3    H2 2218   6.306   0.752   1.746
  752TIP3   OH2 2219   4.426   1.712   3.305
  752TIP3    H1 2220   4.487   1.785   3.293
  752TIP3    H2 2221   4.347   1.752   3.341
  753TIP3   OH2 2222   2.461   1.525   3.539
  753TIP3    H1 2223   2.471   1.456   3.474
  753TIP3    H2 2224   2.472   1.481   3.623
  754TIP3   OH2 2225   4.225   5.025   5.875
  754TIP3    H1 2226   4.209   5.085   5.948
  754TIP3    H2 2227   4.293   5.069   5.823
  755TIP3   OH2 2228   6.844   4.275   5.462
  755TIP3    H1 2229   6.803   4.193   5.433
  755TIP3    H2 2230   6.871   4.319   5.382
  756TIP3   OH2 2231   2.861   6.014   3.119
  756TIP3    H1 2232   2.832   6.104   3.131
  756TIP3    H2 2233   2.948   6.011   3.158
  757TIP3   OH2 2234   6.239   4.945   5.837
  757TIP3    H1 2235   6.263   5.035   5.817
  757TIP3    H2 2236   6.298   4.892   5.782
  758TIP3   OH2 2237   1.473   5.303   0.357
  758TIP3    H1 2238   1.408   5.306   0.428
  758TIP3    H2 2239   1.551   5.265   0.398
  759TIP3   OH2 2240   2.100   1.932   5.592
  759TIP3    H1 2241   2.081   1.867   5.659
  759TIP3    H2 2242   2.176   1.898   5.546
  760TIP3   OH2 2243   3.027   6.276   5.676
  760TIP3    H1 2244   3.037   6.259   5.583
  760TIP3    H2 2245   2.936   6.253   5.696
  761TIP3   OH2 2246   1.701   2.102   1.867
  761TIP3    H1 2247   1.643   2.155   1.922
  761TIP3    H2 2248   1.644   2.066   1.799
  762TIP3   OH2 2249   2.989   2.080   0.459
  762TIP3    H1 2250   3.056   2.143   0.483
  762TIP3    H2 2251   2.918   2.133   0.422
  763TIP3   OH2 2252   3.188   4.828   4.669
  763TIP3    H1 2253   3.136   4.767   4.617
  763TIP3    H2 2254   3.206   4.781   4.751
  764TIP3   OH2 2255   7.123   3.929   1.801
  764TIP3    H1 2256   7.158   3.945   1.889
  764TIP3    H2 2257   7.035   3.893   1.817
  765TIP3   OH2 2258   6.522   1.534   0.556
  765TIP3    H1 2259   6.480   1.449   0.539
  765TIP3    H2 2260   6.524   1.541   0.652
  766TIP3   OH2 2261   3.857   3.360   3.464
  766TIP3    H1 2262   3.898   3.446   3.473
  766TIP3    H2 2263   3.803   3.350   3.542
  767TIP3   OH2 2264   3.373   1.687   3.831
  767TIP3    H1 2265   3.356   1.761   3.890
  767TIP3    H2 2266   3.469   1.681   3.828
  768TIP3   OH2 2267   0.777   6.106   0.068
  768TIP3    H1 2268   0.682   6.100   0.057
  768TIP3    H2 2269   0.801   6.026   0.113
  769TIP3   OH2 2270   2.051   4.977  -0.026
  769TIP3    H1 2271   2.009   4.933   0.048
  769TIP3    H2 2272   1.980   5.024  -0.069
  770TIP3   OH2 2273   0.463   1.839   1.903
  770TIP3    H1 2274   0.510   1.919   1.881
  770TIP3    H2 2275   0.517   1.769   1.868
  771TIP3   OH2 2276   4.455   6.384   4.385
  771TIP3    H1 2277   4.474   6.473   4.357
  771TIP3    H2 2278   4.377   6.392   4.440
  772TIP3   OH2 2279   4.085   6.159   3.196
  772TIP3    H1 2280   4.074   6.174   3.102
  772TIP3    H2 2281   4.147   6.086   3.201
  773TIP3   OH2 2282   5.585   6.312   0.144
  773TIP3    H1 2283   5.512   6.278   0.196
  773TIP3    H2 2284   5.553   6.310   0.054
  774TIP3   OH2 2285   6.620   1.329   1.247
  774TIP3    H1 2286   6.567   1.256   1.215
  774TIP3    H2 2287   6.619   1.392   1.175
  775TIP3   OH2 2288   6.051   0.237   5.731
  775TIP3    H1 2289   6.038   0.142   5.729
  775TIP3    H2 2290   6.079   0.255   5.821
  776TIP3   OH2 2291   5.879   0.325   3.113
  776TIP3    H1 2292   5.907   0.335   3.022
  776TIP3    H2 2293   5.899   0.234   3.135
  777TIP3   OH2 2294   1.670   2.041   5.152
  777TIP3    H1 2295   1.681   2.019   5.245
  777TIP3    H2 2296   1.704   2.130   5.145
  778TIP3   OH2 2297   5.040   4.888   4.866
  778TIP3    H1 2298   4.966   4.869   4.808
  778TIP3    H2 2299   5.051   4.983   4.860
  779TIP3   OH2 2300   0.076   4.354   2.703
  779TIP3    H1 2301   0.154   4.337   2.650
  779TIP3    H2 2302   0.035   4.429   2.660
  780TIP3   OH2 2303   0.399   4.888   0.274
  780TIP3    H1 2304   0.357   4.843   0.201
  780TIP3    H2 2305   0.438   4.818   0.326
  781TIP3   OH2 2306   5.853   6.654   0.590
  781TIP3    H1 2307   5.868   6.568   0.551
  781TIP3    H2 2308   5.759   6.658   0.605
  782TIP3   OH2 2309   2.331   0.411   2.220
  782TIP3    H1 2310   2.396   0.374   2.280
  782TIP3    H2 2311   2.317   0.500   2.252
  783TIP3   OH2 2312   4.893   6.193   1.065
  783TIP3    H1 2313   4.899   6.287   1.050
  783TIP3    H2 2314   4.830   6.162   1.001
  784TIP3   OH2 2315   1.312   3.520   3.109
  784TIP3    H1 2316   1.358   3.454   3.161
  784TIP3    H2 2317   1.378   3.553   3.048
  785TIP3   OH2 2318   0.514   3.374   0.935
  785TIP3    H1 2319   0.585   3.311   0.920
  785TIP3    H2 2320   0.437   3.319   0.952
  786TIP3   OH2 2321   6.872   0.425   5.891
  786TIP3    H1 2322   6.802   0.381   5.842
  786TIP3    H2 2323   6.918   0.354   5.936
  787TIP3   OH2 2324   2.206   2.190   0.711
  787TIP3    H1 2325   2.136   2.243   0.748
  787TIP3    H2 2326   2.276   2.193   0.776
  788TIP3   OH2 2327   6.424   1.938   0.518
  788TIP3    H1 2328   6.404   2.025   0.551
  788TIP3    H2 2329   6.406   1.942   0.425
  789TIP3   OH2 2330   4.413   4.666   0.168
  789TIP3    H1 2331   4.459   4.582   0.160
  789TIP3    H2 2332   4.410   4.683   0.262
  790TIP3   OH2 2333   7.089   4.899   0.056
  790TIP3    H1 2334   7.035   4.956   0.110
  790TIP3    H2 2335   7.096   4.818   0.106
  791TIP3   OH2 2336   0.687   4.516   5.711
  791TIP3    H1 2337   0.767   4.569   5.710
  791TIP3    H2 2338   0.703   4.448   5.645
  792TIP3   OH2 2339   4.560   1.776   2.212
  792TIP3    H1 2340   4.599   1.860   2.232
  792TIP3    H2 2341   4.593   1.754   2.124
  793TIP3   OH2 2342   0.324   4.580   5.025
  793TIP3    H1 2343   0.308   4.486   5.020
  793TIP3    H2 2344   0.252   4.615   5.077
  794TIP3   OH2 2345   1.540   4.997   4.742
  794TIP3    H1 2346   1.527   5.064   4.809
  794TIP3    H2 2347   1.616   4.947   4.771
  795TIP3   OH2 2348   5.464   5.145   5.242
  795TIP3    H1 2349   5.400   5.075   5.253
  795TIP3    H2 2350   5.547   5.106   5.270
  796TIP3   OH2 2351   5.677   2.098   5.351
  796TIP3    H1 2352   5.749   2.057   5.303
  796TIP3    H2 2353   5.710   2.184   5.375
  797TIP3   OH2 2354   6.760   2.696   3.080
  797TIP3    H1 2355   6.825   2.761   3.106
  797TIP3    H2 2356   6.732   2.724   2.993
  798TIP3   OH2 2357   5.599   0.982   5.793
  798TIP3    H1 2358   5.515   1.028   5.804
  798TIP3    H2 2359   5.643   1.031   5.723
  799TIP3   OH2 2360   7.172   3.332   1.148
  799TIP3    H1 2361   7.100   3.385   1.181
  799TIP3    H2 2362   7.200   3.279   1.223
  800TIP3   OH2 2363   5.661   0.829   0.019
  800TIP3    H1 2364   5.603   0.893   0.060
  800TIP3    H2 2365   5.608   0.788  -0.049
  801TIP3   OH2 2366   6.790   1.992   0.388
  801TIP3    H1 2367   6.726   1.932   0.350
  801TIP3    H2 2368   6.861   1.996   0.324
  802TIP3   OH2 2369   4.849   1.675   4.159
  802TIP3    H1 2370   4.870   1.589   4.196
  802TIP3    H2 2371   4.933   1.722   4.160
  803TIP3   OH2 2372   1.003   5.918   5.642
  803TIP3    H1 2373   1.002   5.848   5.576
  803TIP3    H2 2374   1.049   5.990   5.600
  804TIP3   OH2 2375   6.759   2.043   1.942
  804TIP3    H1 2376   6.790   2.126   1.907
  804TIP3    H2 2377   6.673   2.031   1.902
  805TIP3   OH2 2378   3.942   2.345   0.155
  805TIP3    H1 2379   3.963   2.415   0.217
  805TIP3    H2 2380   3.962   2.264   0.203
  806TIP3   OH2 2381   1.043   5.426   1.235
  806TIP3    H1 2382   1.131   5.431   1.199
  806TIP3    H2 2383   1.018   5.518   1.249
  807TIP3   OH2 2384   4.822   4.089   2.117
  807TIP3    H1 2385   4.815   4.078   2.022
  807TIP3    H2 2386   4.915   4.103   2.132
  808TIP3   OH2 2387   3.830   5.174   1.357
  808TIP3    H1 2388   3.876   5.130   1.286
  808TIP3    H2 2389   3.873   5.142   1.436
  809TIP3   OH2 2390   7.044   0.171   2.634
  809TIP3    H1 2391   7.115   0.136   2.688
  809TIP3    H2 2392   7.021   0.254   2.675
  810TIP3   OH2 2393   1.457   4.108   1.394
  810TIP3    H1 2394   1.393   4.040   1.414
  810TIP3    H2 2395   1.497   4.079   1.312
  811TIP3   OH2 2396   0.268   5.952   3.105
  811TIP3    H1 2397   0.236   5.865   3.129
  811TIP3    H2 2398   0.298   5.991   3.188
  812TIP3   OH2 2399   6.711   3.810   4.083
  812TIP3    H1 2400   6.744   3.751   4.151
  812TIP3    H2 2401   6.780   3.813   4.017
  813TIP3   OH2 2402   1.048   1.483   1.608
  813TIP3    H1 2403   1.037   1.547   1.678
  813TIP3    H2 2404   0.977   1.501   1.547
  814TIP3   OH2 2405   2.615   2.509   1.060
  814TIP3    H1 2406   2.637   2.489   1.151
  814TIP3    H2 2407   2.614   2.604   1.056
  815TIP3   OH2 2408   6.323   3.387   4.558
  815TIP3    H1 2409   6.228   3.378   4.568
  815TIP3    H2 2410   6.355   3.298   4.542
  816TIP3   OH2 2411   6.103   2.378   4.527
  816TIP3    H1 2412   6.149   2.345   4.450
  816TIP3    H2 2413   6.010   2.371   4.504
  817TIP3   OH2 2414   5.083   1.622   4.423
  817TIP3    H1 2415   5.144   1.569   4.371
  817TIP3    H2 2416   5.035   1.674   4.358
  818TIP3   OH2 2417   3.426   4.935   5.541
  818TIP3    H1 2418   3.401   4.971   5.456
  818TIP3    H2 2419   3.514   4.901   5.528
  819TIP3   OH2 2420   6.099   4.024   4.351
  819TIP3    H1 2421   6.134   4.001   4.436
  819TIP3    H2 2422   6.017   4.070   4.370
  820TIP3   OH2 2423   4.202   3.737   1.178
  820TIP3    H1 2424   4.286   3.710   1.215
  820TIP3    H2 2425   4.153   3.773   1.252
  821TIP3   OH2 2426   5.733   2.294   4.738
  821TIP3    H1 2427   5.687   2.236   4.798
  821TIP3    H2 2428   5.665   2.351   4.703
  822TIP3   OH2 2429   3.431   1.982   2.183
  822TIP3    H1 2430   3.467   1.912   2.127
  822TIP3    H2 2431   3.490   2.056   2.169
  823TIP3   OH2 2432   2.171   5.154   4.335
  823TIP3    H1 2433   2.097   5.171   4.394
  823TIP3    H2 2434   2.153   5.067   4.299
  824TIP3   OH2 2435   4.213   3.447   1.700
  824TIP3    H1 2436   4.201   3.510   1.629
  824TIP3    H2 2437   4.214   3.501   1.780
  825TIP3   OH2 2438   0.583   6.178   1.461
  825TIP3    H1 2439   0.504   6.176   1.408
  825TIP3    H2 2440   0.655   6.185   1.398
  826TIP3   OH2 2441   4.917   4.783   2.948
  826TIP3    H1 2442   4.827   4.810   2.934
  826TIP3    H2 2443   4.934   4.718   2.880
  827TIP3   OH2 2444   6.958   6.268   3.073
  827TIP3    H1 2445   6.950   6.182   3.032
  827TIP3    H2 2446   6.870   6.288   3.105
  828TIP3   OH2 2447   1.849   6.141   0.520
  828TIP3    H1 2448   1.853   6.113   0.611
  828TIP3    H2 2449   1.784   6.212   0.518
  829TIP3   OH2 2450   4.303   1.884   2.663
  829TIP3    H1 2451   4.244   1.912   2.593
  829TIP3    H2 2452   4.389   1.877   2.620
  830TIP3   OH2 2453   6.731   3.715   5.615
  830TIP3    H1 2454   6.818   3.754   5.621
  830TIP3    H2 2455   6.702   3.706   5.706
  831TIP3   OH2 2456   3.116   3.226   5.640
  831TIP3    H1 2457   3.192   3.217   5.697
  831TIP3    H2 2458   3.132   3.308   5.592
  832TIP3   OH2 2459   4.535   4.396   0.856
  832TIP3    H1 2460   4.525   4.305   0.885
  832TIP3    H2 2461   4.596   4.435   0.919
  833TIP3   OH2 2462   5.199   6.364   0.931
  833TIP3    H1 2463   5.147   6.380   0.853
  833TIP3    H2 2464   5.205   6.269   0.938
  834TIP3   OH2 2465   5.732   4.010   2.765
  834TIP3    H1 2466   5.741   4.049   2.852
  834TIP3    H2 2467   5.753   4.082   2.705
  835TIP3   OH2 2468   6.943   3.009   2.449
  835TIP3    H1 2469   6.853   3.033   2.429
  835TIP3    H2 2470   6.996   3.056   2.385
  836TIP3   OH2 2471   4.047   1.202   1.842
  836TIP3    H1 2472   3.984   1.133   1.863
  836TIP3    H2 2473   4.128   1.155   1.822
  837TIP3   OH2 2474   5.471   5.940   5.853
  837TIP3    H1 2475   5.533   6.011   5.870
  837TIP3    H2 2476   5.472   5.887   5.932
  838TIP3   OH2 2477   0.862   6.510   0.085
  838TIP3    H1 2478   0.952   6.522   0.116
  838TIP3    H2 2479   0.843   6.590   0.036
  839TIP3   OH2 2480   3.066   2.861   0.218
  839TIP3    H1 2481   3.071   2.775   0.259
  839TIP3    H2 2482   3.157   2.884   0.199
  840TIP3   OH2 2483   5.415   6.108   1.338
  840TIP3    H1 2484   5.483   6.175   1.347
  840TIP3    H2 2485   5.350   6.131   1.405
  841TIP3   OH2 2486   2.717   4.425   1.164
  841TIP3    H1 2487   2.668   4.346   1.188
  841TIP3    H2 2488   2.715   4.426   1.068
  842TIP3   OH2 2489   3.432   0.035   2.231
  842TIP3    H1 2490   3.415   0.105   2.293
  842TIP3    H2 2491   3.399   0.068   2.148
  843TIP3   OH2 2492   6.088   0.651   5.032
  843TIP3    H1 2493   6.074   0.570   4.982
  843TIP3    H2 2494   6.173   0.639   5.073
  844TIP3   OH2 2495   3.621   2.535   5.539
  844TIP3    H1 2496   3.669   2.611   5.572
  844TIP3    H2 2497   3.554   2.572   5.482
  845TIP3   OH2 2498   4.169   6.699   4.030
  845TIP3    H1 2499   4.125   6.619   4.061
  845TIP3    H2 2500   4.105   6.768   4.047
  846TIP3   OH2 2501   3.130   1.888   2.784
  846TIP3    H1 2502   3.063   1.821   2.776
  846TIP3    H2 2503   3.082   1.969   2.800
  847TIP3   OH2 2504   5.019   5.168   4.951
  847TIP3    H1 2505   4.990   5.202   4.866
  847TIP3    H2 2506   5.062   5.242   4.994
  848TIP3   OH2 2507   0.129   5.673   1.141
  848TIP3    H1 2508   0.081   5.626   1.073
  848TIP3    H2 2509   0.072   5.746   1.166
  849TIP3   OH2 2510   1.351   4.119   3.968
  849TIP3    H1 2511   1.263   4.095   3.997
  849TIP3    H2 2512   1.376   4.193   4.023
  850TIP3   OH2 2513   5.908   0.381   2.370
  850TIP3    H1 2514   5.831   0.383   2.313
  850TIP3    H2 2515   5.926   0.288   2.382
  851TIP3   OH2 2516   1.014   2.711   1.470
  851TIP3    H1 2517   0.987   2.788   1.520
  851TIP3    H2 2518   1.069   2.661   1.530
  852TIP3   OH2 2519   0.847   2.411   2.052
  852TIP3    H1 2520   0.858   2.316   2.053
  852TIP3    H2 2521   0.796   2.430   2.130
  853TIP3   OH2 2522   3.346   0.781   5.203
  853TIP3    H1 2523   3.403   0.768   5.278
  853TIP3    H2 2524   3.270   0.828   5.239
  854TIP3   OH2 2525   5.412   6.430   2.900
  854TIP3    H1 2526   5.464   6.374   2.842
  854TIP3    H2 2527   5.477   6.478   2.952
  855TIP3   OH2 2528   1.272   6.135   1.070
  855TIP3    H1 2529   1.262   6.102   1.159
  855TIP3    H2 2530   1.231   6.221   1.071
  856TIP3   OH2 2531   5.100   0.740   0.636
  856TIP3    H1 2532   5.069   0.774   0.552
  856TIP3    H2 2533   5.188   0.776   0.646
  857TIP3   OH2 2534   6.095   4.239   0.480
  857TIP3    H1 2535   6.030   4.309   0.485
  857TIP3    H2 2536   6.058   4.177   0.417
  858TIP3   OH2 2537   3.806   4.835   0.512
  858TIP3    H1 2538   3.830   4.771   0.579
  858TIP3    H2 2539   3.841   4.918   0.545
  859TIP3   OH2 2540   1.225   0.410   4.826
  859TIP3    H1 2541   1.174   0.491   4.832
  859TIP3    H2 2542   1.160   0.344   4.802
  860TIP3   OH2 2543   1.350   4.202   3.404
  860TIP3    H1 2544   1.392   4.149   3.336
  860TIP3    H2 2545   1.332   4.140   3.475
  861TIP3   OH2 2546   1.393   5.452   3.440
  861TIP3    H1 2547   1.402   5.482   3.531
  861TIP3    H2 2548   1.468   5.490   3.395
  862TIP3   OH2 2549   3.217   0.965   3.358
  862TIP3    H1 2550   3.293   1.023   3.349
  862TIP3    H2 2551   3.255   0.880   3.383
  863TIP3   OH2 2552   5.436   5.868   1.583
  863TIP3    H1 2553   5.384   5.877   1.503
  863TIP3    H2 2554   5.444   5.774   1.596
  864TIP3   OH2 2555   0.301   2.078   1.226
  864TIP3    H1 2556   0.302   2.123   1.142
  864TIP3    H2 2557   0.214   2.097   1.262
  865TIP3   OH2 2558   6.410   6.284   3.762
  865TIP3    H1 2559   6.414   6.376   3.738
  865TIP3    H2 2560   6.370   6.284   3.850
  866TIP3   OH2 2561   6.351   2.773   5.622
  866TIP3    H1 2562   6.399   2.853   5.643
  866TIP3    H2 2563   6.418   2.706   5.612
  867TIP3   OH2 2564   5.995   0.925   1.723
  867TIP3    H1 2565   6.007   1.001   1.667
  867TIP3    H2 2566   6.000   0.850   1.664
  868TIP3   OH2 2567   0.578   0.269   3.197
  868TIP3    H1 2568   0.579   0.177   3.172
  868TIP3    H2 2569   0.495   0.303   3.164
  869TIP3   OH2 2570   1.619   0.510   0.537
  869TIP3    H1 2571   1.592   0.435   0.590
  869TIP3    H2 2572   1.541   0.565   0.532
  870TIP3   OH2 2573   6.683   3.891   2.683
  870TIP3    H1 2574   6.729   3.951   2.742
  870TIP3    H2 2575   6.598   3.878   2.724
  871TIP3   OH2 2576   6.367   1.931   3.480
  871TIP3    H1 2577   6.337   1.878   3.407
  871TIP3    H2 2578   6.311   2.009   3.477
  872TIP3   OH2 2579   0.080   6.433   1.715
  872TIP3    H1 2580   0.047   6.421   1.626
  872TIP3    H2 2581   0.173   6.413   1.709
  873TIP3   OH2 2582   3.526   2.554   1.637
  873TIP3    H1 2583   3.522   2.484   1.702
  873TIP3    H2 2584   3.564   2.628   1.685
  874TIP3   OH2 2585   5.034   2.236   2.415
  874TIP3    H1 2586   5.112   2.233   2.360
  874TIP3    H2 2587   4.961   2.240   2.354
  875TIP3   OH2 2588   5.952   2.345   0.089
  875TIP3    H1 2589   6.039   2.379   0.110
  875TIP3    H2 2590   5.966   2.286   0.015
  876TIP3   OH2 2591   2.719   0.585   3.385
  876TIP3    H1 2592   2.666   0.631   3.450
  876TIP3    H2 2593   2.664   0.513   3.354
  877TIP3   OH2 2594   3.100   2.994   0.835
  877TIP3    H1 2595   3.066   3.074   0.875
  877TIP3    H2 2596   3.095   2.929   0.905
  878TIP3   OH2 2597   4.798   0.064   3.462
  878TIP3    H1 2598   4.787  -0.026   3.430
  878TIP3    H2 2599   4.878   0.095   3.418
  879TIP3   OH2 2600   4.733   2.346   5.227
  879TIP3    H1 2601   4.731   2.282   5.157
  879TIP3    H2 2602   4.666   2.410   5.203
  880TIP3   OH2 2603   3.260   1.440   3.924
  880TIP3    H1 2604   3.304   1.516   3.886
  880TIP3    H2 2605   3.230   1.471   4.010
  881TIP3   OH2 2606   3.567   2.634   4.911
  881TIP3    H1 2607   3.639   2.662   4.968
  881TIP3    H2 2608   3.506   2.590   4.970
  882TIP3   OH2 2609   5.644   1.883   3.944
  882TIP3    H1 2610   5.563   1.917   3.983
  882TIP3    H2 2611   5.673   1.952   3.884
  883TIP3   OH2 2612   4.316   0.058   4.460
  883TIP3    H1 2613   4.286  -0.011   4.401
  883TIP3    H2 2614   4.256   0.055   4.534
  884TIP3   OH2 2615   0.693   1.728   1.291
  884TIP3    H1 2616   0.609   1.761   1.323
  884TIP3    H2 2617   0.728   1.800   1.238
  885TIP3   OH2 2618   2.313   2.625   3.697
  885TIP3    H1 2619   2.289   2.705   3.744
  885TIP3    H2 2620   2.229   2.583   3.679
  886TIP3   OH2 2621   3.174   2.015   2.260
  886TIP3    H1 2622   3.164   1.929   2.301
  886TIP3    H2 2623   3.266   2.018   2.233
  887TIP3   OH2 2624   3.438   2.506   0.154
  887TIP3    H1 2625   3.428   2.413   0.136
  887TIP3    H2 2626   3.533   2.521   0.151
  888TIP3   OH2 2627   0.314   4.498   0.767
  888TIP3    H1 2628   0.231   4.451   0.759
  888TIP3    H2 2629   0.300   4.559   0.839
  889TIP3   OH2 2630   6.949   0.862   4.108
  889TIP3    H1 2631   7.025   0.863   4.050
  889TIP3    H2 2632   6.905   0.945   4.092
  890TIP3   OH2 2633   5.355   0.641   5.790
  890TIP3    H1 2634   5.292   0.606   5.853
  890TIP3    H2 2635   5.437   0.648   5.840
  891TIP3   OH2 2636   0.361   0.369   2.835
  891TIP3    H1 2637   0.359   0.460   2.804
  891TIP3    H2 2638   0.283   0.329   2.797
  892TIP3   OH2 2639   2.010   6.694   4.683
  892TIP3    H1 2640   2.086   6.645   4.714
  892TIP3    H2 2641   1.946   6.626   4.662
  893TIP3   OH2 2642   1.101   4.611   5.350
  893TIP3    H1 2643   1.065   4.683   5.298
  893TIP3    H2 2644   1.154   4.653   5.417
  894TIP3   OH2 2645   0.170   3.620   5.168
  894TIP3    H1 2646   0.080   3.641   5.141
  894TIP3    H2 2647   0.187   3.534   5.131
  895TIP3   OH2 2648   1.556   4.417   2.593
  895TIP3    H1 2649   1.547   4.365   2.513
  895TIP3    H2 2650   1.650   4.431   2.603
  896TIP3   OH2 2651   5.996   3.958   2.101
  896TIP3    H1 2652   5.958   4.013   2.169
  896TIP3    H2 2653   6.059   3.902   2.148
  897TIP3   OH2 2654   1.067   1.677   3.258
  897TIP3    H1 2655   1.122   1.603   3.282
  897TIP3    H2 2656   0.978   1.641   3.259
  898TIP3   OH2 2657   4.782   4.801   0.600
  898TIP3    H1 2658   4.853   4.743   0.626
  898TIP3    H2 2659   4.719   4.796   0.672
  899TIP3   OH2 2660   4.191   3.618   1.490
  899TIP3    H1 2661   4.113   3.599   1.439
  899TIP3    H2 2662   4.211   3.709   1.470
  900TIP3   OH2 2663   5.570   6.301   1.226
  900TIP3    H1 2664   5.519   6.310   1.146
  900TIP3    H2 2665   5.634   6.232   1.207
  901TIP3   OH2 2666   2.498   6.820   2.784
  901TIP3    H1 2667   2.483   6.726   2.791
  901TIP3    H2 2668   2.479   6.841   2.692
  902TIP3   OH2 2669   2.481   1.529   2.848
  902TIP3    H1 2670   2.484   1.513   2.754
  902TIP3    H2 2671   2.425   1.459   2.882
  903TIP3   OH2 2672   0.516   1.243   0.358
  903TIP3    H1 2673   0.555   1.155   0.364
  903TIP3    H2 2674   0.573   1.290   0.298
  904TIP3   OH2 2675   4.189   6.611   5.650
  904TIP3    H1 2676   4.206   6.519   5.629
  904TIP3    H2 2677   4.276   6.651   5.656
  905TIP3   OH2 2678   1.535   4.909   3.743
  905TIP3    H1 2679   1.608   4.948   3.791
  905TIP3    H2 2680   1.457   4.934   3.792
  906TIP3   OH2 2681   2.029   5.088   1.769
  906TIP3    H1 2682   2.117   5.118   1.792
  906TIP3    H2 2683   1.974   5.164   1.784
  907TIP3   OH2 2684   3.794   1.993   1.562
  907TIP3    H1 2685   3.740   1.964   1.635
  907TIP3    H2 2686   3.780   2.087   1.556
  908TIP3   OH2 2687   3.980   5.095   4.342
  908TIP3    H1 2688   3.925   5.127   4.270
  908TIP3    H2 2689   4.069   5.101   4.309
  909TIP3   OH2 2690   6.790   6.363   1.598
  909TIP3    H1 2691   6.843   6.289   1.625
  909TIP3    H2 2692   6.789   6.421   1.674
  910TIP3   OH2 2693   7.206   0.372   4.548
  910TIP3    H1 2694   7.227   0.438   4.614
  910TIP3    H2 2695   7.253   0.294   4.576
  911TIP3   OH2 2696   0.505   3.996   4.475
  911TIP3    H1 2697   0.508   4.049   4.555
  911TIP3    H2 2698   0.513   3.906   4.505
  912TIP3   OH2 2699   4.354   5.333   3.451
  912TIP3    H1 2700   4.369   5.381   3.532
  912TIP3    H2 2701   4.439   5.329   3.408
  913TIP3   OH2 2702   6.869   3.005   2.709
  913TIP3    H1 2703   6.879   3.024   2.616
  913TIP3    H2 2704   6.907   3.080   2.754
  914TIP3   OH2 2705   2.759   6.024   2.361
  914TIP3    H1 2706   2.690   6.038   2.296
  914TIP3    H2 2707   2.713   6.009   2.443
  915TIP3   OH2 2708   6.116   0.983   2.869
  915TIP3    H1 2709   6.030   0.989   2.911
  915TIP3    H2 2710   6.158   1.066   2.890
  916TIP3   OH2 2711   7.122   6.738   2.481
  916TIP3    H1 2712   7.081   6.816   2.443
  916TIP3    H2 2713   7.198   6.721   2.425
  917TIP3   OH2 2714   1.670   6.604   3.723
  917TIP3    H1 2715   1.760   6.573   3.718
  917TIP3    H2 2716   1.630   6.552   3.792
  918TIP3   OH2 2717   1.732   2.323   0.553
  918TIP3    H1 2718   1.825   2.313   0.532
  918TIP3    H2 2719   1.726   2.297   0.645
  919TIP3   OH2 2720   0.575   0.438   3.679
  919TIP3    H1 2721   0.640   0.381   3.720
  919TIP3    H2 2722   0.538   0.385   3.608
  920TIP3   OH2 2723   4.767   3.780   4.956
  920TIP3    H1 2724   4.704   3.849   4.934
  920TIP3    H2 2725   4.717   3.717   5.008
  921TIP3   OH2 2726   5.210   6.753   2.262
  921TIP3    H1 2727   5.240   6.689   2.198
  921TIP3    H2 2728   5.149   6.808   2.213
  922TIP3   OH2 2729   2.390   3.909   2.930
  922TIP3    H1 2730   2.305   3.950   2.945
  922TIP3    H2 2731   2.450   3.958   2.987
  923TIP3   OH2 2732   2.077   0.942   3.621
  923TIP3    H1 2733   2.066   1.036   3.637
  923TIP3    H2 2734   2.026   0.900   3.689
  924TIP3   OH2 2735   5.945   1.397   0.455
  924TIP3    H1 2736   5.920   1.438   0.372
  924TIP3    H2 2737   5.865   1.399   0.508
  925TIP3   OH2 2738   4.766   6.741   1.039
  925TIP3    H1 2739   4.752   6.698   0.954
  925TIP3    H2 2740   4.739   6.831   1.025
  926TIP3   OH2 2741   5.974   2.763   0.303
  926TIP3    H1 2742   5.895   2.813   0.285
  926TIP3    H2 2743   6.015   2.809   0.377
  927TIP3   OH2 2744   0.610   1.637   0.662
  927TIP3    H1 2745   0.640   1.659   0.574
  927TIP3    H2 2746   0.520   1.669   0.665
  928TIP3   OH2 2747   0.467   2.106   2.248
  928TIP3    H1 2748   0.549   2.055   2.247
  928TIP3    H2 2749   0.399   2.042   2.225
  929TIP3   OH2 2750   2.683   4.420   0.280
  929TIP3    H1 2751   2.619   4.351   0.293
  929TIP3    H2 2752   2.635   4.489   0.233
  930TIP3   OH2 2753   0.364   5.837   4.788
  930TIP3    H1 2754   0.274   5.856   4.815
  930TIP3    H2 2755   0.366   5.856   4.694
  931TIP3   OH2 2756   4.717   3.865   4.046
  931TIP3    H1 2757   4.795   3.885   4.099
  931TIP3    H2 2758   4.688   3.780   4.078
  932TIP3   OH2 2759   3.913   2.160   4.187
  932TIP3    H1 2760   3.935   2.216   4.262
  932TIP3    H2 2761   3.988   2.168   4.129
  933TIP3   OH2 2762   1.498   3.234   4.204
  933TIP3    H1 2763   1.521   3.196   4.289
  933TIP3    H2 2764   1.517   3.328   4.215
  934TIP3   OH2 2765   0.095   1.167   2.544
  934TIP3    H1 2766   0.187   1.193   2.550
  934TIP3    H2 2767   0.091   1.082   2.588
  935TIP3   OH2 2768   3.911   0.258   0.150
  935TIP3    H1 2769   3.846   0.262   0.080
  935TIP3    H2 2770   3.912   0.346   0.188
  936TIP3   OH2 2771   4.507   5.610   2.796
  936TIP3    H1 2772   4.466   5.654   2.722
  936TIP3    H2 2773   4.545   5.681   2.848
  937TIP3   OH2 2774   5.976   5.195   2.517
  937TIP3    H1 2775   5.893   5.242   2.506
  937TIP3    H2 2776   6.034   5.233   2.450
  938TIP3   OH2 2777   0.952   2.109   2.588
  938TIP3    H1 2778   1.011   2.045   2.628
  938TIP3    H2 2779   0.993   2.131   2.505
  939TIP3   OH2 2780   3.136   2.983   1.615
  939TIP3    H1 2781   3.107   2.928   1.542
  939TIP3    H2 2782   3.154   2.920   1.685
  940TIP3   OH2 2783   0.382   6.684   1.660
  940TIP3    H1 2784   0.360   6.689   1.567
  940TIP3    H2 2785   0.477   6.682   1.663
  941TIP3   OH2 2786   0.084   6.273   4.407
  941TIP3    H1 2787   0.175   6.259   4.379
  941TIP3    H2 2788   0.090   6.337   4.478
  942TIP3   OH2 2789   1.951   0.196   3.890
  942TIP3    H1 2790   1.863   0.184   3.856
  942TIP3    H2 2791   1.965   0.120   3.947
  943TIP3   OH2 2792   0.960   0.055   5.252
  943TIP3    H1 2793   1.001   0.071   5.337
  943TIP3    H2 2794   0.965  -0.039   5.239
  944TIP3   OH2 2795   6.030   1.920   2.397
  944TIP3    H1 2796   6.001   1.948   2.484
  944TIP3    H2 2797   6.025   1.824   2.400
  945TIP3   OH2 2798   0.611   3.484   1.413
  945TIP3    H1 2799   0.665   3.524   1.345
  945TIP3    H2 2800   0.661   3.408   1.442
  946TIP3   OH2 2801   1.395   0.563   4.293
  946TIP3    H1 2802   1.412   0.472   4.271
  946TIP3    H2 2803   1.482   0.604   4.297
  947TIP3   OH2 2804   0.892   4.914   0.922
  947TIP3    H1 2805   0.902   4.963   0.840
  947TIP3    H2 2806   0.895   4.822   0.896
  948TIP3   OH2 2807   1.497   1.449   4.119
  948TIP3    H1 2808   1.555   1.453   4.195
  948TIP3    H2 2809   1.432   1.382   4.142
  949TIP3   OH2 2810   0.611   1.661   1.710
  949TIP3    H1 2811   0.694   1.706   1.729
  949TIP3    H2 2812   0.620   1.575   1.751
  950TIP3   OH2 2813   0.116   5.946   4.853
  950TIP3    H1 2814   0.030   5.930   4.894
  950TIP3    H2 2815   0.095   5.996   4.774
  951TIP3   OH2 2816   4.745   0.844   4.120
  951TIP3    H1 2817   4.762   0.864   4.212
  951TIP3    H2 2818   4.750   0.748   4.115
  952TIP3   OH2 2819   3.964   6.165   5.551
  952TIP3    H1 2820   3.939   6.088   5.603
  952TIP3    H2 2821   3.894   6.172   5.486
  953TIP3   OH2 2822   6.813   4.548   3.584
  953TIP3    H1 2823   6.757   4.509   3.516
  953TIP3    H2 2824   6.902   4.534   3.553
  954TIP3   OH2 2825   3.254   1.859   3.621
  954TIP3    H1 2826   3.300   1.794   3.675
  954TIP3    H2 2827   3.248   1.936   3.677
  955TIP3   OH2 2828   4.551   1.139   3.130
  955TIP3    H1 2829   4.588   1.068   3.181
  955TIP3    H2 2830   4.505   1.096   3.058
  956TIP3   OH2 2831   6.451   3.282   1.368
  956TIP3    H1 2832   6.494   3.201   1.396
  956TIP3    H2 2833   6.369   3.253   1.328
  957TIP3   OH2 2834   0.490   3.385   5.815
  957TIP3    H1 2835   0.430   3.321   5.854
  957TIP3    H2 2836   0.459   3.394   5.724
  958TIP3   OH2 2837   3.906   5.314   5.182
  958TIP3    H1 2838   3.880   5.244   5.122
  958TIP3    H2 2839   3.887   5.278   5.269
  959TIP3   OH2 2840   5.609   0.734   1.490
  959TIP3    H1 2841   5.581   0.824   1.508
  959TIP3    H2 2842   5.545   0.680   1.535
  960TIP3   OH2 2843   0.576   0.187   1.393
  960TIP3    H1 2844   0.511   0.124   1.424
  960TIP3    H2 2845   0.525   0.266   1.374
  961TIP3   OH2 2846   3.261   5.629   4.928
  961TIP3    H1 2847   3.238   5.720   4.907
  961TIP3    H2 2848   3.320   5.603   4.858
  962TIP3   OH2 2849   3.968   6.251   2.962
  962TIP3    H1 2850   4.018   6.333   2.971
  962TIP3    H2 2851   3.934   6.254   2.872
  963TIP3   OH2 2852   6.239   1.465   1.153
  963TIP3    H1 2853   6.305   1.529   1.128
  963TIP3    H2 2854   6.208   1.428   1.070
  964TIP3   OH2 2855   6.103   2.089   3.564
  964TIP3    H1 2856   6.019   2.097   3.609
  964TIP3    H2 2857   6.169   2.100   3.633
  965TIP3   OH2 2858   2.097   0.176   0.001
  965TIP3    H1 2859   2.112   0.174   0.096
  965TIP3    H2 2860   2.026   0.240  -0.010
  966TIP3   OH2 2861   0.139   6.250   2.057
  966TIP3    H1 2862   0.232   6.257   2.036
  966TIP3    H2 2863   0.113   6.338   2.085
  967TIP3   OH2 2864   3.572   4.308   1.716
  967TIP3    H1 2865   3.515   4.385   1.717
  967TIP3    H2 2866   3.563   4.270   1.803
  968TIP3   OH2 2867   1.981   4.755   5.152
  968TIP3    H1 2868   1.912   4.699   5.188
  968TIP3    H2 2869   1.937   4.808   5.086
  969TIP3   OH2 2870   7.113   1.696   4.527
  969TIP3    H1 2871   7.081   1.778   4.565
  969TIP3    H2 2872   7.043   1.633   4.544
  970TIP3   OH2 2873   1.027   6.002   3.546
  970TIP3    H1 2874   1.081   6.016   3.624
  970TIP3    H2 2875   1.090   5.997   3.474
  971TIP3   OH2 2876   1.932   3.249   0.055
  971TIP3    H1 2877   1.958   3.158   0.072
  971TIP3    H2 2878   1.953   3.262  -0.038
  972TIP3   OH2 2879   5.583   2.963   0.846
  972TIP3    H1 2880   5.672   2.996   0.835
  972TIP3    H2 2881   5.591   2.868   0.838
  973TIP3   OH2 2882   5.320   1.178   1.818
  973TIP3    H1 2883   5.262   1.245   1.780
  973TIP3    H2 2884   5.300   1.099   1.768
  974TIP3   OH2 2885   5.632   2.240   2.608
  974TIP3    H1 2886   5.702   2.229   2.544
  974TIP3    H2 2887   5.584   2.157   2.607
  975TIP3   OH2 2888   0.422   3.007   2.503
  975TIP3    H1 2889   0.392   2.920   2.530
  975TIP3    H2 2890   0.505   2.991   2.458
  976TIP3   OH2 2891   5.086   3.784   1.646
  976TIP3    H1 2892   5.142   3.855   1.678
  976TIP3    H2 2893   5.015   3.779   1.710
  977TIP3   OH2 2894   4.557   1.494   0.162
  977TIP3    H1 2895   4.604   1.450   0.233
  977TIP3    H2 2896   4.503   1.425   0.123
  978TIP3   OH2 2897   6.878   0.672   3.133
  978TIP3    H1 2898   6.933   0.604   3.173
  978TIP3    H2 2899   6.794   0.663   3.178
  979TIP3   OH2 2900   2.766   2.894   2.999
  979TIP3    H1 2901   2.824   2.970   2.991
  979TIP3    H2 2902   2.794   2.836   2.928
  980TIP3   OH2 2903   3.897   0.887   4.487
  980TIP3    H1 2904   3.957   0.828   4.533
  980TIP3    H2 2905   3.910   0.972   4.528
  981TIP3   OH2 2906   2.541   3.619   4.681
  981TIP3    H1 2907   2.541   3.710   4.711
  981TIP3    H2 2908   2.581   3.622   4.594
  982TIP3   OH2 2909   3.861   3.653   0.272
  982TIP3    H1 2910   3.885   3.589   0.204
  982TIP3    H2 2911   3.940   3.706   0.284
  983TIP3   OH2 2912   0.563   6.216   0.709
  983TIP3    H1 2913   0.487   6.225   0.652
  983TIP3    H2 2914   0.600   6.304   0.714
  984TIP3   OH2 2915   4.338   0.518   2.834
  984TIP3    H1 2916   4.339   0.610   2.860
  984TIP3    H2 2917   4.429   0.489   2.844
  985TIP3   OH2 2918   2.924   3.771   0.962
  985TIP3    H1 2919   2.912   3.813   0.877
  985TIP3    H2 2920   3.004   3.810   0.997
  986TIP3   OH2 2921   3.282   0.417   5.757
  986TIP3    H1 2922   3.338   0.351   5.797
  986TIP3    H2 2923   3.269   0.387   5.667
  987TIP3   OH2 2924   6.595   6.446   5.692
  987TIP3    H1 2925   6.585   6.377   5.626
  987TIP3    H2 2926   6.531   6.424   5.759
  988TIP3   OH2 2927   5.645   1.580   5.729
  988TIP3    H1 2928   5.615   1.573   5.638
  988TIP3    H2 2929   5.571   1.547   5.781
  989TIP3   OH2 2930   4.994   3.273   3.120
  989TIP3    H1 2931   4.999   3.347   3.060
  989TIP3    H2 2932   4.976   3.197   3.065
  990TIP3   OH2 2933   0.160   4.865   0.949
  990TIP3    H1 2934   0.169   4.820   1.033
  990TIP3    H2 2935   0.129   4.797   0.889
  991TIP3   OH2 2936   3.740   3.196   0.398
  991TIP3    H1 2937   3.790   3.278   0.400
  991TIP3    H2 2938   3.652   3.223   0.369
  992TIP3   OH2 2939   0.972   6.198   3.875
  992TIP3    H1 2940   0.997   6.115   3.835
  992TIP3    H2 2941   0.881   6.185   3.903
  993TIP3   OH2 2942   2.006   0.337   2.088
  993TIP3    H1 2943   2.045   0.384   2.015
  993TIP3    H2 2944   2.077   0.286   2.125
  994TIP3   OH2 2945   4.968   1.497   4.935
  994TIP3    H1 2946   5.016   1.575   4.908
  994TIP3    H2 2947   4.975   1.496   5.030
  995TIP3   OH2 2948   4.639   1.238   4.682
  995TIP3    H1 2949   4.558   1.206   4.722
  995TIP3    H2 2950   4.613   1.264   4.593
  996TIP3   OH2 2951   4.871   3.362   0.253
  996TIP3    H1 2952   4.799   3.366   0.315
  996TIP3    H2 2953   4.878   3.269   0.230
  997TIP3   OH2 2954   5.019   5.216   0.178
  997TIP3    H1 2955   4.998   5.156   0.107
  997TIP3    H2 2956   4.949   5.282   0.175
  998TIP3   OH2 2957   5.041   6.397   5.114
  998TIP3    H1 2958   5.079   6.399   5.027
  998TIP3    H2 2959   5.020   6.305   5.129
  999TIP3   OH2 2960   5.289   5.112   0.754
  999TIP3    H1 2961   5.271   5.204   0.772
  999TIP3    H2 2962   5.345   5.113   0.677
 1000TIP3   OH2 2963   1.574   2.160   4.556
 1000TIP3    H1 2964   1.637   2.178   4.486
 1000TIP3    H2 2965   1.549   2.068   4.543
 1001TIP3   OH2 2966   6.593   4.895   2.453
 1001TIP3    H1 2967   6.602   4.801   2.440
 1001TIP3    H2 2968   6.643   4.934   2.381
 1002TIP3   OH2 2969   0.310   0.122   3.813
 1002TIP3    H1 2970   0.383   0.155   3.865
 1002TIP3    H2 2971   0.345   0.113   3.724
 1003TIP3   OH2 2972   0.623   6.685   3.745
 1003TIP3    H1 2973   0.576   6.673   3.663
 1003TIP3    H2 2974   0.613   6.600   3.790
 1004TIP3   OH2 2975   6.851   2.457   1.136
 1004TIP3    H1 2976   6.915   2.468   1.066
 1004TIP3    H2 2977   6.780   2.406   1.097
 1005TIP3   OH2 2978   1.289   2.801   4.937
 1005TIP3    H1 2979   1.341   2.874   4.904
 1005TIP3    H2 2980   1.271   2.748   4.859
 1006TIP3   OH2 2981   0.905   0.104   0.403
 1006TIP3    H1 2982   0.855   0.128   0.481
 1006TIP3    H2 2983   0.995   0.131   0.423
 1007TIP3   OH2 2984   5.338   4.543   0.855
 1007TIP3    H1 2985   5.283   4.545   0.933
 1007TIP3    H2 2986   5.377   4.630   0.850
 1008TIP3   OH2 2987   3.443   2.005   1.597
 1008TIP3    H1 2988   3.367   2.012   1.539
 1008TIP3    H2 2989   3.454   1.911   1.610
 1009TIP3   OH2 2990   4.655   6.016   3.394
 1009TIP3    H1 2991   4.656   6.107   3.422
 1009TIP3    H2 2992   4.566   6.001   3.361
 1010TIP3   OH2 2993   4.268   6.729   3.016
 1010TIP3    H1 2994   4.265   6.633   3.018
 1010TIP3    H2 2995   4.330   6.749   2.946
 1011TIP3   OH2 2996   6.174   4.779   4.581
 1011TIP3    H1 2997   6.130   4.859   4.610
 1011TIP3    H2 2998   6.267   4.802   4.581
 1012TIP3   OH2 2999   6.943   5.806   2.275
 1012TIP3    H1 3000   6.937   5.861   2.353
 1012TIP3    H2 3001   6.937   5.866   2.202
 1013TIP3   OH2 3002   6.160   6.589   5.061
 1013TIP3    H1 3003   6.111   6.534   4.999
 1013TIP3    H2 3004   6.160   6.538   5.142
 1014TIP3   OH2 3005   6.985   4.441   1.068
 1014TIP3    H1 3006   6.907   4.389   1.050
 1014TIP3    H2 3007   7.023   4.401   1.147
 1015TIP3   OH2 3008   3.371   6.289   1.843
 1015TIP3    H1 3009   3.394   6.197   1.859
 1015TIP3    H2 3010   3.310   6.311   1.914
 1016TIP3   OH2 3011   3.641   2.652   3.031
 1016TIP3    H1 3012   3.601   2.565   3.026
 1016TIP3    H2 3013   3.732   2.636   3.056
 1017TIP3   OH2 3014   7.114   4.465   2.021
 1017TIP3    H1 3015   7.029   4.491   1.985
 1017TIP3    H2 3016   7.145   4.396   1.962
 1018TIP3   OH2 3017   5.420   0.688   0.555
 1018TIP3    H1 3018   5.483   0.664   0.487
 1018TIP3    H2 3019   5.335   0.675   0.514
 1019TIP3   OH2 3020   4.576   2.556   1.430
 1019TIP3    H1 3021   4.501   2.513   1.388
 1019TIP3    H2 3022   4.540   2.636   1.468
 1020TIP3   OH2 3023   6.106   1.032   5.813
 1020TIP3    H1 3024   6.028   0.992   5.852
 1020TIP3    H2 3025   6.082   1.124   5.802
 1021TIP3   OH2 3026   5.668   3.051   2.166
 1021TIP3    H1 3027   5.589   3.044   2.220
 1021TIP3    H2 3028   5.666   3.140   2.132
 1022TIP3   OH2 3029   3.525   1.750   2.017
 1022TIP3    H1 3030   3.575   1.778   1.940
 1022TIP3    H2 3031   3.589   1.751   2.088
 1023TIP3   OH2 3032   3.207   5.429   2.063
 1023TIP3    H1 3033   3.272   5.385   2.008
 1023TIP3    H2 3034   3.219   5.522   2.045
 1024TIP3   OH2 3035   2.634   1.392   4.976
 1024TIP3    H1 3036   2.646   1.486   4.970
 1024TIP3    H2 3037   2.563   1.372   4.914
 1025TIP3   OH2 3038   3.035   4.299   1.914
 1025TIP3    H1 3039   3.074   4.326   1.997
 1025TIP3    H2 3040   2.964   4.239   1.938
 1026TIP3   OH2 3041   2.513   3.610   5.084
 1026TIP3    H1 3042   2.491   3.602   5.177
 1026TIP3    H2 3043   2.458   3.682   5.053
 1027TIP3   OH2 3044   1.932   2.408   1.998
 1027TIP3    H1 3045   2.024   2.430   2.016
 1027TIP3    H2 3046   1.937   2.334   1.938
 1028TIP3   OH2 3047   3.234   0.526   3.925
 1028TIP3    H1 3048   3.212   0.559   4.012
 1028TIP3    H2 3049   3.268   0.438   3.940
 1029TIP3   OH2 3050   0.728   6.346   2.991
 1029TIP3    H1 3051   0.760   6.301   3.070
 1029TIP3    H2 3052   0.642   6.308   2.976
 1030TIP3   OH2 3053   6.812   3.862   2.034
 1030TIP3    H1 3054   6.801   3.937   1.976
 1030TIP3    H2 3055   6.877   3.890   2.098
 1031TIP3   OH2 3056   1.798   6.829   2.319
 1031TIP3    H1 3057   1.786   6.738   2.346
 1031TIP3    H2 3058   1.738   6.878   2.375
 1032TIP3   OH2 3059   4.489   4.105   1.466
 1032TIP3    H1 3060   4.523   4.051   1.395
 1032TIP3    H2 3061   4.565   4.153   1.499
 1033TIP3   OH2 3062   1.917   4.720   3.262
 1033TIP3    H1 3063   1.839   4.698   3.210
 1033TIP3    H2 3064   1.987   4.669   3.221
 1034TIP3   OH2 3065   6.978   1.242   5.273
 1034TIP3    H1 3066   6.914   1.310   5.250
 1034TIP3    H2 3067   6.945   1.206   5.356
 1035TIP3   OH2 3068   5.716   2.828   1.953
 1035TIP3    H1 3069   5.731   2.828   1.859
 1035TIP3    H2 3070   5.649   2.762   1.967
 1036TIP3   OH2 3071   1.997   3.217   5.158
 1036TIP3    H1 3072   1.961   3.200   5.071
 1036TIP3    H2 3073   2.061   3.148   5.173
 1037TIP3   OH2 3074   0.778   1.756   0.861
 1037TIP3    H1 3075   0.698   1.744   0.810
 1037TIP3    H2 3076   0.848   1.755   0.796
 1038TIP3   OH2 3077   0.265   1.753   4.210
 1038TIP3    H1 3078   0.185   1.793   4.246
 1038TIP3    H2 3079   0.334   1.816   4.229
 1039TIP3   OH2 3080   5.454   3.354   3.784
 1039TIP3    H1 3081   5.548   3.343   3.771
 1039TIP3    H2 3082   5.440   3.449   3.778
 1040TIP3   OH2 3083   5.965   0.013   5.362
 1040TIP3    H1 3084   5.995   0.059   5.283
 1040TIP3    H2 3085   6.017   0.051   5.433
 1041TIP3   OH2 3086   4.734   3.707   1.458
 1041TIP3    H1 3087   4.810   3.756   1.425
 1041TIP3    H2 3088   4.710   3.751   1.539
 1042TIP3   OH2 3089   0.626   3.944   1.735
 1042TIP3    H1 3090   0.717   3.974   1.735
 1042TIP3    H2 3091   0.625   3.871   1.672
 1043TIP3   OH2 3092   1.689   1.760   3.955
 1043TIP3    H1 3093   1.776   1.791   3.981
 1043TIP3    H2 3094   1.642   1.751   4.038
 1044TIP3   OH2 3095   1.301   0.067   4.342
 1044TIP3    H1 3096   1.361   0.028   4.278
 1044TIP3    H2 3097   1.255   0.135   4.293
 1045TIP3   OH2 3098   5.119   2.057   0.631
 1045TIP3    H1 3099   5.150   2.023   0.715
 1045TIP3    H2 3100   5.096   2.148   0.649
 1046TIP3   OH2 3101   2.649   2.741   1.444
 1046TIP3    H1 3102   2.563   2.780   1.429
 1046TIP3    H2 3103   2.708   2.816   1.451
 1047TIP3   OH2 3104   6.389   3.925   2.695
 1047TIP3    H1 3105   6.333   3.970   2.759
 1047TIP3    H2 3106   6.372   3.971   2.612
 1048TIP3   OH2 3107   1.849   6.781   5.881
 1048TIP3    H1 3108   1.884   6.836   5.811
 1048TIP3    H2 3109   1.771   6.742   5.843
 1049TIP3   OH2 3110   4.447   5.848   2.230
 1049TIP3    H1 3111   4.363   5.848   2.183
 1049TIP3    H2 3112   4.443   5.926   2.286
 1050TIP3   OH2 3113   1.005   2.604   3.934
 1050TIP3    H1 3114   1.093   2.566   3.934
 1050TIP3    H2 3115   0.951   2.538   3.889
 1051TIP3   OH2 3116   3.651   3.842   0.830
 1051TIP3    H1 3117   3.628   3.868   0.740
 1051TIP3    H2 3118   3.649   3.747   0.829
 1052TIP3   OH2 3119   6.758   5.968   5.404
 1052TIP3    H1 3120   6.803   6.049   5.382
 1052TIP3    H2 3121   6.687   5.961   5.340
 1053TIP3   OH2 3122   3.974   6.677   4.461
 1053TIP3    H1 3123   3.936   6.641   4.380
 1053TIP3    H2 3124   3.901   6.721   4.504
 1054TIP3   OH2 3125   4.482   3.043   1.860
 1054TIP3    H1 3126   4.433   2.963   1.878
 1054TIP3    H2 3127   4.419   3.100   1.816
 1055TIP3   OH2 3128   3.427   1.464   4.319
 1055TIP3    H1 3129   3.488   1.389   4.323
 1055TIP3    H2 3130   3.404   1.480   4.411
 1056TIP3   OH2 3131   1.626   0.994   3.268
 1056TIP3    H1 3132   1.673   0.911   3.265
 1056TIP3    H2 3133   1.666   1.042   3.341
 1057TIP3   OH2 3134   5.913   5.360   2.781
 1057TIP3    H1 3135   5.916   5.444   2.734
 1057TIP3    H2 3136   5.903   5.294   2.712
 1058TIP3   OH2 3137   2.540   6.274   1.101
 1058TIP3    H1 3138   2.486   6.325   1.041
 1058TIP3    H2 3139   2.535   6.320   1.184
 1059TIP3   OH2 3140   6.835   0.749   1.573
 1059TIP3    H1 3141   6.851   0.832   1.529
 1059TIP3    H2 3142   6.756   0.765   1.626
 1060TIP3   OH2 3143   1.948   5.622   1.708
 1060TIP3    H1 3144   1.964   5.680   1.782
 1060TIP3    H2 3145   1.998   5.660   1.636
 1061TIP3   OH2 3146   5.480   1.537   1.177
 1061TIP3    H1 3147   5.574   1.549   1.189
 1061TIP3    H2 3148   5.458   1.464   1.235
 1062TIP3   OH2 3149   3.621   4.285   5.883
 1062TIP3    H1 3150   3.686   4.216   5.891
 1062TIP3    H2 3151   3.672   4.366   5.880
 1063TIP3   OH2 3152   1.453   4.489   0.803
 1063TIP3    H1 3153   1.448   4.395   0.792
 1063TIP3    H2 3154   1.469   4.501   0.897
 1064TIP3   OH2 3155   4.435   1.502   0.894
 1064TIP3    H1 3156   4.354   1.509   0.945
 1064TIP3    H2 3157   4.465   1.412   0.910
 1065TIP3   OH2 3158   6.419   5.286   2.422
 1065TIP3    H1 3159   6.396   5.247   2.507
 1065TIP3    H2 3160   6.336   5.287   2.374
 1066TIP3   OH2 3161   1.783   3.902   4.079
 1066TIP3    H1 3162   1.710   3.928   4.135
 1066TIP3    H2 3163   1.789   3.807   4.090
 1067TIP3   OH2 3164   6.235   2.779   4.375
 1067TIP3    H1 3165   6.221   2.786   4.470
 1067TIP3    H2 3166   6.160   2.728   4.343
 1068TIP3   OH2 3167   0.554   6.169   1.882
 1068TIP3    H1 3168   0.566   6.230   1.955
 1068TIP3    H2 3169   0.485   6.109   1.912
 1069TIP3   OH2 3170   4.340   5.206   2.459
 1069TIP3    H1 3171   4.263   5.202   2.402
 1069TIP3    H2 3172   4.325   5.137   2.524
 1070TIP3   OH2 3173   1.925   1.002   2.943
 1070TIP3    H1 3174   1.993   0.940   2.971
 1070TIP3    H2 3175   1.897   1.045   3.024
 1071TIP3   OH2 3176   3.725   3.132   1.979
 1071TIP3    H1 3177   3.634   3.113   2.000
 1071TIP3    H2 3178   3.773   3.054   2.006
 1072TIP3   OH2 3179   7.174   0.423   3.729
 1072TIP3    H1 3180   7.194   0.347   3.784
 1072TIP3    H2 3181   7.107   0.472   3.778
 1073TIP3   OH2 3182   3.141   0.754   4.294
 1073TIP3    H1 3183   3.123   0.683   4.233
 1073TIP3    H2 3184   3.200   0.813   4.247
 1074TIP3   OH2 3185   3.246   2.290   5.145
 1074TIP3    H1 3186   3.288   2.263   5.227
 1074TIP3    H2 3187   3.274   2.226   5.081
 1075TIP3   OH2 3188   0.906   4.696   3.235
 1075TIP3    H1 3189   0.871   4.743   3.311
 1075TIP3    H2 3190   0.976   4.642   3.271
 1076TIP3   OH2 3191   3.569   1.089   4.139
 1076TIP3    H1 3192   3.539   1.042   4.216
 1076TIP3    H2 3193   3.662   1.065   4.131
 1077TIP3   OH2 3194   6.643   1.236   3.388
 1077TIP3    H1 3195   6.600   1.245   3.473
 1077TIP3    H2 3196   6.706   1.307   3.386
 1078TIP3   OH2 3197   4.106   2.339   3.765
 1078TIP3    H1 3198   4.133   2.325   3.856
 1078TIP3    H2 3199   4.138   2.427   3.743
 1079TIP3   OH2 3200   2.194   2.454   5.377
 1079TIP3    H1 3201   2.130   2.410   5.321
 1079TIP3    H2 3202   2.184   2.412   5.463
 1080TIP3   OH2 3203   0.132   1.217   2.872
 1080TIP3    H1 3204   0.059   1.158   2.889
 1080TIP3    H2 3205   0.172   1.183   2.791
 1081TIP3   OH2 3206   2.727   0.842   1.033
 1081TIP3    H1 3207   2.656   0.786   1.001
 1081TIP3    H2 3208   2.749   0.806   1.119
 1082TIP3   OH2 3209   2.282   6.249   0.718
 1082TIP3    H1 3210   2.375   6.265   0.733
 1082TIP3    H2 3211   2.280   6.172   0.662
 1083TIP3   OH2 3212   3.527   0.381   2.470
 1083TIP3    H1 3213   3.461   0.331   2.422
 1083TIP3    H2 3214   3.513   0.357   2.562
 1084TIP3   OH2 3215   4.588   5.301   3.288
 1084TIP3    H1 3216   4.636   5.371   3.245
 1084TIP3    H2 3217   4.557   5.245   3.217
 1085TIP3   OH2 3218   1.597   5.976   4.358
 1085TIP3    H1 3219   1.548   5.928   4.424
 1085TIP3    H2 3220   1.666   6.022   4.407
 1086TIP3   OH2 3221   4.770   5.559   1.351
 1086TIP3    H1 3222   4.727   5.494   1.407
 1086TIP3    H2 3223   4.854   5.518   1.327
 1087TIP3   OH2 3224   6.589   6.529   4.606
 1087TIP3    H1 3225   6.500   6.526   4.641
 1087TIP3    H2 3226   6.645   6.539   4.683
 1088TIP3   OH2 3227   3.011   6.660   0.885
 1088TIP3    H1 3228   3.026   6.612   0.804
 1088TIP3    H2 3229   2.991   6.749   0.858
 1089TIP3   OH2 3230   7.124   3.999   4.419
 1089TIP3    H1 3231   7.102   4.091   4.432
 1089TIP3    H2 3232   7.207   3.986   4.464
 1090TIP3   OH2 3233   4.458   3.749   0.335
 1090TIP3    H1 3234   4.400   3.703   0.396
 1090TIP3    H2 3235   4.544   3.744   0.376
 1091TIP3   OH2 3236   5.917   1.631   2.402
 1091TIP3    H1 3237   5.965   1.605   2.481
 1091TIP3    H2 3238   5.829   1.652   2.433
 1092TIP3   OH2 3239   1.156   2.498   2.875
 1092TIP3    H1 3240   1.148   2.580   2.923
 1092TIP3    H2 3241   1.221   2.448   2.923
 1093TIP3   OH2 3242   6.126   1.910   3.281
 1093TIP3    H1 3243   6.037   1.907   3.314
 1093TIP3    H2 3244   6.155   1.819   3.280
 1094TIP3   OH2 3245   5.233   0.683   3.416
 1094TIP3    H1 3246   5.260   0.767   3.378
 1094TIP3    H2 3247   5.249   0.693   3.510
 1095TIP3   OH2 3248   0.506   3.027   4.659
 1095TIP3    H1 3249   0.500   3.048   4.566
 1095TIP3    H2 3250   0.509   3.112   4.703
 1096TIP3   OH2 3251   4.596   0.599   4.932
 1096TIP3    H1 3252   4.684   0.587   4.898
 1096TIP3    H2 3253   4.538   0.573   4.861
 1097TIP3   OH2 3254   4.036   2.141   0.312
 1097TIP3    H1 3255   3.958   2.090   0.290
 1097TIP3    H2 3256   4.015   2.181   0.397
 1098TIP3   OH2 3257   5.830   5.469   1.700
 1098TIP3    H1 3258   5.800   5.557   1.723
 1098TIP3    H2 3259   5.786   5.411   1.762
 1099TIP3   OH2 3260   6.957   0.028   2.417
 1099TIP3    H1 3261   7.016   0.052   2.346
 1099TIP3    H2 3262   6.978   0.088   2.488
 1100TIP3   OH2 3263   0.568   5.775   0.261
 1100TIP3    H1 3264   0.619   5.713   0.210
 1100TIP3    H2 3265   0.518   5.824   0.196
 1101TIP3   OH2 3266   3.418   3.876   3.387
 1101TIP3    H1 3267   3.393   3.871   3.295
 1101TIP3    H2 3268   3.381   3.798   3.427
 1102TIP3   OH2 3269   5.975   0.860   4.693
 1102TIP3    H1 3270   5.989   0.911   4.613
 1102TIP3    H2 3271   5.906   0.906   4.739
 1103TIP3   OH2 3272   5.215   2.291   3.278
 1103TIP3    H1 3273   5.175   2.232   3.215
 1103TIP3    H2 3274   5.207   2.378   3.238
 1104TIP3   OH2 3275   6.867   0.443   0.318
 1104TIP3    H1 3276   6.778   0.465   0.290
 1104TIP3    H2 3277   6.864   0.450   0.414
 1105TIP3   OH2 3278   2.958   5.025   5.859
 1105TIP3    H1 3279   2.916   5.098   5.813
 1105TIP3    H2 3280   2.936   4.948   5.807
 1106TIP3   OH2 3281   3.291   0.234   2.393
 1106TIP3    H1 3282   3.247   0.254   2.476
 1106TIP3    H2 3283   3.240   0.163   2.355
 1107TIP3   OH2 3284   0.680   4.380   1.309
 1107TIP3    H1 3285   0.758   4.331   1.284
 1107TIP3    H2 3286   0.649   4.419   1.227
 1108TIP3   OH2 3287   0.014   5.061   4.819
 1108TIP3    H1 3288  -0.010   4.979   4.863
 1108TIP3    H2 3289   0.004   5.042   4.726
 1109TIP3   OH2 3290   0.976   3.122   0.451
 1109TIP3    H1 3291   1.006   3.163   0.532
 1109TIP3    H2 3292   0.899   3.174   0.425
 1110TIP3   OH2 3293   3.241   1.769   5.030
 1110TIP3    H1 3294   3.286   1.756   4.947
 1110TIP3    H2 3295   3.293   1.718   5.093
 1111TIP3   OH2 3296   0.893   6.330   1.376
 1111TIP3    H1 3297   0.869   6.416   1.409
 1111TIP3    H2 3298   0.960   6.298   1.436
 1112TIP3   OH2 3299   7.195   5.220   2.944
 1112TIP3    H1 3300   7.223   5.153   3.006
 1112TIP3    H2 3301   7.193   5.301   2.995
 1113TIP3   OH2 3302   5.340   6.027   5.374
 1113TIP3    H1 3303   5.318   6.115   5.343
 1113TIP3    H2 3304   5.398   5.991   5.307
 1114TIP3   OH2 3305   3.671   6.553   4.452
 1114TIP3    H1 3306   3.597   6.609   4.476
 1114TIP3    H2 3307   3.686   6.572   4.359
 1115TIP3   OH2 3308   5.735   5.814   5.419
 1115TIP3    H1 3309   5.687   5.744   5.375
 1115TIP3    H2 3310   5.671   5.850   5.481
 1116TIP3   OH2 3311   1.528   6.113   0.673
 1116TIP3    H1 3312   1.526   6.079   0.583
 1116TIP3    H2 3313   1.467   6.056   0.721
 1117TIP3   OH2 3314   5.668   3.359   5.772
 1117TIP3    H1 3315   5.728   3.424   5.733
 1117TIP3    H2 3316   5.605   3.411   5.821
 1118TIP3   OH2 3317   1.140   5.388   3.576
 1118TIP3    H1 3318   1.159   5.463   3.519
 1118TIP3    H2 3319   1.199   5.320   3.545
 1119TIP3   OH2 3320   3.224   3.847   1.831
 1119TIP3    H1 3321   3.174   3.929   1.825
 1119TIP3    H2 3322   3.282   3.860   1.905
 1120TIP3   OH2 3323   6.399   2.000   4.957
 1120TIP3    H1 3324   6.364   2.064   5.019
 1120TIP3    H2 3325   6.332   1.992   4.890
 1121TIP3   OH2 3326   7.129   3.531   5.375
 1121TIP3    H1 3327   7.196   3.520   5.442
 1121TIP3    H2 3328   7.047   3.513   5.421
 1122TIP3   OH2 3329   1.059   4.141   5.123
 1122TIP3    H1 3330   1.079   4.234   5.127
 1122TIP3    H2 3331   1.030   4.126   5.033
 1123TIP3   OH2 3332   6.854   0.040   4.947
 1123TIP3    H1 3333   6.937  -0.008   4.952
 1123TIP3    H2 3334   6.826   0.050   5.038
 1124TIP3   OH2 3335   5.781   1.763   5.568
 1124TIP3    H1 3336   5.754   1.700   5.634
 1124TIP3    H2 3337   5.730   1.841   5.588
 1125TIP3   OH2 3338   1.167   5.739   1.783
 1125TIP3    H1 3339   1.192   5.769   1.695
 1125TIP3    H2 3340   1.251   5.723   1.827
 1126TIP3   OH2 3341   2.346   6.607   4.464
 1126TIP3    H1 3342   2.313   6.696   4.467
 1126TIP3    H2 3343   2.285   6.560   4.408
 1127TIP3   OH2 3344   2.058   4.775   5.430
 1127TIP3    H1 3345   2.057   4.773   5.334
 1127TIP3    H2 3346   2.020   4.692   5.456
 1128TIP3   OH2 3347   2.192   3.563   5.428
 1128TIP3    H1 3348   2.234   3.478   5.438
 1128TIP3    H2 3349   2.263   3.623   5.409
 1129TIP3   OH2 3350   6.544   5.610   0.140
 1129TIP3    H1 3351   6.453   5.618   0.170
 1129TIP3    H2 3352   6.596   5.639   0.215
 1130TIP3   OH2 3353   6.289   4.431   5.126
 1130TIP3    H1 3354   6.196   4.422   5.106
 1130TIP3    H2 3355   6.321   4.342   5.136
 1131TIP3   OH2 3356   4.164   1.747   4.458
 1131TIP3    H1 3357   4.116   1.808   4.514
 1131TIP3    H2 3358   4.255   1.775   4.464
 1132TIP3   OH2 3359   6.959   4.027   2.881
 1132TIP3    H1 3360   6.912   4.090   2.827
 1132TIP3    H2 3361   7.030   4.077   2.921
 1133TIP3   OH2 3362   1.479   0.495   5.469
 1133TIP3    H1 3363   1.500   0.403   5.484
 1133TIP3    H2 3364   1.429   0.522   5.546
 1134TIP3   OH2 3365   5.491   2.662   2.587
 1134TIP3    H1 3366   5.495   2.577   2.544
 1134TIP3    H2 3367   5.563   2.712   2.547
 1135TIP3   OH2 3368   5.742   6.406   2.728
 1135TIP3    H1 3369   5.671   6.466   2.706
 1135TIP3    H2 3370   5.699   6.324   2.751
 1136TIP3   OH2 3371   6.710   3.275   2.200
 1136TIP3    H1 3372   6.696   3.207   2.266
 1136TIP3    H2 3373   6.676   3.237   2.119
 1137TIP3   OH2 3374   3.051   2.804   4.948
 1137TIP3    H1 3375   3.050   2.733   5.012
 1137TIP3    H2 3376   2.961   2.809   4.917
 1138TIP3   OH2 3377   2.730   3.602   0.634
 1138TIP3    H1 3378   2.767   3.645   0.557
 1138TIP3    H2 3379   2.654   3.656   0.656
 1139TIP3   OH2 3380   6.817   4.829   0.658
 1139TIP3    H1 3381   6.854   4.900   0.711
 1139TIP3    H2 3382   6.729   4.818   0.693
 1140TIP3   OH2 3383   6.684   2.205   4.827
 1140TIP3    H1 3384   6.687   2.259   4.748
 1140TIP3    H2 3385   6.624   2.133   4.805
 1141TIP3   OH2 3386   6.173   5.614   2.957
 1141TIP3    H1 3387   6.248   5.557   2.939
 1141TIP3    H2 3388   6.142   5.641   2.870
 1142TIP3   OH2 3389   2.586   6.405   4.936
 1142TIP3    H1 3390   2.678   6.424   4.958
 1142TIP3    H2 3391   2.545   6.491   4.926
 1143TIP3   OH2 3392   0.991   2.845   4.838
 1143TIP3    H1 3393   1.060   2.906   4.862
 1143TIP3    H2 3394   1.030   2.793   4.767
 1144TIP3   OH2 3395   5.032   2.688   4.637
 1144TIP3    H1 3396   5.079   2.610   4.666
 1144TIP3    H2 3397   5.083   2.720   4.563
 1145TIP3   OH2 3398   5.487   0.747   5.218
 1145TIP3    H1 3399   5.407   0.731   5.267
 1145TIP3    H2 3400   5.552   0.689   5.257
 1146TIP3   OH2 3401   0.849   5.593   3.417
 1146TIP3    H1 3402   0.814   5.504   3.420
 1146TIP3    H2 3403   0.944   5.581   3.425
 1147TIP3   OH2 3404   5.466   2.007   1.966
 1147TIP3    H1 3405   5.561   2.011   1.951
 1147TIP3    H2 3406   5.436   2.097   1.954
 1148TIP3   OH2 3407   1.530   2.529   0.518
 1148TIP3    H1 3408   1.564   2.619   0.520
 1148TIP3    H2 3409   1.603   2.475   0.549
 1149TIP3   OH2 3410   5.131   1.129   2.214
 1149TIP3    H1 3411   5.066   1.181   2.262
 1149TIP3    H2 3412   5.182   1.085   2.282
 1150TIP3   OH2 3413   5.695   0.727   3.107
 1150TIP3    H1 3414   5.744   0.664   3.160
 1150TIP3    H2 3415   5.741   0.730   3.023
 1151TIP3   OH2 3416   3.323   3.315   0.740
 1151TIP3    H1 3417   3.329   3.408   0.716
 1151TIP3    H2 3418   3.351   3.313   0.832
 1152TIP3   OH2 3419   1.960   6.317   4.677
 1152TIP3    H1 3420   1.989   6.227   4.663
 1152TIP3    H2 3421   2.041   6.368   4.674
 1153TIP3   OH2 3422   4.787   4.844   4.222
 1153TIP3    H1 3423   4.880   4.829   4.239
 1153TIP3    H2 3424   4.770   4.931   4.258
 1154TIP3   OH2 3425   2.035   2.053   4.753
 1154TIP3    H1 3426   2.029   1.961   4.779
 1154TIP3    H2 3427   1.953   2.093   4.783
 1155TIP3   OH2 3428   1.120   0.050   0.066
 1155TIP3    H1 3429   1.028   0.042   0.090
 1155TIP3    H2 3430   1.121   0.044  -0.029
 1156TIP3   OH2 3431   7.178   6.199   2.362
 1156TIP3    H1 3432   7.209   6.256   2.292
 1156TIP3    H2 3433   7.158   6.258   2.434
 1157TIP3   OH2 3434   6.358   6.393   0.428
 1157TIP3    H1 3435   6.303   6.323   0.393
 1157TIP3    H2 3436   6.297   6.465   0.447
 1158TIP3   OH2 3437   1.769   1.857   2.002
 1158TIP3    H1 3438   1.819   1.904   2.069
 1158TIP3    H2 3439   1.687   1.907   1.995
 1159TIP3   OH2 3440   0.098   6.284   5.186
 1159TIP3    H1 3441   0.027   6.335   5.225
 1159TIP3    H2 3442   0.101   6.203   5.237
 1160TIP3   OH2 3443   3.698   6.789   5.695
 1160TIP3    H1 3444   3.760   6.717   5.710
 1160TIP3    H2 3445   3.743   6.847   5.634
 1161TIP3   OH2 3446   7.194   5.195   2.664
 1161TIP3    H1 3447   7.193   5.198   2.759
 1161TIP3    H2 3448   7.206   5.103   2.642
 1162TIP3   OH2 3449   6.646   2.336   1.001
 1162TIP3    H1 3450   6.560   2.334   1.044
 1162TIP3    H2 3451   6.644   2.261   0.941
 1163TIP3   OH2 3452   2.407   5.609   1.455
 1163TIP3    H1 3453   2.442   5.546   1.391
 1163TIP3    H2 3454   2.485   5.647   1.496
 1164TIP3   OH2 3455   5.002   6.690   1.669
 1164TIP3    H1 3456   5.036   6.774   1.639
 1164TIP3    H2 3457   4.958   6.709   1.752
 1165TIP3   OH2 3458   1.258   3.828   0.531
 1165TIP3    H1 3459   1.247   3.868   0.444
 1165TIP3    H2 3460   1.331   3.767   0.520
 1166TIP3   OH2 3461   0.407   0.436   1.072
 1166TIP3    H1 3462   0.433   0.528   1.071
 1166TIP3    H2 3463   0.446   0.399   0.993
 1167TIP3   OH2 3464   5.247   2.342   4.043
 1167TIP3    H1 3465   5.311   2.341   3.972
 1167TIP3    H2 3466   5.169   2.300   4.006
 1168TIP3   OH2 3467   0.317   2.035   4.810
 1168TIP3    H1 3468   0.314   1.948   4.850
 1168TIP3    H2 3469   0.243   2.035   4.749
 1169TIP3   OH2 3470   5.501   2.238   5.161
 1169TIP3    H1 3471   5.460   2.168   5.111
 1169TIP3    H2 3472   5.560   2.193   5.221
 1170TIP3   OH2 3473   2.959   6.080   2.747
 1170TIP3    H1 3474   3.026   6.145   2.725
 1170TIP3    H2 3475   2.902   6.125   2.810
 1171TIP3   OH2 3476   0.380   3.114   3.305
 1171TIP3    H1 3477   0.311   3.172   3.337
 1171TIP3    H2 3478   0.437   3.100   3.381
 1172TIP3   OH2 3479   4.210   0.082   3.177
 1172TIP3    H1 3480   4.292   0.062   3.131
 1172TIP3    H2 3481   4.179  -0.003   3.207
 1173TIP3   OH2 3482   2.227   1.538   0.173
 1173TIP3    H1 3483   2.249   1.547   0.081
 1173TIP3    H2 3484   2.311   1.534   0.218
 1174TIP3   OH2 3485   4.381   1.341   1.714
 1174TIP3    H1 3486   4.392   1.252   1.681
 1174TIP3    H2 3487   4.469   1.369   1.739
 1175TIP3   OH2 3488   1.290   1.707   4.440
 1175TIP3    H1 3489   1.310   1.616   4.463
 1175TIP3    H2 3490   1.202   1.704   4.402
 1176TIP3   OH2 3491   4.060   1.846   0.158
 1176TIP3    H1 3492   4.118   1.919   0.181
 1176TIP3    H2 3493   4.108   1.768   0.187
 1177TIP3   OH2 3494   6.668   4.576   0.203
 1177TIP3    H1 3495   6.693   4.485   0.187
 1177TIP3    H2 3496   6.729   4.628   0.151
 1178TIP3   OH2 3497   0.571   0.320   4.812
 1178TIP3    H1 3498   0.654   0.337   4.768
 1178TIP3    H2 3499   0.539   0.239   4.773
 1179TIP3   OH2 3500   2.224   1.852   4.000
 1179TIP3    H1 3501   2.236   1.874   4.092
 1179TIP3    H2 3502   2.212   1.937   3.957
 1180TIP3   OH2 3503   0.657   5.744   0.704
 1180TIP3    H1 3504   0.592   5.808   0.731
 1180TIP3    H2 3505   0.697   5.714   0.785
 1181TIP3   OH2 3506   4.715   3.396   3.018
 1181TIP3    H1 3507   4.622   3.416   3.018
 1181TIP3    H2 3508   4.722   3.315   3.069
 1182TIP3   OH2 3509   5.387   6.249   1.655
 1182TIP3    H1 3510   5.319   6.238   1.589
 1182TIP3    H2 3511   5.352   6.315   1.715
 1183TIP3   OH2 3512   1.040   3.854   3.411
 1183TIP3    H1 3513   1.065   3.905   3.488
 1183TIP3    H2 3514   1.061   3.764   3.433
 1184TIP3   OH2 3515   6.612   1.960   4.218
 1184TIP3    H1 3516   6.569   1.894   4.272
 1184TIP3    H2 3517   6.656   1.910   4.149
 1185TIP3   OH2 3518   3.491   0.110   0.496
 1185TIP3    H1 3519   3.452   0.173   0.556
 1185TIP3    H2 3520   3.534   0.163   0.429
 1186TIP3   OH2 3521   5.126   2.924   5.400
 1186TIP3    H1 3522   5.162   2.920   5.311
 1186TIP3    H2 3523   5.034   2.900   5.389
 1187TIP3   OH2 3524   1.980   6.599   0.080
 1187TIP3    H1 3525   1.993   6.541   0.154
 1187TIP3    H2 3526   2.022   6.681   0.106
 1188TIP3   OH2 3527   3.463   0.632   0.514
 1188TIP3    H1 3528   3.403   0.558   0.526
 1188TIP3    H2 3529   3.415   0.707   0.549
 1189TIP3   OH2 3530   6.861   6.123   1.820
 1189TIP3    H1 3531   6.946   6.164   1.835
 1189TIP3    H2 3532   6.829   6.103   1.908
 1190TIP3   OH2 3533   5.257   6.693   4.743
 1190TIP3    H1 3534   5.322   6.757   4.770
 1190TIP3    H2 3535   5.307   6.614   4.725
 1191TIP3   OH2 3536   5.959   2.129   1.914
 1191TIP3    H1 3537   5.925   2.217   1.901
 1191TIP3    H2 3538   5.885   2.080   1.951
 1192TIP3   OH2 3539   5.558   1.202   5.481
 1192TIP3    H1 3540   5.543   1.108   5.479
 1192TIP3    H2 3541   5.636   1.213   5.537
 1193TIP3   OH2 3542   4.873   5.329   0.477
 1193TIP3    H1 3543   4.852   5.357   0.388
 1193TIP3    H2 3544   4.826   5.246   0.488
 1194TIP3   OH2 3545   5.654   0.746   1.230
 1194TIP3    H1 3546   5.657   0.751   1.325
 1194TIP3    H2 3547   5.737   0.785   1.201
 1195TIP3   OH2 3548   6.652   3.045   1.713
 1195TIP3    H1 3549   6.590   3.035   1.641
 1195TIP3    H2 3550   6.735   3.067   1.671
 1196TIP3   OH2 3551   7.023   3.862   2.275
 1196TIP3    H1 3552   6.986   3.914   2.346
 1196TIP3    H2 3553   7.116   3.853   2.299
 1197TIP3   OH2 3554   3.455   2.929   1.785
 1197TIP3    H1 3555   3.386   2.873   1.749
 1197TIP3    H2 3556   3.534   2.875   1.779
 1198TIP3   OH2 3557   3.129   4.486   5.842
 1198TIP3    H1 3558   3.199   4.461   5.781
 1198TIP3    H2 3559   3.079   4.405   5.855
 1199TIP3   OH2 3560   5.592   2.839   0.443
 1199TIP3    H1 3561   5.655   2.864   0.375
 1199TIP3    H2 3562   5.524   2.791   0.396
 1200TIP3   OH2 3563   0.351   6.062   1.336
 1200TIP3    H1 3564   0.292   6.037   1.265
 1200TIP3    H2 3565   0.416   5.991   1.338
 1201TIP3   OH2 3566   6.456   0.355   1.512
 1201TIP3    H1 3567   6.549   0.367   1.493
 1201TIP3    H2 3568   6.453   0.275   1.565
 1202TIP3   OH2 3569   0.419   3.670   4.989
 1202TIP3    H1 3570   0.468   3.743   4.952
 1202TIP3    H2 3571   0.327   3.692   4.975
 1203TIP3   OH2 3572   6.037   3.832   5.204
 1203TIP3    H1 3573   6.023   3.821   5.110
 1203TIP3    H2 3574   6.117   3.885   5.210
 1204TIP3   OH2 3575   0.731   2.675   3.076
 1204TIP3    H1 3576   0.815   2.694   3.033
 1204TIP3    H2 3577   0.703   2.592   3.039
 1205TIP3   OH2 3578   2.942   2.007   1.613
 1205TIP3    H1 3579   2.965   1.938   1.551
 1205TIP3    H2 3580   3.002   2.079   1.593
 1206TIP3   OH2 3581   2.478   5.451   4.754
 1206TIP3    H1 3582   2.394   5.416   4.725
 1206TIP3    H2 3583   2.524   5.474   4.673
 1207TIP3   OH2 3584   2.473   2.495   3.900
 1207TIP3    H1 3585   2.491   2.569   3.959
 1207TIP3    H2 3586   2.429   2.535   3.824
 1208TIP3   OH2 3587   6.676   1.458   1.598
 1208TIP3    H1 3588   6.727   1.437   1.519
 1208TIP3    H2 3589   6.638   1.375   1.624
 1209TIP3   OH2 3590   6.416   2.222   0.545
 1209TIP3    H1 3591   6.337   2.222   0.490
 1209TIP3    H2 3592   6.394   2.279   0.619
 1210TIP3   OH2 3593   2.561   4.816   3.374
 1210TIP3    H1 3594   2.631   4.797   3.437
 1210TIP3    H2 3595   2.499   4.744   3.385
 1211TIP3   OH2 3596   6.815   4.544   1.374
 1211TIP3    H1 3597   6.899   4.498   1.374
 1211TIP3    H2 3598   6.775   4.520   1.458
 1212TIP3   OH2 3599   7.174   0.539   2.886
 1212TIP3    H1 3600   7.149   0.630   2.901
 1212TIP3    H2 3601   7.218   0.540   2.801
 1213TIP3   OH2 3602   0.443   0.299   2.148
 1213TIP3    H1 3603   0.504   0.233   2.115
 1213TIP3    H2 3604   0.454   0.373   2.089
 1214TIP3   OH2 3605   6.638   0.558   4.895
 1214TIP3    H1 3606   6.566   0.612   4.861
 1214TIP3    H2 3607   6.608   0.468   4.883
 1215TIP3   OH2 3608   5.482   5.527   1.933
 1215TIP3    H1 3609   5.481   5.453   1.994
 1215TIP3    H2 3610   5.514   5.600   1.985
 1216TIP3   OH2 3611   2.312   4.030   0.413
 1216TIP3    H1 3612   2.303   3.960   0.477
 1216TIP3    H2 3613   2.299   4.110   0.463
 1217TIP3   OH2 3614   2.057   0.832   3.173
 1217TIP3    H1 3615   2.113   0.869   3.241
 1217TIP3    H2 3616   2.117   0.804   3.104
 1218TIP3   OH2 3617   2.322   2.165   3.258
 1218TIP3    H1 3618   2.270   2.134   3.332
 1218TIP3    H2 3619   2.407   2.122   3.268
 1219TIP3   OH2 3620   3.104   0.612   0.697
 1219TIP3    H1 3621   3.033   0.631   0.758
 1219TIP3    H2 3622   3.125   0.520   0.712
 1220TIP3   OH2 3623   2.427   2.505   1.563
 1220TIP3    H1 3624   2.341   2.503   1.605
 1220TIP3    H2 3625   2.462   2.592   1.582
 1221TIP3   OH2 3626   6.007   2.267   2.537
 1221TIP3    H1 3627   5.941   2.217   2.489
 1221TIP3    H2 3628   6.048   2.202   2.595
 1222TIP3   OH2 3629   2.247   2.681   3.040
 1222TIP3    H1 3630   2.281   2.751   3.095
 1222TIP3    H2 3631   2.322   2.623   3.026
 1223TIP3   OH2 3632   6.006   4.354   4.788
 1223TIP3    H1 3633   6.069   4.416   4.826
 1223TIP3    H2 3634   6.038   4.268   4.816
 1224TIP3   OH2 3635   3.310   4.821   1.681
 1224TIP3    H1 3636   3.275   4.738   1.713
 1224TIP3    H2 3637   3.253   4.844   1.607
 1225TIP3   OH2 3638   7.136   5.635   5.543
 1225TIP3    H1 3639   7.187   5.693   5.487
 1225TIP3    H2 3640   7.045   5.659   5.524
 1226TIP3   OH2 3641   5.542   3.952   2.047
 1226TIP3    H1 3642   5.607   3.889   2.078
 1226TIP3    H2 3643   5.520   4.004   2.125
 1227TIP3   OH2 3644   6.947   0.637   1.319
 1227TIP3    H1 3645   6.976   0.718   1.278
 1227TIP3    H2 3646   6.993   0.635   1.404
 1228TIP3   OH2 3647   0.343   0.528   3.773
 1228TIP3    H1 3648   0.342   0.506   3.866
 1228TIP3    H2 3649   0.419   0.481   3.738
 1229TIP3   OH2 3650   3.718   0.556   0.450
 1229TIP3    H1 3651   3.627   0.581   0.466
 1229TIP3    H2 3652   3.768   0.637   0.461
 1230TIP3   OH2 3653   1.629   1.295   5.811
 1230TIP3    H1 3654   1.699   1.243   5.849
 1230TIP3    H2 3655   1.632   1.378   5.858
 1231TIP3   OH2 3656   6.821   1.768   4.434
 1231TIP3    H1 3657   6.832   1.683   4.392
 1231TIP3    H2 3658   6.856   1.831   4.371
 1232TIP3   OH2 3659   5.504   1.548   2.209
 1232TIP3    H1 3660   5.547   1.503   2.136
 1232TIP3    H2 3661   5.439   1.605   2.167
 1233TIP3   OH2 3662   1.247   5.183   4.921
 1233TIP3    H1 3663   1.202   5.203   5.003
 1233TIP3    H2 3664   1.262   5.088   4.926
 1234TIP3   OH2 3665   0.791   0.710   3.401
 1234TIP3    H1 3666   0.735   0.705   3.478
 1234TIP3    H2 3667   0.766   0.634   3.348
 1235TIP3   OH2 3668   1.763   1.028   2.721
 1235TIP3    H1 3669   1.820   1.003   2.794
 1235TIP3    H2 3670   1.730   1.114   2.745
 1236TIP3   OH2 3671   0.073   0.354   4.964
 1236TIP3    H1 3672   0.007   0.310   4.910
 1236TIP3    H2 3673   0.082   0.441   4.926
 1237TIP3   OH2 3674   2.655   0.430   2.822
 1237TIP3    H1 3675   2.562   0.440   2.805
 1237TIP3    H2 3676   2.687   0.520   2.834
 1238TIP3   OH2 3677   0.438   1.209   5.131
 1238TIP3    H1 3678   0.423   1.137   5.192
 1238TIP3    H2 3679   0.482   1.276   5.183
 1239TIP3   OH2 3680   5.601   3.534   2.217
 1239TIP3    H1 3681   5.665   3.552   2.286
 1239TIP3    H2 3682   5.549   3.615   2.211
 1240TIP3   OH2 3683   5.049   5.286   0.936
 1240TIP3    H1 3684   4.955   5.298   0.934
 1240TIP3    H2 3685   5.079   5.310   0.848
 1241TIP3   OH2 3686   0.044   3.152   1.346
 1241TIP3    H1 3687   0.025   3.170   1.439
 1241TIP3    H2 3688   0.026   3.059   1.336
 1242TIP3   OH2 3689   0.508   4.908   1.708
 1242TIP3    H1 3690   0.519   5.001   1.684
 1242TIP3    H2 3691   0.449   4.874   1.641
 1243TIP3   OH2 3692   1.804   0.612   1.917
 1243TIP3    H1 3693   1.712   0.639   1.915
 1243TIP3    H2 3694   1.853   0.690   1.891
 1244TIP3   OH2 3695   6.418   0.855   0.690
 1244TIP3    H1 3696   6.507   0.845   0.722
 1244TIP3    H2 3697   6.428   0.869   0.595
 1245TIP3   OH2 3698   6.315   6.656   4.658
 1245TIP3    H1 3699   6.240   6.693   4.612
 1245TIP3    H2 3700   6.389   6.712   4.634
 1246TIP3   OH2 3701   2.903   3.595   3.617
 1246TIP3    H1 3702   2.972   3.538   3.582
 1246TIP3    H2 3703   2.862   3.543   3.686
 1247TIP3   OH2 3704   5.167   5.338   2.018
 1247TIP3    H1 3705   5.157   5.433   2.027
 1247TIP3    H2 3706   5.089   5.301   2.059
 1248TIP3   OH2 3707   2.375   0.046   5.243
 1248TIP3    H1 3708   2.383   0.068   5.150
 1248TIP3    H2 3709   2.403   0.126   5.289
 1249TIP3   OH2 3710   5.918   1.959   1.527
 1249TIP3    H1 3711   5.852   2.023   1.554
 1249TIP3    H2 3712   5.983   2.011   1.480
 1250TIP3   OH2 3713   1.846   1.177   1.094
 1250TIP3    H1 3714   1.879   1.265   1.074
 1250TIP3    H2 3715   1.924   1.126   1.112
 1251TIP3   OH2 3716   5.311   0.944   1.445
 1251TIP3    H1 3717   5.280   0.854   1.446
 1251TIP3    H2 3718   5.323   0.963   1.352
 1252TIP3   OH2 3719   3.707   0.127   5.800
 1252TIP3    H1 3720   3.733   0.074   5.724
 1252TIP3    H2 3721   3.787   0.132   5.854
 1253TIP3   OH2 3722   6.566   3.825   0.041
 1253TIP3    H1 3723   6.588   3.746   0.090
 1253TIP3    H2 3724   6.534   3.887   0.107
 1254TIP3   OH2 3725   3.566   4.346   2.849
 1254TIP3    H1 3726   3.497   4.298   2.894
 1254TIP3    H2 3727   3.647   4.306   2.880
 1255TIP3   OH2 3728   0.228   3.537   0.740
 1255TIP3    H1 3729   0.269   3.583   0.813
 1255TIP3    H2 3730   0.141   3.513   0.773
 1256TIP3   OH2 3731   1.684   4.419   0.644
 1256TIP3    H1 3732   1.671   4.370   0.725
 1256TIP3    H2 3733   1.726   4.500   0.672
 1257TIP3   OH2 3734   6.602   3.284   4.734
 1257TIP3    H1 3735   6.543   3.243   4.671
 1257TIP3    H2 3736   6.545   3.330   4.795
 1258TIP3   OH2 3737   4.584   5.193   3.968
 1258TIP3    H1 3738   4.501   5.220   3.929
 1258TIP3    H2 3739   4.572   5.100   3.988
 1259TIP3   OH2 3740   7.143   3.656   3.915
 1259TIP3    H1 3741   7.095   3.624   3.992
 1259TIP3    H2 3742   7.226   3.688   3.950
 1260TIP3   OH2 3743   0.360   6.698   2.376
 1260TIP3    H1 3744   0.338   6.787   2.349
 1260TIP3    H2 3745   0.434   6.709   2.436
 1261TIP3   OH2 3746   5.380   1.454   0.911
 1261TIP3    H1 3747   5.434   1.496   0.978
 1261TIP3    H2 3748   5.435   1.385   0.875
 1262TIP3   OH2 3749   3.561   1.062   2.269
 1262TIP3    H1 3750   3.536   1.094   2.182
 1262TIP3    H2 3751   3.491   1.002   2.294
 1263TIP3   OH2 3752   3.803   5.970   0.806
 1263TIP3    H1 3753   3.788   5.876   0.817
 1263TIP3    H2 3754   3.732   6.012   0.854
 1264TIP3   OH2 3755   1.498   2.118   1.063
 1264TIP3    H1 3756   1.562   2.136   1.132
 1264TIP3    H2 3757   1.424   2.174   1.083
 1265TIP3   OH2 3758   1.446   3.278   2.746
 1265TIP3    H1 3759   1.361   3.317   2.727
 1265TIP3    H2 3760   1.469   3.231   2.666
 1266TIP3   OH2 3761   6.487   5.388   0.363
 1266TIP3    H1 3762   6.549   5.342   0.306
 1266TIP3    H2 3763   6.401   5.366   0.327
 1267TIP3   OH2 3764   6.699   6.138   1.360
 1267TIP3    H1 3765   6.718   6.194   1.285
 1267TIP3    H2 3766   6.603   6.132   1.361
 1268TIP3   OH2 3767   0.525   2.751   3.396
 1268TIP3    H1 3768   0.582   2.826   3.378
 1268TIP3    H2 3769   0.573   2.698   3.459
 1269TIP3   OH2 3770   2.178   1.361   5.314
 1269TIP3    H1 3771   2.254   1.308   5.290
 1269TIP3    H2 3772   2.181   1.366   5.410
 1270TIP3   OH2 3773   7.030   1.679   1.348
 1270TIP3    H1 3774   6.954   1.621   1.342
 1270TIP3    H2 3775   7.002   1.749   1.408
 1271TIP3   OH2 3776   3.916   3.430   0.953
 1271TIP3    H1 3777   3.996   3.405   1.001
 1271TIP3    H2 3778   3.845   3.416   1.016
 1272TIP3   OH2 3779   1.277   0.975   4.727
 1272TIP3    H1 3780   1.266   1.067   4.749
 1272TIP3    H2 3781   1.245   0.927   4.803
 1273TIP3   OH2 3782   1.531   3.253   5.201
 1273TIP3    H1 3783   1.602   3.232   5.141
 1273TIP3    H2 3784   1.557   3.337   5.241
 1274TIP3   OH2 3785   6.559   0.956   4.011
 1274TIP3    H1 3786   6.557   0.861   4.000
 1274TIP3    H2 3787   6.504   0.990   3.940
 1275TIP3   OH2 3788   3.721   1.256   5.351
 1275TIP3    H1 3789   3.660   1.205   5.299
 1275TIP3    H2 3790   3.699   1.347   5.330
 1276TIP3   OH2 3791   4.445   1.161   1.954
 1276TIP3    H1 3792   4.411   1.100   2.019
 1276TIP3    H2 3793   4.385   1.153   1.880
 1277TIP3   OH2 3794   5.688   4.825   1.777
 1277TIP3    H1 3795   5.742   4.891   1.820
 1277TIP3    H2 3796   5.690   4.850   1.684
 1278TIP3   OH2 3797   2.043   5.316   3.889
 1278TIP3    H1 3798   1.996   5.256   3.948
 1278TIP3    H2 3799   2.013   5.291   3.802
 1279TIP3   OH2 3800   7.129   1.037   3.700
 1279TIP3    H1 3801   7.173   0.984   3.633
 1279TIP3    H2 3802   7.142   1.127   3.670
 1280TIP3   OH2 3803   2.199   1.204   4.028
 1280TIP3    H1 3804   2.164   1.246   3.950
 1280TIP3    H2 3805   2.122   1.192   4.085
 1281TIP3   OH2 3806   1.841   6.320   4.077
 1281TIP3    H1 3807   1.928   6.349   4.049
 1281TIP3    H2 3808   1.785   6.332   4.000
 1282TIP3   OH2 3809   2.626   2.481   5.353
 1282TIP3    H1 3810   2.661   2.569   5.359
 1282TIP3    H2 3811   2.696   2.424   5.384
 1283TIP3   OH2 3812   5.737   4.812   0.305
 1283TIP3    H1 3813   5.762   4.754   0.233
 1283TIP3    H2 3814   5.747   4.759   0.384
 1284TIP3   OH2 3815   1.636   3.730   2.661
 1284TIP3    H1 3816   1.716   3.782   2.654
 1284TIP3    H2 3817   1.663   3.641   2.639
 1285TIP3   OH2 3818   6.119   2.986   2.847
 1285TIP3    H1 3819   6.033   2.953   2.871
 1285TIP3    H2 3820   6.149   2.927   2.778
 1286TIP3   OH2 3821   2.626   4.901   4.389
 1286TIP3    H1 3822   2.605   4.916   4.481
 1286TIP3    H2 3823   2.542   4.902   4.344
 1287TIP3   OH2 3824   5.523   1.443   4.003
 1287TIP3    H1 3825   5.617   1.430   3.998
 1287TIP3    H2 3826   5.512   1.522   4.055
 1288TIP3   OH2 3827   7.084   2.613   3.093
 1288TIP3    H1 3828   7.050   2.698   3.064
 1288TIP3    H2 3829   7.007   2.559   3.106
 1289TIP3   OH2 3830   1.455   1.624   2.176
 1289TIP3    H1 3831   1.437   1.538   2.215
 1289TIP3    H2 3832   1.370   1.665   2.167
 1290TIP3   OH2 3833   4.266   1.476   4.113
 1290TIP3    H1 3834   4.255   1.466   4.019
 1290TIP3    H2 3835   4.338   1.417   4.135
 1291TIP3   OH2 3836   4.367   0.181   0.563
 1291TIP3    H1 3837   4.405   0.259   0.523
 1291TIP3    H2 3838   4.272   0.195   0.556
 1292TIP3   OH2 3839   1.886   1.162   3.165
 1292TIP3    H1 3840   1.964   1.137   3.216
 1292TIP3    H2 3841   1.818   1.175   3.231
 1293TIP3   OH2 3842   1.295   5.657   0.203
 1293TIP3    H1 3843   1.234   5.584   0.218
 1293TIP3    H2 3844   1.306   5.659   0.108
 1294TIP3   OH2 3845   3.889   5.683   3.185
 1294TIP3    H1 3846   3.806   5.637   3.201
 1294TIP3    H2 3847   3.939   5.622   3.130
 1295TIP3   OH2 3848   7.238   5.123   4.342
 1295TIP3    H1 3849   7.240   5.097   4.249
 1295TIP3    H2 3850   7.174   5.195   4.344
 1296TIP3   OH2 3851   5.904   6.437   1.151
 1296TIP3    H1 3852   5.842   6.500   1.113
 1296TIP3    H2 3853   5.909   6.366   1.086
 1297TIP3   OH2 3854   6.361   0.136   0.709
 1297TIP3    H1 3855   6.397   0.047   0.718
 1297TIP3    H2 3856   6.390   0.164   0.623
 1298TIP3   OH2 3857   6.248   4.238   4.638
 1298TIP3    H1 3858   6.334   4.213   4.603
 1298TIP3    H2 3859   6.265   4.259   4.730
 1299TIP3   OH2 3860   4.482   5.199   4.247
 1299TIP3    H1 3861   4.533   5.203   4.166
 1299TIP3    H2 3862   4.469   5.290   4.272
 1300TIP3   OH2 3863   3.941   0.604   0.649
 1300TIP3    H1 3864   3.992   0.618   0.569
 1300TIP3    H2 3865   3.927   0.692   0.685
 1301TIP3   OH2 3866   2.763   5.030   5.206
 1301TIP3    H1 3867   2.800   5.117   5.221
 1301TIP3    H2 3868   2.813   4.972   5.265
 1302TIP3   OH2 3869   1.709   2.628   1.576
 1302TIP3    H1 3870   1.783   2.569   1.589
 1302TIP3    H2 3871   1.738   2.711   1.614
 1303TIP3   OH2 3872   0.019   1.822   1.115
 1303TIP3    H1 3873   0.010   1.798   1.207
 1303TIP3    H2 3874  -0.017   1.911   1.110
 1304TIP3   OH2 3875   4.114   2.394   5.809
 1304TIP3    H1 3876   4.106   2.336   5.885
 1304TIP3    H2 3877   4.130   2.335   5.735
 1305TIP3   OH2 3878   1.015   2.623   5.413
 1305TIP3    H1 3879   0.934   2.662   5.445
 1305TIP3    H2 3880   1.036   2.672   5.334
 1306TIP3   OH2 3881   1.122   5.039   4.697
 1306TIP3    H1 3882   1.086   5.105   4.638
 1306TIP3    H2 3883   1.168   5.090   4.764
 1307TIP3   OH2 3884   2.539   6.047   3.578
 1307TIP3    H1 3885   2.586   6.119   3.535
 1307TIP3    H2 3886   2.606   5.982   3.597
 1308TIP3   OH2 3887   4.906   1.939   1.609
 1308TIP3    H1 3888   4.862   1.992   1.543
 1308TIP3    H2 3889   4.980   1.899   1.563
 1309TIP3   OH2 3890   3.831   6.304   1.139
 1309TIP3    H1 3891   3.740   6.275   1.146
 1309TIP3    H2 3892   3.831   6.369   1.068
 1310TIP3   OH2 3893   6.804   4.903   2.055
 1310TIP3    H1 3894   6.764   4.846   1.989
 1310TIP3    H2 3895   6.752   4.983   2.052
 1311TIP3   OH2 3896   5.518   4.430   0.095
 1311TIP3    H1 3897   5.520   4.439   0.190
 1311TIP3    H2 3898   5.471   4.507   0.064
 1312TIP3   OH2 3899   6.856   3.261   0.502
 1312TIP3    H1 3900   6.929   3.228   0.450
 1312TIP3    H2 3901   6.839   3.191   0.565
 1313TIP3   OH2 3902   3.491   2.329   5.675
 1313TIP3    H1 3903   3.529   2.274   5.608
 1313TIP3    H2 3904   3.499   2.418   5.641
 1314TIP3   OH2 3905   5.956   6.428   3.185
 1314TIP3    H1 3906   5.974   6.494   3.119
 1314TIP3    H2 3907   5.987   6.346   3.147
 1315TIP3   OH2 3908   3.515   6.263   1.127
 1315TIP3    H1 3909   3.439   6.311   1.095
 1315TIP3    H2 3910   3.498   6.249   1.220
 1316TIP3   OH2 3911   1.758   2.833   2.502
 1316TIP3    H1 3912   1.819   2.813   2.573
 1316TIP3    H2 3913   1.814   2.851   2.427
 1317TIP3   OH2 3914   3.461   5.739   0.951
 1317TIP3    H1 3915   3.452   5.806   1.018
 1317TIP3    H2 3916   3.554   5.741   0.928
 1318TIP3   OH2 3917   0.309   6.369   3.269
 1318TIP3    H1 3918   0.247   6.422   3.319
 1318TIP3    H2 3919   0.281   6.379   3.178
 1319TIP3   OH2 3920   5.651   3.630   0.808
 1319TIP3    H1 3921   5.695   3.545   0.813
 1319TIP3    H2 3922   5.636   3.655   0.899
 1320TIP3   OH2 3923   3.135   1.251   1.488
 1320TIP3    H1 3924   3.166   1.249   1.397
 1320TIP3    H2 3925   3.204   1.207   1.538
 1321TIP3   OH2 3926   5.662   0.837   2.640
 1321TIP3    H1 3927   5.701   0.875   2.561
 1321TIP3    H2 3928   5.576   0.806   2.612
 1322TIP3   OH2 3929   4.267   3.078   4.302
 1322TIP3    H1 3930   4.259   3.138   4.375
 1322TIP3    H2 3931   4.328   3.011   4.332
 1323TIP3   OH2 3932   4.593   4.485   2.081
 1323TIP3    H1 3933   4.645   4.426   2.026
 1323TIP3    H2 3934   4.540   4.535   2.018
 1324TIP3   OH2 3935   4.263   0.252   1.953
 1324TIP3    H1 3936   4.235   0.196   1.881
 1324TIP3    H2 3937   4.186   0.306   1.972
 1325TIP3   OH2 3938   5.860   0.799   0.337
 1325TIP3    H1 3939   5.773   0.836   0.349
 1325TIP3    H2 3940   5.902   0.805   0.423
 1326TIP3   OH2 3941   2.434   5.576   0.505
 1326TIP3    H1 3942   2.517   5.553   0.464
 1326TIP3    H2 3943   2.460   5.623   0.585
 1327TIP3   OH2 3944   1.256   1.022   4.446
 1327TIP3    H1 3945   1.292   0.969   4.517
 1327TIP3    H2 3946   1.180   1.066   4.485
 1328TIP3   OH2 3947   6.101   3.045   3.535
 1328TIP3    H1 3948   6.086   2.990   3.459
 1328TIP3    H2 3949   6.153   3.118   3.502
 1329TIP3   OH2 3950   0.800   1.689   4.549
 1329TIP3    H1 3951   0.747   1.616   4.582
 1329TIP3    H2 3952   0.776   1.763   4.605
 1330TIP3   OH2 3953   2.824   4.599   5.156
 1330TIP3    H1 3954   2.752   4.661   5.148
 1330TIP3    H2 3955   2.797   4.540   5.227
 1331TIP3   OH2 3956   0.512   3.259   1.213
 1331TIP3    H1 3957   0.597   3.268   1.169
 1331TIP3    H2 3958   0.533   3.267   1.306
 1332TIP3   OH2 3959   4.402   5.426   2.056
 1332TIP3    H1 3960   4.306   5.422   2.059
 1332TIP3    H2 3961   4.429   5.419   2.148
 1333TIP3   OH2 3962   5.797   2.829   5.799
 1333TIP3    H1 3963   5.718   2.802   5.846
 1333TIP3    H2 3964   5.796   2.776   5.719
 1334TIP3   OH2 3965   1.445   3.325   4.639
 1334TIP3    H1 3966   1.498   3.395   4.603
 1334TIP3    H2 3967   1.486   3.305   4.723
 1335TIP3   OH2 3968   5.439   5.169   4.900
 1335TIP3    H1 3969   5.454   5.111   4.975
 1335TIP3    H2 3970   5.408   5.110   4.831
 1336TIP3   OH2 3971   2.697   5.459   4.944
 1336TIP3    H1 3972   2.777   5.438   4.897
 1336TIP3    H2 3973   2.630   5.465   4.877
 1337TIP3   OH2 3974   0.462   4.499   2.345
 1337TIP3    H1 3975   0.426   4.461   2.265
 1337TIP3    H2 3976   0.548   4.532   2.319
 1338TIP3   OH2 3977   3.372   4.614   2.502
 1338TIP3    H1 3978   3.397   4.546   2.564
 1338TIP3    H2 3979   3.424   4.690   2.526
 1339TIP3   OH2 3980   1.884   5.839   4.103
 1339TIP3    H1 3981   1.794   5.846   4.070
 1339TIP3    H2 3982   1.935   5.901   4.051
 1340TIP3   OH2 3983   5.628   6.590   2.985
 1340TIP3    H1 3984   5.614   6.681   3.010
 1340TIP3    H2 3985   5.621   6.590   2.890
 1341TIP3   OH2 3986   5.804   1.050   0.732
 1341TIP3    H1 3987   5.800   1.037   0.827
 1341TIP3    H2 3988   5.726   1.006   0.699
 1342TIP3   OH2 3989   2.727   0.632   3.710
 1342TIP3    H1 3990   2.684   0.671   3.787
 1342TIP3    H2 3991   2.682   0.672   3.635
 1343TIP3   OH2 3992   3.017   6.321   0.224
 1343TIP3    H1 3993   3.070   6.350   0.150
 1343TIP3    H2 3994   2.985   6.402   0.264
 1344TIP3   OH2 3995   4.704   3.141   1.582
 1344TIP3    H1 3996   4.778   3.201   1.594
 1344TIP3    H2 3997   4.702   3.091   1.664
 1345TIP3   OH2 3998   1.153   4.202   3.118
 1345TIP3    H1 3999   1.076   4.153   3.088
 1345TIP3    H2 4000   1.142   4.209   3.213
 1346TIP3   OH2 4001   0.953   1.228   4.801
 1346TIP3    H1 4002   1.000   1.166   4.747
 1346TIP3    H2 4003   0.957   1.311   4.753
 1347TIP3   OH2 4004   3.372   4.241   5.714
 1347TIP3    H1 4005   3.324   4.311   5.671
 1347TIP3    H2 4006   3.353   4.163   5.662
 1348TIP3   OH2 4007   0.645   3.950   4.241
 1348TIP3    H1 4008   0.620   3.961   4.333
 1348TIP3    H2 4009   0.698   3.871   4.239
 1349TIP3   OH2 4010   3.032   0.787   1.489
 1349TIP3    H1 4011   3.098   0.745   1.435
 1349TIP3    H2 4012   2.972   0.829   1.427
 1350TIP3   OH2 4013   1.580   4.089   4.166
 1350TIP3    H1 4014   1.488   4.076   4.187
 1350TIP3    H2 4015   1.587   4.181   4.141
 1351TIP3   OH2 4016   6.882   1.430   0.087
 1351TIP3    H1 4017   6.970   1.456   0.059
 1351TIP3    H2 4018   6.886   1.334   0.092
 1352TIP3   OH2 4019   3.639   1.237   0.966
 1352TIP3    H1 4020   3.557   1.209   1.008
 1352TIP3    H2 4021   3.662   1.319   1.009
 1353TIP3   OH2 4022   0.222   5.401   0.285
 1353TIP3    H1 4023   0.131   5.395   0.255
 1353TIP3    H2 4024   0.248   5.491   0.265
 1354TIP3   OH2 4025   1.575   3.979   5.760
 1354TIP3    H1 4026   1.553   3.886   5.759
 1354TIP3    H2 4027   1.525   4.014   5.833
 1355TIP3   OH2 4028   4.087   2.180   2.134
 1355TIP3    H1 4029   4.080   2.086   2.115
 1355TIP3    H2 4030   4.020   2.220   2.078
 1356TIP3   OH2 4031   0.295   5.600   2.392
 1356TIP3    H1 4032   0.249   5.614   2.310
 1356TIP3    H2 4033   0.382   5.639   2.378
 1357TIP3   OH2 4034   6.860   2.201   5.043
 1357TIP3    H1 4035   6.799   2.201   4.969
 1357TIP3    H2 4036   6.862   2.110   5.073
 1358TIP3   OH2 4037   1.487   4.257   4.959
 1358TIP3    H1 4038   1.562   4.208   4.993
 1358TIP3    H2 4039   1.497   4.255   4.864
 1359TIP3   OH2 4040   3.002   1.039   2.467
 1359TIP3    H1 4041   3.067   1.056   2.535
 1359TIP3    H2 4042   2.927   1.094   2.490
 1360TIP3   OH2 4043   0.307   6.146   2.913
 1360TIP3    H1 4044   0.390   6.174   2.950
 1360TIP3    H2 4045   0.290   6.060   2.954
 1361TIP3   OH2 4046   3.059   1.774   2.438
 1361TIP3    H1 4047   3.139   1.725   2.457
 1361TIP3    H2 4048   3.010   1.773   2.521
 1362TIP3   OH2 4049   2.554   4.500   4.348
 1362TIP3    H1 4050   2.530   4.592   4.335
 1362TIP3    H2 4051   2.472   4.457   4.368
 1363TIP3   OH2 4052   0.337   0.440   4.028
 1363TIP3    H1 4053   0.398   0.502   4.070
 1363TIP3    H2 4054   0.386   0.358   4.022
 1364TIP3   OH2 4055   0.683   6.528   1.104
 1364TIP3    H1 4056   0.642   6.549   1.188
 1364TIP3    H2 4057   0.775   6.554   1.116
 1365TIP3   OH2 4058   0.867   1.153   1.518
 1365TIP3    H1 4059   0.956   1.151   1.553
 1365TIP3    H2 4060   0.811   1.165   1.595
 1366TIP3   OH2 4061   2.051   2.803   1.267
 1366TIP3    H1 4062   2.133   2.757   1.250
 1366TIP3    H2 4063   1.984   2.735   1.262
 1367TIP3   OH2 4064   3.821   6.474   0.925
 1367TIP3    H1 4065   3.850   6.562   0.904
 1367TIP3    H2 4066   3.726   6.476   0.913
 1368TIP3   OH2 4067   3.600   1.202   0.427
 1368TIP3    H1 4068   3.601   1.224   0.521
 1368TIP3    H2 4069   3.615   1.285   0.383
 1369TIP3   OH2 4070   4.345   6.021   0.854
 1369TIP3    H1 4071   4.336   6.116   0.858
 1369TIP3    H2 4072   4.301   5.990   0.933
 1370TIP3   OH2 4073   5.906   4.154   1.618
 1370TIP3    H1 4074   5.920   4.197   1.702
 1370TIP3    H2 4075   5.915   4.061   1.636
 1371TIP3   OH2 4076   5.886   3.312   1.136
 1371TIP3    H1 4077   5.919   3.384   1.083
 1371TIP3    H2 4078   5.800   3.342   1.167
 1372TIP3   OH2 4079   3.750   1.383   3.429
 1372TIP3    H1 4080   3.673   1.343   3.388
 1372TIP3    H2 4081   3.730   1.382   3.522
 1373TIP3   OH2 4082   0.642   1.174   3.925
 1373TIP3    H1 4083   0.607   1.154   3.838
 1373TIP3    H2 4084   0.608   1.104   3.981
 1374TIP3   OH2 4085   5.499   2.671   5.541
 1374TIP3    H1 4086   5.514   2.701   5.452
 1374TIP3    H2 4087   5.575   2.704   5.590
 1375TIP3   OH2 4088   6.854   3.678   4.255
 1375TIP3    H1 4089   6.929   3.663   4.198
 1375TIP3    H2 4090   6.819   3.591   4.272
 1376TIP3   OH2 4091   4.732   6.606   0.800
 1376TIP3    H1 4092   4.702   6.516   0.816
 1376TIP3    H2 4093   4.805   6.597   0.739
 1377TIP3   OH2 4094   2.824   6.000   3.409
 1377TIP3    H1 4095   2.900   5.970   3.359
 1377TIP3    H2 4096   2.834   5.957   3.494
 1378TIP3   OH2 4097   0.662   0.737   0.627
 1378TIP3    H1 4098   0.663   0.722   0.721
 1378TIP3    H2 4099   0.612   0.817   0.615
 1379TIP3   OH2 4100   4.613   1.940   4.588
 1379TIP3    H1 4101   4.571   1.888   4.519
 1379TIP3    H2 4102   4.639   1.876   4.654
 1380TIP3   OH2 4103   6.904   5.279   1.778
 1380TIP3    H1 4104   6.928   5.371   1.766
 1380TIP3    H2 4105   6.988   5.233   1.783
 1381TIP3   OH2 4106   6.011   2.383   5.179
 1381TIP3    H1 4107   6.067   2.306   5.191
 1381TIP3    H2 4108   5.986   2.381   5.087
 1382TIP3   OH2 4109   5.142   0.839   2.799
 1382TIP3    H1 4110   5.166   0.927   2.771
 1382TIP3    H2 4111   5.066   0.816   2.746
 1383TIP3   OH2 4112   3.094   4.979   3.260
 1383TIP3    H1 4113   3.030   4.939   3.318
 1383TIP3    H2 4114   3.132   5.050   3.312
 1384TIP3   OH2 4115   1.019   0.903   0.217
 1384TIP3    H1 4116   0.965   0.850   0.276
 1384TIP3    H2 4117   1.062   0.966   0.275
 1385TIP3   OH2 4118   3.186   3.301   1.533
 1385TIP3    H1 4119   3.199   3.244   1.609
 1385TIP3    H2 4120   3.102   3.344   1.550
 1386TIP3   OH2 4121   6.141   5.944   4.848
 1386TIP3    H1 4122   6.167   6.024   4.895
 1386TIP3    H2 4123   6.061   5.916   4.893
 1387TIP3   OH2 4124   4.002   6.148   1.570
 1387TIP3    H1 4125   3.907   6.162   1.572
 1387TIP3    H2 4126   4.039   6.234   1.551
 1388TIP3   OH2 4127   0.646   6.623   1.595
 1388TIP3    H1 4128   0.676   6.672   1.671
 1388TIP3    H2 4129   0.644   6.532   1.623
 1389TIP3   OH2 4130   3.152   3.174   0.547
 1389TIP3    H1 4131   3.095   3.218   0.610
 1389TIP3    H2 4132   3.239   3.176   0.587
 1390TIP3   OH2 4133   4.339   3.985   5.708
 1390TIP3    H1 4134   4.356   4.055   5.772
 1390TIP3    H2 4135   4.271   4.020   5.651
 1391TIP3   OH2 4136   3.862   4.155   5.370
 1391TIP3    H1 4137   3.812   4.093   5.318
 1391TIP3    H2 4138   3.830   4.241   5.343
 1392TIP3   OH2 4139   5.476   2.396   4.944
 1392TIP3    H1 4140   5.489   2.356   5.030
 1392TIP3    H2 4141   5.484   2.490   4.960
 1393TIP3   OH2 4142   2.272   4.218   0.615
 1393TIP3    H1 4143   2.297   4.145   0.671
 1393TIP3    H2 4144   2.239   4.285   0.675
 1394TIP3   OH2 4145   3.218   5.032   4.344
 1394TIP3    H1 4146   3.183   4.943   4.335
 1394TIP3    H2 4147   3.140   5.088   4.350
 1395TIP3   OH2 4148   5.476   3.108   3.247
 1395TIP3    H1 4149   5.530   3.109   3.326
 1395TIP3    H2 4150   5.521   3.048   3.187
 1396TIP3   OH2 4151   3.860   4.705   2.264
 1396TIP3    H1 4152   3.842   4.617   2.296
 1396TIP3    H2 4153   3.864   4.759   2.343
 1397TIP3   OH2 4154   6.374   1.702   1.066
 1397TIP3    H1 4155   6.385   1.733   0.976
 1397TIP3    H2 4156   6.458   1.718   1.108
 1398TIP3   OH2 4157   6.547   3.034   1.420
 1398TIP3    H1 4158   6.523   2.975   1.348
 1398TIP3    H2 4159   6.627   2.997   1.456
 1399TIP3   OH2 4160   6.234   2.568   0.871
 1399TIP3    H1 4161   6.264   2.518   0.795
 1399TIP3    H2 4162   6.154   2.612   0.841
 1400TIP3   OH2 4163   6.290   4.669   2.681
 1400TIP3    H1 4164   6.294   4.713   2.596
 1400TIP3    H2 4165   6.379   4.675   2.716
 1401TIP3   OH2 4166   6.984   4.969   2.363
 1401TIP3    H1 4167   7.049   5.018   2.313
 1401TIP3    H2 4168   6.914   5.031   2.381
 1402TIP3   OH2 4169   1.042   6.712   0.701
 1402TIP3    H1 4170   1.036   6.779   0.633
 1402TIP3    H2 4171   1.083   6.756   0.775
 1403TIP3   OH2 4172   3.888   0.409   3.762
 1403TIP3    H1 4173   3.808   0.400   3.711
 1403TIP3    H2 4174   3.957   0.427   3.698
 1404TIP3   OH2 4175   6.809   1.397   3.996
 1404TIP3    H1 4176   6.845   1.395   4.085
 1404TIP3    H2 4177   6.845   1.319   3.954
 1405TIP3   OH2 4178   0.625   6.346   1.668
 1405TIP3    H1 4179   0.637   6.297   1.587
 1405TIP3    H2 4180   0.612   6.279   1.735
 1406TIP3   OH2 4181   5.415   2.261   1.899
 1406TIP3    H1 4182   5.368   2.311   1.834
 1406TIP3    H2 4183   5.496   2.310   1.914
 1407TIP3   OH2 4184   0.660   3.774   1.955
 1407TIP3    H1 4185   0.582   3.722   1.937
 1407TIP3    H2 4186   0.656   3.846   1.892
 1408TIP3   OH2 4187   5.811   2.298   5.770
 1408TIP3    H1 4188   5.902   2.270   5.778
 1408TIP3    H2 4189   5.813   2.392   5.787
 1409TIP3   OH2 4190   0.850   5.386   2.939
 1409TIP3    H1 4191   0.911   5.459   2.930
 1409TIP3    H2 4192   0.885   5.318   2.882
 1410TIP3   OH2 4193   3.942   5.363   1.571
 1410TIP3    H1 4194   3.858   5.356   1.616
 1410TIP3    H2 4195   3.934   5.443   1.518
 1411TIP3   OH2 4196   4.763   1.790   3.748
 1411TIP3    H1 4197   4.693   1.758   3.804
 1411TIP3    H2 4198   4.726   1.865   3.701
 1412TIP3   OH2 4199   1.436   3.305   1.002
 1412TIP3    H1 4200   1.513   3.297   1.058
 1412TIP3    H2 4201   1.455   3.380   0.945
 1413TIP3   OH2 4202   1.129   6.658   3.296
 1413TIP3    H1 4203   1.182   6.691   3.369
 1413TIP3    H2 4204   1.192   6.646   3.224
 1414TIP3   OH2 4205   0.259   6.565   5.369
 1414TIP3    H1 4206   0.177   6.543   5.325
 1414TIP3    H2 4207   0.243   6.547   5.461
 1415TIP3   OH2 4208   5.802   1.222   1.485
 1415TIP3    H1 4209   5.801   1.316   1.501
 1415TIP3    H2 4210   5.887   1.193   1.519
 1416TIP3   OH2 4211   3.774   4.196   3.224
 1416TIP3    H1 4212   3.734   4.122   3.270
 1416TIP3    H2 4213   3.700   4.244   3.188
 1417TIP3   OH2 4214   1.426   1.880   5.260
 1417TIP3    H1 4215   1.425   1.947   5.192
 1417TIP3    H2 4216   1.467   1.923   5.335
 1418TIP3   OH2 4217   3.977   5.914   4.500
 1418TIP3    H1 4218   3.975   5.877   4.588
 1418TIP3    H2 4219   3.938   5.847   4.445
 1419TIP3   OH2 4220   4.479   5.105   0.808
 1419TIP3    H1 4221   4.440   5.063   0.731
 1419TIP3    H2 4222   4.558   5.055   0.825
 1420TIP3   OH2 4223   5.835   1.046   3.972
 1420TIP3    H1 4224   5.848   1.141   3.968
 1420TIP3    H2 4225   5.758   1.030   3.918
 1421TIP3   OH2 4226   2.548   6.239   0.781
 1421TIP3    H1 4227   2.597   6.314   0.814
 1421TIP3    H2 4228   2.587   6.164   0.826
 1422TIP3   OH2 4229   0.551   5.689   4.594
 1422TIP3    H1 4230   0.486   5.710   4.526
 1422TIP3    H2 4231   0.589   5.605   4.566
 1423TIP3   OH2 4232   0.324   5.938   4.533
 1423TIP3    H1 4233   0.242   5.965   4.573
 1423TIP3    H2 4234   0.359   6.017   4.494
 1424TIP3   OH2 4235   0.300   1.879   2.109
 1424TIP3    H1 4236   0.336   1.843   2.189
 1424TIP3    H2 4237   0.354   1.841   2.039
 1425TIP3   OH2 4238   6.658   2.257   3.278
 1425TIP3    H1 4239   6.719   2.327   3.304
 1425TIP3    H2 4240   6.647   2.268   3.184
 1426TIP3   OH2 4241   0.565   5.050   0.919
 1426TIP3    H1 4242   0.528   5.009   0.841
 1426TIP3    H2 4243   0.557   4.982   0.987
 1427TIP3   OH2 4244   5.567   0.128   4.914
 1427TIP3    H1 4245   5.505   0.062   4.882
 1427TIP3    H2 4246   5.586   0.101   5.004
 1428TIP3   OH2 4247   3.593   4.438   2.591
 1428TIP3    H1 4248   3.600   4.407   2.681
 1428TIP3    H2 4249   3.586   4.358   2.538
 1429TIP3   OH2 4250   3.655   0.991   5.574
 1429TIP3    H1 4251   3.580   1.050   5.573
 1429TIP3    H2 4252   3.719   1.033   5.516
 1430TIP3   OH2 4253   1.336   4.619   5.559
 1430TIP3    H1 4254   1.289   4.701   5.540
 1430TIP3    H2 4255   1.365   4.629   5.650
 1431TIP3   OH2 4256   1.863   6.221   5.650
 1431TIP3    H1 4257   1.797   6.270   5.602
 1431TIP3    H2 4258   1.894   6.282   5.718
 1432TIP3   OH2 4259   6.315   1.659   2.229
 1432TIP3    H1 4260   6.372   1.588   2.197
 1432TIP3    H2 4261   6.334   1.733   2.171
 1433TIP3   OH2 4262   6.609   3.625   1.404
 1433TIP3    H1 4263   6.600   3.716   1.374
 1433TIP3    H2 4264   6.542   3.616   1.472
 1434TIP3   OH2 4265   4.050   4.270   4.052
 1434TIP3    H1 4266   4.032   4.350   4.101
 1434TIP3    H2 4267   3.966   4.245   4.015
 1435TIP3   OH2 4268   3.058   0.775   5.283
 1435TIP3    H1 4269   3.056   0.849   5.344
 1435TIP3    H2 4270   2.970   0.738   5.286
 1436TIP3   OH2 4271   2.399   0.997   0.423
 1436TIP3    H1 4272   2.406   0.901   0.418
 1436TIP3    H2 4273   2.418   1.017   0.515
 1437TIP3   OH2 4274   4.684   1.670   1.974
 1437TIP3    H1 4275   4.728   1.723   1.908
 1437TIP3    H2 4276   4.754   1.637   2.030
 1438TIP3   OH2 4277   0.205   4.054   5.522
 1438TIP3    H1 4278   0.198   3.961   5.498
 1438TIP3    H2 4279   0.146   4.063   5.597
 1439TIP3   OH2 4280   3.785   1.798   3.532
 1439TIP3    H1 4281   3.821   1.780   3.619
 1439TIP3    H2 4282   3.764   1.711   3.497
 1440TIP3   OH2 4283   4.185   6.290   3.520
 1440TIP3    H1 4284   4.228   6.249   3.596
 1440TIP3    H2 4285   4.147   6.370   3.555
 1441TIP3   OH2 4286   7.056   2.751   2.320
 1441TIP3    H1 4287   7.013   2.825   2.364
 1441TIP3    H2 4288   7.031   2.675   2.372
 1442TIP3   OH2 4289   2.187   5.882   0.235
 1442TIP3    H1 4290   2.271   5.911   0.199
 1442TIP3    H2 4291   2.126   5.953   0.216
 1443TIP3   OH2 4292   4.695   0.692   1.001
 1443TIP3    H1 4293   4.676   0.756   0.933
 1443TIP3    H2 4294   4.759   0.736   1.058
 1444TIP3   OH2 4295   2.365   0.574   4.290
 1444TIP3    H1 4296   2.457   0.550   4.300
 1444TIP3    H2 4297   2.317   0.505   4.336
 1445TIP3   OH2 4298   4.486   4.645   4.385
 1445TIP3    H1 4299   4.542   4.681   4.316
 1445TIP3    H2 4300   4.449   4.566   4.347
 1446TIP3   OH2 4301   1.587   6.665   5.783
 1446TIP3    H1 4302   1.603   6.581   5.740
 1446TIP3    H2 4303   1.508   6.650   5.835
 1447TIP3   OH2 4304   1.516   4.093   0.290
 1447TIP3    H1 4305   1.594   4.111   0.343
 1447TIP3    H2 4306   1.527   4.148   0.213
 1448TIP3   OH2 4307   1.907   4.714   5.705
 1448TIP3    H1 4308   1.949   4.759   5.632
 1448TIP3    H2 4309   1.979   4.689   5.763
 1449TIP3   OH2 4310   2.832   2.246   2.409
 1449TIP3    H1 4311   2.927   2.258   2.411
 1449TIP3    H2 4312   2.813   2.187   2.482
 1450TIP3   OH2 4313   0.598   1.953   5.449
 1450TIP3    H1 4314   0.513   1.989   5.423
 1450TIP3    H2 4315   0.590   1.938   5.543
 1451TIP3   OH2 4316   0.933   6.441   3.420
 1451TIP3    H1 4317   0.935   6.418   3.513
 1451TIP3    H2 4318   1.008   6.500   3.409
 1452TIP3   OH2 4319   5.181   3.033   5.644
 1452TIP3    H1 4320   5.144   3.025   5.556
 1452TIP3    H2 4321   5.221   2.948   5.661
 1453TIP3   OH2 4322   4.622   6.450   2.151
 1453TIP3    H1 4323   4.692   6.393   2.183
 1453TIP3    H2 4324   4.651   6.475   2.064
 1454TIP3   OH2 4325   5.347   6.289   4.401
 1454TIP3    H1 4326   5.408   6.348   4.357
 1454TIP3    H2 4327   5.260   6.328   4.386
 1455TIP3   OH2 4328   6.346   2.867   3.096
 1455TIP3    H1 4329   6.404   2.923   3.148
 1455TIP3    H2 4330   6.369   2.886   3.005
 1456TIP3   OH2 4331   6.549   0.622   2.937
 1456TIP3    H1 4332   6.502   0.665   2.865
 1456TIP3    H2 4333   6.505   0.653   3.016
 1457TIP3   OH2 4334   4.833   5.600   3.552
 1457TIP3    H1 4335   4.806   5.520   3.596
 1457TIP3    H2 4336   4.759   5.659   3.561
 1458TIP3   OH2 4337   4.780   1.836   0.209
 1458TIP3    H1 4338   4.856   1.802   0.257
 1458TIP3    H2 4339   4.774   1.780   0.132
 1459TIP3   OH2 4340   6.545   3.315   3.433
 1459TIP3    H1 4341   6.571   3.368   3.508
 1459TIP3    H2 4342   6.586   3.230   3.447
 1460TIP3   OH2 4343   6.212   3.775   0.852
 1460TIP3    H1 4344   6.180   3.765   0.762
 1460TIP3    H2 4345   6.138   3.814   0.900
 1461TIP3   OH2 4346   4.660   5.689   3.881
 1461TIP3    H1 4347   4.673   5.595   3.898
 1461TIP3    H2 4348   4.651   5.695   3.786
 1462TIP3   OH2 4349   4.880   2.197   3.414
 1462TIP3    H1 4350   4.915   2.285   3.402
 1462TIP3    H2 4351   4.807   2.209   3.476
 1463TIP3   OH2 4352   5.941   1.571   3.067
 1463TIP3    H1 4353   5.929   1.536   3.156
 1463TIP3    H2 4354   5.967   1.662   3.080
 1464TIP3   OH2 4355   0.345   3.454   1.771
 1464TIP3    H1 4356   0.346   3.482   1.679
 1464TIP3    H2 4357   0.364   3.533   1.821
 1465TIP3   OH2 4358   1.152   0.274   4.199
 1465TIP3    H1 4359   1.125   0.264   4.108
 1465TIP3    H2 4360   1.154   0.369   4.214
 1466TIP3   OH2 4361   4.076   1.824   3.647
 1466TIP3    H1 4362   4.100   1.915   3.665
 1466TIP3    H2 4363   4.011   1.802   3.713
 1467TIP3   OH2 4364   1.745   0.787   1.501
 1467TIP3    H1 4365   1.692   0.763   1.577
 1467TIP3    H2 4366   1.714   0.729   1.431
 1468TIP3   OH2 4367   4.993   2.869   2.529
 1468TIP3    H1 4368   5.088   2.855   2.527
 1468TIP3    H2 4369   4.956   2.793   2.484
 1469TIP3   OH2 4370   3.712   6.107   3.759
 1469TIP3    H1 4371   3.648   6.043   3.729
 1469TIP3    H2 4372   3.736   6.156   3.680
 1470TIP3   OH2 4373   4.956   4.795   5.834
 1470TIP3    H1 4374   5.039   4.751   5.849
 1470TIP3    H2 4375   4.893   4.724   5.824
 1471TIP3   OH2 4376   5.175   3.729   0.443
 1471TIP3    H1 4377   5.250   3.754   0.388
 1471TIP3    H2 4378   5.162   3.636   0.424
 1472TIP3   OH2 4379   1.160   5.989   5.382
 1472TIP3    H1 4380   1.162   5.895   5.399
 1472TIP3    H2 4381   1.218   6.002   5.307
 1473TIP3   OH2 4382   5.212   4.389   1.981
 1473TIP3    H1 4383   5.307   4.384   1.975
 1473TIP3    H2 4384   5.182   4.299   1.973
 1474TIP3   OH2 4385   1.888   1.214   0.485
 1474TIP3    H1 4386   1.904   1.248   0.573
 1474TIP3    H2 4387   1.958   1.250   0.431
 1475TIP3   OH2 4388   0.671   1.684   4.299
 1475TIP3    H1 4389   0.710   1.701   4.384
 1475TIP3    H2 4390   0.742   1.700   4.236
 1476TIP3   OH2 4391   6.339   6.389   0.847
 1476TIP3    H1 4392   6.358   6.308   0.895
 1476TIP3    H2 4393   6.262   6.425   0.890
 1477TIP3   OH2 4394   3.515   1.936   2.572
 1477TIP3    H1 4395   3.548   1.923   2.661
 1477TIP3    H2 4396   3.503   2.031   2.566
 1478TIP3   OH2 4397   3.849   6.387   2.193
 1478TIP3    H1 4398   3.859   6.299   2.231
 1478TIP3    H2 4399   3.767   6.382   2.143
 1479TIP3   OH2 4400   4.994   0.916   3.547
 1479TIP3    H1 4401   5.011   0.823   3.526
 1479TIP3    H2 4402   4.986   0.958   3.461
 1480TIP3   OH2 4403   2.686   4.869   5.861
 1480TIP3    H1 4404   2.720   4.788   5.823
 1480TIP3    H2 4405   2.754   4.897   5.922
 1481TIP3   OH2 4406   0.313   3.186   5.864
 1481TIP3    H1 4407   0.357   3.103   5.882
 1481TIP3    H2 4408   0.255   3.199   5.940
 1482TIP3   OH2 4409   1.890   5.267   1.537
 1482TIP3    H1 4410   1.909   5.173   1.536
 1482TIP3    H2 4411   1.808   5.275   1.586
 1483TIP3   OH2 4412   7.207   6.437   0.913
 1483TIP3    H1 4413   7.206   6.369   0.845
 1483TIP3    H2 4414   7.117   6.469   0.916
 1484TIP3   OH2 4415   3.878   6.299   5.858
 1484TIP3    H1 4416   3.785   6.278   5.856
 1484TIP3    H2 4417   3.915   6.254   5.782
 1485TIP3   OH2 4418   5.555   5.162   3.807
 1485TIP3    H1 4419   5.540   5.076   3.847
 1485TIP3    H2 4420   5.603   5.212   3.873
 1486TIP3   OH2 4421   7.157   6.557   3.105
 1486TIP3    H1 4422   7.223   6.501   3.065
 1486TIP3    H2 4423   7.076   6.535   3.059
 1487TIP3   OH2 4424   4.486   4.955   5.487
 1487TIP3    H1 4425   4.452   4.878   5.442
 1487TIP3    H2 4426   4.581   4.948   5.477
 1488TIP3   OH2 4427   2.361   5.623   5.695
 1488TIP3    H1 4428   2.443   5.594   5.654
 1488TIP3    H2 4429   2.293   5.594   5.634
 1489TIP3   OH2 4430   5.174   2.224   2.095
 1489TIP3    H1 4431   5.160   2.265   2.010
 1489TIP3    H2 4432   5.200   2.134   2.075
 1490TIP3   OH2 4433   0.611   3.436   4.120
 1490TIP3    H1 4434   0.634   3.404   4.207
 1490TIP3    H2 4435   0.694   3.444   4.074
 1491TIP3   OH2 4436   6.296   3.904   1.859
 1491TIP3    H1 4437   6.339   3.850   1.925
 1491TIP3    H2 4438   6.213   3.929   1.898
 1492TIP3   OH2 4439   1.565   3.655   4.955
 1492TIP3    H1 4440   1.585   3.665   5.048
 1492TIP3    H2 4441   1.469   3.661   4.950
 1493TIP3   OH2 4442   1.754   3.575   1.623
 1493TIP3    H1 4443   1.724   3.608   1.538
 1493TIP3    H2 4444   1.675   3.570   1.676
 1494TIP3   OH2 4445   6.578   3.625   5.408
 1494TIP3    H1 4446   6.627   3.664   5.481
 1494TIP3    H2 4447   6.607   3.534   5.406
 1495TIP3   OH2 4448   2.475   0.508   0.293
 1495TIP3    H1 4449   2.416   0.477   0.225
 1495TIP3    H2 4450   2.505   0.593   0.262
 1496TIP3   OH2 4451   6.213   1.265   4.290
 1496TIP3    H1 4452   6.218   1.245   4.196
 1496TIP3    H2 4453   6.298   1.303   4.311
 1497TIP3   OH2 4454   3.388   6.455   5.632
 1497TIP3    H1 4455   3.340   6.463   5.714
 1497TIP3    H2 4456   3.323   6.425   5.568
 1498TIP3   OH2 4457   6.679   2.458   5.004
 1498TIP3    H1 4458   6.730   2.382   4.976
 1498TIP3    H2 4459   6.635   2.488   4.924
 1499TIP3   OH2 4460   2.234   2.137   1.661
 1499TIP3    H1 4461   2.165   2.078   1.693
 1499TIP3    H2 4462   2.296   2.079   1.617
 1500TIP3   OH2 4463   4.895   0.365   4.730
 1500TIP3    H1 4464   4.904   0.377   4.824
 1500TIP3    H2 4465   4.921   0.274   4.714
 1501TIP3   OH2 4466   0.716   1.382   4.566
 1501TIP3    H1 4467   0.647   1.335   4.519
 1501TIP3    H2 4468   0.695   1.372   4.658
 1502TIP3   OH2 4469   0.908   0.836   3.902
 1502TIP3    H1 4470   0.926   0.918   3.948
 1502TIP3    H2 4471   0.814   0.838   3.884
 1503TIP3   OH2 4472   0.976   4.964   1.258
 1503TIP3    H1 4473   0.942   5.047   1.223
 1503TIP3    H2 4474   1.056   4.948   1.208
 1504TIP3   OH2 4475   6.683   2.596   4.740
 1504TIP3    H1 4476   6.601   2.578   4.694
 1504TIP3    H2 4477   6.662   2.667   4.800
 1505TIP3   OH2 4478   3.790   5.091   4.585
 1505TIP3    H1 4479   3.882   5.112   4.603
 1505TIP3    H2 4480   3.785   5.083   4.490
 1506TIP3   OH2 4481   5.299   2.051   4.640
 1506TIP3    H1 4482   5.361   2.123   4.642
 1506TIP3    H2 4483   5.280   2.038   4.547
 1507TIP3   OH2 4484   4.605   3.620   2.798
 1507TIP3    H1 4485   4.686   3.634   2.847
 1507TIP3    H2 4486   4.606   3.685   2.729
 1508TIP3   OH2 4487   1.605   6.753   1.394
 1508TIP3    H1 4488   1.512   6.751   1.416
 1508TIP3    H2 4489   1.609   6.714   1.307
 1509TIP3   OH2 4490   4.046   0.571   2.937
 1509TIP3    H1 4491   4.108   0.541   2.871
 1509TIP3    H2 4492   4.019   0.658   2.908
 1510TIP3   OH2 4493   6.157   6.465   5.322
 1510TIP3    H1 4494   6.075   6.417   5.329
 1510TIP3    H2 4495   6.224   6.397   5.315
 1511TIP3   OH2 4496   4.872   3.556   2.173
 1511TIP3    H1 4497   4.916   3.600   2.246
 1511TIP3    H2 4498   4.807   3.620   2.143
 1512TIP3   OH2 4499   5.526   3.321   2.874
 1512TIP3    H1 4500   5.579   3.295   2.950
 1512TIP3    H2 4501   5.447   3.359   2.912
 1513TIP3   OH2 4502   6.697   0.769   2.306
 1513TIP3    H1 4503   6.744   0.848   2.279
 1513TIP3    H2 4504   6.637   0.751   2.234
 1514TIP3   OH2 4505   3.126   4.118   0.003
 1514TIP3    H1 4506   3.192   4.074   0.057
 1514TIP3    H2 4507   3.173   4.193  -0.034
 1515TIP3   OH2 4508   1.426   0.370   3.733
 1515TIP3    H1 4509   1.381   0.452   3.711
 1515TIP3    H2 4510   1.428   0.322   3.650
 1516TIP3   OH2 4511   5.780   2.218   1.579
 1516TIP3    H1 4512   5.856   2.272   1.556
 1516TIP3    H2 4513   5.719   2.279   1.619
 1517TIP3   OH2 4514   5.768   4.607   3.839
 1517TIP3    H1 4515   5.824   4.642   3.769
 1517TIP3    H2 4516   5.829   4.582   3.908
 1518TIP3   OH2 4517   3.126   4.583   2.957
 1518TIP3    H1 4518   3.158   4.574   3.047
 1518TIP3    H2 4519   3.205   4.575   2.903
 1519TIP3   OH2 4520   0.175   3.811   0.096
 1519TIP3    H1 4521   0.113   3.838   0.029
 1519TIP3    H2 4522   0.150   3.722   0.118
 1520TIP3   OH2 4523   0.315   5.990   2.589
 1520TIP3    H1 4524   0.362   6.064   2.628
 1520TIP3    H2 4525   0.360   5.913   2.623
 1521TIP3   OH2 4526   1.872   6.501   4.876
 1521TIP3    H1 4527   1.882   6.430   4.812
 1521TIP3    H2 4528   1.791   6.545   4.851
 1522TIP3   OH2 4529   5.212   3.636   3.178
 1522TIP3    H1 4530   5.119   3.649   3.194
 1522TIP3    H2 4531   5.241   3.579   3.250
 1523TIP3   OH2 4532   1.598   4.529   5.064
 1523TIP3    H1 4533   1.596   4.533   4.969
 1523TIP3    H2 4534   1.546   4.451   5.086
 1524TIP3   OH2 4535   2.112   2.770   5.029
 1524TIP3    H1 4536   2.188   2.722   5.062
 1524TIP3    H2 4537   2.145   2.819   4.954
 1525TIP3   OH2 4538   5.108   0.639   1.053
 1525TIP3    H1 4539   5.188   0.690   1.066
 1525TIP3    H2 4540   5.038   0.705   1.051
 1526TIP3   OH2 4541   2.252   6.301   5.557
 1526TIP3    H1 4542   2.240   6.227   5.498
 1526TIP3    H2 4543   2.337   6.287   5.597
 1527TIP3   OH2 4544   4.271   2.380   0.050
 1527TIP3    H1 4545   4.244   2.402   0.139
 1527TIP3    H2 4546   4.363   2.355   0.058
 1528TIP3   OH2 4547   5.818   1.372   4.121
 1528TIP3    H1 4548   5.893   1.420   4.086
 1528TIP3    H2 4549   5.822   1.388   4.215
 1529TIP3   OH2 4550   2.697   5.382   0.637
 1529TIP3    H1 4551   2.661   5.444   0.701
 1529TIP3    H2 4552   2.787   5.366   0.668
 1530TIP3   OH2 4553   3.229   6.292   4.490
 1530TIP3    H1 4554   3.216   6.210   4.443
 1530TIP3    H2 4555   3.322   6.293   4.512
 1531TIP3   OH2 4556   6.768   0.967   5.893
 1531TIP3    H1 4557   6.835   1.032   5.916
 1531TIP3    H2 4558   6.701   1.018   5.847
 1532TIP3   OH2 4559   4.774   2.039   3.187
 1532TIP3    H1 4560   4.850   1.990   3.157
 1532TIP3    H2 4561   4.810   2.105   3.247
 1533TIP3   OH2 4562   0.455   1.849   2.681
 1533TIP3    H1 4563   0.484   1.798   2.605
 1533TIP3    H2 4564   0.524   1.837   2.746
 1534TIP3   OH2 4565   2.176   6.277   1.983
 1534TIP3    H1 4566   2.262   6.317   1.972
 1534TIP3    H2 4567   2.160   6.230   1.901
 1535TIP3   OH2 4568   6.822   0.920   1.375
 1535TIP3    H1 4569   6.801   1.014   1.376
 1535TIP3    H2 4570   6.896   0.913   1.316
 1536TIP3   OH2 4571   4.102   5.135   4.993
 1536TIP3    H1 4572   4.126   5.210   5.048
 1536TIP3    H2 4573   4.112   5.059   5.051
 1537TIP3   OH2 4574   6.276   0.445   2.608
 1537TIP3    H1 4575   6.331   0.367   2.598
 1537TIP3    H2 4576   6.327   0.515   2.565
 1538TIP3   OH2 4577   5.104   6.809   5.057
 1538TIP3    H1 4578   5.112   6.828   5.150
 1538TIP3    H2 4579   5.125   6.891   5.013
 1539TIP3   OH2 4580   2.247   6.520   0.595
 1539TIP3    H1 4581   2.184   6.556   0.658
 1539TIP3    H2 4582   2.238   6.425   0.604
 1540TIP3   OH2 4583   0.580   1.382   1.822
 1540TIP3    H1 4584   0.550   1.375   1.912
 1540TIP3    H2 4585   0.509   1.344   1.770
 1541TIP3   OH2 4586   0.223   4.819   1.216
 1541TIP3    H1 4587   0.250   4.887   1.279
 1541TIP3    H2 4588   0.144   4.781   1.255
 1542TIP3   OH2 4589   4.460   6.575   0.366
 1542TIP3    H1 4590   4.402   6.517   0.317
 1542TIP3    H2 4591   4.538   6.522   0.384
 1543TIP3   OH2 4592   2.823   5.225   0.019
 1543TIP3    H1 4593   2.736   5.254  -0.009
 1543TIP3    H2 4594   2.851   5.165  -0.051
 1544TIP3   OH2 4595   1.116   2.164   1.991
 1544TIP3    H1 4596   1.022   2.175   2.007
 1544TIP3    H2 4597   1.134   2.221   1.916
 1545TIP3   OH2 4598   5.293   0.442   5.355
 1545TIP3    H1 4599   5.324   0.379   5.420
 1545TIP3    H2 4600   5.290   0.525   5.402
 1546TIP3   OH2 4601   6.436   3.832   0.489
 1546TIP3    H1 4602   6.460   3.902   0.427
 1546TIP3    H2 4603   6.455   3.869   0.575
 1547TIP3   OH2 4604   6.109   5.595   4.740
 1547TIP3    H1 4605   6.122   5.583   4.646
 1547TIP3    H2 4606   6.197   5.596   4.777
 1548TIP3   OH2 4607   3.274   5.658   2.475
 1548TIP3    H1 4608   3.242   5.612   2.552
 1548TIP3    H2 4609   3.235   5.611   2.401
 1549TIP3   OH2 4610   0.074   2.335   4.787
 1549TIP3    H1 4611   0.031   2.276   4.725
 1549TIP3    H2 4612   0.102   2.410   4.733
 1550TIP3   OH2 4613   5.279   5.873   1.355
 1550TIP3    H1 4614   5.319   5.948   1.311
 1550TIP3    H2 4615   5.241   5.821   1.285
 1551TIP3   OH2 4616   4.270   0.482   0.674
 1551TIP3    H1 4617   4.207   0.509   0.742
 1551TIP3    H2 4618   4.305   0.565   0.640
 1552TIP3   OH2 4619   2.706   5.764   3.051
 1552TIP3    H1 4620   2.627   5.791   3.003
 1552TIP3    H2 4621   2.758   5.844   3.058
 1553TIP3   OH2 4622   3.473   1.375   3.357
 1553TIP3    H1 4623   3.386   1.339   3.339
 1553TIP3    H2 4624   3.458   1.468   3.376
 1554TIP3   OH2 4625   4.914   0.974   2.467
 1554TIP3    H1 4626   4.904   1.038   2.538
 1554TIP3    H2 4627   4.856   1.007   2.397
 1555TIP3   OH2 4628   5.105   2.897   1.006
 1555TIP3    H1 4629   5.066   2.863   0.925
 1555TIP3    H2 4630   5.047   2.969   1.032
 1556TIP3   OH2 4631   4.629   4.670   0.795
 1556TIP3    H1 4632   4.616   4.702   0.884
 1556TIP3    H2 4633   4.610   4.576   0.799
 1557TIP3   OH2 4634   2.085   2.476   1.174
 1557TIP3    H1 4635   2.133   2.436   1.101
 1557TIP3    H2 4636   2.152   2.525   1.223
 1558TIP3   OH2 4637   3.999   3.956   0.661
 1558TIP3    H1 4638   3.951   3.972   0.742
 1558TIP3    H2 4639   3.944   3.893   0.613
 1559TIP3   OH2 4640   0.177   1.503   4.720
 1559TIP3    H1 4641   0.233   1.428   4.698
 1559TIP3    H2 4642   0.094   1.463   4.746
 1560TIP3   OH2 4643   5.969   4.048   0.332
 1560TIP3    H1 4644   5.904   3.993   0.375
 1560TIP3    H2 4645   6.022   3.986   0.281
 1561TIP3   OH2 4646   6.803   2.932   1.494
 1561TIP3    H1 4647   6.876   2.896   1.443
 1561TIP3    H2 4648   6.794   2.873   1.568
 1562TIP3   OH2 4649   2.336   2.422   1.325
 1562TIP3    H1 4650   2.351   2.428   1.419
 1562TIP3    H2 4651   2.339   2.328   1.307
 1563TIP3   OH2 4652   0.005   1.682   5.784
 1563TIP3    H1 4653  -0.027   1.720   5.866
 1563TIP3    H2 4654   0.021   1.758   5.727
 1564TIP3   OH2 4655   5.847   2.202   0.425
 1564TIP3    H1 4656   5.791   2.258   0.372
 1564TIP3    H2 4657   5.896   2.263   0.481
 1565TIP3   OH2 4658   1.719   4.738   2.498
 1565TIP3    H1 4659   1.705   4.806   2.431
 1565TIP3    H2 4660   1.633   4.698   2.510
 1566TIP3   OH2 4661   6.651   4.822   5.391
 1566TIP3    H1 4662   6.608   4.898   5.352
 1566TIP3    H2 4663   6.628   4.749   5.333
 1567TIP3   OH2 4664   3.751   1.669   2.664
 1567TIP3    H1 4665   3.759   1.629   2.751
 1567TIP3    H2 4666   3.811   1.744   2.667
 1568TIP3   OH2 4667   3.629   4.775   3.966
 1568TIP3    H1 4668   3.637   4.800   4.058
 1568TIP3    H2 4669   3.611   4.857   3.921
 1569TIP3   OH2 4670   1.409   6.045   3.286
 1569TIP3    H1 4671   1.369   6.125   3.252
 1569TIP3    H2 4672   1.502   6.068   3.298
 1570TIP3   OH2 4673   6.111   2.690   3.083
 1570TIP3    H1 4674   6.152   2.606   3.066
 1570TIP3    H2 4675   6.180   2.754   3.064
 1571TIP3   OH2 4676   1.875   5.160   2.165
 1571TIP3    H1 4677   1.797   5.213   2.181
 1571TIP3    H2 4678   1.859   5.119   2.080
 1572TIP3   OH2 4679   2.061   1.152   4.262
 1572TIP3    H1 4680   2.040   1.059   4.251
 1572TIP3    H2 4681   2.113   1.155   4.343
 1573TIP3   OH2 4682   6.814   1.218   1.419
 1573TIP3    H1 4683   6.740   1.234   1.361
 1573TIP3    H2 4684   6.889   1.209   1.360
 1574TIP3   OH2 4685   6.170   0.717   3.386
 1574TIP3    H1 4686   6.122   0.638   3.412
 1574TIP3    H2 4687   6.109   0.767   3.333
 1575TIP3   OH2 4688   1.038   2.489   1.305
 1575TIP3    H1 4689   1.083   2.425   1.360
 1575TIP3    H2 4690   1.018   2.562   1.364
 1576TIP3   OH2 4691   6.684   6.346   3.042
 1576TIP3    H1 4692   6.664   6.329   2.949
 1576TIP3    H2 4693   6.606   6.315   3.088
 1577TIP3   OH2 4694   1.334   1.822   3.152
 1577TIP3    H1 4695   1.267   1.754   3.148
 1577TIP3    H2 4696   1.384   1.801   3.231
 1578TIP3   OH2 4697   5.919   3.881   1.461
 1578TIP3    H1 4698   6.002   3.866   1.508
 1578TIP3    H2 4699   5.931   3.966   1.419
 1579TIP3   OH2 4700   4.204   1.249   5.241
 1579TIP3    H1 4701   4.224   1.301   5.164
 1579TIP3    H2 4702   4.261   1.172   5.234
 1580TIP3   OH2 4703   5.635   6.400   1.465
 1580TIP3    H1 4704   5.722   6.365   1.486
 1580TIP3    H2 4705   5.605   6.347   1.392
 1581TIP3   OH2 4706   4.675   1.571   5.666
 1581TIP3    H1 4707   4.676   1.584   5.760
 1581TIP3    H2 4708   4.582   1.565   5.643
 1582TIP3   OH2 4709   2.031   4.230   2.786
 1582TIP3    H1 4710   2.067   4.244   2.699
 1582TIP3    H2 4711   1.940   4.205   2.771
 1583TIP3   OH2 4712   5.953   4.598   0.826
 1583TIP3    H1 4713   5.965   4.503   0.834
 1583TIP3    H2 4714   5.974   4.617   0.734
 1584TIP3   OH2 4715   0.952   0.054   2.976
 1584TIP3    H1 4716   0.858   0.050   2.995
 1584TIP3    H2 4717   0.975   0.146   2.990
 1585TIP3   OH2 4718   7.164   5.151   1.790
 1585TIP3    H1 4719   7.189   5.166   1.881
 1585TIP3    H2 4720   7.241   5.109   1.751
 1586TIP3   OH2 4721   6.273   6.217   2.426
 1586TIP3    H1 4722   6.322   6.236   2.346
 1586TIP3    H2 4723   6.263   6.301   2.470
 1587TIP3   OH2 4724   0.493   2.690   4.182
 1587TIP3    H1 4725   0.566   2.656   4.234
 1587TIP3    H2 4726   0.535   2.727   4.104
 1588TIP3   OH2 4727   5.583   6.240   2.475
 1588TIP3    H1 4728   5.625   6.182   2.539
 1588TIP3    H2 4729   5.528   6.298   2.528
 1589TIP3   OH2 4730   1.631   0.671   0.908
 1589TIP3    H1 4731   1.673   0.586   0.894
 1589TIP3    H2 4732   1.659   0.724   0.833
 1590TIP3   OH2 4733   6.875   4.831   1.010
 1590TIP3    H1 4734   6.898   4.788   0.927
 1590TIP3    H2 4735   6.954   4.881   1.033
 1591TIP3   OH2 4736   4.888   6.156   1.916
 1591TIP3    H1 4737   4.927   6.241   1.935
 1591TIP3    H2 4738   4.908   6.102   1.992
 1592TIP3   OH2 4739   6.776   4.090   5.755
 1592TIP3    H1 4740   6.868   4.116   5.745
 1592TIP3    H2 4741   6.772   4.047   5.840
 1593TIP3   OH2 4742   4.455   5.992   0.247
 1593TIP3    H1 4743   4.423   5.904   0.270
 1593TIP3    H2 4744   4.542   5.976   0.211
 1594TIP3   OH2 4745   0.075   1.818   1.404
 1594TIP3    H1 4746   0.151   1.767   1.432
 1594TIP3    H2 4747   0.028   1.837   1.485
 1595TIP3   OH2 4748   4.123   0.939   3.103
 1595TIP3    H1 4749   4.122   1.035   3.102
 1595TIP3    H2 4750   4.176   0.916   3.179
 1596TIP3   OH2 4751   0.472   2.591   4.923
 1596TIP3    H1 4752   0.481   2.629   4.836
 1596TIP3    H2 4753   0.391   2.629   4.957
 1597TIP3   OH2 4754   6.115   4.659   1.026
 1597TIP3    H1 4755   6.086   4.618   0.945
 1597TIP3    H2 4756   6.204   4.626   1.039
 1598TIP3   OH2 4757   1.425   4.636   5.821
 1598TIP3    H1 4758   1.508   4.681   5.839
 1598TIP3    H2 4759   1.449   4.544   5.813
 1599TIP3   OH2 4760   0.158   4.465   1.648
 1599TIP3    H1 4761   0.119   4.551   1.664
 1599TIP3    H2 4762   0.096   4.421   1.588
 1600TIP3   OH2 4763   2.013   2.568   4.531
 1600TIP3    H1 4764   1.984   2.480   4.554
 1600TIP3    H2 4765   1.935   2.610   4.494
 1601TIP3   OH2 4766   1.029   1.990   4.457
 1601TIP3    H1 4767   0.953   2.048   4.444
 1601TIP3    H2 4768   1.058   2.009   4.546
 1602TIP3   OH2 4769   0.390   1.379   5.456
 1602TIP3    H1 4770   0.359   1.289   5.466
 1602TIP3    H2 4771   0.481   1.377   5.483
 1603TIP3   OH2 4772   2.823   1.579   0.693
 1603TIP3    H1 4773   2.749   1.594   0.634
 1603TIP3    H2 4774   2.871   1.507   0.654
 1604TIP3   OH2 4775   3.496   2.718   4.149
 1604TIP3    H1 4776   3.519   2.806   4.177
 1604TIP3    H2 4777   3.576   2.667   4.161
 1605TIP3   OH2 4778   0.368   5.371   5.758
 1605TIP3    H1 4779   0.408   5.301   5.810
 1605TIP3    H2 4780   0.322   5.426   5.821
 1606TIP3   OH2 4781   4.906   4.044   1.570
 1606TIP3    H1 4782   4.912   3.948   1.570
 1606TIP3    H2 4783   4.880   4.066   1.480
 1607TIP3   OH2 4784   0.319   5.025   1.384
 1607TIP3    H1 4785   0.294   5.085   1.455
 1607TIP3    H2 4786   0.415   5.022   1.388
 1608TIP3   OH2 4787   4.881   3.781   2.608
 1608TIP3    H1 4788   4.840   3.843   2.668
 1608TIP3    H2 4789   4.867   3.819   2.521
 1609TIP3   OH2 4790   5.388   6.208   5.165
 1609TIP3    H1 4791   5.475   6.169   5.167
 1609TIP3    H2 4792   5.403   6.300   5.188
 1610TIP3   OH2 4793   1.177   5.414   1.857
 1610TIP3    H1 4794   1.169   5.477   1.785
 1610TIP3    H2 4795   1.265   5.378   1.848
 1611TIP3   OH2 4796   5.147   4.675   5.010
 1611TIP3    H1 4797   5.170   4.597   4.959
 1611TIP3    H2 4798   5.109   4.735   4.946
 1612TIP3   OH2 4799   5.367   3.900   4.668
 1612TIP3    H1 4800   5.354   3.864   4.756
 1612TIP3    H2 4801   5.297   3.863   4.616
 1613TIP3   OH2 4802   0.220   0.790   2.918
 1613TIP3    H1 4803   0.200   0.743   2.837
 1613TIP3    H2 4804   0.238   0.721   2.982
 1614TIP3   OH2 4805   6.352   1.804   0.813
 1614TIP3    H1 4806   6.404   1.816   0.733
 1614TIP3    H2 4807   6.263   1.787   0.780
 1615TIP3   OH2 4808   2.552   0.371   3.886
 1615TIP3    H1 4809   2.465   0.335   3.904
 1615TIP3    H2 4810   2.538   0.430   3.813
 1616TIP3   OH2 4811   0.701   0.666   0.903
 1616TIP3    H1 4812   0.769   0.599   0.916
 1616TIP3    H2 4813   0.747   0.749   0.917
 1617TIP3   OH2 4814   4.881   0.492   2.696
 1617TIP3    H1 4815   4.871   0.504   2.790
 1617TIP3    H2 4816   4.884   0.581   2.660
 1618TIP3   OH2 4817   5.196   2.546   2.801
 1618TIP3    H1 4818   5.182   2.564   2.708
 1618TIP3    H2 4819   5.107   2.534   2.836
 1619TIP3   OH2 4820   0.380   4.913   2.239
 1619TIP3    H1 4821   0.383   4.966   2.159
 1619TIP3    H2 4822   0.467   4.925   2.277
 1620TIP3   OH2 4823   7.245   1.090   4.622
 1620TIP3    H1 4824   7.227   1.143   4.545
 1620TIP3    H2 4825   7.160   1.051   4.645
 1621TIP3   OH2 4826   4.948   0.472   4.252
 1621TIP3    H1 4827   4.922   0.540   4.314
 1621TIP3    H2 4828   4.865   0.431   4.226
 1622TIP3   OH2 4829   3.244   2.463   1.622
 1622TIP3    H1 4830   3.214   2.499   1.539
 1622TIP3    H2 4831   3.326   2.509   1.640
 1623TIP3   OH2 4832   3.971   3.006   5.693
 1623TIP3    H1 4833   3.940   3.084   5.738
 1623TIP3    H2 4834   3.976   2.939   5.761
 1624TIP3   OH2 4835   4.024   0.075   3.937
 1624TIP3    H1 4836   4.097   0.054   3.879
 1624TIP3    H2 4837   4.065   0.119   4.012
 1625TIP3   OH2 4838   4.918   4.241   0.333
 1625TIP3    H1 4839   4.968   4.166   0.302
 1625TIP3    H2 4840   4.956   4.262   0.418
 1626TIP3   OH2 4841   2.176   0.582   0.441
 1626TIP3    H1 4842   2.082   0.589   0.427
 1626TIP3    H2 4843   2.195   0.489   0.428
 1627TIP3   OH2 4844   2.732   3.526   1.246
 1627TIP3    H1 4845   2.778   3.499   1.167
 1627TIP3    H2 4846   2.688   3.608   1.222
 1628TIP3   OH2 4847   3.783   4.179   2.902
 1628TIP3    H1 4848   3.807   4.158   2.812
 1628TIP3    H2 4849   3.820   4.107   2.954
 1629TIP3   OH2 4850   0.416   0.578   3.230
 1629TIP3    H1 4851   0.426   0.562   3.324
 1629TIP3    H2 4852   0.353   0.512   3.201
 1630TIP3   OH2 4853   5.763   2.601   3.753
 1630TIP3    H1 4854   5.832   2.649   3.707
 1630TIP3    H2 4855   5.693   2.591   3.688
 1631TIP3   OH2 4856   5.241   3.692   0.733
 1631TIP3    H1 4857   5.154   3.690   0.773
 1631TIP3    H2 4858   5.223   3.701   0.639
 1632TIP3   OH2 4859   5.561   1.934   2.582
 1632TIP3    H1 4860   5.468   1.939   2.560
 1632TIP3    H2 4861   5.582   1.841   2.581
 1633TIP3   OH2 4862   2.731   6.582   2.051
 1633TIP3    H1 4863   2.650   6.625   2.025
 1633TIP3    H2 4864   2.763   6.632   2.126
 1634TIP3   OH2 4865   0.625   2.825   5.636
 1634TIP3    H1 4866   0.677   2.838   5.716
 1634TIP3    H2 4867   0.690   2.806   5.568
 1635TIP3   OH2 4868   0.382   5.995   3.573
 1635TIP3    H1 4869   0.306   5.943   3.547
 1635TIP3    H2 4870   0.431   5.938   3.632
 1636TIP3   OH2 4871   7.046   2.365   3.696
 1636TIP3    H1 4872   6.953   2.352   3.716
 1636TIP3    H2 4873   7.089   2.367   3.781
 1637TIP3   OH2 4874   3.352   4.520   2.778
 1637TIP3    H1 4875   3.419   4.453   2.791
 1637TIP3    H2 4876   3.294   4.484   2.711
 1638TIP3   OH2 4877   2.489   1.191   0.675
 1638TIP3    H1 4878   2.401   1.209   0.641
 1638TIP3    H2 4879   2.505   1.262   0.737
 1639TIP3   OH2 4880   2.901   1.828   2.965
 1639TIP3    H1 4881   2.904   1.911   2.919
 1639TIP3    H2 4882   2.857   1.768   2.905
 1640TIP3   OH2 4883   2.595   0.655   2.097
 1640TIP3    H1 4884   2.690   0.648   2.106
 1640TIP3    H2 4885   2.569   0.577   2.048
 1641TIP3   OH2 4886   6.241   0.235   5.191
 1641TIP3    H1 4887   6.163   0.285   5.216
 1641TIP3    H2 4888   6.211   0.178   5.120
 1642TIP3   OH2 4889   0.722   0.573   5.159
 1642TIP3    H1 4890   0.738   0.664   5.181
 1642TIP3    H2 4891   0.809   0.536   5.144
 1643TIP3   OH2 4892   6.757   0.815   3.700
 1643TIP3    H1 4893   6.752   0.850   3.789
 1643TIP3    H2 4894   6.700   0.871   3.648
 1644TIP3   OH2 4895   1.699   3.191   4.979
 1644TIP3    H1 4896   1.694   3.268   4.922
 1644TIP3    H2 4897   1.777   3.145   4.948
 1645TIP3   OH2 4898   0.796   4.965   3.196
 1645TIP3    H1 4899   0.887   4.971   3.167
 1645TIP3    H2 4900   0.771   4.875   3.178
 1646TIP3   OH2 4901   3.443   2.017   4.596
 1646TIP3    H1 4902   3.400   1.965   4.528
 1646TIP3    H2 4903   3.487   2.087   4.548
 1647TIP3   OH2 4904   2.596   0.142   1.967
 1647TIP3    H1 4905   2.517   0.122   1.917
 1647TIP3    H2 4906   2.658   0.074   1.941
 1648TIP3   OH2 4907   4.266   1.437   4.743
 1648TIP3    H1 4908   4.182   1.482   4.731
 1648TIP3    H2 4909   4.332   1.507   4.736
 1649TIP3   OH2 4910   5.693   2.439   1.270
 1649TIP3    H1 4911   5.787   2.460   1.269
 1649TIP3    H2 4912   5.660   2.472   1.186
 1650TIP3   OH2 4913   3.295   3.116   1.352
 1650TIP3    H1 4914   3.264   3.144   1.438
 1650TIP3    H2 4915   3.222   3.137   1.293
 1651TIP3   OH2 4916   6.790   2.535   3.308
 1651TIP3    H1 4917   6.873   2.493   3.287
 1651TIP3    H2 4918   6.777   2.598   3.237
 1652TIP3   OH2 4919   6.785   6.129   5.904
 1652TIP3    H1 4920   6.816   6.106   5.992
 1652TIP3    H2 4921   6.790   6.046   5.856
 1653TIP3   OH2 4922   2.936   1.386   5.044
 1653TIP3    H1 4923   2.858   1.335   5.023
 1653TIP3    H2 4924   2.902   1.472   5.067
 1654TIP3   OH2 4925   5.911   6.191   4.277
 1654TIP3    H1 4926   5.975   6.230   4.338
 1654TIP3    H2 4927   5.881   6.265   4.225
 1655TIP3   OH2 4928   5.129   4.503   2.677
 1655TIP3    H1 4929   5.219   4.524   2.652
 1655TIP3    H2 4930   5.088   4.587   2.692
 1656TIP3   OH2 4931   3.816   0.460   3.121
 1656TIP3    H1 4932   3.832   0.368   3.102
 1656TIP3    H2 4933   3.723   0.464   3.143
 1657TIP3   OH2 4934   4.116   0.070   4.691
 1657TIP3    H1 4935   4.049   0.086   4.758
 1657TIP3    H2 4936   4.154  -0.015   4.715
 1658TIP3   OH2 4937   1.594   4.394   4.390
 1658TIP3    H1 4938   1.677   4.358   4.356
 1658TIP3    H2 4939   1.527   4.354   4.335
 1659TIP3   OH2 4940   5.779   1.729   0.454
 1659TIP3    H1 4941   5.870   1.731   0.424
 1659TIP3    H2 4942   5.733   1.791   0.397
 1660TIP3   OH2 4943   1.917   3.285   3.193
 1660TIP3    H1 4944   2.001   3.280   3.239
 1660TIP3    H2 4945   1.939   3.317   3.105
 1661TIP3   OH2 4946   0.896   1.853   2.038
 1661TIP3    H1 4947   0.984   1.879   2.067
 1661TIP3    H2 4948   0.885   1.896   1.953
 1662TIP3   OH2 4949   6.708   5.687   0.382
 1662TIP3    H1 4950   6.688   5.761   0.439
 1662TIP3    H2 4951   6.780   5.641   0.425
 1663TIP3   OH2 4952   0.209   0.517   1.991
 1663TIP3    H1 4953   0.240   0.587   2.049
 1663TIP3    H2 4954   0.284   0.498   1.934
 1664TIP3   OH2 4955   4.442   3.533   2.607
 1664TIP3    H1 4956   4.486   3.522   2.692
 1664TIP3    H2 4957   4.513   3.527   2.543
 1665TIP3   OH2 4958   6.209   2.570   3.400
 1665TIP3    H1 4959   6.265   2.516   3.457
 1665TIP3    H2 4960   6.193   2.514   3.324
 1666TIP3   OH2 4961   2.292   3.697   2.779
 1666TIP3    H1 4962   2.309   3.772   2.837
 1666TIP3    H2 4963   2.260   3.736   2.698
 1667TIP3   OH2 4964   6.519   4.035   0.248
 1667TIP3    H1 4965   6.605   4.040   0.292
 1667TIP3    H2 4966   6.516   4.113   0.193
 1668TIP3   OH2 4967   6.717   5.584   3.716
 1668TIP3    H1 4968   6.686   5.546   3.634
 1668TIP3    H2 4969   6.694   5.676   3.711
 1669TIP3   OH2 4970   2.734   1.421   2.667
 1669TIP3    H1 4971   2.655   1.462   2.630
 1669TIP3    H2 4972   2.717   1.418   2.761
 1670TIP3   OH2 4973   5.125   0.811   4.171
 1670TIP3    H1 4974   5.147   0.887   4.116
 1670TIP3    H2 4975   5.173   0.738   4.131
 1671TIP3   OH2 4976   5.668   5.290   4.033
 1671TIP3    H1 4977   5.666   5.378   4.070
 1671TIP3    H2 4978   5.693   5.234   4.107
 1672TIP3   OH2 4979   0.725   4.081   0.860
 1672TIP3    H1 4980   0.719   4.158   0.805
 1672TIP3    H2 4981   0.737   4.115   0.949
 1673TIP3   OH2 4982   2.730   4.230   2.531
 1673TIP3    H1 4983   2.738   4.179   2.612
 1673TIP3    H2 4984   2.733   4.164   2.462
 1674TIP3   OH2 4985   1.295   3.948   5.015
 1674TIP3    H1 4986   1.244   4.028   5.006
 1674TIP3    H2 4987   1.247   3.882   4.964
 1675TIP3   OH2 4988   4.202   6.639   4.336
 1675TIP3    H1 4989   4.123   6.688   4.360
 1675TIP3    H2 4990   4.246   6.622   4.420
 1676TIP3   OH2 4991   1.300   4.079   2.599
 1676TIP3    H1 4992   1.350   4.122   2.668
 1676TIP3    H2 4993   1.331   3.988   2.599
 1677TIP3   OH2 4994   5.554   1.565   5.252
 1677TIP3    H1 4995   5.605   1.505   5.198
 1677TIP3    H2 4996   5.555   1.648   5.205
 1678TIP3   OH2 4997   3.737   2.438   3.830
 1678TIP3    H1 4998   3.698   2.429   3.917
 1678TIP3    H2 4999   3.680   2.389   3.772
 1679TIP3   OH2 5000   2.675   3.316   4.039
 1679TIP3    H1 5001   2.769   3.334   4.037
 1679TIP3    H2 5002   2.635   3.397   4.070
 1680TIP3   OH2 5003   0.414   3.026   5.236
 1680TIP3    H1 5004   0.474   2.978   5.178
 1680TIP3    H2 5005   0.355   2.959   5.270
 1681TIP3   OH2 5006   3.455   6.586   1.735
 1681TIP3    H1 5007   3.519   6.516   1.752
 1681TIP3    H2 5008   3.503   6.666   1.756
 1682TIP3   OH2 5009   6.697   2.014   1.027
 1682TIP3    H1 5010   6.782   1.970   1.034
 1682TIP3    H2 5011   6.673   2.034   1.118
 1683TIP3   OH2 5012   5.048   3.088   5.876
 1683TIP3    H1 5013   5.098   3.081   5.794
 1683TIP3    H2 5014   4.964   3.126   5.849
 1684TIP3   OH2 5015   0.956   0.198   5.737
 1684TIP3    H1 5016   0.908   0.121   5.769
 1684TIP3    H2 5017   0.931   0.204   5.645
 1685TIP3   OH2 5018   6.952   3.219   2.916
 1685TIP3    H1 5019   7.044   3.196   2.922
 1685TIP3    H2 5020   6.950   3.314   2.926
 1686TIP3   OH2 5021   7.025   2.164   2.789
 1686TIP3    H1 5022   6.978   2.098   2.840
 1686TIP3    H2 5023   7.106   2.179   2.837
 1687TIP3   OH2 5024   6.447   5.776   3.179
 1687TIP3    H1 5025   6.358   5.752   3.153
 1687TIP3    H2 5026   6.457   5.741   3.267
 1688TIP3   OH2 5027   4.622   2.353   2.000
 1688TIP3    H1 5028   4.585   2.440   1.985
 1688TIP3    H2 5029   4.550   2.293   1.981
 1689TIP3   OH2 5030   2.811   2.383   1.703
 1689TIP3    H1 5031   2.780   2.459   1.752
 1689TIP3    H2 5032   2.856   2.421   1.627
 1690TIP3   OH2 5033   4.826   1.236   2.619
 1690TIP3    H1 5034   4.808   1.311   2.676
 1690TIP3    H2 5035   4.748   1.181   2.625
 1691TIP3   OH2 5036   0.286   4.346   2.510
 1691TIP3    H1 5037   0.335   4.423   2.482
 1691TIP3    H2 5038   0.337   4.272   2.479
 1692TIP3   OH2 5039   4.803   0.624   5.296
 1692TIP3    H1 5040   4.748   0.669   5.233
 1692TIP3    H2 5041   4.885   0.673   5.297
 1693TIP3   OH2 5042   0.201   0.062   1.310
 1693TIP3    H1 5043   0.213   0.121   1.235
 1693TIP3    H2 5044   0.108   0.041   1.308
 1694TIP3   OH2 5045   0.260   5.123   0.883
 1694TIP3    H1 5046   0.209   5.042   0.887
 1694TIP3    H2 5047   0.292   5.127   0.793
 1695TIP3   OH2 5048   4.254   6.356   3.936
 1695TIP3    H1 5049   4.347   6.338   3.922
 1695TIP3    H2 5050   4.249   6.392   4.024
 1696TIP3   OH2 5051   7.193   4.610   4.746
 1696TIP3    H1 5052   7.183   4.566   4.830
 1696TIP3    H2 5053   7.108   4.648   4.728
 1697TIP3   OH2 5054   4.505   5.598   4.407
 1697TIP3    H1 5055   4.572   5.531   4.423
 1697TIP3    H2 5056   4.540   5.677   4.447
 1698TIP3   OH2 5057   6.424   5.701   3.430
 1698TIP3    H1 5058   6.350   5.753   3.461
 1698TIP3    H2 5059   6.454   5.652   3.506
 1699TIP3   OH2 5060  -0.024   1.043   0.146
 1699TIP3    H1 5061   0.036   1.035   0.220
 1699TIP3    H2 5062   0.032   1.035   0.069
 1700TIP3   OH2 5063   3.116   4.349   0.558
 1700TIP3    H1 5064   3.163   4.268   0.580
 1700TIP3    H2 5065   3.184   4.410   0.531
 1701TIP3   OH2 5066   3.635   4.341   1.057
 1701TIP3    H1 5067   3.688   4.287   0.999
 1701TIP3    H2 5068   3.558   4.287   1.076
 1702TIP3   OH2 5069   6.270   4.946   0.468
 1702TIP3    H1 5070   6.184   4.907   0.457
 1702TIP3    H2 5071   6.313   4.891   0.535
 1703TIP3   OH2 5072   0.548   6.621   0.880
 1703TIP3    H1 5073   0.590   6.595   0.962
 1703TIP3    H2 5074   0.579   6.556   0.816
 1704TIP3   OH2 5075   6.762   1.802   4.015
 1704TIP3    H1 5076   6.842   1.770   3.974
 1704TIP3    H2 5077   6.691   1.758   3.970
 1705TIP3   OH2 5078   4.891   3.032   1.101
 1705TIP3    H1 5079   4.889   3.117   1.144
 1705TIP3    H2 5080   4.897   2.969   1.172
 1706TIP3   OH2 5081   3.874   2.536   5.833
 1706TIP3    H1 5082   3.964   2.505   5.846
 1706TIP3    H2 5083   3.819   2.459   5.850
 1707TIP3   OH2 5084   1.919   5.788   5.499
 1707TIP3    H1 5085   1.926   5.872   5.454
 1707TIP3    H2 5086   1.965   5.801   5.582
 1708TIP3   OH2 5087   0.102   4.587   5.678
 1708TIP3    H1 5088   0.118   4.679   5.655
 1708TIP3    H2 5089   0.134   4.579   5.768
 1709TIP3   OH2 5090   5.168   4.302   3.940
 1709TIP3    H1 5091   5.231   4.374   3.936
 1709TIP3    H2 5092   5.154   4.276   3.849
 1710TIP3   OH2 5093   2.842   1.966   0.687
 1710TIP3    H1 5094   2.881   1.916   0.758
 1710TIP3    H2 5095   2.916   2.001   0.638
 1711TIP3   OH2 5096   5.975   1.220   2.098
 1711TIP3    H1 5097   5.897   1.171   2.122
 1711TIP3    H2 5098   5.972   1.299   2.152
 1712TIP3   OH2 5099   3.266   2.285   2.845
 1712TIP3    H1 5100   3.318   2.361   2.821
 1712TIP3    H2 5101   3.321   2.210   2.824
 1713TIP3   OH2 5102   2.919   5.432   0.184
 1713TIP3    H1 5103   2.873   5.364   0.135
 1713TIP3    H2 5104   2.905   5.512   0.134
 1714TIP3   OH2 5105   2.177   2.658   3.321
 1714TIP3    H1 5106   2.155   2.616   3.239
 1714TIP3    H2 5107   2.237   2.597   3.364
 1715TIP3   OH2 5108   3.215   1.934   4.097
 1715TIP3    H1 5109   3.288   1.985   4.062
 1715TIP3    H2 5110   3.137   1.974   4.058
 1716TIP3   OH2 5111   2.361   2.316   4.071
 1716TIP3    H1 5112   2.433   2.357   4.024
 1716TIP3    H2 5113   2.339   2.378   4.141
 1717TIP3   OH2 5114   6.584   1.506   2.376
 1717TIP3    H1 5115   6.579   1.589   2.329
 1717TIP3    H2 5116   6.533   1.445   2.323
 1718TIP3   OH2 5117   5.966   4.108   1.291
 1718TIP3    H1 5118   5.985   4.196   1.258
 1718TIP3    H2 5119   5.912   4.068   1.224
 1719TIP3   OH2 5120   4.703   5.904   0.136
 1719TIP3    H1 5121   4.748   5.831   0.093
 1719TIP3    H2 5122   4.768   5.941   0.196
 1720TIP3   OH2 5123   6.540   6.705   5.354
 1720TIP3    H1 5124   6.610   6.671   5.409
 1720TIP3    H2 5125   6.460   6.693   5.406
 1721TIP3   OH2 5126   2.493   6.199   1.887
 1721TIP3    H1 5127   2.567   6.197   1.826
 1721TIP3    H2 5128   2.462   6.290   1.882
 1722TIP3   OH2 5129   6.239   2.297   4.137
 1722TIP3    H1 5130   6.276   2.215   4.170
 1722TIP3    H2 5131   6.178   2.269   4.068
 1723TIP3   OH2 5132   4.122   4.992   3.164
 1723TIP3    H1 5133   4.113   4.984   3.258
 1723TIP3    H2 5134   4.134   5.086   3.149
 1724TIP3   OH2 5135   4.788   1.421   3.911
 1724TIP3    H1 5136   4.814   1.511   3.934
 1724TIP3    H2 5137   4.694   1.428   3.892
 1725TIP3   OH2 5138   5.284   0.346   2.042
 1725TIP3    H1 5139   5.316   0.355   1.952
 1725TIP3    H2 5140   5.328   0.417   2.090
 1726TIP3   OH2 5141   1.177   6.818   4.831
 1726TIP3    H1 5142   1.154   6.730   4.802
 1726TIP3    H2 5143   1.218   6.858   4.755
 1727TIP3   OH2 5144   5.068   0.391   0.901
 1727TIP3    H1 5145   5.106   0.463   0.950
 1727TIP3    H2 5146   5.136   0.323   0.902
 1728TIP3   OH2 5147   5.538   3.219   4.344
 1728TIP3    H1 5148   5.524   3.313   4.347
 1728TIP3    H2 5149   5.469   3.186   4.287
 1729TIP3   OH2 5150   4.435   6.529   2.681
 1729TIP3    H1 5151   4.390   6.613   2.684
 1729TIP3    H2 5152   4.525   6.550   2.656
 1730TIP3   OH2 5153   2.334   4.256   2.288
 1730TIP3    H1 5154   2.344   4.349   2.311
 1730TIP3    H2 5155   2.423   4.221   2.295
 1731TIP3   OH2 5156   3.750   1.444   0.726
 1731TIP3    H1 5157   3.754   1.432   0.821
 1731TIP3    H2 5158   3.817   1.510   0.708
 1732TIP3   OH2 5159   3.726   1.768   1.770
 1732TIP3    H1 5160   3.751   1.845   1.821
 1732TIP3    H2 5161   3.802   1.710   1.776
 1733TIP3   OH2 5162   5.608   0.662   0.353
 1733TIP3    H1 5163   5.681   0.642   0.411
 1733TIP3    H2 5164   5.625   0.610   0.274
 1734TIP3   OH2 5165   5.811   3.390   4.954
 1734TIP3    H1 5166   5.759   3.463   4.989
 1734TIP3    H2 5167   5.746   3.331   4.916
 1735TIP3   OH2 5168   6.198   4.603   4.790
 1735TIP3    H1 5169   6.183   4.675   4.852
 1735TIP3    H2 5170   6.191   4.644   4.704
 1736TIP3   OH2 5171   7.125   6.274   4.806
 1736TIP3    H1 5172   7.083   6.188   4.798
 1736TIP3    H2 5173   7.194   6.274   4.740
 1737TIP3   OH2 5174   2.701   0.200   2.380
 1737TIP3    H1 5175   2.711   0.195   2.476
 1737TIP3    H2 5176   2.634   0.266   2.366
 1738TIP3   OH2 5177   1.175   1.987   0.093
 1738TIP3    H1 5178   1.215   1.911   0.134
 1738TIP3    H2 5179   1.227   2.002   0.014
 1739TIP3   OH2 5180   2.691   1.700   1.586
 1739TIP3    H1 5181   2.676   1.697   1.492
 1739TIP3    H2 5182   2.668   1.789   1.612
 1740TIP3   OH2 5183   6.703   6.235   3.461
 1740TIP3    H1 5184   6.776   6.297   3.456
 1740TIP3    H2 5185   6.726   6.166   3.399
 1741TIP3   OH2 5186   3.434   5.840   4.799
 1741TIP3    H1 5187   3.443   5.898   4.875
 1741TIP3    H2 5188   3.344   5.853   4.770
 1742TIP3   OH2 5189   1.715   1.372   3.685
 1742TIP3    H1 5190   1.786   1.377   3.621
 1742TIP3    H2 5191   1.723   1.452   3.736
 1743TIP3   OH2 5192   2.474   2.714   1.767
 1743TIP3    H1 5193   2.424   2.792   1.742
 1743TIP3    H2 5194   2.411   2.658   1.813
 1744TIP3   OH2 5195   1.910   4.889   0.245
 1744TIP3    H1 5196   1.914   4.795   0.265
 1744TIP3    H2 5197   1.840   4.922   0.301
 1745TIP3   OH2 5198   3.258   3.719   0.059
 1745TIP3    H1 5199   3.285   3.674  -0.021
 1745TIP3    H2 5200   3.173   3.758   0.037
 1746TIP3   OH2 5201   0.173   0.898   4.758
 1746TIP3    H1 5202   0.125   0.935   4.683
 1746TIP3    H2 5203   0.156   0.959   4.830
 1747TIP3   OH2 5204   1.185   3.569   2.472
 1747TIP3    H1 5205   1.121   3.639   2.484
 1747TIP3    H2 5206   1.263   3.600   2.517
 1748TIP3   OH2 5207   3.198   6.730   3.136
 1748TIP3    H1 5208   3.150   6.811   3.155
 1748TIP3    H2 5209   3.288   6.748   3.165
 1749TIP3   OH2 5210   1.770   4.122   2.059
 1749TIP3    H1 5211   1.784   4.213   2.032
 1749TIP3    H2 5212   1.763   4.127   2.154
 1750TIP3   OH2 5213   2.227   6.730   2.293
 1750TIP3    H1 5214   2.148   6.776   2.264
 1750TIP3    H2 5215   2.295   6.760   2.234
 1751TIP3   OH2 5216   1.582   2.802   0.547
 1751TIP3    H1 5217   1.561   2.850   0.467
 1751TIP3    H2 5218   1.639   2.861   0.596
 1752TIP3   OH2 5219   6.496   6.463   0.170
 1752TIP3    H1 5220   6.444   6.417   0.236
 1752TIP3    H2 5221   6.516   6.547   0.210
 1753TIP3   OH2 5222   2.768   1.949   4.743
 1753TIP3    H1 5223   2.763   1.874   4.684
 1753TIP3    H2 5224   2.680   1.985   4.745
 1754TIP3   OH2 5225   3.523   4.221   4.703
 1754TIP3    H1 5226   3.615   4.246   4.712
 1754TIP3    H2 5227   3.474   4.298   4.732
 1755TIP3   OH2 5228   3.285   6.627   0.934
 1755TIP3    H1 5229   3.199   6.668   0.922
 1755TIP3    H2 5230   3.329   6.638   0.850
 1756TIP3   OH2 5231   5.212   4.572   1.110
 1756TIP3    H1 5232   5.190   4.664   1.122
 1756TIP3    H2 5233   5.152   4.525   1.167
 1757TIP3   OH2 5234   3.359   5.091   1.312
 1757TIP3    H1 5235   3.443   5.046   1.301
 1757TIP3    H2 5236   3.303   5.026   1.355
 1758TIP3   OH2 5237   4.568   2.320   0.094
 1758TIP3    H1 5238   4.651   2.348   0.132
 1758TIP3    H2 5239   4.589   2.238   0.048
 1759TIP3   OH2 5240   2.183   0.050   0.566
 1759TIP3    H1 5241   2.182   0.132   0.614
 1759TIP3    H2 5242   2.275   0.026   0.560
 1760TIP3   OH2 5243   1.357   5.361   2.546
 1760TIP3    H1 5244   1.452   5.348   2.553
 1760TIP3    H2 5245   1.341   5.443   2.593
 1761TIP3   OH2 5246   6.995   4.988   3.963
 1761TIP3    H1 5247   7.082   5.003   4.000
 1761TIP3    H2 5248   6.936   4.991   4.038
 1762TIP3   OH2 5249   3.311   6.393   0.439
 1762TIP3    H1 5250   3.257   6.353   0.507
 1762TIP3    H2 5251   3.396   6.348   0.446
 1763TIP3   OH2 5252   6.589   1.132   5.772
 1763TIP3    H1 5253   6.555   1.206   5.822
 1763TIP3    H2 5254   6.525   1.118   5.702
 1764TIP3   OH2 5255   2.149   5.641   4.094
 1764TIP3    H1 5256   2.221   5.581   4.117
 1764TIP3    H2 5257   2.172   5.723   4.137
 1765TIP3   OH2 5258   1.078   6.475   5.144
 1765TIP3    H1 5259   1.053   6.498   5.054
 1765TIP3    H2 5260   1.006   6.422   5.177
 1766TIP3   OH2 5261   7.163   2.766   4.326
 1766TIP3    H1 5262   7.130   2.680   4.303
 1766TIP3    H2 5263   7.259   2.757   4.321
 1767TIP3   OH2 5264   4.551   4.615   2.879
 1767TIP3    H1 5265   4.611   4.601   2.953
 1767TIP3    H2 5266   4.499   4.535   2.874
 1768TIP3   OH2 5267   0.474   5.803   2.103
 1768TIP3    H1 5268   0.432   5.847   2.177
 1768TIP3    H2 5269   0.444   5.852   2.026
 1769TIP3   OH2 5270   6.218   5.841   3.878
 1769TIP3    H1 5271   6.214   5.852   3.973
 1769TIP3    H2 5272   6.165   5.763   3.860
 1770TIP3   OH2 5273   1.035   6.245   5.392
 1770TIP3    H1 5274   1.092   6.269   5.466
 1770TIP3    H2 5275   1.064   6.157   5.368
 1771TIP3   OH2 5276   0.167   1.130   1.010
 1771TIP3    H1 5277   0.202   1.070   0.944
 1771TIP3    H2 5278   0.165   1.215   0.966
 1772TIP3   OH2 5279   2.437   4.184   5.621
 1772TIP3    H1 5280   2.469   4.100   5.588
 1772TIP3    H2 5281   2.517   4.231   5.647
 1773TIP3   OH2 5282   5.298   2.035   4.336
 1773TIP3    H1 5283   5.234   1.983   4.288
 1773TIP3    H2 5284   5.372   1.976   4.348
 1774TIP3   OH2 5285   3.424   1.742   0.152
 1774TIP3    H1 5286   3.430   1.748   0.247
 1774TIP3    H2 5287   3.368   1.666   0.135
 1775TIP3   OH2 5288   5.231   6.780   1.464
 1775TIP3    H1 5289   5.257   6.694   1.433
 1775TIP3    H2 5290   5.153   6.802   1.413
 1776TIP3   OH2 5291   6.133   2.866   1.050
 1776TIP3    H1 5292   6.092   2.934   1.103
 1776TIP3    H2 5293   6.194   2.823   1.110
 1777TIP3   OH2 5294   3.464   1.196   5.596
 1777TIP3    H1 5295   3.414   1.161   5.670
 1777TIP3    H2 5296   3.455   1.291   5.603
 1778TIP3   OH2 5297   3.640   1.493   5.213
 1778TIP3    H1 5298   3.549   1.464   5.200
 1778TIP3    H2 5299   3.682   1.475   5.129
 1779TIP3   OH2 5300   3.642   4.002   3.414
 1779TIP3    H1 5301   3.612   4.080   3.460
 1779TIP3    H2 5302   3.567   3.942   3.419
 1780TIP3   OH2 5303   5.557   2.367   0.484
 1780TIP3    H1 5304   5.493   2.382   0.414
 1780TIP3    H2 5305   5.640   2.397   0.447
 1781TIP3   OH2 5306   6.278   2.123   3.257
 1781TIP3    H1 5307   6.217   2.049   3.248
 1781TIP3    H2 5308   6.221   2.199   3.271
 1782TIP3   OH2 5309   4.213   4.515   1.007
 1782TIP3    H1 5310   4.248   4.573   0.939
 1782TIP3    H2 5311   4.182   4.573   1.075
 1783TIP3   OH2 5312   5.195   1.010   4.488
 1783TIP3    H1 5313   5.189   0.940   4.554
 1783TIP3    H2 5314   5.195   0.964   4.404
 1784TIP3   OH2 5315   5.902   3.657   0.465
 1784TIP3    H1 5316   5.909   3.562   0.464
 1784TIP3    H2 5317   5.986   3.688   0.431
 1785TIP3   OH2 5318   2.927   6.227   5.210
 1785TIP3    H1 5319   2.898   6.317   5.198
 1785TIP3    H2 5320   2.850   6.174   5.188
 1786TIP3   OH2 5321   3.014   2.339   4.521
 1786TIP3    H1 5322   3.041   2.334   4.613
 1786TIP3    H2 5323   2.924   2.306   4.521
 1787TIP3   OH2 5324   4.761   3.203   5.886
 1787TIP3    H1 5325   4.682   3.234   5.842
 1787TIP3    H2 5326   4.777   3.267   5.955
 1788TIP3   OH2 5327   0.507   6.108   3.832
 1788TIP3    H1 5328   0.459   6.108   3.749
 1788TIP3    H2 5329   0.447   6.071   3.896
 1789TIP3   OH2 5330   4.731   0.809   3.736
 1789TIP3    H1 5331   4.679   0.802   3.656
 1789TIP3    H2 5332   4.733   0.903   3.755
 1790TIP3   OH2 5333   6.053   6.080   2.686
 1790TIP3    H1 5334   6.110   6.041   2.620
 1790TIP3    H2 5335   6.004   6.006   2.722
 1791TIP3   OH2 5336   6.778   6.020   3.262
 1791TIP3    H1 5337   6.785   5.928   3.288
 1791TIP3    H2 5338   6.712   6.020   3.192
 1792TIP3   OH2 5339   5.780   6.197   4.784
 1792TIP3    H1 5340   5.845   6.199   4.714
 1792TIP3    H2 5341   5.831   6.194   4.865
 1793TIP3   OH2 5342   5.681   4.717   5.230
 1793TIP3    H1 5343   5.589   4.737   5.247
 1793TIP3    H2 5344   5.723   4.718   5.316
 1794TIP3   OH2 5345   4.521   2.027   3.526
 1794TIP3    H1 5346   4.483   2.010   3.612
 1794TIP3    H2 5347   4.591   2.090   3.543
 1795TIP3   OH2 5348   5.161   0.068   3.107
 1795TIP3    H1 5349   5.156   0.121   3.028
 1795TIP3    H2 5350   5.079   0.019   3.108
 1796TIP3   OH2 5351   5.786   2.231   2.381
 1796TIP3    H1 5352   5.766   2.257   2.291
 1796TIP3    H2 5353   5.753   2.142   2.388
 1797TIP3   OH2 5354   4.780   5.617   0.947
 1797TIP3    H1 5355   4.751   5.566   0.871
 1797TIP3    H2 5356   4.706   5.615   1.007
 1798TIP3   OH2 5357   5.378   1.170   2.098
 1798TIP3    H1 5358   5.369   1.201   2.008
 1798TIP3    H2 5359   5.288   1.165   2.131
 1799TIP3   OH2 5360   4.285   0.950   3.761
 1799TIP3    H1 5361   4.212   0.994   3.804
 1799TIP3    H2 5362   4.345   0.928   3.832
 1800TIP3   OH2 5363   5.164   1.565   1.734
 1800TIP3    H1 5364   5.214   1.619   1.674
 1800TIP3    H2 5365   5.168   1.477   1.696
 1801TIP3   OH2 5366   4.208   2.044   4.226
 1801TIP3    H1 5367   4.191   1.973   4.164
 1801TIP3    H2 5368   4.281   2.012   4.279
 1802TIP3   OH2 5369   1.906   1.906   5.042
 1802TIP3    H1 5370   1.879   1.869   4.958
 1802TIP3    H2 5371   1.823   1.933   5.084
 1803TIP3   OH2 5372   2.481   4.661   1.443
 1803TIP3    H1 5373   2.470   4.593   1.510
 1803TIP3    H2 5374   2.396   4.705   1.439
 1804TIP3   OH2 5375   3.319   0.130   4.095
 1804TIP3    H1 5376   3.341   0.197   4.030
 1804TIP3    H2 5377   3.261   0.070   4.048
 1805TIP3   OH2 5378   5.216   5.363   0.735
 1805TIP3    H1 5379   5.215   5.346   0.641
 1805TIP3    H2 5380   5.251   5.452   0.743
 1806TIP3   OH2 5381   5.653   6.136   4.049
 1806TIP3    H1 5382   5.744   6.125   4.020
 1806TIP3    H2 5383   5.649   6.228   4.078
 1807TIP3   OH2 5384   3.059   0.772   5.023
 1807TIP3    H1 5385   3.080   0.768   5.116
 1807TIP3    H2 5386   3.076   0.864   4.999
 1808TIP3   OH2 5387   4.961   5.238   2.139
 1808TIP3    H1 5388   4.986   5.167   2.198
 1808TIP3    H2 5389   4.887   5.202   2.089
 1809TIP3   OH2 5390   6.745   4.852   1.256
 1809TIP3    H1 5391   6.738   4.946   1.272
 1809TIP3    H2 5392   6.771   4.845   1.165
 1810TIP3   OH2 5393   0.540   0.969   4.076
 1810TIP3    H1 5394   0.600   0.900   4.047
 1810TIP3    H2 5395   0.529   0.953   4.170
 1811TIP3   OH2 5396   4.891   1.475   0.330
 1811TIP3    H1 5397   4.916   1.458   0.421
 1811TIP3    H2 5398   4.815   1.419   0.315
 1812TIP3   OH2 5399   5.055   5.700   0.661
 1812TIP3    H1 5400   5.144   5.679   0.633
 1812TIP3    H2 5401   5.061   5.715   0.755
 1813TIP3   OH2 5402   3.703   5.176   3.414
 1813TIP3    H1 5403   3.631   5.116   3.430
 1813TIP3    H2 5404   3.772   5.148   3.474
 1814TIP3   OH2 5405   1.622   3.586   2.171
 1814TIP3    H1 5406   1.560   3.630   2.230
 1814TIP3    H2 5407   1.607   3.627   2.086
 1815TIP3   OH2 5408   6.840   3.738   4.979
 1815TIP3    H1 5409   6.838   3.665   5.041
 1815TIP3    H2 5410   6.870   3.699   4.897
 1816TIP3   OH2 5411   2.805   5.561   3.199
 1816TIP3    H1 5412   2.771   5.628   3.140
 1816TIP3    H2 5413   2.781   5.591   3.286
 1817TIP3   OH2 5414   2.459   2.765   0.290
 1817TIP3    H1 5415   2.529   2.816   0.331
 1817TIP3    H2 5416   2.504   2.711   0.225
 1818TIP3   OH2 5417   6.017   5.291   0.854
 1818TIP3    H1 5418   6.009   5.370   0.908
 1818TIP3    H2 5419   6.071   5.232   0.906
 1819TIP3   OH2 5420   6.932   2.431   4.644
 1819TIP3    H1 5421   6.842   2.412   4.618
 1819TIP3    H2 5422   6.923   2.491   4.718
 1820TIP3   OH2 5423   6.499   2.969   3.965
 1820TIP3    H1 5424   6.435   2.969   4.036
 1820TIP3    H2 5425   6.499   2.879   3.933
 1821TIP3   OH2 5426   0.776   3.621   1.264
 1821TIP3    H1 5427   0.868   3.639   1.283
 1821TIP3    H2 5428   0.777   3.580   1.177
 1822TIP3   OH2 5429   5.663   1.128   2.164
 1822TIP3    H1 5430   5.616   1.168   2.092
 1822TIP3    H2 5431   5.649   1.187   2.238
 1823TIP3   OH2 5432   3.554   5.831   1.430
 1823TIP3    H1 5433   3.596   5.836   1.344
 1823TIP3    H2 5434   3.592   5.753   1.471
 1824TIP3   OH2 5435   4.019   3.739   1.704
 1824TIP3    H1 5436   3.999   3.672   1.769
 1824TIP3    H2 5437   3.938   3.788   1.693
 1825TIP3   OH2 5438   3.444   5.695   3.459
 1825TIP3    H1 5439   3.378   5.728   3.398
 1825TIP3    H2 5440   3.396   5.635   3.516
 1826TIP3   OH2 5441   6.132   4.786   5.029
 1826TIP3    H1 5442   6.171   4.768   5.115
 1826TIP3    H2 5443   6.053   4.835   5.049
 1827TIP3   OH2 5444   1.221   6.381   3.871
 1827TIP3    H1 5445   1.146   6.329   3.901
 1827TIP3    H2 5446   1.222   6.458   3.928
 1828TIP3   OH2 5447   4.170   3.542   0.066
 1828TIP3    H1 5448   4.081   3.520   0.039
 1828TIP3    H2 5449   4.173   3.637   0.065
 1829TIP3   OH2 5450   7.059   4.641   3.237
 1829TIP3    H1 5451   6.984   4.698   3.220
 1829TIP3    H2 5452   7.036   4.558   3.195
 1830TIP3   OH2 5453   2.227   2.961   4.847
 1830TIP3    H1 5454   2.262   3.019   4.779
 1830TIP3    H2 5455   2.230   3.013   4.927
 1831TIP3   OH2 5456   4.408   4.456   2.334
 1831TIP3    H1 5457   4.320   4.492   2.319
 1831TIP3    H2 5458   4.461   4.495   2.265
 1832TIP3   OH2 5459   1.070   3.825   1.650
 1832TIP3    H1 5460   1.009   3.824   1.724
 1832TIP3    H2 5461   1.114   3.741   1.654
 1833TIP3   OH2 5462   3.881   3.856   5.500
 1833TIP3    H1 5463   3.916   3.790   5.441
 1833TIP3    H2 5464   3.861   3.931   5.444
 1834TIP3   OH2 5465   3.923   1.163   5.156
 1834TIP3    H1 5466   4.010   1.182   5.191
 1834TIP3    H2 5467   3.862   1.206   5.216
 1835TIP3   OH2 5468   6.152   6.530   0.982
 1835TIP3    H1 5469   6.081   6.478   1.019
 1835TIP3    H2 5470   6.108   6.596   0.929
 1836TIP3   OH2 5471   4.681   6.418   5.180
 1836TIP3    H1 5472   4.755   6.469   5.146
 1836TIP3    H2 5473   4.700   6.407   5.273
 1837TIP3   OH2 5474   6.597   2.080   1.313
 1837TIP3    H1 5475   6.527   2.139   1.286
 1837TIP3    H2 5476   6.607   2.095   1.407
 1838TIP3   OH2 5477   2.071   6.337   0.200
 1838TIP3    H1 5478   2.144   6.381   0.156
 1838TIP3    H2 5479   2.112   6.287   0.271
 1839TIP3   OH2 5480   4.054   2.923   4.973
 1839TIP3    H1 5481   4.111   2.864   5.022
 1839TIP3    H2 5482   4.056   3.005   5.023
 1840TIP3   OH2 5483   1.247   6.091   2.879
 1840TIP3    H1 5484   1.282   6.175   2.907
 1840TIP3    H2 5485   1.202   6.109   2.797
 1841TIP3   OH2 5486   0.381   5.239   5.339
 1841TIP3    H1 5487   0.298   5.283   5.323
 1841TIP3    H2 5488   0.372   5.153   5.299
 1842TIP3   OH2 5489   6.308   6.031   5.306
 1842TIP3    H1 5490   6.295   6.008   5.398
 1842TIP3    H2 5491   6.255   5.968   5.257
 1843TIP3   OH2 5492   3.237   6.416   2.042
 1843TIP3    H1 5493   3.270   6.411   2.132
 1843TIP3    H2 5494   3.165   6.478   2.046
 1844TIP3   OH2 5495   4.016   0.836   0.828
 1844TIP3    H1 5496   3.982   0.917   0.865
 1844TIP3    H2 5497   4.042   0.783   0.904
 1845TIP3   OH2 5498   5.577   4.388   1.244
 1845TIP3    H1 5499   5.593   4.297   1.222
 1845TIP3    H2 5500   5.497   4.386   1.297
 1846TIP3   OH2 5501   5.572   1.345   1.364
 1846TIP3    H1 5502   5.568   1.406   1.438
 1846TIP3    H2 5503   5.654   1.296   1.378
 1847TIP3   OH2 5504   5.029   1.889   5.913
 1847TIP3    H1 5505   5.010   1.953   5.982
 1847TIP3    H2 5506   4.947   1.879   5.865
 1848TIP3   OH2 5507   3.198   0.316   4.974
 1848TIP3    H1 5508   3.222   0.298   4.883
 1848TIP3    H2 5509   3.277   0.352   5.013
 1849TIP3   OH2 5510   2.938   3.392   4.036
 1849TIP3    H1 5511   2.989   3.472   4.034
 1849TIP3    H2 5512   2.991   3.328   3.988
 1850TIP3   OH2 5513   2.253   5.531   1.797
 1850TIP3    H1 5514   2.252   5.436   1.803
 1850TIP3    H2 5515   2.194   5.551   1.724
 1851TIP3   OH2 5516   0.235   5.140   1.605
 1851TIP3    H1 5517   0.220   5.058   1.653
 1851TIP3    H2 5518   0.225   5.208   1.672
 1852TIP3   OH2 5519   3.002   1.000   5.443
 1852TIP3    H1 5520   3.052   1.079   5.423
 1852TIP3    H2 5521   2.983   1.007   5.537
 1853TIP3   OH2 5522   5.689   0.073   5.431
 1853TIP3    H1 5523   5.659   0.002   5.488
 1853TIP3    H2 5524   5.778   0.049   5.406
 1854TIP3   OH2 5525   4.449   0.088   0.133
 1854TIP3    H1 5526   4.492   0.174   0.133
 1854TIP3    H2 5527   4.452   0.060   0.224
 1855TIP3   OH2 5528   3.161   5.318   5.658
 1855TIP3    H1 5529   3.207   5.397   5.628
 1855TIP3    H2 5530   3.229   5.267   5.703
 1856TIP3   OH2 5531   0.020   2.547   2.621
 1856TIP3    H1 5532  -0.047   2.485   2.593
 1856TIP3    H2 5533  -0.028   2.614   2.671
 1857TIP3   OH2 5534   4.330   5.626   3.612
 1857TIP3    H1 5535   4.289   5.699   3.658
 1857TIP3    H2 5536   4.375   5.577   3.681
 1858TIP3   OH2 5537   2.034   5.721   3.098
 1858TIP3    H1 5538   2.062   5.812   3.108
 1858TIP3    H2 5539   2.103   5.670   3.140
 1859TIP3   OH2 5540   3.048   4.830   0.647
 1859TIP3    H1 5541   3.099   4.911   0.648
 1859TIP3    H2 5542   2.976   4.847   0.708
 1860TIP3   OH2 5543   3.517   3.003   5.010
 1860TIP3    H1 5544   3.545   3.068   4.947
 1860TIP3    H2 5545   3.428   2.978   4.982
 1861TIP3   OH2 5546   0.914   3.418   0.575
 1861TIP3    H1 5547   0.838   3.455   0.529
 1861TIP3    H2 5548   0.877   3.376   0.652
 1862TIP3   OH2 5549   0.556   2.076   0.839
 1862TIP3    H1 5550   0.625   2.045   0.779
 1862TIP3    H2 5551   0.542   2.167   0.813
 1863TIP3   OH2 5552   2.534   5.845   3.371
 1863TIP3    H1 5553   2.629   5.841   3.378
 1863TIP3    H2 5554   2.508   5.909   3.436
 1864TIP3   OH2 5555   0.421   4.764   2.549
 1864TIP3    H1 5556   0.479   4.819   2.601
 1864TIP3    H2 5557   0.471   4.743   2.470
 1865TIP3   OH2 5558   4.643   6.091   0.912
 1865TIP3    H1 5559   4.716   6.032   0.892
 1865TIP3    H2 5560   4.565   6.035   0.908
 1866TIP3   OH2 5561   6.421   3.552   5.078
 1866TIP3    H1 5562   6.437   3.508   4.995
 1866TIP3    H2 5563   6.420   3.482   5.143
 1867TIP3   OH2 5564   6.698   4.828   4.150
 1867TIP3    H1 5565   6.709   4.908   4.202
 1867TIP3    H2 5566   6.665   4.763   4.212
 1868TIP3   OH2 5567   2.599   3.387   5.545
 1868TIP3    H1 5568   2.522   3.399   5.600
 1868TIP3    H2 5569   2.662   3.451   5.578
 1869TIP3   OH2 5570   3.470   0.582   2.795
 1869TIP3    H1 5571   3.501   0.492   2.801
 1869TIP3    H2 5572   3.549   0.635   2.801
 1870TIP3   OH2 5573   4.566   2.875   1.178
 1870TIP3    H1 5574   4.475   2.868   1.207
 1870TIP3    H2 5575   4.616   2.886   1.259
 1871TIP3   OH2 5576   0.955   2.873   3.878
 1871TIP3    H1 5577   0.969   2.780   3.894
 1871TIP3    H2 5578   0.966   2.914   3.964
 1872TIP3   OH2 5579   3.539   4.347   3.185
 1872TIP3    H1 5580   3.472   4.351   3.253
 1872TIP3    H2 5581   3.497   4.303   3.112
 1873TIP3   OH2 5582   6.534   5.617   2.897
 1873TIP3    H1 5583   6.520   5.707   2.924
 1873TIP3    H2 5584   6.566   5.623   2.807
 1874TIP3   OH2 5585   2.010   1.419   1.072
 1874TIP3    H1 5586   1.988   1.511   1.055
 1874TIP3    H2 5587   2.105   1.420   1.087
 1875TIP3   OH2 5588   5.350   5.843   4.206
 1875TIP3    H1 5589   5.291   5.888   4.145
 1875TIP3    H2 5590   5.296   5.775   4.245
 1876TIP3   OH2 5591   0.813   4.049   2.881
 1876TIP3    H1 5592   0.800   4.062   2.787
 1876TIP3    H2 5593   0.754   4.112   2.923
 1877TIP3   OH2 5594   2.502   6.556   5.193
 1877TIP3    H1 5595   2.454   6.481   5.157
 1877TIP3    H2 5596   2.450   6.584   5.268
 1878TIP3   OH2 5597   6.426   0.898   0.423
 1878TIP3    H1 5598   6.426   0.811   0.383
 1878TIP3    H2 5599   6.454   0.956   0.352
 1879TIP3   OH2 5600   2.347   3.803   4.387
 1879TIP3    H1 5601   2.364   3.865   4.459
 1879TIP3    H2 5602   2.287   3.850   4.329
 1880TIP3   OH2 5603   0.844   2.729   4.128
 1880TIP3    H1 5604   0.838   2.661   4.196
 1880TIP3    H2 5605   0.897   2.688   4.059
 1881TIP3   OH2 5606   6.923   3.948   0.196
 1881TIP3    H1 5607   6.888   3.863   0.170
 1881TIP3    H2 5608   6.924   3.946   0.292
 1882TIP3   OH2 5609   5.154   0.297   4.322
 1882TIP3    H1 5610   5.098   0.369   4.292
 1882TIP3    H2 5611   5.241   0.320   4.289
 1883TIP3   OH2 5612   5.194   2.727   1.597
 1883TIP3    H1 5613   5.112   2.759   1.632
 1883TIP3    H2 5614   5.169   2.674   1.521
 1884TIP3   OH2 5615   4.429   2.362   2.558
 1884TIP3    H1 5616   4.365   2.293   2.575
 1884TIP3    H2 5617   4.514   2.320   2.570
 1885TIP3   OH2 5618   3.981   2.573   3.985
 1885TIP3    H1 5619   3.943   2.524   3.912
 1885TIP3    H2 5620   4.045   2.631   3.943
 1886TIP3   OH2 5621   6.248   4.531   3.082
 1886TIP3    H1 5622   6.304   4.549   3.007
 1886TIP3    H2 5623   6.164   4.571   3.060
 1887TIP3   OH2 5624   6.360   2.520   1.421
 1887TIP3    H1 5625   6.424   2.539   1.489
 1887TIP3    H2 5626   6.298   2.592   1.425
 1888TIP3   OH2 5627   4.300   1.683   3.705
 1888TIP3    H1 5628   4.215   1.721   3.724
 1888TIP3    H2 5629   4.356   1.710   3.777
 1889TIP3   OH2 5630   6.253   1.772   1.896
 1889TIP3    H1 5631   6.179   1.750   1.953
 1889TIP3    H2 5632   6.225   1.851   1.851
 1890TIP3   OH2 5633   1.955   4.984   1.528
 1890TIP3    H1 5634   1.882   4.925   1.514
 1890TIP3    H2 5635   1.975   4.976   1.622
 1891TIP3   OH2 5636   6.354   4.683   5.234
 1891TIP3    H1 5637   6.313   4.601   5.206
 1891TIP3    H2 5638   6.416   4.704   5.165
 1892TIP3   OH2 5639   4.484   5.078   2.919
 1892TIP3    H1 5640   4.433   5.135   2.977
 1892TIP3    H2 5641   4.432   5.073   2.839
 1893TIP3   OH2 5642   4.498   1.027   0.151
 1893TIP3    H1 5643   4.542   1.013   0.067
 1893TIP3    H2 5644   4.456   1.113   0.143
 1894TIP3   OH2 5645   0.722   2.086   2.801
 1894TIP3    H1 5646   0.744   1.996   2.823
 1894TIP3    H2 5647   0.689   2.123   2.883
 1895TIP3   OH2 5648   0.218   3.883   5.040
 1895TIP3    H1 5649   0.141   3.831   5.016
 1895TIP3    H2 5650   0.209   3.963   4.988
 1896TIP3   OH2 5651   2.521   5.015   1.900
 1896TIP3    H1 5652   2.484   4.935   1.863
 1896TIP3    H2 5653   2.525   5.076   1.826
 1897TIP3   OH2 5654   6.136   2.806   5.102
 1897TIP3    H1 5655   6.186   2.750   5.161
 1897TIP3    H2 5656   6.054   2.821   5.148
 1898TIP3   OH2 5657   2.131   0.030   4.696
 1898TIP3    H1 5658   2.082   0.040   4.777
 1898TIP3    H2 5659   2.092  -0.045   4.652
 1899TIP3   OH2 5660   1.731   5.974   4.753
 1899TIP3    H1 5661   1.769   5.938   4.673
 1899TIP3    H2 5662   1.658   5.916   4.774
 1900TIP3   OH2 5663   3.162   3.578   0.919
 1900TIP3    H1 5664   3.116   3.660   0.905
 1900TIP3    H2 5665   3.229   3.575   0.851
 1901TIP3   OH2 5666   3.972   3.614   3.278
 1901TIP3    H1 5667   3.923   3.694   3.265
 1901TIP3    H2 5668   4.005   3.620   3.368
 1902TIP3   OH2 5669   3.542   1.412   1.974
 1902TIP3    H1 5670   3.463   1.397   2.025
 1902TIP3    H2 5671   3.565   1.503   1.991
 1903TIP3   OH2 5672   0.155   0.904   1.801
 1903TIP3    H1 5673   0.220   0.908   1.731
 1903TIP3    H2 5674   0.206   0.916   1.881
 1904TIP3   OH2 5675   0.009   5.033   1.373
 1904TIP3    H1 5676  -0.066   5.088   1.395
 1904TIP3    H2 5677   0.085   5.089   1.388
 1905TIP3   OH2 5678   0.043   0.212   3.885
 1905TIP3    H1 5679   0.007   0.138   3.934
 1905TIP3    H2 5680   0.116   0.174   3.836
 1906TIP3   OH2 5681   0.521   3.382   0.335
 1906TIP3    H1 5682   0.615   3.391   0.318
 1906TIP3    H2 5683   0.510   3.409   0.426
 1907TIP3   OH2 5684   5.509   6.475   4.210
 1907TIP3    H1 5685   5.526   6.542   4.143
 1907TIP3    H2 5686   5.485   6.526   4.288
 1908TIP3   OH2 5687   1.066   3.460   3.012
 1908TIP3    H1 5688   1.153   3.481   3.045
 1908TIP3    H2 5689   1.015   3.438   3.090
 1909TIP3   OH2 5690   6.522   6.434   3.383
 1909TIP3    H1 5691   6.589   6.379   3.424
 1909TIP3    H2 5692   6.453   6.373   3.357
 1910TIP3   OH2 5693   1.802   6.193   1.003
 1910TIP3    H1 5694   1.867   6.172   1.070
 1910TIP3    H2 5695   1.821   6.284   0.979
 1911TIP3   OH2 5696   1.288   1.138   3.011
 1911TIP3    H1 5697   1.383   1.151   3.007
 1911TIP3    H2 5698   1.262   1.123   2.920
 1912TIP3   OH2 5699   5.760   1.434   0.663
 1912TIP3    H1 5700   5.678   1.396   0.633
 1912TIP3    H2 5701   5.784   1.382   0.740
 1913TIP3   OH2 5702   1.120   6.357   0.270
 1913TIP3    H1 5703   1.193   6.371   0.330
 1913TIP3    H2 5704   1.154   6.381   0.184
 1914TIP3   OH2 5705   7.251   6.068   4.612
 1914TIP3    H1 5706   7.222   5.982   4.582
 1914TIP3    H2 5707   7.244   6.124   4.535
 1915TIP3   OH2 5708   6.095   1.778   3.662
 1915TIP3    H1 5709   6.001   1.781   3.642
 1915TIP3    H2 5710   6.131   1.857   3.621
 1916TIP3   OH2 5711   6.306   5.467   3.282
 1916TIP3    H1 5712   6.352   5.410   3.220
 1916TIP3    H2 5713   6.374   5.521   3.321
 1917TIP3   OH2 5714   0.995   6.045   2.440
 1917TIP3    H1 5715   0.899   6.049   2.449
 1917TIP3    H2 5716   1.010   6.048   2.346
 1918TIP3   OH2 5717   5.877   4.137   4.047
 1918TIP3    H1 5718   5.861   4.190   3.969
 1918TIP3    H2 5719   5.969   4.113   4.041
 1919TIP3   OH2 5720   3.188   4.567   2.293
 1919TIP3    H1 5721   3.118   4.543   2.353
 1919TIP3    H2 5722   3.268   4.563   2.345
 1920TIP3   OH2 5723   1.942   5.230   0.421
 1920TIP3    H1 5724   1.925   5.321   0.398
 1920TIP3    H2 5725   1.858   5.186   0.409
 1921TIP3   OH2 5726   4.341   3.555   0.482
 1921TIP3    H1 5727   4.340   3.460   0.498
 1921TIP3    H2 5728   4.276   3.590   0.543
 1922TIP3   OH2 5729   3.556   4.426  -0.005
 1922TIP3    H1 5730   3.516   4.490  -0.064
 1922TIP3    H2 5731   3.632   4.472   0.032
 1923TIP3   OH2 5732   0.523   4.876   4.678
 1923TIP3    H1 5733   0.503   4.892   4.585
 1923TIP3    H2 5734   0.442   4.899   4.724
 1924TIP3   OH2 5735   4.976   1.184   0.641
 1924TIP3    H1 5736   5.008   1.101   0.677
 1924TIP3    H2 5737   4.988   1.248   0.711
 1925TIP3   OH2 5738   2.191   0.786   4.360
 1925TIP3    H1 5739   2.203   0.831   4.444
 1925TIP3    H2 5740   2.280   0.774   4.326
 1926TIP3   OH2 5741   6.054   5.641   3.798
 1926TIP3    H1 5742   6.096   5.577   3.740
 1926TIP3    H2 5743   5.986   5.591   3.844
 1927TIP3   OH2 5744   4.495   0.732   4.294
 1927TIP3    H1 5745   4.451   0.743   4.211
 1927TIP3    H2 5746   4.508   0.637   4.301
 1928TIP3   OH2 5747   2.617   6.323   5.261
 1928TIP3    H1 5748   2.611   6.412   5.227
 1928TIP3    H2 5749   2.591   6.330   5.353
 1929TIP3   OH2 5750   1.301   5.671   1.552
 1929TIP3    H1 5751   1.304   5.577   1.571
 1929TIP3    H2 5752   1.392   5.696   1.539
 1930TIP3   OH2 5753   2.438   2.917   3.375
 1930TIP3    H1 5754   2.476   2.877   3.296
 1930TIP3    H2 5755   2.490   2.881   3.447
 1931TIP3   OH2 5756   4.608   1.529   2.318
 1931TIP3    H1 5757   4.622   1.481   2.236
 1931TIP3    H2 5758   4.610   1.622   2.291
 1932TIP3   OH2 5759   3.605   4.846   0.773
 1932TIP3    H1 5760   3.664   4.886   0.837
 1932TIP3    H2 5761   3.645   4.761   0.754
 1933TIP3   OH2 5762   5.755   4.333   5.289
 1933TIP3    H1 5763   5.661   4.327   5.270
 1933TIP3    H2 5764   5.798   4.307   5.208
 1934TIP3   OH2 5765   1.364   3.795   1.243
 1934TIP3    H1 5766   1.332   3.819   1.156
 1934TIP3    H2 5767   1.326   3.861   1.301
 1935TIP3   OH2 5768   0.071   4.039   1.610
 1935TIP3    H1 5769   0.013   3.977   1.655
 1935TIP3    H2 5770   0.098   4.101   1.677
 1936TIP3   OH2 5771   0.432   5.688   1.095
 1936TIP3    H1 5772   0.502   5.623   1.091
 1936TIP3    H2 5773   0.352   5.638   1.079
 1937TIP3   OH2 5774   7.124   6.333   2.831
 1937TIP3    H1 5775   7.058   6.339   2.901
 1937TIP3    H2 5776   7.185   6.266   2.862
 1938TIP3   OH2 5777   6.832   0.070   3.201
 1938TIP3    H1 5778   6.903   0.023   3.156
 1938TIP3    H2 5779   6.754   0.018   3.183
 1939TIP3   OH2 5780   2.152   0.207   1.675
 1939TIP3    H1 5781   2.104   0.167   1.603
 1939TIP3    H2 5782   2.112   0.294   1.685
 1940TIP3   OH2 5783   2.615   0.573   4.367
 1940TIP3    H1 5784   2.710   0.573   4.354
 1940TIP3    H2 5785   2.601   0.510   4.438
 1941TIP3   OH2 5786   0.494   3.396   0.615
 1941TIP3    H1 5787   0.417   3.356   0.576
 1941TIP3    H2 5788   0.476   3.398   0.709
 1942TIP3   OH2 5789   0.497   0.961   0.578
 1942TIP3    H1 5790   0.424   0.993   0.630
 1942TIP3    H2 5791   0.459   0.943   0.492
 1943TIP3   OH2 5792   2.135   4.218   2.460
 1943TIP3    H1 5793   2.065   4.264   2.413
 1943TIP3    H2 5794   2.211   4.228   2.404
 1944TIP3   OH2 5795   6.946   1.497   4.625
 1944TIP3    H1 5796   6.860   1.509   4.667
 1944TIP3    H2 5797   7.007   1.491   4.698
 1945TIP3   OH2 5798   6.956   6.340   2.153
 1945TIP3    H1 5799   6.938   6.281   2.226
 1945TIP3    H2 5800   6.871   6.381   2.134
 1946TIP3   OH2 5801   2.475   2.606   5.568
 1946TIP3    H1 5802   2.531   2.567   5.500
 1946TIP3    H2 5803   2.486   2.700   5.557
 1947TIP3   OH2 5804   1.011   1.950   3.536
 1947TIP3    H1 5805   1.012   2.038   3.497
 1947TIP3    H2 5806   1.032   1.891   3.463
 1948TIP3   OH2 5807   4.568   6.069   4.590
 1948TIP3    H1 5808   4.554   6.148   4.642
 1948TIP3    H2 5809   4.612   6.099   4.510
 1949TIP3   OH2 5810   6.867   6.318   5.270
 1949TIP3    H1 5811   6.870   6.233   5.227
 1949TIP3    H2 5812   6.950   6.324   5.318
 1950TIP3   OH2 5813   2.791   4.325   4.228
 1950TIP3    H1 5814   2.733   4.272   4.173
 1950TIP3    H2 5815   2.731   4.377   4.282
 1951TIP3   OH2 5816   5.489   5.827   0.282
 1951TIP3    H1 5817   5.507   5.900   0.223
 1951TIP3    H2 5818   5.571   5.779   0.286
 1952TIP3   OH2 5819   6.254   2.676   3.960
 1952TIP3    H1 5820   6.336   2.707   3.922
 1952TIP3    H2 5821   6.261   2.696   4.053
 1953TIP3   OH2 5822   4.228   5.573   0.667
 1953TIP3    H1 5823   4.208   5.666   0.666
 1953TIP3    H2 5824   4.280   5.560   0.747
 1954TIP3   OH2 5825   5.287   5.322   3.545
 1954TIP3    H1 5826   5.222   5.313   3.475
 1954TIP3    H2 5827   5.334   5.403   3.523
 1955TIP3   OH2 5828   6.962   3.765   3.232
 1955TIP3    H1 5829   6.989   3.687   3.281
 1955TIP3    H2 5830   7.044   3.801   3.198
 1956TIP3   OH2 5831   4.133   4.016   2.771
 1956TIP3    H1 5832   4.046   3.982   2.750
 1956TIP3    H2 5833   4.130   4.035   2.865
 1957TIP3   OH2 5834   3.831   4.240   1.211
 1957TIP3    H1 5835   3.787   4.321   1.184
 1957TIP3    H2 5836   3.760   4.177   1.221
 1958TIP3   OH2 5837   2.377   5.619   3.493
 1958TIP3    H1 5838   2.408   5.703   3.458
 1958TIP3    H2 5839   2.445   5.556   3.469
 1959TIP3   OH2 5840   5.207   6.176   2.004
 1959TIP3    H1 5841   5.195   6.113   2.075
 1959TIP3    H2 5842   5.206   6.124   1.924
 1960TIP3   OH2 5843   2.869   5.848   5.324
 1960TIP3    H1 5844   2.835   5.928   5.284
 1960TIP3    H2 5845   2.838   5.777   5.268
 1961TIP3   OH2 5846   3.175   6.712   2.280
 1961TIP3    H1 5847   3.204   6.623   2.303
 1961TIP3    H2 5848   3.228   6.769   2.337
 1962TIP3   OH2 5849   3.160   3.448   5.437
 1962TIP3    H1 5850   3.134   3.423   5.348
 1962TIP3    H2 5851   3.232   3.509   5.424
 1963TIP3   OH2 5852   0.211   6.537   2.098
 1963TIP3    H1 5853   0.138   6.529   2.159
 1963TIP3    H2 5854   0.175   6.585   2.023
 1964TIP3   OH2 5855   1.809   6.617   1.509
 1964TIP3    H1 5856   1.736   6.669   1.477
 1964TIP3    H2 5857   1.819   6.546   1.446
 1965TIP3   OH2 5858   1.045   4.126   4.051
 1965TIP3    H1 5859   0.956   4.094   4.037
 1965TIP3    H2 5860   1.041   4.219   4.032
 1966TIP3   OH2 5861   1.221   1.381   0.090
 1966TIP3    H1 5862   1.236   1.323   0.015
 1966TIP3    H2 5863   1.274   1.343   0.160
 1967TIP3   OH2 5864   1.711   3.972   3.368
 1967TIP3    H1 5865   1.628   3.933   3.340
 1967TIP3    H2 5866   1.700   4.066   3.354
 1968TIP3   OH2 5867   4.715   5.622   0.376
 1968TIP3    H1 5868   4.717   5.541   0.325
 1968TIP3    H2 5869   4.649   5.676   0.333
 1969TIP3   OH2 5870   5.977   1.739   5.817
 1969TIP3    H1 5871   5.911   1.806   5.801
 1969TIP3    H2 5872   6.032   1.776   5.886
 1970TIP3   OH2 5873   4.844   3.980   0.405
 1970TIP3    H1 5874   4.766   3.934   0.375
 1970TIP3    H2 5875   4.819   4.073   0.403
 1971TIP3   OH2 5876   4.800   4.758   0.997
 1971TIP3    H1 5877   4.782   4.668   1.024
 1971TIP3    H2 5878   4.788   4.809   1.077
 1972TIP3   OH2 5879   2.962   3.120   4.821
 1972TIP3    H1 5880   2.998   3.134   4.733
 1972TIP3    H2 5881   3.012   3.046   4.856
 1973TIP3   OH2 5882   4.059   0.433   1.994
 1973TIP3    H1 5883   4.003   0.434   1.917
 1973TIP3    H2 5884   4.061   0.524   2.024
 1974TIP3   OH2 5885   2.251   0.174   3.053
 1974TIP3    H1 5886   2.188   0.106   3.077
 1974TIP3    H2 5887   2.204   0.227   2.989
 1975TIP3   OH2 5888   2.262   4.884   4.547
 1975TIP3    H1 5889   2.196   4.922   4.605
 1975TIP3    H2 5890   2.312   4.959   4.515
 1976TIP3   OH2 5891   0.709   0.993   5.073
 1976TIP3    H1 5892   0.635   0.953   5.117
 1976TIP3    H2 5893   0.786   0.955   5.115
 1977TIP3   OH2 5894   4.288   6.714   4.756
 1977TIP3    H1 5895   4.366   6.758   4.789
 1977TIP3    H2 5896   4.222   6.784   4.752
 1978TIP3   OH2 5897   5.695   3.727   4.831
 1978TIP3    H1 5898   5.696   3.815   4.869
 1978TIP3    H2 5899   5.666   3.671   4.903
 1979TIP3   OH2 5900   1.601   3.710   5.709
 1979TIP3    H1 5901   1.631   3.759   5.632
 1979TIP3    H2 5902   1.645   3.625   5.701
 1980TIP3   OH2 5903   3.297   2.500   2.535
 1980TIP3    H1 5904   3.358   2.519   2.464
 1980TIP3    H2 5905   3.350   2.507   2.615
 1981TIP3   OH2 5906   5.655   5.529   4.688
 1981TIP3    H1 5907   5.712   5.464   4.647
 1981TIP3    H2 5908   5.695   5.613   4.667
 1982TIP3   OH2 5909   3.400   0.380   3.389
 1982TIP3    H1 5910   3.342   0.455   3.376
 1982TIP3    H2 5911   3.343   0.311   3.423
 1983TIP3   OH2 5912   0.190   2.645   1.370
 1983TIP3    H1 5913   0.164   2.658   1.461
 1983TIP3    H2 5914   0.196   2.550   1.360
 1984TIP3   OH2 5915   4.116   4.636   2.523
 1984TIP3    H1 5916   4.148   4.711   2.472
 1984TIP3    H2 5917   4.134   4.660   2.614
 1985TIP3   OH2 5918   4.977   2.189   4.683
 1985TIP3    H1 5919   4.900   2.179   4.627
 1985TIP3    H2 5920   5.050   2.158   4.631
 1986TIP3   OH2 5921   0.612   5.064   4.282
 1986TIP3    H1 5922   0.610   5.160   4.283
 1986TIP3    H2 5923   0.555   5.039   4.355
 1987TIP3   OH2 5924   7.143   4.557   5.449
 1987TIP3    H1 5925   7.202   4.553   5.525
 1987TIP3    H2 5926   7.077   4.622   5.474
 1988TIP3   OH2 5927   0.190   0.563   5.416
 1988TIP3    H1 5928   0.194   0.613   5.334
 1988TIP3    H2 5929   0.278   0.569   5.452
 1989TIP3   OH2 5930   5.028   3.862   5.002
 1989TIP3    H1 5931   4.973   3.788   4.977
 1989TIP3    H2 5932   5.016   3.926   4.932
 1990TIP3   OH2 5933   5.237   3.459   4.831
 1990TIP3    H1 5934   5.169   3.394   4.850
 1990TIP3    H2 5935   5.231   3.474   4.737
 1991TIP3   OH2 5936   5.403   3.888   3.217
 1991TIP3    H1 5937   5.321   3.842   3.198
 1991TIP3    H2 5938   5.388   3.928   3.303
 1992TIP3   OH2 5939   6.970   1.072   0.421
 1992TIP3    H1 5940   6.879   1.096   0.403
 1992TIP3    H2 5941   7.022   1.129   0.364
 1993TIP3   OH2 5942   5.407   3.836   0.328
 1993TIP3    H1 5943   5.470   3.836   0.256
 1993TIP3    H2 5944   5.452   3.884   0.398
 1994TIP3   OH2 5945   4.383   4.989   3.501
 1994TIP3    H1 5946   4.411   5.080   3.508
 1994TIP3    H2 5947   4.443   4.950   3.438
 1995TIP3   OH2 5948   6.020   0.159   1.174
 1995TIP3    H1 5949   5.960   0.106   1.122
 1995TIP3    H2 5950   6.102   0.110   1.173
 1996TIP3   OH2 5951   1.502   4.939   3.181
 1996TIP3    H1 5952   1.484   4.914   3.272
 1996TIP3    H2 5953   1.503   5.034   3.182
 1997TIP3   OH2 5954   5.075   4.781   4.211
 1997TIP3    H1 5955   5.136   4.849   4.238
 1997TIP3    H2 5956   5.128   4.702   4.202
 1998TIP3   OH2 5957   5.376   5.896   3.824
 1998TIP3    H1 5958   5.432   5.835   3.871
 1998TIP3    H2 5959   5.296   5.901   3.876
 1999TIP3   OH2 5960   5.265   4.961   4.332
 1999TIP3    H1 5961   5.343   4.948   4.387
 1999TIP3    H2 5962   5.206   5.014   4.386
 2000TIP3   OH2 5963   0.735   4.660   5.084
 2000TIP3    H1 5964   0.786   4.656   5.003
 2000TIP3    H2 5965   0.650   4.695   5.057
 2001TIP3   OH2 5966   1.575   0.203   2.608
 2001TIP3    H1 5967   1.480   0.212   2.612
 2001TIP3    H2 5968   1.591   0.110   2.623
 2002TIP3   OH2 5969   2.830   2.678   1.198
 2002TIP3    H1 5970   2.880   2.741   1.146
 2002TIP3    H2 5971   2.799   2.729   1.273
 2003TIP3   OH2 5972   0.895   1.279   5.775
 2003TIP3    H1 5973   0.988   1.297   5.762
 2003TIP3    H2 5974   0.868   1.342   5.842
 2004TIP3   OH2 5975   2.195   2.312   5.698
 2004TIP3    H1 5976   2.266   2.341   5.755
 2004TIP3    H2 5977   2.153   2.240   5.747
 2005TIP3   OH2 5978   1.679   0.434   3.113
 2005TIP3    H1 5979   1.753   0.476   3.070
 2005TIP3    H2 5980   1.717   0.358   3.158
 2006TIP3   OH2 5981   4.586   6.326   3.640
 2006TIP3    H1 5982   4.534   6.279   3.575
 2006TIP3    H2 5983   4.526   6.392   3.675
 2007TIP3   OH2 5984   0.110   0.301   3.227
 2007TIP3    H1 5985   0.039   0.253   3.184
 2007TIP3    H2 5986   0.071   0.334   3.308
 2008TIP3   OH2 5987   0.128   1.331   5.650
 2008TIP3    H1 5988   0.127   1.389   5.574
 2008TIP3    H2 5989   0.043   1.343   5.691
 2009TIP3   OH2 5990   2.233   0.901   5.307
 2009TIP3    H1 5991   2.303   0.948   5.353
 2009TIP3    H2 5992   2.161   0.964   5.302
 2010TIP3   OH2 5993   1.393   4.729   5.111
 2010TIP3    H1 5994   1.427   4.640   5.110
 2010TIP3    H2 5995   1.303   4.721   5.079
 2011TIP3   OH2 5996   1.091   6.063   0.386
 2011TIP3    H1 5997   1.110   6.081   0.294
 2011TIP3    H2 5998   1.061   6.148   0.420
 2012TIP3   OH2 5999   0.602   6.738   0.476
 2012TIP3    H1 6000   0.550   6.664   0.444
 2012TIP3    H2 6001   0.675   6.744   0.415
 2013TIP3   OH2 6002   0.341   2.755   0.826
 2013TIP3    H1 6003   0.334   2.775   0.733
 2013TIP3    H2 6004   0.428   2.716   0.836
 2014TIP3   OH2 6005   6.066   6.848   2.077
 2014TIP3    H1 6006   5.996   6.783   2.081
 2014TIP3    H2 6007   6.084   6.858   1.984
 2015TIP3   OH2 6008   6.574   2.159   0.801
 2015TIP3    H1 6009   6.563   2.150   0.706
 2015TIP3    H2 6010   6.625   2.083   0.827
 2016TIP3   OH2 6011   5.518   0.844   0.953
 2016TIP3    H1 6012   5.562   0.917   0.998
 2016TIP3    H2 6013   5.461   0.806   1.020
 2017TIP3   OH2 6014   0.783   4.243   3.529
 2017TIP3    H1 6015   0.778   4.205   3.442
 2017TIP3    H2 6016   0.807   4.334   3.514
 2018TIP3   OH2 6017   4.458   5.065   5.742
 2018TIP3    H1 6018   4.440   5.023   5.658
 2018TIP3    H2 6019   4.549   5.043   5.761
 2019TIP3   OH2 6020   3.839   2.375   5.535
 2019TIP3    H1 6021   3.899   2.431   5.486
 2019TIP3    H2 6022   3.759   2.427   5.544
 2020TIP3   OH2 6023   4.659   0.272   2.433
 2020TIP3    H1 6024   4.681   0.307   2.346
 2020TIP3    H2 6025   4.744   0.257   2.475
 2021TIP3   OH2 6026   5.948   6.253   5.016
 2021TIP3    H1 6027   5.944   6.258   5.111
 2021TIP3    H2 6028   6.040   6.235   4.996
 2022TIP3   OH2 6029   0.055   2.163   2.274
 2022TIP3    H1 6030   0.142   2.146   2.238
 2022TIP3    H2 6031   0.039   2.256   2.256
 2023TIP3   OH2 6032   3.973   5.179   5.722
 2023TIP3    H1 6033   3.980   5.271   5.749
 2023TIP3    H2 6034   4.058   5.159   5.684
 2024TIP3   OH2 6035   1.954   1.887   4.347
 2024TIP3    H1 6036   1.893   1.850   4.410
 2024TIP3    H2 6037   1.999   1.957   4.395
 2025TIP3   OH2 6038   4.232   0.617   5.594
 2025TIP3    H1 6039   4.273   0.531   5.600
 2025TIP3    H2 6040   4.305   0.679   5.592
 2026TIP3   OH2 6041   3.700   0.390   4.884
 2026TIP3    H1 6042   3.652   0.456   4.834
 2026TIP3    H2 6043   3.634   0.352   4.942
 2027TIP3   OH2 6044   3.100   0.756   4.704
 2027TIP3    H1 6045   3.006   0.740   4.693
 2027TIP3    H2 6046   3.140   0.670   4.693
 2028TIP3   OH2 6047   5.137   1.102   3.029
 2028TIP3    H1 6048   5.069   1.038   3.048
 2028TIP3    H2 6049   5.148   1.097   2.934
 2029TIP3   OH2 6050   2.646   6.770   0.423
 2029TIP3    H1 6051   2.570   6.733   0.469
 2029TIP3    H2 6052   2.704   6.798   0.493
 2030TIP3   OH2 6053   6.297   0.428   0.222
 2030TIP3    H1 6054   6.247   0.440   0.303
 2030TIP3    H2 6055   6.257   0.353   0.179
 2031TIP3   OH2 6056   0.805   5.768   0.436
 2031TIP3    H1 6057   0.738   5.803   0.378
 2031TIP3    H2 6058   0.758   5.745   0.516
 2032TIP3   OH2 6059   2.215   5.002   5.083
 2032TIP3    H1 6060   2.128   5.035   5.059
 2032TIP3    H2 6061   2.211   4.908   5.065
 2033TIP3   OH2 6062   0.866   4.741   0.543
 2033TIP3    H1 6063   0.787   4.793   0.523
 2033TIP3    H2 6064   0.939   4.800   0.524
 2034TIP3   OH2 6065   6.076   2.596   0.100
 2034TIP3    H1 6066   6.058   2.670   0.157
 2034TIP3    H2 6067   6.011   2.603   0.030
 2035TIP3   OH2 6068   6.016   1.285   5.763
 2035TIP3    H1 6069   5.971   1.350   5.815
 2035TIP3    H2 6070   6.088   1.332   5.721
 2036TIP3   OH2 6071   3.724   3.153   1.377
 2036TIP3    H1 6072   3.712   3.243   1.409
 2036TIP3    H2 6073   3.732   3.100   1.456
 2037TIP3   OH2 6074   2.515   2.779   1.029
 2037TIP3    H1 6075   2.540   2.861   1.071
 2037TIP3    H2 6076   2.539   2.790   0.937
 2038TIP3   OH2 6077   6.036   0.352   4.076
 2038TIP3    H1 6078   6.055   0.305   3.995
 2038TIP3    H2 6079   6.054   0.289   4.146
 2039TIP3   OH2 6080   1.156   6.553   3.606
 2039TIP3    H1 6081   1.225   6.501   3.647
 2039TIP3    H2 6082   1.133   6.619   3.671
 2040TIP3   OH2 6083   3.248   0.091   1.011
 2040TIP3    H1 6084   3.235   0.001   1.040
 2040TIP3    H2 6085   3.200   0.097   0.928
 2041TIP3   OH2 6086   4.286   2.558   4.392
 2041TIP3    H1 6087   4.277   2.490   4.459
 2041TIP3    H2 6088   4.374   2.547   4.358
 2042TIP3   OH2 6089   1.962   2.416   0.006
 2042TIP3    H1 6090   1.925   2.351   0.066
 2042TIP3    H2 6091   2.040   2.448   0.050
 2043TIP3   OH2 6092   6.212   2.590   5.240
 2043TIP3    H1 6093   6.285   2.547   5.195
 2043TIP3    H2 6094   6.135   2.540   5.213
 2044TIP3   OH2 6095   0.563   6.465   2.586
 2044TIP3    H1 6096   0.647   6.426   2.609
 2044TIP3    H2 6097   0.498   6.403   2.620
 2045TIP3   OH2 6098   2.763   5.063   0.482
 2045TIP3    H1 6099   2.805   5.101   0.559
 2045TIP3    H2 6100   2.817   5.092   0.408
 2046TIP3   OH2 6101   2.447   2.662   4.806
 2046TIP3    H1 6102   2.449   2.753   4.835
 2046TIP3    H2 6103   2.359   2.650   4.770
 2047TIP3   OH2 6104   0.098   4.107   4.197
 2047TIP3    H1 6105   0.058   4.067   4.274
 2047TIP3    H2 6106   0.184   4.136   4.227
 2048TIP3   OH2 6107   2.794   5.379   0.991
 2048TIP3    H1 6108   2.700   5.387   1.007
 2048TIP3    H2 6109   2.827   5.331   1.067
 2049TIP3   OH2 6110   2.245   1.561   4.509
 2049TIP3    H1 6111   2.339   1.572   4.521
 2049TIP3    H2 6112   2.207   1.585   4.593
 2050TIP3   OH2 6113   0.063   2.445   2.242
 2050TIP3    H1 6114   0.047   2.534   2.209
 2050TIP3    H2 6115   0.110   2.458   2.324
 2051TIP3   OH2 6116   3.831   5.342   2.949
 2051TIP3    H1 6117   3.815   5.276   3.016
 2051TIP3    H2 6118   3.900   5.397   2.986
 2052TIP3   OH2 6119   5.280   3.521   4.562
 2052TIP3    H1 6120   5.316   3.508   4.474
 2052TIP3    H2 6121   5.231   3.603   4.555
 2053TIP3   OH2 6122   6.380   4.640   1.082
 2053TIP3    H1 6123   6.474   4.632   1.097
 2053TIP3    H2 6124   6.343   4.657   1.169
 2054TIP3   OH2 6125   3.107   4.698   1.339
 2054TIP3    H1 6126   3.047   4.731   1.406
 2054TIP3    H2 6127   3.087   4.605   1.332
 2055TIP3   OH2 6128   1.403   1.650   5.002
 2055TIP3    H1 6129   1.464   1.719   5.028
 2055TIP3    H2 6130   1.381   1.605   5.084
 2056TIP3   OH2 6131   6.011   6.036   0.707
 2056TIP3    H1 6132   6.093   6.057   0.752
 2056TIP3    H2 6133   6.016   6.082   0.624
 2057TIP3   OH2 6134   3.763   6.028   2.616
 2057TIP3    H1 6135   3.741   5.984   2.698
 2057TIP3    H2 6136   3.678   6.054   2.579
 2058TIP3   OH2 6137   2.788   5.773   4.307
 2058TIP3    H1 6138   2.760   5.862   4.330
 2058TIP3    H2 6139   2.732   5.749   4.233
 2059TIP3   OH2 6140   0.257   1.298   0.763
 2059TIP3    H1 6141   0.253   1.203   0.748
 2059TIP3    H2 6142   0.350   1.317   0.769
 2060TIP3   OH2 6143   5.797   1.296   4.736
 2060TIP3    H1 6144   5.863   1.343   4.685
 2060TIP3    H2 6145   5.844   1.221   4.773
 2061TIP3   OH2 6146   5.281   2.569   4.365
 2061TIP3    H1 6147   5.322   2.630   4.303
 2061TIP3    H2 6148   5.245   2.624   4.433
 2062TIP3   OH2 6149   6.972   2.067   5.792
 2062TIP3    H1 6150   7.054   2.029   5.824
 2062TIP3    H2 6151   6.960   2.145   5.846
 2063TIP3   OH2 6152   0.753   1.210   0.188
 2063TIP3    H1 6153   0.764   1.250   0.102
 2063TIP3    H2 6154   0.753   1.116   0.171
 2064TIP3   OH2 6155   4.623   2.870   0.639
 2064TIP3    H1 6156   4.554   2.860   0.704
 2064TIP3    H2 6157   4.699   2.899   0.689
 2065TIP3   OH2 6158   4.836   6.306   1.686
 2065TIP3    H1 6159   4.804   6.255   1.611
 2065TIP3    H2 6160   4.851   6.241   1.755
 2066TIP3   OH2 6161   6.298   4.995   3.424
 2066TIP3    H1 6162   6.272   4.946   3.345
 2066TIP3    H2 6163   6.219   4.998   3.477
 2067TIP3   OH2 6164   1.673   5.775   0.698
 2067TIP3    H1 6165   1.681   5.802   0.607
 2067TIP3    H2 6166   1.696   5.852   0.749
 2068TIP3   OH2 6167   2.200   6.720   2.752
 2068TIP3    H1 6168   2.171   6.629   2.760
 2068TIP3    H2 6169   2.272   6.718   2.689
 2069TIP3   OH2 6170   2.659   3.766   3.453
 2069TIP3    H1 6171   2.703   3.822   3.388
 2069TIP3    H2 6172   2.709   3.684   3.452
 2070TIP3   OH2 6173   2.019   1.636   0.845
 2070TIP3    H1 6174   2.099   1.626   0.793
 2070TIP3    H2 6175   2.025   1.724   0.881
 2071TIP3   OH2 6176   0.091   2.169   3.681
 2071TIP3    H1 6177   0.051   2.196   3.764
 2071TIP3    H2 6178   0.083   2.073   3.681
 2072TIP3   OH2 6179   2.937   0.186   1.579
 2072TIP3    H1 6180   2.850   0.189   1.618
 2072TIP3    H2 6181   2.928   0.127   1.504
 2073TIP3   OH2 6182   0.036   2.577   0.775
 2073TIP3    H1 6183  -0.042   2.584   0.831
 2073TIP3    H2 6184   0.050   2.665   0.742
 2074TIP3   OH2 6185   6.732   0.143   3.465
 2074TIP3    H1 6186   6.661   0.079   3.453
 2074TIP3    H2 6187   6.800   0.114   3.404
 2075TIP3   OH2 6188   6.631   5.580   1.012
 2075TIP3    H1 6189   6.651   5.490   1.041
 2075TIP3    H2 6190   6.607   5.626   1.092
 2076TIP3   OH2 6191   6.264   1.588   3.768
 2076TIP3    H1 6192   6.325   1.653   3.734
 2076TIP3    H2 6193   6.180   1.633   3.773
 2077TIP3   OH2 6194   5.520   1.036   0.152
 2077TIP3    H1 6195   5.592   1.037   0.216
 2077TIP3    H2 6196   5.501   1.128   0.137
 2078TIP3   OH2 6197   6.820   2.898   0.165
 2078TIP3    H1 6198   6.830   2.809   0.198
 2078TIP3    H2 6199   6.835   2.891   0.071
 2079TIP3   OH2 6200   5.707   3.291   3.782
 2079TIP3    H1 6201   5.778   3.354   3.767
 2079TIP3    H2 6202   5.741   3.208   3.750
 2080TIP3   OH2 6203   4.197   6.437   2.403
 2080TIP3    H1 6204   4.155   6.487   2.472
 2080TIP3    H2 6205   4.291   6.452   2.416
 2081TIP3   OH2 6206   1.688   4.728   2.040
 2081TIP3    H1 6207   1.621   4.663   2.061
 2081TIP3    H2 6208   1.642   4.812   2.043
 2082TIP3   OH2 6209   2.694   3.959   5.089
 2082TIP3    H1 6210   2.618   3.953   5.147
 2082TIP3    H2 6211   2.678   4.038   5.038
 2083TIP3   OH2 6212   6.048   0.240   2.646
 2083TIP3    H1 6213   6.037   0.171   2.580
 2083TIP3    H2 6214   6.104   0.305   2.603
 2084TIP3   OH2 6215   0.367   4.743   1.507
 2084TIP3    H1 6216   0.425   4.766   1.434
 2084TIP3    H2 6217   0.355   4.648   1.498
 2085TIP3   OH2 6218   6.866   5.951   3.909
 2085TIP3    H1 6219   6.950   5.927   3.869
 2085TIP3    H2 6220   6.853   6.043   3.885
 2086TIP3   OH2 6221   4.273   4.700   0.793
 2086TIP3    H1 6222   4.210   4.772   0.791
 2086TIP3    H2 6223   4.278   4.669   0.702
 2087TIP3   OH2 6224   0.337   3.771   1.581
 2087TIP3    H1 6225   0.318   3.848   1.528
 2087TIP3    H2 6226   0.306   3.697   1.528
 2088TIP3   OH2 6227   1.729   0.919   3.818
 2088TIP3    H1 6228   1.707   1.002   3.859
 2088TIP3    H2 6229   1.804   0.886   3.867
 2089TIP3   OH2 6230   5.595   6.093   1.603
 2089TIP3    H1 6231   5.558   6.005   1.604
 2089TIP3    H2 6232   5.522   6.151   1.622
 2090TIP3   OH2 6233   3.153   2.309   0.539
 2090TIP3    H1 6234   3.158   2.313   0.635
 2090TIP3    H2 6235   3.227   2.361   0.509
 2091TIP3   OH2 6236   3.559   4.957   1.549
 2091TIP3    H1 6237   3.613   4.986   1.623
 2091TIP3    H2 6238   3.514   4.879   1.581
 2092TIP3   OH2 6239   5.208   2.939   0.384
 2092TIP3    H1 6240   5.265   2.863   0.375
 2092TIP3    H2 6241   5.208   2.979   0.297
 2093TIP3   OH2 6242   3.839   6.813   4.978
 2093TIP3    H1 6243   3.914   6.806   5.038
 2093TIP3    H2 6244   3.847   6.737   4.921
 2094TIP3   OH2 6245   3.129   3.392   1.150
 2094TIP3    H1 6246   3.152   3.466   1.096
 2094TIP3    H2 6247   3.169   3.410   1.235
 2095TIP3   OH2 6248   0.919   0.828   5.504
 2095TIP3    H1 6249   0.914   0.918   5.537
 2095TIP3    H2 6250   1.012   0.809   5.499
 2096TIP3   OH2 6251   0.798   5.748   5.278
 2096TIP3    H1 6252   0.843   5.680   5.328
 2096TIP3    H2 6253   0.814   5.828   5.327
 2097TIP3   OH2 6254   6.259   5.553   5.659
 2097TIP3    H1 6255   6.214   5.570   5.742
 2097TIP3    H2 6256   6.339   5.507   5.685
 2098TIP3   OH2 6257   3.117   6.325   1.479
 2098TIP3    H1 6258   3.072   6.361   1.556
 2098TIP3    H2 6259   3.207   6.356   1.487
 2099TIP3   OH2 6260   5.208   0.979   1.168
 2099TIP3    H1 6261   5.115   0.957   1.160
 2099TIP3    H2 6262   5.225   1.037   1.093
 2100TIP3   OH2 6263   3.454   1.125   2.043
 2100TIP3    H1 6264   3.478   1.193   1.982
 2100TIP3    H2 6265   3.377   1.084   2.004
 2101TIP3   OH2 6266   2.469   4.859   1.093
 2101TIP3    H1 6267   2.560   4.830   1.087
 2101TIP3    H2 6268   2.432   4.838   1.007
 2102TIP3   OH2 6269   3.010   2.270   1.322
 2102TIP3    H1 6270   3.076   2.333   1.294
 2102TIP3    H2 6271   3.003   2.209   1.249
 2103TIP3   OH2 6272   6.124   1.486   1.730
 2103TIP3    H1 6273   6.207   1.460   1.770
 2103TIP3    H2 6274   6.064   1.415   1.752
 2104TIP3   OH2 6275   3.461   3.426   2.022
 2104TIP3    H1 6276   3.489   3.496   2.082
 2104TIP3    H2 6277   3.424   3.359   2.079
 2105TIP3   OH2 6278   1.532   0.761   2.515
 2105TIP3    H1 6279   1.587   0.826   2.470
 2105TIP3    H2 6280   1.462   0.813   2.556
 2106TIP3   OH2 6281   6.829   0.840   5.593
 2106TIP3    H1 6282   6.814   0.911   5.656
 2106TIP3    H2 6283   6.749   0.788   5.595
 2107TIP3   OH2 6284   6.546   3.707   4.745
 2107TIP3    H1 6285   6.552   3.762   4.823
 2107TIP3    H2 6286   6.466   3.657   4.757
 2108TIP3   OH2 6287   4.281   3.918   2.397
 2108TIP3    H1 6288   4.289   3.842   2.339
 2108TIP3    H2 6289   4.371   3.940   2.420
 2109TIP3   OH2 6290   2.235   0.709  -0.025
 2109TIP3    H1 6291   2.251   0.756   0.057
 2109TIP3    H2 6292   2.173   0.640  -0.002
 2110TIP3   OH2 6293   3.750   2.833   5.010
 2110TIP3    H1 6294   3.796   2.910   5.045
 2110TIP3    H2 6295   3.659   2.860   5.005
 2111TIP3   OH2 6296   4.104   2.303   0.776
 2111TIP3    H1 6297   4.149   2.380   0.740
 2111TIP3    H2 6298   4.067   2.334   0.859
 2112TIP3   OH2 6299   3.710   2.257   3.248
 2112TIP3    H1 6300   3.775   2.298   3.190
 2112TIP3    H2 6301   3.761   2.225   3.323
 2113TIP3   OH2 6302   2.128   6.192   0.440
 2113TIP3    H1 6303   2.168   6.124   0.494
 2113TIP3    H2 6304   2.035   6.192   0.466
 2114TIP3   OH2 6305   4.538   3.990   2.382
 2114TIP3    H1 6306   4.573   3.939   2.309
 2114TIP3    H2 6307   4.545   4.081   2.353
 2115TIP3   OH2 6308   1.788   2.952   1.607
 2115TIP3    H1 6309   1.716   3.007   1.580
 2115TIP3    H2 6310   1.820   2.993   1.688
 2116TIP3   OH2 6311   1.686   1.984   1.530
 2116TIP3    H1 6312   1.674   1.891   1.547
 2116TIP3    H2 6313   1.608   2.026   1.566
 2117TIP3   OH2 6314   2.758   3.118   0.883
 2117TIP3    H1 6315   2.713   3.180   0.940
 2117TIP3    H2 6316   2.800   3.173   0.817
 2118TIP3   OH2 6317   6.102   3.440   1.532
 2118TIP3    H1 6318   6.139   3.523   1.502
 2118TIP3    H2 6319   6.020   3.464   1.575
 2119TIP3   OH2 6320   4.071   3.286   2.998
 2119TIP3    H1 6321   4.154   3.241   2.984
 2119TIP3    H2 6322   4.044   3.262   3.086
 2120TIP3   OH2 6323   3.250   4.724   3.845
 2120TIP3    H1 6324   3.214   4.678   3.769
 2120TIP3    H2 6325   3.340   4.692   3.853
 2121TIP3   OH2 6326   6.370   2.438   4.349
 2121TIP3    H1 6327   6.374   2.529   4.319
 2121TIP3    H2 6328   6.346   2.388   4.271
 2122TIP3   OH2 6329   3.565   3.250   4.889
 2122TIP3    H1 6330   3.476   3.278   4.868
 2122TIP3    H2 6331   3.609   3.329   4.920
 2123TIP3   OH2 6332   1.324   3.078   4.814
 2123TIP3    H1 6333   1.402   3.027   4.796
 2123TIP3    H2 6334   1.284   3.093   4.729
 2124TIP3   OH2 6335   3.017   6.766   4.513
 2124TIP3    H1 6336   2.949   6.821   4.551
 2124TIP3    H2 6337   2.975   6.682   4.499
 2125TIP3   OH2 6338   4.597   0.930   4.448
 2125TIP3    H1 6339   4.602   0.855   4.388
 2125TIP3    H2 6340   4.639   0.900   4.528
 2126TIP3   OH2 6341   2.279   5.302   1.090
 2126TIP3    H1 6342   2.286   5.300   1.185
 2126TIP3    H2 6343   2.365   5.275   1.058
 2127TIP3   OH2 6344   2.813   4.507   2.050
 2127TIP3    H1 6345   2.861   4.442   2.100
 2127TIP3    H2 6346   2.736   4.526   2.104
 2128TIP3   OH2 6347   6.889   1.237   3.569
 2128TIP3    H1 6348   6.886   1.156   3.518
 2128TIP3    H2 6349   6.917   1.304   3.507
 2129TIP3   OH2 6350   1.748   4.719   3.750
 2129TIP3    H1 6351   1.653   4.735   3.752
 2129TIP3    H2 6352   1.764   4.683   3.662
 2130TIP3   OH2 6353   0.087   6.744   0.893
 2130TIP3    H1 6354  -0.005   6.751   0.921
 2130TIP3    H2 6355   0.105   6.650   0.893
 2131TIP3   OH2 6356   4.035   0.313   3.409
 2131TIP3    H1 6357   4.105   0.311   3.343
 2131TIP3    H2 6358   4.056   0.240   3.467
 2132TIP3   OH2 6359   6.216   3.918   4.567
 2132TIP3    H1 6360   6.311   3.907   4.558
 2132TIP3    H2 6361   6.206   3.978   4.641
 2133TIP3   OH2 6362   3.520   5.801   0.402
 2133TIP3    H1 6363   3.580   5.763   0.466
 2133TIP3    H2 6364   3.481   5.726   0.358
 2134TIP3   OH2 6365   4.598   2.685   2.213
 2134TIP3    H1 6366   4.558   2.772   2.208
 2134TIP3    H2 6367   4.630   2.679   2.303
 2135TIP3   OH2 6368   0.037   0.867   1.362
 2135TIP3    H1 6369   0.096   0.942   1.364
 2135TIP3    H2 6370   0.085   0.800   1.314
 2136TIP3   OH2 6371   1.775   2.105   4.839
 2136TIP3    H1 6372   1.799   2.173   4.902
 2136TIP3    H2 6373   1.679   2.105   4.839
 2137TIP3   OH2 6374   6.034   1.516   0.198
 2137TIP3    H1 6375   5.958   1.485   0.149
 2137TIP3    H2 6376   6.093   1.441   0.202
 2138TIP3   OH2 6377   6.327   4.523   1.915
 2138TIP3    H1 6378   6.281   4.444   1.886
 2138TIP3    H2 6379   6.283   4.548   1.996
 2139TIP3   OH2 6380   5.017   2.782   1.877
 2139TIP3    H1 6381   4.975   2.825   1.802
 2139TIP3    H2 6382   4.953   2.791   1.948
 2140TIP3   OH2 6383   1.889   1.307   5.429
 2140TIP3    H1 6384   1.955   1.278   5.366
 2140TIP3    H2 6385   1.928   1.382   5.473
 2141TIP3   OH2 6386   5.448   6.108   0.813
 2141TIP3    H1 6387   5.429   6.122   0.906
 2141TIP3    H2 6388   5.541   6.087   0.811
 2142TIP3   OH2 6389   4.143   6.155   2.035
 2142TIP3    H1 6390   4.106   6.132   2.120
 2142TIP3    H2 6391   4.214   6.217   2.055
 2143TIP3   OH2 6392   3.608   6.497   5.318
 2143TIP3    H1 6393   3.625   6.571   5.376
 2143TIP3    H2 6394   3.690   6.485   5.271
 2144TIP3   OH2 6395   6.642   5.765   4.279
 2144TIP3    H1 6396   6.687   5.681   4.286
 2144TIP3    H2 6397   6.563   5.746   4.229
 2145TIP3   OH2 6398   5.914   1.475   4.958
 2145TIP3    H1 6399   5.973   1.402   4.977
 2145TIP3    H2 6400   5.861   1.443   4.884
 2146TIP3   OH2 6401   6.322   3.550   2.792
 2146TIP3    H1 6402   6.405   3.562   2.838
 2146TIP3    H2 6403   6.266   3.622   2.824
 2147TIP3   OH2 6404   3.655   0.930   4.664
 2147TIP3    H1 6405   3.720   0.887   4.609
 2147TIP3    H2 6406   3.578   0.874   4.660
 2148TIP3   OH2 6407   5.022   5.581   3.341
 2148TIP3    H1 6408   4.964   5.620   3.276
 2148TIP3    H2 6409   4.963   5.548   3.409
 2149TIP3   OH2 6410   4.471   2.214   0.359
 2149TIP3    H1 6411   4.486   2.241   0.269
 2149TIP3    H2 6412   4.430   2.291   0.400
 2150TIP3   OH2 6413   4.925   6.513   4.513
 2150TIP3    H1 6414   5.000   6.565   4.481
 2150TIP3    H2 6415   4.848   6.556   4.475
 2151TIP3   OH2 6416   4.393   2.820   5.274
 2151TIP3    H1 6417   4.383   2.750   5.209
 2151TIP3    H2 6418   4.359   2.783   5.355
 2152TIP3   OH2 6419   5.956   2.629   2.445
 2152TIP3    H1 6420   5.930   2.635   2.537
 2152TIP3    H2 6421   5.877   2.598   2.400
 2153TIP3   OH2 6422   4.276   4.131   3.931
 2153TIP3    H1 6423   4.197   4.178   3.958
 2153TIP3    H2 6424   4.347   4.195   3.939
 2154TIP3   OH2 6425   2.980   4.255   2.919
 2154TIP3    H1 6426   2.906   4.208   2.880
 2154TIP3    H2 6427   2.940   4.329   2.966
 2155TIP3   OH2 6428   5.749   0.349   1.653
 2155TIP3    H1 6429   5.771   0.441   1.643
 2155TIP3    H2 6430   5.661   0.349   1.691
 2156TIP3   OH2 6431   3.176   5.870   4.852
 2156TIP3    H1 6432   3.138   5.830   4.773
 2156TIP3    H2 6433   3.101   5.884   4.910
 2157TIP3   OH2 6434   3.339   0.223   3.648
 2157TIP3    H1 6435   3.355   0.138   3.606
 2157TIP3    H2 6436   3.248   0.217   3.677
 2158TIP3   OH2 6437   6.542   5.972   2.252
 2158TIP3    H1 6438   6.580   5.903   2.198
 2158TIP3    H2 6439   6.454   5.984   2.218
 2159TIP3   OH2 6440   1.898   6.639   0.454
 2159TIP3    H1 6441   1.842   6.578   0.503
 2159TIP3    H2 6442   1.850   6.722   0.456
 2160TIP3   OH2 6443   3.058   4.153   3.505
 2160TIP3    H1 6444   3.014   4.211   3.442
 2160TIP3    H2 6445   3.151   4.174   3.497
 2161TIP3   OH2 6446   2.964   0.290   1.891
 2161TIP3    H1 6447   3.034   0.268   1.829
 2161TIP3    H2 6448   2.891   0.316   1.835
 2162TIP3   OH2 6449   5.651   4.756   2.989
 2162TIP3    H1 6450   5.573   4.766   3.044
 2162TIP3    H2 6451   5.697   4.680   3.025
 2163TIP3   OH2 6452   6.884   2.643   5.031
 2163TIP3    H1 6453   6.808   2.586   5.020
 2163TIP3    H2 6454   6.957   2.593   4.995
 2164TIP3   OH2 6455   5.218   6.048   0.647
 2164TIP3    H1 6456   5.289   6.025   0.707
 2164TIP3    H2 6457   5.208   5.971   0.591
 2165TIP3   OH2 6458   6.558   4.193   5.860
 2165TIP3    H1 6459   6.521   4.106   5.847
 2165TIP3    H2 6460   6.639   4.193   5.809
 2166TIP3   OH2 6461   2.927   3.663   1.501
 2166TIP3    H1 6462   2.858   3.729   1.496
 2166TIP3    H2 6463   2.967   3.665   1.414
 2167TIP3   OH2 6464   6.670   5.371   2.340
 2167TIP3    H1 6465   6.676   5.423   2.260
 2167TIP3    H2 6466   6.576   5.357   2.353
 2168TIP3   OH2 6467   2.642   1.698   0.854
 2168TIP3    H1 6468   2.623   1.764   0.788
 2168TIP3    H2 6469   2.716   1.648   0.818
 2169TIP3   OH2 6470   7.207   0.671   0.563
 2169TIP3    H1 6471   7.143   0.676   0.492
 2169TIP3    H2 6472   7.202   0.580   0.593
 2170TIP3   OH2 6473   2.577   4.681   2.153
 2170TIP3    H1 6474   2.511   4.743   2.122
 2170TIP3    H2 6475   2.636   4.734   2.207
 2171TIP3   OH2 6476   3.357   2.799   2.746
 2171TIP3    H1 6477   3.448   2.816   2.769
 2171TIP3    H2 6478   3.339   2.713   2.784
 2172TIP3   OH2 6479   6.666   0.137   0.038
 2172TIP3    H1 6480   6.743   0.154   0.092
 2172TIP3    H2 6481   6.673   0.198  -0.035
 2173TIP3   OH2 6482   1.319   0.265   2.497
 2173TIP3    H1 6483   1.319   0.258   2.402
 2173TIP3    H2 6484   1.269   0.190   2.527
 2174TIP3   OH2 6485   7.182   3.086   3.976
 2174TIP3    H1 6486   7.272   3.101   3.947
 2174TIP3    H2 6487   7.141   3.039   3.903
 2175TIP3   OH2 6488   2.246   2.365   4.976
 2175TIP3    H1 6489   2.252   2.452   5.016
 2175TIP3    H2 6490   2.308   2.312   5.026
 2176TIP3   OH2 6491   2.279   1.841   5.376
 2176TIP3    H1 6492   2.207   1.812   5.321
 2176TIP3    H2 6493   2.293   1.770   5.438
 2177TIP3   OH2 6494   1.514   1.424   0.404
 2177TIP3    H1 6495   1.446   1.490   0.390
 2177TIP3    H2 6496   1.491   1.384   0.489
 2178TIP3   OH2 6497   4.442   4.425   3.712
 2178TIP3    H1 6498   4.479   4.511   3.692
 2178TIP3    H2 6499   4.487   4.397   3.791
 2179TIP3   OH2 6500   1.669   6.613   1.121
 2179TIP3    H1 6501   1.730   6.540   1.126
 2179TIP3    H2 6502   1.595   6.579   1.071
 2180TIP3   OH2 6503   0.882   4.024   3.679
 2180TIP3    H1 6504   0.832   3.959   3.628
 2180TIP3    H2 6505   0.855   4.109   3.642
 2181TIP3   OH2 6506   3.471   3.053   2.014
 2181TIP3    H1 6507   3.452   3.028   1.924
 2181TIP3    H2 6508   3.389   3.037   2.061
 2182TIP3   OH2 6509   2.978   0.455   5.501
 2182TIP3    H1 6510   3.013   0.489   5.418
 2182TIP3    H2 6511   3.044   0.392   5.531
 2183TIP3   OH2 6512   6.568   3.802   2.154
 2183TIP3    H1 6513   6.543   3.710   2.152
 2183TIP3    H2 6514   6.664   3.801   2.146
 2184TIP3   OH2 6515   2.584   6.292   0.237
 2184TIP3    H1 6516   2.587   6.337   0.152
 2184TIP3    H2 6517   2.527   6.347   0.291
 2185TIP3   OH2 6518   2.011   6.046   4.646
 2185TIP3    H1 6519   2.053   5.995   4.577
 2185TIP3    H2 6520   2.023   5.994   4.725
 2186TIP3   OH2 6521   2.497   0.690   0.947
 2186TIP3    H1 6522   2.437   0.723   0.880
 2186TIP3    H2 6523   2.443   0.678   1.025
 2187TIP3   OH2 6524   0.522   0.223   3.981
 2187TIP3    H1 6525   0.555   0.162   4.046
 2187TIP3    H2 6526   0.599   0.272   3.952
 2188TIP3   OH2 6527   3.483   1.717   1.302
 2188TIP3    H1 6528   3.563   1.727   1.251
 2188TIP3    H2 6529   3.505   1.653   1.369
 2189TIP3   OH2 6530   4.885   2.868   3.391
 2189TIP3    H1 6531   4.795   2.881   3.421
 2189TIP3    H2 6532   4.899   2.936   3.326
 2190TIP3   OH2 6533   0.182   4.025   3.170
 2190TIP3    H1 6534   0.260   4.068   3.133
 2190TIP3    H2 6535   0.178   4.057   3.260
 2191TIP3   OH2 6536   5.344   5.543   1.038
 2191TIP3    H1 6537   5.280   5.603   1.075
 2191TIP3    H2 6538   5.362   5.480   1.108
 2192TIP3   OH2 6539   7.109   0.134   0.714
 2192TIP3    H1 6540   7.050   0.093   0.651
 2192TIP3    H2 6541   7.059   0.135   0.796
 2193TIP3   OH2 6542   4.117   1.850   4.055
 2193TIP3    H1 6543   4.061   1.783   4.015
 2193TIP3    H2 6544   4.205   1.815   4.047
 2194TIP3   OH2 6545   5.850   6.528   2.388
 2194TIP3    H1 6546   5.867   6.529   2.294
 2194TIP3    H2 6547   5.872   6.440   2.415
 2195TIP3   OH2 6548   7.177   5.323   4.887
 2195TIP3    H1 6549   7.137   5.349   4.804
 2195TIP3    H2 6550   7.224   5.242   4.867
 2196TIP3   OH2 6551   0.128   5.720   5.804
 2196TIP3    H1 6552   0.136   5.629   5.833
 2196TIP3    H2 6553   0.080   5.714   5.721
 2197TIP3   OH2 6554   0.603   2.274   1.955
 2197TIP3    H1 6555   0.607   2.361   1.914
 2197TIP3    H2 6556   0.524   2.276   2.009
 2198TIP3   OH2 6557   1.478   4.651   2.362
 2198TIP3    H1 6558   1.490   4.591   2.288
 2198TIP3    H2 6559   1.405   4.613   2.411
 2199TIP3   OH2 6560   3.061   5.616   1.043
 2199TIP3    H1 6561   2.975   5.639   1.011
 2199TIP3    H2 6562   3.111   5.593   0.964
 2200TIP3   OH2 6563   6.873   3.183   4.267
 2200TIP3    H1 6564   6.821   3.183   4.187
 2200TIP3    H2 6565   6.943   3.120   4.251
 2201TIP3   OH2 6566   4.263   6.719   2.092
 2201TIP3    H1 6567   4.190   6.718   2.154
 2201TIP3    H2 6568   4.339   6.740   2.145
 2202TIP3   OH2 6569   2.896   5.144   0.716
 2202TIP3    H1 6570   2.986   5.172   0.730
 2202TIP3    H2 6571   2.886   5.068   0.774
 2203TIP3   OH2 6572   4.031   2.788   5.232
 2203TIP3    H1 6573   3.937   2.798   5.248
 2203TIP3    H2 6574   4.069   2.776   5.319
 2204TIP3   OH2 6575   4.362   1.974   1.252
 2204TIP3    H1 6576   4.303   2.004   1.182
 2204TIP3    H2 6577   4.369   1.880   1.239
 2205TIP3   OH2 6578   0.854   5.297   2.467
 2205TIP3    H1 6579   0.896   5.238   2.404
 2205TIP3    H2 6580   0.858   5.249   2.550
 2206TIP3   OH2 6581   1.607   5.138   1.025
 2206TIP3    H1 6582   1.687   5.177   0.989
 2206TIP3    H2 6583   1.632   5.112   1.114
 2207TIP3   OH2 6584   4.003   3.253   1.623
 2207TIP3    H1 6585   4.053   3.325   1.663
 2207TIP3    H2 6586   3.913   3.285   1.623
 2208TIP3   OH2 6587   1.163   4.068   5.438
 2208TIP3    H1 6588   1.118   4.138   5.486
 2208TIP3    H2 6589   1.150   4.090   5.346
 2209TIP3   OH2 6590   5.648   1.713   4.605
 2209TIP3    H1 6591   5.680   1.724   4.516
 2209TIP3    H2 6592   5.633   1.619   4.614
 2210TIP3   OH2 6593   5.114   6.603   0.008
 2210TIP3    H1 6594   5.080   6.610   0.097
 2210TIP3    H2 6595   5.070   6.526  -0.028
 2211TIP3   OH2 6596   6.679   1.268   4.509
 2211TIP3    H1 6597   6.674   1.334   4.579
 2211TIP3    H2 6598   6.743   1.205   4.540
 2212TIP3   OH2 6599   2.142   3.628   4.258
 2212TIP3    H1 6600   2.066   3.580   4.291
 2212TIP3    H2 6601   2.183   3.665   4.337
 2213TIP3   OH2 6602   0.765   1.086   1.059
 2213TIP3    H1 6603   0.670   1.076   1.049
 2213TIP3    H2 6604   0.775   1.163   1.116
 2214TIP3   OH2 6605   2.993   5.028   1.097
 2214TIP3    H1 6606   2.912   5.045   1.049
 2214TIP3    H2 6607   3.038   5.112   1.098
 2215TIP3   OH2 6608   3.878   2.095   2.452
 2215TIP3    H1 6609   3.786   2.071   2.466
 2215TIP3    H2 6610   3.883   2.188   2.472
 2216TIP3   OH2 6611   6.851   1.389   2.328
 2216TIP3    H1 6612   6.816   1.323   2.269
 2216TIP3    H2 6613   6.777   1.447   2.346
 2217TIP3   OH2 6614   1.674   3.204   5.676
 2217TIP3    H1 6615   1.745   3.144   5.698
 2217TIP3    H2 6616   1.602   3.148   5.646
 2218TIP3   OH2 6617   4.719   4.599   4.139
 2218TIP3    H1 6618   4.774   4.677   4.144
 2218TIP3    H2 6619   4.671   4.609   4.057
 2219TIP3   OH2 6620   3.032   1.362   0.644
 2219TIP3    H1 6621   3.072   1.379   0.559
 2219TIP3    H2 6622   3.103   1.373   0.707
 2220TIP3   OH2 6623   1.311   3.687   5.290
 2220TIP3    H1 6624   1.242   3.753   5.298
 2220TIP3    H2 6625   1.390   3.736   5.270
 2221TIP3   OH2 6626   4.882   5.265   3.023
 2221TIP3    H1 6627   4.960   5.215   2.997
 2221TIP3    H2 6628   4.876   5.252   3.118
 2222TIP3   OH2 6629   3.726   2.286   5.777
 2222TIP3    H1 6630   3.777   2.331   5.709
 2222TIP3    H2 6631   3.635   2.310   5.759
 2223TIP3   OH2 6632   3.413   2.133   1.861
 2223TIP3    H1 6633   3.332   2.088   1.885
 2223TIP3    H2 6634   3.440   2.092   1.779
 2224TIP3   OH2 6635   0.044   4.025   2.649
 2224TIP3    H1 6636   0.028   4.002   2.741
 2224TIP3    H2 6637   0.033   4.120   2.645
 2225TIP3   OH2 6638   2.274   3.375   2.099
 2225TIP3    H1 6639   2.301   3.291   2.135
 2225TIP3    H2 6640   2.258   3.430   2.176
 2226TIP3   OH2 6641   6.974   6.082   1.027
 2226TIP3    H1 6642   6.954   6.139   0.953
 2226TIP3    H2 6643   7.065   6.102   1.049
 2227TIP3   OH2 6644   6.503   4.589   5.441
 2227TIP3    H1 6645   6.463   4.596   5.355
 2227TIP3    H2 6646   6.480   4.502   5.472
 2228TIP3   OH2 6647   7.005   4.990   5.146
 2228TIP3    H1 6648   7.066   5.034   5.205
 2228TIP3    H2 6649   7.020   4.896   5.162
 2229TIP3   OH2 6650   1.077   5.101   1.783
 2229TIP3    H1 6651   1.061   5.105   1.878
 2229TIP3    H2 6652   1.034   5.020   1.755
 2230TIP3   OH2 6653   2.970   3.348   0.492
 2230TIP3    H1 6654   2.981   3.254   0.479
 2230TIP3    H2 6655   2.925   3.377   0.412
 2231TIP3   OH2 6656   3.649   1.529   0.993
 2231TIP3    H1 6657   3.560   1.541   0.962
 2231TIP3    H2 6658   3.689   1.615   0.987
 2232TIP3   OH2 6659   1.680   0.085   3.880
 2232TIP3    H1 6660   1.681   0.004   3.930
 2232TIP3    H2 6661   1.616   0.140   3.923
 2233TIP3   OH2 6662   2.252   3.053   3.559
 2233TIP3    H1 6663   2.293   3.006   3.487
 2233TIP3    H2 6664   2.324   3.101   3.601
 2234TIP3   OH2 6665   6.300   1.483   3.500
 2234TIP3    H1 6666   6.283   1.521   3.586
 2234TIP3    H2 6667   6.304   1.388   3.516
 2235TIP3   OH2 6668   5.654   4.638   1.146
 2235TIP3    H1 6669   5.634   4.549   1.176
 2235TIP3    H2 6670   5.737   4.659   1.189
 2236TIP3   OH2 6671   2.065   1.760   2.885
 2236TIP3    H1 6672   2.157   1.762   2.860
 2236TIP3    H2 6673   2.052   1.840   2.935
 2237TIP3   OH2 6674   3.631   5.517   1.042
 2237TIP3    H1 6675   3.706   5.495   1.098
 2237TIP3    H2 6676   3.564   5.545   1.104
 2238TIP3   OH2 6677   5.848   5.548   3.368
 2238TIP3    H1 6678   5.791   5.598   3.426
 2238TIP3    H2 6679   5.924   5.604   3.354
 2239TIP3   OH2 6680   6.038   0.175   3.838
 2239TIP3    H1 6681   5.960   0.134   3.875
 2239TIP3    H2 6682   6.093   0.102   3.812
 2240TIP3   OH2 6683   1.766   6.677   4.281
 2240TIP3    H1 6684   1.688   6.677   4.225
 2240TIP3    H2 6685   1.838   6.655   4.222
 2241TIP3   OH2 6686   2.484   5.658   5.162
 2241TIP3    H1 6687   2.429   5.580   5.166
 2241TIP3    H2 6688   2.422   5.730   5.148
 2242TIP3   OH2 6689   6.041   3.490   3.929
 2242TIP3    H1 6690   5.978   3.558   3.950
 2242TIP3    H2 6691   6.126   3.535   3.927
 2243TIP3   OH2 6692   0.968   3.826   2.097
 2243TIP3    H1 6693   0.927   3.782   2.172
 2243TIP3    H2 6694   0.906   3.813   2.026
 2244TIP3   OH2 6695   3.095   5.859   1.182
 2244TIP3    H1 6696   3.128   5.938   1.141
 2244TIP3    H2 6697   3.117   5.788   1.121
 2245TIP3   OH2 6698   0.678   6.611   2.942
 2245TIP3    H1 6699   0.586   6.632   2.959
 2245TIP3    H2 6700   0.686   6.518   2.965
 2246TIP3   OH2 6701   3.511   4.036   3.986
 2246TIP3    H1 6702   3.473   4.118   4.018
 2246TIP3    H2 6703   3.569   4.062   3.915
 2247TIP3   OH2 6704   5.849   2.402   3.960
 2247TIP3    H1 6705   5.832   2.477   3.903
 2247TIP3    H2 6706   5.776   2.342   3.943
 2248TIP3   OH2 6707   5.757   3.776   2.117
 2248TIP3    H1 6708   5.831   3.808   2.066
 2248TIP3    H2 6709   5.788   3.776   2.207
 2249TIP3   OH2 6710   1.563   3.109   0.137
 2249TIP3    H1 6711   1.551   3.084   0.229
 2249TIP3    H2 6712   1.499   3.055   0.089
 2250TIP3   OH2 6713   2.828   6.231   4.609
 2250TIP3    H1 6714   2.885   6.170   4.562
 2250TIP3    H2 6715   2.791   6.180   4.681
 2251TIP3   OH2 6716   3.345   6.782   2.731
 2251TIP3    H1 6717   3.275   6.720   2.711
 2251TIP3    H2 6718   3.308   6.867   2.708
 2252TIP3   OH2 6719   3.907   1.073   0.880
 2252TIP3    H1 6720   3.899   1.113   0.793
 2252TIP3    H2 6721   3.992   1.102   0.912
 2253TIP3   OH2 6722   2.040   5.408   2.047
 2253TIP3    H1 6723   2.015   5.345   2.115
 2253TIP3    H2 6724   1.982   5.387   1.973
 2254TIP3   OH2 6725   2.902   2.574   4.692
 2254TIP3    H1 6726   2.812   2.545   4.677
 2254TIP3    H2 6727   2.899   2.669   4.682
 2255TIP3   OH2 6728   6.919   2.971   4.929
 2255TIP3    H1 6729   6.899   2.989   5.020
 2255TIP3    H2 6730   6.906   2.877   4.919
 2256TIP3   OH2 6731   5.490   0.204   2.936
 2256TIP3    H1 6732   5.458   0.177   3.022
 2256TIP3    H2 6733   5.537   0.286   2.952
 2257TIP3   OH2 6734   3.890   4.335   0.068
 2257TIP3    H1 6735   3.866   4.427   0.069
 2257TIP3    H2 6736   3.876   4.306   0.158
 2258TIP3   OH2 6737   5.331   5.576   2.944
 2258TIP3    H1 6738   5.288   5.586   3.029
 2258TIP3    H2 6739   5.412   5.627   2.952
 2259TIP3   OH2 6740   0.463   2.191   3.901
 2259TIP3    H1 6741   0.433   2.257   3.964
 2259TIP3    H2 6742   0.527   2.138   3.949
 2260TIP3   OH2 6743   5.431   3.195   5.189
 2260TIP3    H1 6744   5.441   3.276   5.138
 2260TIP3    H2 6745   5.369   3.217   5.258
 2261TIP3   OH2 6746   4.838   1.944   3.966
 2261TIP3    H1 6747   4.844   1.880   3.894
 2261TIP3    H2 6748   4.928   1.952   3.998
 2262TIP3   OH2 6749   3.522   5.662   2.175
 2262TIP3    H1 6750   3.550   5.709   2.253
 2262TIP3    H2 6751   3.584   5.589   2.168
 2263TIP3   OH2 6752   3.771   2.657   1.284
 2263TIP3    H1 6753   3.742   2.741   1.320
 2263TIP3    H2 6754   3.749   2.662   1.191
 2264TIP3   OH2 6755   0.126   0.073   5.710
 2264TIP3    H1 6756   0.143   0.046   5.800
 2264TIP3    H2 6757   0.207   0.113   5.681
 2265TIP3   OH2 6758   3.956   6.741   1.309
 2265TIP3    H1 6759   3.904   6.693   1.373
 2265TIP3    H2 6760   3.994   6.673   1.253
 2266TIP3   OH2 6761   4.031   4.438   3.027
 2266TIP3    H1 6762   3.950   4.458   3.074
 2266TIP3    H2 6763   4.042   4.344   3.035
 2267TIP3   OH2 6764   5.587   3.681   4.083
 2267TIP3    H1 6765   5.531   3.736   4.028
 2267TIP3    H2 6766   5.657   3.740   4.112
 2268TIP3   OH2 6767   1.081   4.927   0.504
 2268TIP3    H1 6768   1.170   4.928   0.540
 2268TIP3    H2 6769   1.094   4.914   0.410
 2269TIP3   OH2 6770   6.328   5.533   2.155
 2269TIP3    H1 6771   6.264   5.471   2.190
 2269TIP3    H2 6772   6.391   5.546   2.226
 2270TIP3   OH2 6773   5.800   2.872   1.229
 2270TIP3    H1 6774   5.790   2.821   1.309
 2270TIP3    H2 6775   5.737   2.944   1.239
 2271TIP3   OH2 6776   5.445   3.730   2.334
 2271TIP3    H1 6777   5.473   3.818   2.360
 2271TIP3    H2 6778   5.448   3.678   2.414
 2272TIP3   OH2 6779   5.238   5.273   0.465
 2272TIP3    H1 6780   5.266   5.322   0.388
 2272TIP3    H2 6781   5.148   5.246   0.446
 2273TIP3   OH2 6782   2.143   0.364   3.693
 2273TIP3    H1 6783   2.053   0.395   3.708
 2273TIP3    H2 6784   2.138   0.314   3.612
 2274TIP3   OH2 6785   0.365   4.545   3.764
 2274TIP3    H1 6786   0.388   4.454   3.746
 2274TIP3    H2 6787   0.414   4.567   3.843
 2275TIP3   OH2 6788   2.899   4.121   3.231
 2275TIP3    H1 6789   2.821   4.125   3.287
 2275TIP3    H2 6790   2.968   4.088   3.288
 2276TIP3   OH2 6791   0.743   3.032   4.862
 2276TIP3    H1 6792   0.812   2.976   4.828
 2276TIP3    H2 6793   0.665   2.976   4.865
 2277TIP3   OH2 6794   0.559   5.229   1.235
 2277TIP3    H1 6795   0.480   5.233   1.289
 2277TIP3    H2 6796   0.596   5.142   1.253
 2278TIP3   OH2 6797   3.186   4.341   3.192
 2278TIP3    H1 6798   3.118   4.371   3.254
 2278TIP3    H2 6799   3.234   4.273   3.241
 2279TIP3   OH2 6800   0.153   2.213   5.019
 2279TIP3    H1 6801   0.112   2.128   5.028
 2279TIP3    H2 6802   0.115   2.250   4.939
 2280TIP3   OH2 6803   2.223   0.910   3.995
 2280TIP3    H1 6804   2.248   1.002   3.986
 2280TIP3    H2 6805   2.158   0.910   4.066
 2281TIP3   OH2 6806   1.931   3.499   0.549
 2281TIP3    H1 6807   1.967   3.410   0.547
 2281TIP3    H2 6808   1.928   3.525   0.457
 2282TIP3   OH2 6809   4.279   2.496   2.383
 2282TIP3    H1 6810   4.329   2.446   2.447
 2282TIP3    H2 6811   4.337   2.504   2.308
 2283TIP3   OH2 6812   0.502   1.048   0.973
 2283TIP3    H1 6813   0.462   1.031   1.058
 2283TIP3    H2 6814   0.444   1.004   0.910
 2284TIP3   OH2 6815   5.715   2.820   2.485
 2284TIP3    H1 6816   5.805   2.823   2.518
 2284TIP3    H2 6817   5.724   2.807   2.390
 2285TIP3   OH2 6818   2.577   5.041   3.211
 2285TIP3    H1 6819   2.489   5.078   3.199
 2285TIP3    H2 6820   2.562   4.958   3.255
 2286TIP3   OH2 6821   0.630   6.659   3.285
 2286TIP3    H1 6822   0.642   6.604   3.208
 2286TIP3    H2 6823   0.717   6.697   3.301
 2287TIP3   OH2 6824   4.084   1.326   1.210
 2287TIP3    H1 6825   4.125   1.332   1.296
 2287TIP3    H2 6826   4.148   1.279   1.156
 2288TIP3   OH2 6827   4.922   5.261   5.306
 2288TIP3    H1 6828   4.835   5.222   5.315
 2288TIP3    H2 6829   4.919   5.338   5.364
 2289TIP3   OH2 6830   6.426   4.515   2.400
 2289TIP3    H1 6831   6.488   4.564   2.347
 2289TIP3    H2 6832   6.361   4.581   2.427
 2290TIP3   OH2 6833   7.019   5.459   1.482
 2290TIP3    H1 6834   6.996   5.516   1.408
 2290TIP3    H2 6835   6.954   5.478   1.549
 2291TIP3   OH2 6836   5.688   6.071   4.408
 2291TIP3    H1 6837   5.743   6.130   4.356
 2291TIP3    H2 6838   5.651   6.010   4.345
 2292TIP3   OH2 6839   2.611   2.083   5.088
 2292TIP3    H1 6840   2.705   2.073   5.106
 2292TIP3    H2 6841   2.571   2.007   5.131
 2293TIP3   OH2 6842   4.529   3.448   5.005
 2293TIP3    H1 6843   4.550   3.526   5.056
 2293TIP3    H2 6844   4.565   3.375   5.056
 2294TIP3   OH2 6845   4.093   4.120   1.249
 2294TIP3    H1 6846   4.019   4.179   1.233
 2294TIP3    H2 6847   4.098   4.111   1.344
 2295TIP3   OH2 6848   6.249   1.189   4.001
 2295TIP3    H1 6849   6.237   1.102   4.040
 2295TIP3    H2 6850   6.343   1.202   3.998
 2296TIP3   OH2 6851   5.932   6.335   2.930
 2296TIP3    H1 6852   5.907   6.427   2.919
 2296TIP3    H2 6853   6.021   6.330   2.895
 2297TIP3   OH2 6854   3.791   4.469   3.190
 2297TIP3    H1 6855   3.822   4.383   3.220
 2297TIP3    H2 6856   3.698   4.470   3.211
 2298TIP3   OH2 6857   3.994   0.284   2.235
 2298TIP3    H1 6858   4.054   0.345   2.278
 2298TIP3    H2 6859   4.017   0.289   2.142
 2299TIP3   OH2 6860   5.064   4.129   2.327
 2299TIP3    H1 6861   5.131   4.144   2.393
 2299TIP3    H2 6862   4.992   4.187   2.353
 2300TIP3   OH2 6863   2.836   2.132   0.064
 2300TIP3    H1 6864   2.803   2.122   0.154
 2300TIP3    H2 6865   2.784   2.070   0.013
 2301TIP3   OH2 6866   2.723   4.945   0.191
 2301TIP3    H1 6867   2.806   4.986   0.218
 2301TIP3    H2 6868   2.725   4.948   0.095
 2302TIP3   OH2 6869   3.900   4.567   4.608
 2302TIP3    H1 6870   3.958   4.499   4.574
 2302TIP3    H2 6871   3.884   4.624   4.533
 2303TIP3   OH2 6872   2.991   5.891   0.111
 2303TIP3    H1 6873   3.040   5.948   0.170
 2303TIP3    H2 6874   2.922   5.946   0.075
 2304TIP3   OH2 6875   5.866   0.377   1.087
 2304TIP3    H1 6876   5.898   0.296   1.128
 2304TIP3    H2 6877   5.901   0.375   0.998
 2305TIP3   OH2 6878   0.874   1.098   5.540
 2305TIP3    H1 6879   0.868   1.142   5.625
 2305TIP3    H2 6880   0.892   1.169   5.478
 2306TIP3   OH2 6881   0.895   4.857   3.459
 2306TIP3    H1 6882   0.892   4.836   3.553
 2306TIP3    H2 6883   0.848   4.939   3.451
 2307TIP3   OH2 6884   4.360   2.929   3.884
 2307TIP3    H1 6885   4.419   2.974   3.945
 2307TIP3    H2 6886   4.350   2.991   3.811
 2308TIP3   OH2 6887   4.410   6.186   3.097
 2308TIP3    H1 6888   4.421   6.092   3.080
 2308TIP3    H2 6889   4.471   6.229   3.037
 2309TIP3   OH2 6890   6.250   5.691   1.129
 2309TIP3    H1 6891   6.244   5.743   1.209
 2309TIP3    H2 6892   6.296   5.612   1.156
 2310TIP3   OH2 6893   6.616   3.444   1.174
 2310TIP3    H1 6894   6.617   3.505   1.248
 2310TIP3    H2 6895   6.571   3.366   1.207
 2311TIP3   OH2 6896   2.210   0.508   0.794
 2311TIP3    H1 6897   2.240   0.469   0.876
 2311TIP3    H2 6898   2.149   0.577   0.821
 2312TIP3   OH2 6899   2.609   1.575   5.299
 2312TIP3    H1 6900   2.623   1.484   5.324
 2312TIP3    H2 6901   2.528   1.575   5.249
 2313TIP3   OH2 6902   5.255   4.632   4.644
 2313TIP3    H1 6903   5.232   4.577   4.719
 2313TIP3    H2 6904   5.351   4.629   4.641
 2314TIP3   OH2 6905   5.028   1.226   4.461
 2314TIP3    H1 6906   5.082   1.148   4.478
 2314TIP3    H2 6907   4.950   1.192   4.418
 2315TIP3   OH2 6908   0.197   4.884   1.682
 2315TIP3    H1 6909   0.121   4.826   1.690
 2315TIP3    H2 6910   0.256   4.839   1.622
 2316TIP3   OH2 6911   4.199   3.895   1.421
 2316TIP3    H1 6912   4.138   3.966   1.403
 2316TIP3    H2 6913   4.280   3.940   1.446
 2317TIP3   OH2 6914   6.185   5.831   4.139
 2317TIP3    H1 6915   6.174   5.738   4.117
 2317TIP3    H2 6916   6.098   5.860   4.165
 2318TIP3   OH2 6917   1.531   5.797   1.600
 2318TIP3    H1 6918   1.533   5.892   1.608
 2318TIP3    H2 6919   1.581   5.765   1.675
 2319TIP3   OH2 6920   7.213   0.959   2.689
 2319TIP3    H1 6921   7.123   0.932   2.707
 2319TIP3    H2 6922   7.258   0.953   2.773
 2320TIP3   OH2 6923   2.090   1.876   0.958
 2320TIP3    H1 6924   2.117   1.967   0.943
 2320TIP3    H2 6925   2.099   1.863   1.052
 2321TIP3   OH2 6926   7.039   6.683   3.342
 2321TIP3    H1 6927   7.104   6.726   3.398
 2321TIP3    H2 6928   7.086   6.667   3.259
 2322TIP3   OH2 6929   0.223   2.690   4.399
 2322TIP3    H1 6930   0.233   2.779   4.432
 2322TIP3    H2 6931   0.312   2.659   4.385
 2323TIP3   OH2 6932   1.470   5.767   4.557
 2323TIP3    H1 6933   1.468   5.751   4.652
 2323TIP3    H2 6934   1.529   5.701   4.522
 2324TIP3   OH2 6935   6.514   1.641   1.874
 2324TIP3    H1 6936   6.464   1.575   1.922
 2324TIP3    H2 6937   6.456   1.717   1.868
 2325TIP3   OH2 6938   5.136   1.403   1.008
 2325TIP3    H1 6939   5.117   1.456   1.085
 2325TIP3    H2 6940   5.228   1.421   0.988
 2326TIP3   OH2 6941   1.797   6.316   3.370
 2326TIP3    H1 6942   1.835   6.404   3.373
 2326TIP3    H2 6943   1.724   6.324   3.309
 2327TIP3   OH2 6944   6.092   3.014   1.599
 2327TIP3    H1 6945   6.147   3.033   1.523
 2327TIP3    H2 6946   6.072   2.921   1.592
 2328TIP3   OH2 6947   6.971   0.450   4.742
 2328TIP3    H1 6948   6.943   0.426   4.654
 2328TIP3    H2 6949   7.016   0.371   4.774
 2329TIP3   OH2 6950   1.690   1.986   0.447
 2329TIP3    H1 6951   1.629   2.015   0.515
 2329TIP3    H2 6952   1.644   2.003   0.365
 2330TIP3   OH2 6953   5.198   6.258   1.444
 2330TIP3    H1 6954   5.161   6.344   1.461
 2330TIP3    H2 6955   5.131   6.212   1.394
 2331TIP3   OH2 6956   5.081   1.320   5.418
 2331TIP3    H1 6957   5.110   1.241   5.373
 2331TIP3    H2 6958   5.020   1.289   5.484
 2332TIP3   OH2 6959   2.881   5.076   2.385
 2332TIP3    H1 6960   2.789   5.095   2.403
 2332TIP3    H2 6961   2.881   5.035   2.299
 2333TIP3   OH2 6962   2.964   0.736   3.007
 2333TIP3    H1 6963   2.965   0.802   3.076
 2333TIP3    H2 6964   3.045   0.750   2.959
 2334TIP3   OH2 6965   1.677   3.844   1.084
 2334TIP3    H1 6966   1.666   3.752   1.109
 2334TIP3    H2 6967   1.671   3.843   0.988
 2335TIP3   OH2 6968   3.062   2.402   4.841
 2335TIP3    H1 6969   3.116   2.465   4.889
 2335TIP3    H2 6970   3.002   2.456   4.790
 2336TIP3   OH2 6971   1.235   4.347   0.469
 2336TIP3    H1 6972   1.289   4.396   0.406
 2336TIP3    H2 6973   1.178   4.292   0.415
 2337TIP3   OH2 6974   6.245   4.257   2.712
 2337TIP3    H1 6975   6.263   4.199   2.787
 2337TIP3    H2 6976   6.328   4.302   2.696
 2338TIP3   OH2 6977   6.433   5.757   3.765
 2338TIP3    H1 6978   6.372   5.817   3.808
 2338TIP3    H2 6979   6.500   5.815   3.728
 2339TIP3   OH2 6980   3.217   1.746   1.751
 2339TIP3    H1 6981   3.282   1.713   1.689
 2339TIP3    H2 6982   3.158   1.673   1.766
 2340TIP3   OH2 6983   4.384   3.061   3.632
 2340TIP3    H1 6984   4.290   3.049   3.617
 2340TIP3    H2 6985   4.416   3.102   3.552
 2341TIP3   OH2 6986   6.995   1.344   0.604
 2341TIP3    H1 6987   6.994   1.359   0.509
 2341TIP3    H2 6988   7.083   1.372   0.632
 2342TIP3   OH2 6989   5.166   6.383   2.801
 2342TIP3    H1 6990   5.245   6.387   2.855
 2342TIP3    H2 6991   5.152   6.473   2.772
 2343TIP3   OH2 6992   5.304   3.333   1.466
 2343TIP3    H1 6993   5.210   3.350   1.457
 2343TIP3    H2 6994   5.316   3.246   1.427
 2344TIP3   OH2 6995   1.742   5.577   2.278
 2344TIP3    H1 6996   1.812   5.536   2.329
 2344TIP3    H2 6997   1.704   5.642   2.337
 2345TIP3   OH2 6998   5.919   6.755   1.398
 2345TIP3    H1 6999   5.846   6.810   1.426
 2345TIP3    H2 7000   5.901   6.736   1.306
 2346TIP3   OH2 7001   4.235   3.584   1.981
 2346TIP3    H1 7002   4.320   3.544   2.001
 2346TIP3    H2 7003   4.252   3.678   1.983
 2347TIP3   OH2 7004   6.824   0.008   4.113
 2347TIP3    H1 7005   6.816   0.099   4.086
 2347TIP3    H2 7006   6.745  -0.034   4.081
 2348TIP3   OH2 7007   7.167   0.753   3.059
 2348TIP3    H1 7008   7.135   0.778   3.145
 2348TIP3    H2 7009   7.245   0.700   3.076
 2349TIP3   OH2 7010   0.172   4.928   2.543
 2349TIP3    H1 7011   0.087   4.884   2.547
 2349TIP3    H2 7012   0.236   4.857   2.535
 2350TIP3   OH2 7013   2.793   1.060   5.288
 2350TIP3    H1 7014   2.841   1.014   5.357
 2350TIP3    H2 7015   2.801   1.003   5.211
 2351TIP3   OH2 7016   4.604   4.597   5.187
 2351TIP3    H1 7017   4.681   4.646   5.156
 2351TIP3    H2 7018   4.565   4.562   5.107
 2352TIP3   OH2 7019   3.705   0.419   5.763
 2352TIP3    H1 7020   3.787   0.443   5.807
 2352TIP3    H2 7021   3.721   0.330   5.731
 2353TIP3   OH2 7022   0.515   5.479   3.877
 2353TIP3    H1 7023   0.506   5.386   3.901
 2353TIP3    H2 7024   0.608   5.498   3.888
 2354TIP3   OH2 7025   6.517   4.772   1.611
 2354TIP3    H1 7026   6.428   4.809   1.611
 2354TIP3    H2 7027   6.554   4.801   1.694
 2355TIP3   OH2 7028   4.192   2.188   2.562
 2355TIP3    H1 7029   4.149   2.252   2.506
 2355TIP3    H2 7030   4.179   2.104   2.518
 2356TIP3   OH2 7031   4.689   5.909   2.664
 2356TIP3    H1 7032   4.745   5.960   2.606
 2356TIP3    H2 7033   4.642   5.849   2.607
 2357TIP3   OH2 7034   1.554   2.945   5.595
 2357TIP3    H1 7035   1.571   2.855   5.621
 2357TIP3    H2 7036   1.459   2.955   5.603
 2358TIP3   OH2 7037   0.029   1.197   3.432
 2358TIP3    H1 7038   0.010   1.290   3.441
 2358TIP3    H2 7039   0.089   1.177   3.504
 2359TIP3   OH2 7040   4.089   1.214   3.056
 2359TIP3    H1 7041   4.082   1.308   3.074
 2359TIP3    H2 7042   4.006   1.191   3.015
 2360TIP3   OH2 7043   2.824   4.869   0.801
 2360TIP3    H1 7044   2.747   4.863   0.743
 2360TIP3    H2 7045   2.787   4.890   0.887
 2361TIP3   OH2 7046   6.530   4.410   1.295
 2361TIP3    H1 7047   6.578   4.481   1.252
 2361TIP3    H2 7048   6.495   4.449   1.375
 2362TIP3   OH2 7049   4.098   6.696   1.671
 2362TIP3    H1 7050   4.144   6.698   1.587
 2362TIP3    H2 7051   4.112   6.783   1.709
 2363TIP3   OH2 7052   1.910   3.454   2.216
 2363TIP3    H1 7053   1.821   3.435   2.247
 2363TIP3    H2 7054   1.950   3.369   2.204
 2364TIP3   OH2 7055   5.542   5.942   5.566
 2364TIP3    H1 7056   5.467   5.972   5.515
 2364TIP3    H2 7057   5.516   5.956   5.658
 2365TIP3   OH2 7058   3.247   0.637   1.726
 2365TIP3    H1 7059   3.163   0.683   1.725
 2365TIP3    H2 7060   3.307   0.696   1.770
 2366TIP3   OH2 7061   5.744   0.646   0.595
 2366TIP3    H1 7062   5.740   0.610   0.683
 2366TIP3    H2 7063   5.802   0.722   0.602
 2367TIP3   OH2 7064   4.112   0.369   5.430
 2367TIP3    H1 7065   4.201   0.398   5.449
 2367TIP3    H2 7066   4.077   0.342   5.515
 2368TIP3   OH2 7067   4.292   2.826   1.024
 2368TIP3    H1 7068   4.286   2.862   1.112
 2368TIP3    H2 7069   4.203   2.797   1.003
 2369TIP3   OH2 7070   1.851   5.466   0.274
 2369TIP3    H1 7071   1.838   5.533   0.341
 2369TIP3    H2 7072   1.840   5.513   0.191
 2370TIP3   OH2 7073   0.810   1.219   1.808
 2370TIP3    H1 7074   0.761   1.301   1.815
 2370TIP3    H2 7075   0.742   1.152   1.798
 2371TIP3   OH2 7076   1.083   2.871   5.268
 2371TIP3    H1 7077   1.167   2.844   5.231
 2371TIP3    H2 7078   1.022   2.872   5.194
 2372TIP3   OH2 7079   7.007   6.342   4.042
 2372TIP3    H1 7080   7.075   6.285   4.080
 2372TIP3    H2 7081   6.972   6.390   4.117
 2373TIP3   OH2 7082   4.258   1.727   1.630
 2373TIP3    H1 7083   4.312   1.725   1.709
 2373TIP3    H2 7084   4.315   1.764   1.563
 2374TIP3   OH2 7085   5.383   1.248   4.870
 2374TIP3    H1 7086   5.409   1.187   4.801
 2374TIP3    H2 7087   5.287   1.245   4.871
 2375TIP3   OH2 7088   3.532   2.621   4.505
 2375TIP3    H1 7089   3.619   2.579   4.507
 2375TIP3    H2 7090   3.525   2.665   4.589
 2376TIP3   OH2 7091   1.592   4.305   1.097
 2376TIP3    H1 7092   1.545   4.384   1.070
 2376TIP3    H2 7093   1.598   4.312   1.192
 2377TIP3   OH2 7094   1.668   0.140   0.960
 2377TIP3    H1 7095   1.602   0.071   0.954
 2377TIP3    H2 7096   1.654   0.179   1.046
 2378TIP3   OH2 7097   5.109   2.067   3.129
 2378TIP3    H1 7098   5.053   1.992   3.106
 2378TIP3    H2 7099   5.117   2.117   3.048
 2379TIP3   OH2 7100   3.858   0.051   5.292
 2379TIP3    H1 7101   3.935  -0.004   5.279
 2379TIP3    H2 7102   3.811   0.048   5.209
 2380TIP3   OH2 7103   3.299   3.778   5.098
 2380TIP3    H1 7104   3.251   3.705   5.059
 2380TIP3    H2 7105   3.234   3.825   5.149
 2381TIP3   OH2 7106   1.888   6.197   5.240
 2381TIP3    H1 7107   1.870   6.161   5.153
 2381TIP3    H2 7108   1.879   6.291   5.229
 2382TIP3   OH2 7109   6.874   4.514   1.884
 2382TIP3    H1 7110   6.804   4.462   1.924
 2382TIP3    H2 7111   6.832   4.560   1.812
 2383TIP3   OH2 7112   5.581   2.793   4.730
 2383TIP3    H1 7113   5.672   2.807   4.705
 2383TIP3    H2 7114   5.534   2.869   4.694
 2384TIP3   OH2 7115   6.791   6.559   0.759
 2384TIP3    H1 7116   6.705   6.582   0.796
 2384TIP3    H2 7117   6.816   6.479   0.805
 2385TIP3   OH2 7118   0.733   5.781   1.773
 2385TIP3    H1 7119   0.662   5.813   1.718
 2385TIP3    H2 7120   0.786   5.858   1.792
 2386TIP3   OH2 7121   0.846   1.032   2.063
 2386TIP3    H1 7122   0.809   1.073   2.141
 2386TIP3    H2 7123   0.773   1.028   2.001
 2387TIP3   OH2 7124   1.067   6.026   0.775
 2387TIP3    H1 7125   0.988   6.030   0.829
 2387TIP3    H2 7126   1.034   6.023   0.685
 2388TIP3   OH2 7127   5.889   2.398   4.920
 2388TIP3    H1 7128   5.853   2.486   4.929
 2388TIP3    H2 7129   5.822   2.350   4.870
 2389TIP3   OH2 7130   1.799   5.923   2.164
 2389TIP3    H1 7131   1.761   5.838   2.142
 2389TIP3    H2 7132   1.887   5.920   2.125
 2390TIP3   OH2 7133   0.370   4.470   4.196
 2390TIP3    H1 7134   0.425   4.395   4.215
 2390TIP3    H2 7135   0.293   4.433   4.153
 2391TIP3   OH2 7136   3.444   5.265   5.197
 2391TIP3    H1 7137   3.472   5.342   5.247
 2391TIP3    H2 7138   3.502   5.195   5.226
 2392TIP3   OH2 7139  -0.056   0.623   4.423
 2392TIP3    H1 7140   0.036   0.641   4.443
 2392TIP3    H2 7141  -0.066   0.528   4.436
 2393TIP3   OH2 7142   4.457   5.417   2.325
 2393TIP3    H1 7143   4.395   5.352   2.356
 2393TIP3    H2 7144   4.497   5.452   2.404
 2394TIP3   OH2 7145   5.703   0.182   1.396
 2394TIP3    H1 7146   5.769   0.244   1.427
 2394TIP3    H2 7147   5.619   0.225   1.415
 2395TIP3   OH2 7148   5.311   4.933   5.332
 2395TIP3    H1 7149   5.294   4.929   5.426
 2395TIP3    H2 7150   5.242   4.991   5.299
 2396TIP3   OH2 7151   1.712   3.432   4.859
 2396TIP3    H1 7152   1.799   3.467   4.840
 2396TIP3    H2 7153   1.664   3.506   4.896
 2397TIP3   OH2 7154   3.572   4.804   2.569
 2397TIP3    H1 7155   3.577   4.897   2.546
 2397TIP3    H2 7156   3.658   4.769   2.544
 2398TIP3   OH2 7157   4.657   6.264   5.726
 2398TIP3    H1 7158   4.660   6.282   5.820
 2398TIP3    H2 7159   4.564   6.265   5.705
 2399TIP3   OH2 7160   7.140   4.226   1.875
 2399TIP3    H1 7161   7.232   4.212   1.851
 2399TIP3    H2 7162   7.095   4.236   1.791
 2400TIP3   OH2 7163   4.867   1.328   5.735
 2400TIP3    H1 7164   4.889   1.420   5.753
 2400TIP3    H2 7165   4.851   1.290   5.822
 2401TIP3   OH2 7166   1.842   1.569   2.882
 2401TIP3    H1 7167   1.926   1.613   2.896
 2401TIP3    H2 7168   1.856   1.480   2.912
 2402TIP3   OH2 7169   1.751   2.945   0.686
 2402TIP3    H1 7170   1.699   3.020   0.714
 2402TIP3    H2 7171   1.837   2.958   0.727
 2403TIP3   OH2 7172   7.065   6.433   1.858
 2403TIP3    H1 7173   7.023   6.519   1.858
 2403TIP3    H2 7174   7.159   6.452   1.849
 2404TIP3   OH2 7175   3.494   4.504   4.317
 2404TIP3    H1 7176   3.501   4.545   4.403
 2404TIP3    H2 7177   3.470   4.414   4.335
 2405TIP3   OH2 7178   4.190   1.068   0.970
 2405TIP3    H1 7179   4.231   0.984   0.989
 2405TIP3    H2 7180   4.205   1.081   0.876
 2406TIP3   OH2 7181   0.542   0.496   1.996
 2406TIP3    H1 7182   0.612   0.500   1.931
 2406TIP3    H2 7183   0.481   0.565   1.969
 2407TIP3   OH2 7184   0.659   3.438   4.642
 2407TIP3    H1 7185   0.629   3.435   4.551
 2407TIP3    H2 7186   0.599   3.379   4.689
 2408TIP3   OH2 7187   6.603   6.280   2.758
 2408TIP3    H1 7188   6.529   6.336   2.733
 2408TIP3    H2 7189   6.670   6.298   2.691
 2409TIP3   OH2 7190   2.114   4.354   4.654
 2409TIP3    H1 7191   2.178   4.285   4.640
 2409TIP3    H2 7192   2.149   4.430   4.607
 2410TIP3   OH2 7193   3.093   4.453   1.059
 2410TIP3    H1 7194   3.045   4.441   1.141
 2410TIP3    H2 7195   3.036   4.508   1.005
 2411TIP3   OH2 7196   6.184   1.490   0.548
 2411TIP3    H1 7197   6.181   1.532   0.634
 2411TIP3    H2 7198   6.093   1.473   0.526
 2412TIP3   OH2 7199   3.938   4.127   0.363
 2412TIP3    H1 7200   3.943   4.103   0.455
 2412TIP3    H2 7201   3.946   4.223   0.362
 2413TIP3   OH2 7202   6.420   3.187   2.467
 2413TIP3    H1 7203   6.427   3.208   2.560
 2413TIP3    H2 7204   6.343   3.234   2.437
 2414TIP3   OH2 7205   3.308   3.201   4.108
 2414TIP3    H1 7206   3.366   3.166   4.041
 2414TIP3    H2 7207   3.296   3.129   4.170
 2415TIP3   OH2 7208   0.482   2.996   2.822
 2415TIP3    H1 7209   0.408   3.054   2.838
 2415TIP3    H2 7210   0.444   2.920   2.777
 2416TIP3   OH2 7211  -0.023   4.203   1.419
 2416TIP3    H1 7212   0.048   4.254   1.381
 2416TIP3    H2 7213   0.021   4.136   1.471
 2417TIP3   OH2 7214   4.997   6.171   3.421
 2417TIP3    H1 7215   4.944   6.207   3.492
 2417TIP3    H2 7216   4.996   6.077   3.435
 2418TIP3   OH2 7217   4.974   5.146   4.178
 2418TIP3    H1 7218   5.063   5.120   4.154
 2418TIP3    H2 7219   4.947   5.204   4.106
 2419TIP3   OH2 7220   2.828   1.515   1.129
 2419TIP3    H1 7221   2.858   1.446   1.070
 2419TIP3    H2 7222   2.881   1.591   1.106
 2420TIP3   OH2 7223   5.999   1.417   4.585
 2420TIP3    H1 7224   6.005   1.468   4.505
 2420TIP3    H2 7225   6.064   1.347   4.574
 2421TIP3   OH2 7226   2.702   2.852   4.474
 2421TIP3    H1 7227   2.642   2.793   4.428
 2421TIP3    H2 7228   2.724   2.919   4.408
 2422TIP3   OH2 7229   1.253   5.870   5.102
 2422TIP3    H1 7230   1.186   5.828   5.048
 2422TIP3    H2 7231   1.225   5.961   5.108
 2423TIP3   OH2 7232   6.465   0.889   0.075
 2423TIP3    H1 7233   6.537   0.839   0.115
 2423TIP3    H2 7234   6.445   0.956   0.140
 2424TIP3   OH2 7235   4.703   3.308   2.754
 2424TIP3    H1 7236   4.766   3.370   2.717
 2424TIP3    H2 7237   4.678   3.346   2.838
 2425TIP3   OH2 7238   3.340   2.257   2.087
 2425TIP3    H1 7239   3.334   2.165   2.112
 2425TIP3    H2 7240   3.399   2.257   2.011
 2426TIP3   OH2 7241   2.066   1.034   2.573
 2426TIP3    H1 7242   2.023   1.118   2.558
 2426TIP3    H2 7243   2.133   1.029   2.505
 2427TIP3   OH2 7244   2.599   5.922   4.492
 2427TIP3    H1 7245   2.585   6.012   4.462
 2427TIP3    H2 7246   2.545   5.868   4.433
 2428TIP3   OH2 7247   0.487   2.338   0.731
 2428TIP3    H1 7248   0.440   2.378   0.805
 2428TIP3    H2 7249   0.482   2.403   0.661
 2429TIP3   OH2 7250   1.414   4.633   1.471
 2429TIP3    H1 7251   1.375   4.547   1.484
 2429TIP3    H2 7252   1.340   4.691   1.458
 2430TIP3   OH2 7253   5.675   4.288   4.869
 2430TIP3    H1 7254   5.705   4.333   4.948
 2430TIP3    H2 7255   5.685   4.352   4.799
 2431TIP3   OH2 7256   3.778   5.735   1.891
 2431TIP3    H1 7257   3.737   5.817   1.864
 2431TIP3    H2 7258   3.805   5.751   1.982
 2432TIP3   OH2 7259   6.186   3.241   3.979
 2432TIP3    H1 7260   6.107   3.293   3.965
 2432TIP3    H2 7261   6.185   3.177   3.908
 2433TIP3   OH2 7262   4.503   3.927   3.484
 2433TIP3    H1 7263   4.597   3.910   3.496
 2433TIP3    H2 7264   4.496   3.962   3.395
 2434TIP3   OH2 7265   5.388   0.518   3.722
 2434TIP3    H1 7266   5.308   0.478   3.757
 2434TIP3    H2 7267   5.459   0.461   3.752
 2435TIP3   OH2 7268   3.391   0.841   2.693
 2435TIP3    H1 7269   3.392   0.749   2.719
 2435TIP3    H2 7270   3.483   0.866   2.687
 2436TIP3   OH2 7271   0.210   3.168   4.679
 2436TIP3    H1 7272   0.133   3.155   4.733
 2436TIP3    H2 7273   0.235   3.259   4.695
 2437TIP3   OH2 7274   2.223   5.019   3.578
 2437TIP3    H1 7275   2.244   4.942   3.525
 2437TIP3    H2 7276   2.142   5.053   3.540
 2438TIP3   OH2 7277   3.121   5.490   2.646
 2438TIP3    H1 7278   3.029   5.511   2.661
 2438TIP3    H2 7279   3.168   5.537   2.714
 2439TIP3   OH2 7280   1.869   3.046   5.752
 2439TIP3    H1 7281   1.944   3.079   5.802
 2439TIP3    H2 7282   1.865   2.953   5.775
 2440TIP3   OH2 7283   6.365   4.506   5.850
 2440TIP3    H1 7284   6.457   4.482   5.840
 2440TIP3    H2 7285   6.321   4.426   5.880
 2441TIP3   OH2 7286   2.157   0.322   5.563
 2441TIP3    H1 7287   2.106   0.355   5.489
 2441TIP3    H2 7288   2.093   0.282   5.622
 2442TIP3   OH2 7289   1.403   3.431   5.752
 2442TIP3    H1 7290   1.482   3.396   5.712
 2442TIP3    H2 7291   1.387   3.514   5.707
 2443TIP3   OH2 7292   0.501   2.045   4.598
 2443TIP3    H1 7293   0.521   2.135   4.569
 2443TIP3    H2 7294   0.431   2.056   4.662
 2444TIP3   OH2 7295   0.263   1.534   5.833
 2444TIP3    H1 7296   0.219   1.468   5.779
 2444TIP3    H2 7297   0.193   1.594   5.858
 2445TIP3   OH2 7298   3.493   1.513   0.637
 2445TIP3    H1 7299   3.563   1.452   0.659
 2445TIP3    H2 7300   3.468   1.552   0.721
 2446TIP3   OH2 7301   2.291   5.908   5.121
 2446TIP3    H1 7302   2.243   5.990   5.109
 2446TIP3    H2 7303   2.372   5.933   5.164
 2447TIP3   OH2 7304   4.649   5.164   1.193
 2447TIP3    H1 7305   4.596   5.243   1.208
 2447TIP3    H2 7306   4.708   5.188   1.122
 2448TIP3   OH2 7307   3.586   6.056   5.290
 2448TIP3    H1 7308   3.648   6.123   5.318
 2448TIP3    H2 7309   3.563   6.081   5.200
 2449TIP3   OH2 7310   2.029   3.691   3.623
 2449TIP3    H1 7311   1.979   3.689   3.704
 2449TIP3    H2 7312   2.076   3.774   3.625
 2450TIP3   OH2 7313   5.455   0.297   5.178
 2450TIP3    H1 7314   5.419   0.339   5.256
 2450TIP3    H2 7315   5.406   0.336   5.105
 2451TIP3   OH2 7316   2.332   4.168   4.980
 2451TIP3    H1 7317   2.328   4.216   5.063
 2451TIP3    H2 7318   2.249   4.189   4.936
 2452TIP3   OH2 7319   5.789   4.866   2.341
 2452TIP3    H1 7320   5.783   4.856   2.436
 2452TIP3    H2 7321   5.837   4.948   2.329
 2453TIP3   OH2 7322   1.270   3.769   3.216
 2453TIP3    H1 7323   1.176   3.780   3.229
 2453TIP3    H2 7324   1.278   3.698   3.152
 2454TIP3   OH2 7325   7.092   5.474   5.138
 2454TIP3    H1 7326   7.098   5.420   5.059
 2454TIP3    H2 7327   7.159   5.541   5.127
 2455TIP3   OH2 7328   2.590   2.067   4.289
 2455TIP3    H1 7329   2.519   2.124   4.320
 2455TIP3    H2 7330   2.572   2.054   4.196
 2456TIP3   OH2 7331   4.358   4.400   2.821
 2456TIP3    H1 7332   4.284   4.461   2.811
 2456TIP3    H2 7333   4.363   4.355   2.737
 2457TIP3   OH2 7334   0.484   0.773   4.767
 2457TIP3    H1 7335   0.426   0.839   4.804
 2457TIP3    H2 7336   0.454   0.691   4.805
 2458TIP3   OH2 7337   0.178   5.084   0.280
 2458TIP3    H1 7338   0.248   5.026   0.311
 2458TIP3    H2 7339   0.205   5.110   0.192
 2459TIP3   OH2 7340   3.290   3.302   2.190
 2459TIP3    H1 7341   3.199   3.331   2.178
 2459TIP3    H2 7342   3.283   3.209   2.213
 2460TIP3   OH2 7343   1.917   0.760   0.003
 2460TIP3    H1 7344   1.987   0.824   0.016
 2460TIP3    H2 7345   1.919   0.706   0.082
 2461TIP3   OH2 7346   3.378   0.527   0.042
 2461TIP3    H1 7347   3.389   0.607   0.093
 2461TIP3    H2 7348   3.418   0.459   0.096
 2462TIP3   OH2 7349   0.693   4.310   5.513
 2462TIP3    H1 7350   0.696   4.356   5.429
 2462TIP3    H2 7351   0.764   4.246   5.508
 2463TIP3   OH2 7352   2.441   1.455   3.839
 2463TIP3    H1 7353   2.363   1.485   3.886
 2463TIP3    H2 7354   2.513   1.505   3.877
 2464TIP3   OH2 7355   2.963   3.585   1.878
 2464TIP3    H1 7356   2.908   3.512   1.907
 2464TIP3    H2 7357   3.046   3.545   1.852
 2465TIP3   OH2 7358   6.590   1.287   5.376
 2465TIP3    H1 7359   6.667   1.231   5.390
 2465TIP3    H2 7360   6.526   1.256   5.439
 2466TIP3   OH2 7361   0.453   6.230   2.691
 2466TIP3    H1 7362   0.387   6.254   2.757
 2466TIP3    H2 7363   0.509   6.166   2.736
 2467TIP3   OH2 7364   5.353   5.359   1.249
 2467TIP3    H1 7365   5.395   5.359   1.335
 2467TIP3    H2 7366   5.386   5.280   1.206
 2468TIP3   OH2 7367   2.792   4.983   1.321
 2468TIP3    H1 7368   2.840   4.901   1.316
 2468TIP3    H2 7369   2.852   5.048   1.282
 2469TIP3   OH2 7370   0.793   5.851   1.383
 2469TIP3    H1 7371   0.876   5.890   1.356
 2469TIP3    H2 7372   0.815   5.799   1.461
 2470TIP3   OH2 7373   0.174   4.229   1.773
 2470TIP3    H1 7374   0.264   4.198   1.780
 2470TIP3    H2 7375   0.181   4.319   1.742
 2471TIP3   OH2 7376   4.666   5.093   3.530
 2471TIP3    H1 7377   4.718   5.045   3.595
 2471TIP3    H2 7378   4.725   5.161   3.498
 2472TIP3   OH2 7379   0.765   3.111   1.865
 2472TIP3    H1 7380   0.674   3.142   1.863
 2472TIP3    H2 7381   0.800   3.145   1.947
 2473TIP3   OH2 7382   3.345   1.249   0.302
 2473TIP3    H1 7383   3.363   1.300   0.223
 2473TIP3    H2 7384   3.431   1.219   0.331
 2474TIP3   OH2 7385   0.822   1.625   3.906
 2474TIP3    H1 7386   0.756   1.560   3.929
 2474TIP3    H2 7387   0.825   1.684   3.982
 2475TIP3   OH2 7388   5.182   1.037   3.986
 2475TIP3    H1 7389   5.200   1.012   3.896
 2475TIP3    H2 7390   5.254   1.095   4.010
 2476TIP3   OH2 7391   3.016   4.408   5.257
 2476TIP3    H1 7392   3.069   4.487   5.245
 2476TIP3    H2 7393   2.926   4.440   5.261
 2477TIP3   OH2 7394   3.135   3.990   5.742
 2477TIP3    H1 7395   3.056   3.942   5.768
 2477TIP3    H2 7396   3.173   3.936   5.672
 2478TIP3   OH2 7397   7.135   2.588   5.182
 2478TIP3    H1 7398   7.055   2.600   5.233
 2478TIP3    H2 7399   7.111   2.524   5.115
 2479TIP3   OH2 7400   1.459   2.679   1.287
 2479TIP3    H1 7401   1.520   2.632   1.230
 2479TIP3    H2 7402   1.497   2.767   1.294
 2480TIP3   OH2 7403   0.624   2.547   1.865
 2480TIP3    H1 7404   0.616   2.580   1.955
 2480TIP3    H2 7405   0.700   2.593   1.830
 2481TIP3   OH2 7406   6.287   6.307   5.663
 2481TIP3    H1 7407   6.313   6.308   5.571
 2481TIP3    H2 7408   6.354   6.255   5.706
 2482TIP3   OH2 7409   0.069   0.926   3.336
 2482TIP3    H1 7410   0.052   1.020   3.344
 2482TIP3    H2 7411  -0.017   0.885   3.343
 2483TIP3   OH2 7412   0.366   3.783   0.403
 2483TIP3    H1 7413   0.315   3.842   0.458
 2483TIP3    H2 7414   0.455   3.818   0.406
 2484TIP3   OH2 7415   4.474   0.105   2.160
 2484TIP3    H1 7416   4.398   0.153   2.128
 2484TIP3    H2 7417   4.539   0.172   2.180
 2485TIP3   OH2 7418   3.953   5.570   1.787
 2485TIP3    H1 7419   3.990   5.635   1.728
 2485TIP3    H2 7420   3.875   5.612   1.824
 2486TIP3   OH2 7421   0.031   1.767   2.194
 2486TIP3    H1 7422   0.051   1.814   2.113
 2486TIP3    H2 7423   0.103   1.790   2.253
 2487TIP3   OH2 7424   0.739   4.069   4.020
 2487TIP3    H1 7425   0.689   4.025   4.089
 2487TIP3    H2 7426   0.718   4.022   3.940
 2488TIP3   OH2 7427   4.925   6.212   2.759
 2488TIP3    H1 7428   4.990   6.280   2.773
 2488TIP3    H2 7429   4.884   6.199   2.845
 2489TIP3   OH2 7430   4.972   5.482   4.044
 2489TIP3    H1 7431   4.951   5.548   3.978
 2489TIP3    H2 7432   5.058   5.448   4.017
 2490TIP3   OH2 7433   7.081   4.275   4.469
 2490TIP3    H1 7434   6.994   4.251   4.499
 2490TIP3    H2 7435   7.138   4.259   4.545
 2491TIP3   OH2 7436   2.265   1.046   4.811
 2491TIP3    H1 7437   2.198   1.021   4.875
 2491TIP3    H2 7438   2.234   1.009   4.728
 2492TIP3   OH2 7439   1.175   5.324   0.288
 2492TIP3    H1 7440   1.123   5.404   0.285
 2492TIP3    H2 7441   1.214   5.324   0.375
 2493TIP3   OH2 7442   4.180   5.659   5.707
 2493TIP3    H1 7443   4.151   5.732   5.762
 2493TIP3    H2 7444   4.267   5.684   5.676
 2494TIP3   OH2 7445   6.003   5.309   5.553
 2494TIP3    H1 7446   5.967   5.385   5.597
 2494TIP3    H2 7447   5.983   5.323   5.460
 2495TIP3   OH2 7448   0.942   1.895   1.084
 2495TIP3    H1 7449   1.020   1.943   1.056
 2495TIP3    H2 7450   0.901   1.867   1.003
 2496TIP3   OH2 7451   5.905   5.012   4.854
 2496TIP3    H1 7452   5.850   5.091   4.854
 2496TIP3    H2 7453   5.909   4.986   4.945
 2497TIP3   OH2 7454   6.819   0.488   4.052
 2497TIP3    H1 7455   6.776   0.403   4.049
 2497TIP3    H2 7456   6.888   0.478   4.118
 2498TIP3   OH2 7457   0.069   4.714   4.491
 2498TIP3    H1 7458   0.054   4.653   4.419
 2498TIP3    H2 7459   0.056   4.661   4.570
 2499TIP3   OH2 7460   0.335   2.506   2.756
 2499TIP3    H1 7461   0.320   2.579   2.696
 2499TIP3    H2 7462   0.317   2.543   2.843
 2500TIP3   OH2 7463   4.480   6.562   1.464
 2500TIP3    H1 7464   4.473   6.532   1.373
 2500TIP3    H2 7465   4.414   6.630   1.472
 2501TIP3   OH2 7466   0.165   4.773   0.118
 2501TIP3    H1 7467   0.161   4.858   0.074
 2501TIP3    H2 7468   0.112   4.784   0.197
 2502TIP3   OH2 7469   5.250   3.320   0.971
 2502TIP3    H1 7470   5.263   3.300   0.878
 2502TIP3    H2 7471   5.296   3.249   1.017
 2503TIP3   OH2 7472   2.990   4.389   3.369
 2503TIP3    H1 7473   2.897   4.408   3.372
 2503TIP3    H2 7474   3.032   4.462   3.415
 2504TIP3   OH2 7475   3.563   3.624   1.593
 2504TIP3    H1 7476   3.599   3.708   1.620
 2504TIP3    H2 7477   3.468   3.638   1.591
 2505TIP3   OH2 7478   0.012   3.185   2.987
 2505TIP3    H1 7479   0.048   3.273   2.979
 2505TIP3    H2 7480   0.089   3.128   2.997
 2506TIP3   OH2 7481   4.391   4.974   1.559
 2506TIP3    H1 7482   4.305   5.005   1.533
 2506TIP3    H2 7483   4.382   4.879   1.567
 2507TIP3   OH2 7484   4.650   3.734   0.529
 2507TIP3    H1 7485   4.727   3.687   0.498
 2507TIP3    H2 7486   4.640   3.706   0.620
 2508TIP3   OH2 7487   1.153   3.529   1.076
 2508TIP3    H1 7488   1.146   3.616   1.038
 2508TIP3    H2 7489   1.235   3.494   1.040
 2509TIP3   OH2 7490   1.191   0.715   3.795
 2509TIP3    H1 7491   1.166   0.717   3.888
 2509TIP3    H2 7492   1.169   0.802   3.763
 2510TIP3   OH2 7493   0.374   5.542   4.811
 2510TIP3    H1 7494   0.396   5.494   4.731
 2510TIP3    H2 7495   0.393   5.633   4.791
 2511TIP3   OH2 7496   4.724   0.184   1.283
 2511TIP3    H1 7497   4.717   0.256   1.221
 2511TIP3    H2 7498   4.642   0.185   1.332
 2512TIP3   OH2 7499   1.276   2.617   4.715
 2512TIP3    H1 7500   1.308   2.554   4.650
 2512TIP3    H2 7501   1.277   2.701   4.670
 2513TIP3   OH2 7502   0.967   5.653   1.599
 2513TIP3    H1 7503   0.940   5.571   1.641
 2513TIP3    H2 7504   1.003   5.706   1.670
 2514TIP3   OH2 7505   1.559   5.918   0.174
 2514TIP3    H1 7506   1.646   5.904   0.136
 2514TIP3    H2 7507   1.502   5.859   0.125
 2515TIP3   OH2 7508   5.780   4.220   0.242
 2515TIP3    H1 7509   5.789   4.194   0.150
 2515TIP3    H2 7510   5.849   4.170   0.287
 2516TIP3   OH2 7511   2.270   6.150   4.363
 2516TIP3    H1 7512   2.361   6.162   4.388
 2516TIP3    H2 7513   2.245   6.234   4.324
 2517TIP3   OH2 7514   4.493   6.815   0.555
 2517TIP3    H1 7515   4.464   6.730   0.521
 2517TIP3    H2 7516   4.428   6.877   0.521
 2518TIP3   OH2 7517   0.378   6.788   0.792
 2518TIP3    H1 7518   0.288   6.761   0.773
 2518TIP3    H2 7519   0.418   6.711   0.833
 2519TIP3   OH2 7520   0.618   3.894   3.802
 2519TIP3    H1 7521   0.635   3.910   3.710
 2519TIP3    H2 7522   0.536   3.941   3.820
 2520TIP3   OH2 7523   3.733   3.456   4.926
 2520TIP3    H1 7524   3.809   3.397   4.927
 2520TIP3    H2 7525   3.769   3.540   4.898
 2521TIP3   OH2 7526   1.192   3.714   2.239
 2521TIP3    H1 7527   1.167   3.655   2.309
 2521TIP3    H2 7528   1.114   3.721   2.184
 2522TIP3   OH2 7529   0.661   2.054   1.325
 2522TIP3    H1 7530   0.624   2.029   1.240
 2522TIP3    H2 7531   0.589   2.099   1.370
 2523TIP3   OH2 7532   5.156   6.439   4.875
 2523TIP3    H1 7533   5.222   6.370   4.865
 2523TIP3    H2 7534   5.201   6.520   4.850
 2524TIP3   OH2 7535   2.648   3.301   1.049
 2524TIP3    H1 7536   2.701   3.370   1.008
 2524TIP3    H2 7537   2.565   3.343   1.069
 2525TIP3   OH2 7538   4.078   6.722   0.038
 2525TIP3    H1 7539   4.063   6.704  -0.055
 2525TIP3    H2 7540   4.156   6.779   0.039
 2526TIP3   OH2 7541   1.291   5.811   3.589
 2526TIP3    H1 7542   1.308   5.904   3.574
 2526TIP3    H2 7543   1.377   5.772   3.598
 2527TIP3   OH2 7544   1.161   1.685   5.245
 2527TIP3    H1 7545   1.156   1.718   5.334
 2527TIP3    H2 7546   1.188   1.761   5.193
 2528TIP3   OH2 7547   2.399   5.865   2.321
 2528TIP3    H1 7548   2.428   5.873   2.230
 2528TIP3    H2 7549   2.439   5.784   2.352
 2529TIP3   OH2 7550   6.591   0.597   3.512
 2529TIP3    H1 7551   6.583   0.524   3.450
 2529TIP3    H2 7552   6.641   0.561   3.585
 2530TIP3   OH2 7553   6.744   2.332   5.498
 2530TIP3    H1 7554   6.766   2.287   5.417
 2530TIP3    H2 7555   6.757   2.267   5.567
 2531TIP3   OH2 7556   1.722   1.505   0.935
 2531TIP3    H1 7557   1.674   1.534   1.012
 2531TIP3    H2 7558   1.814   1.517   0.958
 2532TIP3   OH2 7559   5.861   4.027   5.322
 2532TIP3    H1 7560   5.852   4.106   5.269
 2532TIP3    H2 7561   5.933   3.979   5.282
 2533TIP3   OH2 7562   1.150  -0.044   5.440
 2533TIP3    H1 7563   1.161  -0.042   5.535
 2533TIP3    H2 7564   1.236  -0.070   5.406
 2534TIP3   OH2 7565   6.268   2.491   3.014
 2534TIP3    H1 7566   6.354   2.482   3.055
 2534TIP3    H2 7567   6.286   2.518   2.924
 2535TIP3   OH2 7568   4.101   5.371   4.524
 2535TIP3    H1 7569   4.131   5.417   4.445
 2535TIP3    H2 7570   4.162   5.298   4.533
 2536TIP3   OH2 7571   5.339   3.667   1.831
 2536TIP3    H1 7572   5.378   3.583   1.851
 2536TIP3    H2 7573   5.310   3.702   1.915
 2537TIP3   OH2 7574   4.025   2.783   0.469
 2537TIP3    H1 7575   4.088   2.777   0.540
 2537TIP3    H2 7576   4.001   2.876   0.466
 2538TIP3   OH2 7577   1.416   5.692   5.612
 2538TIP3    H1 7578   1.473   5.692   5.535
 2538TIP3    H2 7579   1.373   5.606   5.609
 2539TIP3   OH2 7580   2.778   4.674   2.397
 2539TIP3    H1 7581   2.704   4.726   2.428
 2539TIP3    H2 7582   2.819   4.729   2.330
 2540TIP3   OH2 7583   1.269   3.842   2.875
 2540TIP3    H1 7584   1.282   3.924   2.922
 2540TIP3    H2 7585   1.320   3.777   2.924
 2541TIP3   OH2 7586   0.627   4.299   4.927
 2541TIP3    H1 7587   0.635   4.261   5.015
 2541TIP3    H2 7588   0.717   4.306   4.895
 2542TIP3   OH2 7589   1.608   2.700   3.867
 2542TIP3    H1 7590   1.677   2.635   3.852
 2542TIP3    H2 7591   1.604   2.751   3.786
 2543TIP3   OH2 7592   2.336   4.330   4.124
 2543TIP3    H1 7593   2.362   4.247   4.082
 2543TIP3    H2 7594   2.414   4.385   4.119
 2544TIP3   OH2 7595   3.777   3.050   2.820
 2544TIP3    H1 7596   3.802   3.070   2.910
 2544TIP3    H2 7597   3.709   2.983   2.828
 2545TIP3   OH2 7598   7.083   2.430   4.938
 2545TIP3    H1 7599   7.031   2.351   4.927
 2545TIP3    H2 7600   7.163   2.413   4.888
 2546TIP3   OH2 7601   3.087   1.393   2.582
 2546TIP3    H1 7602   3.111   1.483   2.603
 2546TIP3    H2 7603   3.147   1.368   2.512
 2547TIP3   OH2 7604   2.476   6.372   2.690
 2547TIP3    H1 7605   2.560   6.413   2.673
 2547TIP3    H2 7606   2.428   6.380   2.607
 2548TIP3   OH2 7607   2.320   0.370   5.209
 2548TIP3    H1 7608   2.398   0.336   5.254
 2548TIP3    H2 7609   2.348   0.454   5.173
 2549TIP3   OH2 7610   2.540   6.246   5.513
 2549TIP3    H1 7611   2.555   6.266   5.605
 2549TIP3    H2 7612   2.532   6.151   5.509
 2550TIP3   OH2 7613   1.139   5.399   2.786
 2550TIP3    H1 7614   1.223   5.442   2.801
 2550TIP3    H2 7615   1.159   5.306   2.788
 2551TIP3   OH2 7616   5.163   5.054   2.234
 2551TIP3    H1 7617   5.123   4.976   2.273
 2551TIP3    H2 7618   5.203   5.023   2.153
 2552TIP3   OH2 7619   0.567   0.821   3.290
 2552TIP3    H1 7620   0.512   0.753   3.254
 2552TIP3    H2 7621   0.651   0.778   3.306
 2553TIP3   OH2 7622   6.938   3.397   2.327
 2553TIP3    H1 7623   6.856   3.369   2.287
 2553TIP3    H2 7624   6.970   3.467   2.269
 2554TIP3   OH2 7625   2.284   5.826   1.152
 2554TIP3    H1 7626   2.284   5.872   1.068
 2554TIP3    H2 7627   2.274   5.734   1.129
 2555TIP3   OH2 7628   4.839   6.716   2.032
 2555TIP3    H1 7629   4.906   6.779   2.057
 2555TIP3    H2 7630   4.761   6.769   2.016
 2556TIP3   OH2 7631   4.292   0.802   4.833
 2556TIP3    H1 7632   4.300   0.723   4.779
 2556TIP3    H2 7633   4.204   0.835   4.814
 2557TIP3   OH2 7634   1.267   0.898   1.936
 2557TIP3    H1 7635   1.180   0.928   1.908
 2557TIP3    H2 7636   1.258   0.883   2.030
 2558TIP3   OH2 7637   0.800   4.237   1.918
 2558TIP3    H1 7638   0.792   4.288   1.838
 2558TIP3    H2 7639   0.730   4.270   1.975
 2559TIP3   OH2 7640   6.065   6.184   3.156
 2559TIP3    H1 7641   6.003   6.167   3.085
 2559TIP3    H2 7642   6.050   6.113   3.219
 2560TIP3   OH2 7643   0.799   4.548   0.358
 2560TIP3    H1 7644   0.807   4.636   0.394
 2560TIP3    H2 7645   0.733   4.505   0.413
 2561TIP3   OH2 7646   4.699   5.115  -0.062
 2561TIP3    H1 7647   4.726   5.196  -0.018
 2561TIP3    H2 7648   4.743   5.046  -0.013
 2562TIP3   OH2 7649   6.556   1.567   5.418
 2562TIP3    H1 7650   6.638   1.600   5.454
 2562TIP3    H2 7651   6.561   1.472   5.428
 2563TIP3   OH2 7652   2.613   3.278   4.646
 2563TIP3    H1 7653   2.568   3.361   4.663
 2563TIP3    H2 7654   2.584   3.252   4.559
 2564TIP3   OH2 7655   2.564   4.900   0.439
 2564TIP3    H1 7656   2.630   4.964   0.467
 2564TIP3    H2 7657   2.615   4.821   0.418
 2565TIP3   OH2 7658   3.134   4.954   1.531
 2565TIP3    H1 7659   3.041   4.953   1.554
 2565TIP3    H2 7660   3.154   5.046   1.515
 2566TIP3   OH2 7661   0.844   0.600   1.253
 2566TIP3    H1 7662   0.909   0.556   1.197
 2566TIP3    H2 7663   0.845   0.691   1.223
 2567TIP3   OH2 7664   0.337   0.959   3.724
 2567TIP3    H1 7665   0.285   0.947   3.803
 2567TIP3    H2 7666   0.308   0.889   3.665
 2568TIP3   OH2 7667   7.183   0.855   0.783
 2568TIP3    H1 7668   7.177   0.805   0.702
 2568TIP3    H2 7669   7.276   0.879   0.789
 2569TIP3   OH2 7670   1.338   4.281   1.914
 2569TIP3    H1 7671   1.327   4.225   1.837
 2569TIP3    H2 7672   1.277   4.246   1.978
 2570TIP3   OH2 7673   3.187   4.770   2.624
 2570TIP3    H1 7674   3.166   4.853   2.581
 2570TIP3    H2 7675   3.208   4.711   2.552
 2571TIP3   OH2 7676   4.407   0.810   5.617
 2571TIP3    H1 7677   4.483   0.843   5.570
 2571TIP3    H2 7678   4.443   0.763   5.692
 2572TIP3   OH2 7679   2.812   5.122   4.201
 2572TIP3    H1 7680   2.859   5.137   4.283
 2572TIP3    H2 7681   2.854   5.044   4.164
 2573TIP3   OH2 7682   3.645   6.344   5.571
 2573TIP3    H1 7683   3.558   6.384   5.572
 2573TIP3    H2 7684   3.640   6.274   5.637
 2574TIP3   OH2 7685   2.928   3.743   2.180
 2574TIP3    H1 7686   2.971   3.734   2.095
 2574TIP3    H2 7687   3.001   3.746   2.243
 2575TIP3   OH2 7688   4.001   2.275   4.803
 2575TIP3    H1 7689   3.925   2.314   4.845
 2575TIP3    H2 7690   3.977   2.183   4.792
 2576TIP3   OH2 7691   1.364   0.900   5.286
 2576TIP3    H1 7692   1.438   0.839   5.288
 2576TIP3    H2 7693   1.313   0.879   5.364
 2577TIP3   OH2 7694   1.334   6.501   4.444
 2577TIP3    H1 7695   1.278   6.443   4.392
 2577TIP3    H2 7696   1.329   6.586   4.400
 2578TIP3   OH2 7697   3.412   5.297   4.910
 2578TIP3    H1 7698   3.427   5.276   5.002
 2578TIP3    H2 7699   3.483   5.358   4.887
 2579TIP3   OH2 7700   3.093   4.122   4.474
 2579TIP3    H1 7701   3.149   4.199   4.488
 2579TIP3    H2 7702   3.022   4.132   4.538
 2580TIP3   OH2 7703   0.048   5.608   1.447
 2580TIP3    H1 7704  -0.020   5.541   1.457
 2580TIP3    H2 7705   0.034   5.644   1.360
 2581TIP3   OH2 7706   1.060   0.613   2.133
 2581TIP3    H1 7707   1.036   0.548   2.198
 2581TIP3    H2 7708   1.134   0.574   2.086
 2582TIP3   OH2 7709   6.375   5.509   3.819
 2582TIP3    H1 7710   6.404   5.598   3.799
 2582TIP3    H2 7711   6.303   5.494   3.758
 2583TIP3   OH2 7712   2.387   5.394   0.078
 2583TIP3    H1 7713   2.321   5.329   0.053
 2583TIP3    H2 7714   2.392   5.387   0.173
 2584TIP3   OH2 7715   4.501   2.668   3.886
 2584TIP3    H1 7716   4.552   2.677   3.966
 2584TIP3    H2 7717   4.447   2.747   3.884
 2585TIP3   OH2 7718   7.114   3.455   1.617
 2585TIP3    H1 7719   7.156   3.403   1.686
 2585TIP3    H2 7720   7.184   3.512   1.584
 2586TIP3   OH2 7721   3.120   6.289   2.696
 2586TIP3    H1 7722   3.107   6.365   2.753
 2586TIP3    H2 7723   3.196   6.244   2.733
 2587TIP3   OH2 7724   0.321   4.283   5.310
 2587TIP3    H1 7725   0.334   4.188   5.313
 2587TIP3    H2 7726   0.305   4.308   5.401
 2588TIP3   OH2 7727   1.727   0.189   4.290
 2588TIP3    H1 7728   1.771   0.105   4.302
 2588TIP3    H2 7729   1.790   0.242   4.241
 2589TIP3   OH2 7730   5.114   4.761   1.565
 2589TIP3    H1 7731   5.126   4.670   1.592
 2589TIP3    H2 7732   5.041   4.792   1.618
 2590TIP3   OH2 7733   4.620   0.283   4.688
 2590TIP3    H1 7734   4.707   0.322   4.687
 2590TIP3    H2 7735   4.623   0.216   4.620
 2591TIP3   OH2 7736   2.585   1.047   3.696
 2591TIP3    H1 7737   2.638   1.042   3.775
 2591TIP3    H2 7738   2.522   1.117   3.713
 2592TIP3   OH2 7739   0.820   3.948   3.273
 2592TIP3    H1 7740   0.832   4.042   3.262
 2592TIP3    H2 7741   0.905   3.916   3.303
 2593TIP3   OH2 7742   6.347   2.081   0.874
 2593TIP3    H1 7743   6.333   1.988   0.854
 2593TIP3    H2 7744   6.441   2.089   0.888
 2594TIP3   OH2 7745   2.335   0.743   5.676
 2594TIP3    H1 7746   2.327   0.708   5.587
 2594TIP3    H2 7747   2.351   0.666   5.730
 2595TIP3   OH2 7748   4.210   5.243   5.575
 2595TIP3    H1 7749   4.265   5.261   5.651
 2595TIP3    H2 7750   4.257   5.281   5.501
 2596TIP3   OH2 7751   3.741   2.519   2.776
 2596TIP3    H1 7752   3.830   2.518   2.740
 2596TIP3    H2 7753   3.747   2.575   2.853
 2597TIP3   OH2 7754   5.003   5.308   2.498
 2597TIP3    H1 7755   5.081   5.343   2.542
 2597TIP3    H2 7756   4.958   5.385   2.463
 2598TIP3   OH2 7757   3.330   2.656   4.345
 2598TIP3    H1 7758   3.384   2.690   4.274
 2598TIP3    H2 7759   3.385   2.663   4.423
 2599TIP3   OH2 7760   0.374   3.936   0.660
 2599TIP3    H1 7761   0.459   3.897   0.644
 2599TIP3    H2 7762   0.387   3.992   0.736
 2600TIP3   OH2 7763   4.888   0.304   1.926
 2600TIP3    H1 7764   4.905   0.350   1.843
 2600TIP3    H2 7765   4.838   0.227   1.901
 2601TIP3   OH2 7766   6.884   3.186   5.652
 2601TIP3    H1 7767   6.871   3.170   5.559
 2601TIP3    H2 7768   6.976   3.165   5.668
 2602TIP3   OH2 7769   2.321   1.810   2.789
 2602TIP3    H1 7770   2.400   1.757   2.796
 2602TIP3    H2 7771   2.344   1.894   2.828
 2603TIP3   OH2 7772   4.710   4.594   5.810
 2603TIP3    H1 7773   4.774   4.524   5.828
 2603TIP3    H2 7774   4.674   4.615   5.896
 2604TIP3   OH2 7775   1.988   0.819   5.833
 2604TIP3    H1 7776   1.934   0.852   5.906
 2604TIP3    H2 7777   2.049   0.758   5.875
 2605TIP3   OH2 7778   6.486   6.033   3.127
 2605TIP3    H1 7779   6.464   5.956   3.180
 2605TIP3    H2 7780   6.560   6.004   3.073
 2606TIP3   OH2 7781   5.345   6.018   4.440
 2606TIP3    H1 7782   5.334   6.113   4.437
 2606TIP3    H2 7783   5.354   5.991   4.349
 2607TIP3   OH2 7784   2.707   3.397   1.478
 2607TIP3    H1 7785   2.620   3.359   1.490
 2607TIP3    H2 7786   2.705   3.435   1.390
 2608TIP3   OH2 7787   0.646   0.436   5.834
 2608TIP3    H1 7788   0.567   0.466   5.879
 2608TIP3    H2 7789   0.690   0.516   5.806
 2609TIP3   OH2 7790   6.383   2.030   1.640
 2609TIP3    H1 7791   6.304   1.984   1.613
 2609TIP3    H2 7792   6.355   2.120   1.654
 2610TIP3   OH2 7793   3.429   1.032   3.125
 2610TIP3    H1 7794   3.504   0.994   3.080
 2610TIP3    H2 7795   3.356   1.022   3.063
 2611TIP3   OH2 7796   5.674   4.660   0.840
 2611TIP3    H1 7797   5.765   4.632   0.846
 2611TIP3    H2 7798   5.639   4.648   0.929
 2612TIP3   OH2 7799   6.857   3.949   1.621
 2612TIP3    H1 7800   6.864   3.860   1.586
 2612TIP3    H2 7801   6.884   4.005   1.548
 2613TIP3   OH2 7802   6.082   3.074   5.629
 2613TIP3    H1 7803   6.140   3.150   5.638
 2613TIP3    H2 7804   6.101   3.020   5.706
 2614TIP3   OH2 7805   1.505   2.120   3.068
 2614TIP3    H1 7806   1.434   2.099   3.128
 2614TIP3    H2 7807   1.501   2.216   3.058
 2615TIP3   OH2 7808   0.047   4.499   0.020
 2615TIP3    H1 7809   0.065   4.569   0.083
 2615TIP3    H2 7810   0.048   4.419   0.072
 2616TIP3   OH2 7811   6.349   4.133   5.035
 2616TIP3    H1 7812   6.419   4.171   5.087
 2616TIP3    H2 7813   6.383   4.133   4.945
 2617TIP3   OH2 7814   4.252   6.446   3.102
 2617TIP3    H1 7815   4.187   6.450   3.032
 2617TIP3    H2 7816   4.309   6.373   3.077
 2618TIP3   OH2 7817   4.668   3.065   2.134
 2618TIP3    H1 7818   4.652   3.032   2.223
 2618TIP3    H2 7819   4.584   3.058   2.090
 2619TIP3   OH2 7820   3.672   6.371   1.825
 2619TIP3    H1 7821   3.650   6.344   1.914
 2619TIP3    H2 7822   3.760   6.407   1.832
 2620TIP3   OH2 7823   6.743   1.175   0.753
 2620TIP3    H1 7824   6.819   1.118   0.765
 2620TIP3    H2 7825   6.763   1.254   0.803
 2621TIP3   OH2 7826   5.156   1.932   4.856
 2621TIP3    H1 7827   5.074   1.979   4.861
 2621TIP3    H2 7828   5.198   1.965   4.776
 2622TIP3   OH2 7829   1.062   3.000   1.600
 2622TIP3    H1 7830   1.007   2.973   1.674
 2622TIP3    H2 7831   1.147   2.958   1.617
 2623TIP3   OH2 7832   2.380   3.605   3.893
 2623TIP3    H1 7833   2.459   3.588   3.943
 2623TIP3    H2 7834   2.396   3.567   3.807
 2624TIP3   OH2 7835   2.591   0.783   3.890
 2624TIP3    H1 7836   2.592   0.756   3.982
 2624TIP3    H2 7837   2.610   0.877   3.893
 2625TIP3   OH2 7838   5.649   6.461   3.775
 2625TIP3    H1 7839   5.628   6.471   3.868
 2625TIP3    H2 7840   5.657   6.551   3.743
 2626TIP3   OH2 7841   2.140   1.453   2.751
 2626TIP3    H1 7842   2.083   1.404   2.811
 2626TIP3    H2 7843   2.079   1.503   2.696
 2627TIP3   OH2 7844   6.858   5.568   2.948
 2627TIP3    H1 7845   6.813   5.509   3.009
 2627TIP3    H2 7846   6.908   5.509   2.891
 2628TIP3   OH2 7847   6.408   0.493   4.284
 2628TIP3    H1 7848   6.370   0.559   4.227
 2628TIP3    H2 7849   6.499   0.520   4.295
 2629TIP3   OH2 7850   1.664   5.515   0.905
 2629TIP3    H1 7851   1.695   5.426   0.890
 2629TIP3    H2 7852   1.687   5.533   0.997
 2630TIP3   OH2 7853   5.338   5.578   0.116
 2630TIP3    H1 7854   5.334   5.483   0.128
 2630TIP3    H2 7855   5.431   5.598   0.120
 2631TIP3   OH2 7856   1.546   5.100   0.144
 2631TIP3    H1 7857   1.557   5.006   0.133
 2631TIP3    H2 7858   1.480   5.109   0.212
 2632TIP3   OH2 7859   6.687   4.037   1.843
 2632TIP3    H1 7860   6.698   4.131   1.851
 2632TIP3    H2 7861   6.722   4.016   1.756
 2633TIP3   OH2 7862   5.857   0.553   4.729
 2633TIP3    H1 7863   5.881   0.646   4.737
 2633TIP3    H2 7864   5.822   0.530   4.815
 2634TIP3   OH2 7865   1.951   1.958   0.192
 2634TIP3    H1 7866   2.024   1.993   0.243
 2634TIP3    H2 7867   1.926   1.878   0.238
 2635TIP3   OH2 7868   6.218   6.787   5.276
 2635TIP3    H1 7869   6.237   6.705   5.230
 2635TIP3    H2 7870   6.138   6.819   5.236
 2636TIP3   OH2 7871   6.914   0.633   3.577
 2636TIP3    H1 7872   6.845   0.697   3.594
 2636TIP3    H2 7873   6.932   0.593   3.662
 2637TIP3   OH2 7874   3.086   1.772   3.216
 2637TIP3    H1 7875   3.064   1.818   3.296
 2637TIP3    H2 7876   3.002   1.759   3.171
 2638TIP3   OH2 7877   0.597   1.077   5.745
 2638TIP3    H1 7878   0.644   1.085   5.828
 2638TIP3    H2 7879   0.521   1.134   5.754
 2639TIP3   OH2 7880   2.615   1.732   3.472
 2639TIP3    H1 7881   2.580   1.645   3.452
 2639TIP3    H2 7882   2.537   1.786   3.486
 2640TIP3   OH2 7883   1.843   6.453   5.144
 2640TIP3    H1 7884   1.824   6.472   5.052
 2640TIP3    H2 7885   1.936   6.476   5.154
 2641TIP3   OH2 7886   1.221   0.546   5.388
 2641TIP3    H1 7887   1.315   0.548   5.405
 2641TIP3    H2 7888   1.191   0.463   5.425
 2642TIP3   OH2 7889   0.435   2.800   1.332
 2642TIP3    H1 7890   0.375   2.818   1.404
 2642TIP3    H2 7891   0.385   2.745   1.272
 2643TIP3   OH2 7892   4.014   0.838   2.876
 2643TIP3    H1 7893   4.091   0.855   2.932
 2643TIP3    H2 7894   3.968   0.922   2.873
 2644TIP3   OH2 7895   4.413   2.388   5.791
 2644TIP3    H1 7896   4.464   2.418   5.715
 2644TIP3    H2 7897   4.330   2.359   5.753
 2645TIP3   OH2 7898   4.896   2.183   2.146
 2645TIP3    H1 7899   4.989   2.196   2.129
 2645TIP3    H2 7900   4.857   2.176   2.058
 2646TIP3   OH2 7901   4.140   2.242   1.800
 2646TIP3    H1 7902   4.061   2.281   1.837
 2646TIP3    H2 7903   4.130   2.148   1.817
 2647TIP3   OH2 7904   5.770   6.162   5.649
 2647TIP3    H1 7905   5.759   6.146   5.743
 2647TIP3    H2 7906   5.703   6.107   5.607
 2648TIP3   OH2 7907   6.073   5.486   1.070
 2648TIP3    H1 7908   6.153   5.540   1.069
 2648TIP3    H2 7909   6.003   5.548   1.087
 2649TIP3   OH2 7910   4.056   6.613   2.254
 2649TIP3    H1 7911   4.107   6.552   2.306
 2649TIP3    H2 7912   4.018   6.559   2.184
 2650TIP3   OH2 7913   1.876   1.491   4.620
 2650TIP3    H1 7914   1.862   1.397   4.637
 2650TIP3    H2 7915   1.911   1.525   4.703
 2651TIP3   OH2 7916   4.271   6.101   4.270
 2651TIP3    H1 7917   4.183   6.128   4.295
 2651TIP3    H2 7918   4.328   6.174   4.295
 2652TIP3   OH2 7919   5.423   6.010   1.937
 2652TIP3    H1 7920   5.413   6.105   1.927
 2652TIP3    H2 7921   5.359   5.972   1.877
 2653TIP3   OH2 7922   6.881   5.986   1.589
 2653TIP3    H1 7923   6.869   6.040   1.667
 2653TIP3    H2 7924   6.975   5.988   1.572
 2654TIP3   OH2 7925   3.205   5.552   0.549
 2654TIP3    H1 7926   3.199   5.646   0.530
 2654TIP3    H2 7927   3.176   5.544   0.639
 2655TIP3   OH2 7928   6.840   2.757   3.511
 2655TIP3    H1 7929   6.773   2.769   3.577
 2655TIP3    H2 7930   6.810   2.682   3.459
 2656TIP3   OH2 7931   1.645   4.840   4.985
 2656TIP3    H1 7932   1.659   4.913   5.045
 2656TIP3    H2 7933   1.576   4.788   5.027
 2657TIP3   OH2 7934   1.380   2.197   0.316
 2657TIP3    H1 7935   1.475   2.207   0.309
 2657TIP3    H2 7936   1.367   2.122   0.374
 2658TIP3   OH2 7937   1.582   0.683   5.029
 2658TIP3    H1 7938   1.615   0.722   5.110
 2658TIP3    H2 7939   1.617   0.594   5.028
 2659TIP3   OH2 7940   4.358   5.639   2.540
 2659TIP3    H1 7941   4.307   5.687   2.475
 2659TIP3    H2 7942   4.315   5.554   2.547
 2660TIP3   OH2 7943   2.945   1.130   0.275
 2660TIP3    H1 7944   2.989   1.071   0.214
 2660TIP3    H2 7945   2.858   1.092   0.288
 2661TIP3   OH2 7946   4.481   6.121   4.998
 2661TIP3    H1 7947   4.499   6.163   5.082
 2661TIP3    H2 7948   4.532   6.171   4.934
 2662TIP3   OH2 7949   4.950   4.516   3.878
 2662TIP3    H1 7950   5.037   4.528   3.916
 2662TIP3    H2 7951   4.902   4.595   3.903
 2663TIP3   OH2 7952   7.140   3.541   3.675
 2663TIP3    H1 7953   7.146   3.581   3.762
 2663TIP3    H2 7954   7.049   3.511   3.668
 2664TIP3   OH2 7955   5.055   2.092   0.056
 2664TIP3    H1 7956   5.078   2.140   0.136
 2664TIP3    H2 7957   4.990   2.028   0.084
 2665TIP3   OH2 7958   5.081   2.270   0.300
 2665TIP3    H1 7959   5.061   2.310   0.385
 2665TIP3    H2 7960   5.104   2.344   0.244
 2666TIP3   OH2 7961   0.552   1.346   5.909
 2666TIP3    H1 7962   0.471   1.327   5.862
 2666TIP3    H2 7963   0.588   1.260   5.930
 2667TIP3   OH2 7964   0.108   3.169   0.071
 2667TIP3    H1 7965   0.172   3.220   0.121
 2667TIP3    H2 7966   0.085   3.096   0.128
 2668TIP3   OH2 7967   2.349   1.853   4.571
 2668TIP3    H1 7968   2.403   1.791   4.621
 2668TIP3    H2 7969   2.259   1.829   4.593
 2669TIP3   OH2 7970   2.478   4.199   1.596
 2669TIP3    H1 7971   2.533   4.138   1.548
 2669TIP3    H2 7972   2.429   4.144   1.658
 2670TIP3   OH2 7973   1.549   3.192   2.506
 2670TIP3    H1 7974   1.641   3.188   2.532
 2670TIP3    H2 7975   1.551   3.227   2.416
 2671TIP3   OH2 7976   2.780   5.627   5.182
 2671TIP3    H1 7977   2.690   5.651   5.206
 2671TIP3    H2 7978   2.770   5.560   5.115
 2672TIP3   OH2 7979   0.241   1.721   0.982
 2672TIP3    H1 7980   0.181   1.774   1.034
 2672TIP3    H2 7981   0.287   1.784   0.927
 2673TIP3   OH2 7982   4.345   2.794   1.846
 2673TIP3    H1 7983   4.410   2.732   1.879
 2673TIP3    H2 7984   4.261   2.749   1.855
 2674TIP3   OH2 7985   4.274   3.030   3.015
 2674TIP3    H1 7986   4.254   3.004   2.925
 2674TIP3    H2 7987   4.350   2.976   3.039
 2675TIP3   OH2 7988   5.627   4.823   4.890
 2675TIP3    H1 7989   5.721   4.841   4.901
 2675TIP3    H2 7990   5.621   4.775   4.808
 2676TIP3   OH2 7991   2.231   0.150   2.154
 2676TIP3    H1 7992   2.290   0.225   2.147
 2676TIP3    H2 7993   2.274   0.080   2.105
 2677TIP3   OH2 7994   6.644   4.087   0.867
 2677TIP3    H1 7995   6.695   4.024   0.917
 2677TIP3    H2 7996   6.553   4.060   0.880
 2678TIP3   OH2 7997   1.432   6.558   3.597
 2678TIP3    H1 7998   1.458   6.470   3.569
 2678TIP3    H2 7999   1.514   6.600   3.624
 2679TIP3   OH2 8000   1.543   6.456   3.929
 2679TIP3    H1 8001   1.530   6.508   4.009
 2679TIP3    H2 8002   1.455   6.449   3.890
 2680TIP3   OH2 8003   0.126   0.107   4.313
 2680TIP3    H1 8004   0.055   0.146   4.262
 2680TIP3    H2 8005   0.083   0.065   4.387
 2681TIP3   OH2 8006   2.957   6.837   1.844
 2681TIP3    H1 8007   3.020   6.860   1.913
 2681TIP3    H2 8008   2.899   6.774   1.886
 2682TIP3   OH2 8009   5.996   5.259   1.710
 2682TIP3    H1 8010   6.080   5.274   1.666
 2682TIP3    H2 8011   5.960   5.347   1.722
 2683TIP3   OH2 8012   3.800   6.287   2.459
 2683TIP3    H1 8013   3.756   6.206   2.485
 2683TIP3    H2 8014   3.761   6.355   2.513
 2684TIP3   OH2 8015   6.428   1.120   5.538
 2684TIP3    H1 8016   6.333   1.110   5.539
 2684TIP3    H2 8017   6.461   1.034   5.509
 2685TIP3   OH2 8018   4.207   5.824   4.251
 2685TIP3    H1 8019   4.244   5.912   4.244
 2685TIP3    H2 8020   4.220   5.800   4.342
 2686TIP3   OH2 8021   1.163   2.704   1.171
 2686TIP3    H1 8022   1.116   2.638   1.223
 2686TIP3    H2 8023   1.254   2.698   1.202
 2687TIP3   OH2 8024   4.445   0.604   3.992
 2687TIP3    H1 8025   4.373   0.578   4.050
 2687TIP3    H2 8026   4.433   0.552   3.913
 2688TIP3   OH2 8027   7.076   1.727   4.172
 2688TIP3    H1 8028   6.995   1.739   4.222
 2688TIP3    H2 8029   7.120   1.812   4.178
 2689TIP3   OH2 8030   4.256   0.952   4.150
 2689TIP3    H1 8031   4.200   0.992   4.083
 2689TIP3    H2 8032   4.335   0.926   4.103
 2690TIP3   OH2 8033   2.171   5.835   3.814
 2690TIP3    H1 8034   2.251   5.795   3.849
 2690TIP3    H2 8035   2.110   5.762   3.806
 2691TIP3   OH2 8036   4.523   1.962   5.006
 2691TIP3    H1 8037   4.552   1.888   5.059
 2691TIP3    H2 8038   4.452   1.927   4.952
 2692TIP3   OH2 8039   2.146   4.745   1.829
 2692TIP3    H1 8040   2.164   4.679   1.762
 2692TIP3    H2 8041   2.058   4.776   1.809
 2693TIP3   OH2 8042   5.343   5.310   0.194
 2693TIP3    H1 8043   5.292   5.235   0.165
 2693TIP3    H2 8044   5.433   5.277   0.203
 2694TIP3   OH2 8045   3.680   1.822   0.122
 2694TIP3    H1 8046   3.589   1.827   0.153
 2694TIP3    H2 8047   3.687   1.735   0.081
 2695TIP3   OH2 8048   2.684   0.271   4.245
 2695TIP3    H1 8049   2.700   0.329   4.169
 2695TIP3    H2 8050   2.589   0.272   4.256
 2696TIP3   OH2 8051   3.233   0.680   1.281
 2696TIP3    H1 8052   3.301   0.746   1.264
 2696TIP3    H2 8053   3.282   0.603   1.311
 2697TIP3   OH2 8054   2.168   4.884   3.126
 2697TIP3    H1 8055   2.144   4.793   3.147
 2697TIP3    H2 8056   2.222   4.877   3.048
 2698TIP3   OH2 8057   1.620   2.423   4.666
 2698TIP3    H1 8058   1.680   2.371   4.720
 2698TIP3    H2 8059   1.549   2.363   4.645
 2699TIP3   OH2 8060   5.929   5.084   4.152
 2699TIP3    H1 8061   5.855   5.036   4.115
 2699TIP3    H2 8062   5.997   5.018   4.165
 2700TIP3   OH2 8063   1.468   5.014   4.234
 2700TIP3    H1 8064   1.511   5.099   4.239
 2700TIP3    H2 8065   1.396   5.020   4.296
 2701TIP3   OH2 8066   1.845   4.302   4.741
 2701TIP3    H1 8067   1.784   4.277   4.672
 2701TIP3    H2 8068   1.929   4.312   4.697
 2702TIP3   OH2 8069   5.928   3.089   1.990
 2702TIP3    H1 8070   5.950   3.153   1.922
 2702TIP3    H2 8071   5.835   3.104   2.007
 2703TIP3   OH2 8072   3.521   1.903   3.478
 2703TIP3    H1 8073   3.472   1.940   3.551
 2703TIP3    H2 8074   3.588   1.848   3.519
 2704TIP3   OH2 8075   7.249   3.132   0.932
 2704TIP3    H1 8076   7.211   3.186   1.001
 2704TIP3    H2 8077   7.175   3.109   0.876
 2705TIP3   OH2 8078   5.662   3.527   4.419
 2705TIP3    H1 8079   5.712   3.563   4.346
 2705TIP3    H2 8080   5.711   3.552   4.497
 2706TIP3   OH2 8081   0.498   1.903   3.982
 2706TIP3    H1 8082   0.592   1.905   3.965
 2706TIP3    H2 8083   0.489   1.854   4.063
 2707TIP3   OH2 8084   2.087   0.489   0.082
 2707TIP3    H1 8085   2.005   0.455   0.045
 2707TIP3    H2 8086   2.059   0.547   0.153
 2708TIP3   OH2 8087   6.756   1.218   2.133
 2708TIP3    H1 8088   6.677   1.180   2.096
 2708TIP3    H2 8089   6.823   1.204   2.065
 2709TIP3   OH2 8090   3.135   4.991   5.104
 2709TIP3    H1 8091   3.097   5.077   5.085
 2709TIP3    H2 8092   3.073   4.929   5.066
 2710TIP3   OH2 8093   0.366   1.298   4.684
 2710TIP3    H1 8094   0.318   1.234   4.736
 2710TIP3    H2 8095   0.454   1.298   4.721
 2711TIP3   OH2 8096   4.982   0.185   3.702
 2711TIP3    H1 8097   4.966   0.155   3.613
 2711TIP3    H2 8098   4.964   0.108   3.757
 2712TIP3   OH2 8099   4.532   6.287   3.968
 2712TIP3    H1 8100   4.592   6.231   3.920
 2712TIP3    H2 8101   4.505   6.233   4.043
 2713TIP3   OH2 8102   6.468   5.224   3.775
 2713TIP3    H1 8103   6.377   5.217   3.749
 2713TIP3    H2 8104   6.477   5.313   3.810
 2714TIP3   OH2 8105   1.732   3.848   2.980
 2714TIP3    H1 8106   1.751   3.912   3.048
 2714TIP3    H2 8107   1.811   3.845   2.926
 2715TIP3   OH2 8108   4.688   4.256   1.898
 2715TIP3    H1 8109   4.662   4.274   1.808
 2715TIP3    H2 8110   4.640   4.176   1.921
 2716TIP3   OH2 8111   5.483   6.542   5.157
 2716TIP3    H1 8112   5.561   6.562   5.106
 2716TIP3    H2 8113   5.418   6.605   5.126
 2717TIP3   OH2 8114   5.609   4.415   1.589
 2717TIP3    H1 8115   5.569   4.483   1.535
 2717TIP3    H2 8116   5.684   4.385   1.538
 2718TIP3   OH2 8117   4.714   6.519   2.610
 2718TIP3    H1 8118   4.773   6.586   2.574
 2718TIP3    H2 8119   4.749   6.436   2.577
 2719TIP3   OH2 8120   4.263   6.502   4.584
 2719TIP3    H1 8121   4.292   6.440   4.650
 2719TIP3    H2 8122   4.246   6.583   4.632
 2720TIP3   OH2 8123   1.217   1.666   0.820
 2720TIP3    H1 8124   1.140   1.610   0.831
 2720TIP3    H2 8125   1.205   1.737   0.883
 2721TIP3   OH2 8126   4.641   1.087   1.708
 2721TIP3    H1 8127   4.617   0.995   1.719
 2721TIP3    H2 8128   4.666   1.094   1.616
 2722TIP3   OH2 8129   1.999   4.955   2.688
 2722TIP3    H1 8130   1.967   4.943   2.599
 2722TIP3    H2 8131   2.050   4.876   2.706
 2723TIP3   OH2 8132   7.089   6.385   2.568
 2723TIP3    H1 8133   7.048   6.470   2.584
 2723TIP3    H2 8134   7.104   6.348   2.655
 2724TIP3   OH2 8135   5.141   5.506   2.269
 2724TIP3    H1 8136   5.103   5.419   2.263
 2724TIP3    H2 8137   5.080   5.562   2.221
 2725TIP3   OH2 8138   1.869   0.383   4.077
 2725TIP3    H1 8139   1.908   0.351   3.995
 2725TIP3    H2 8140   1.776   0.394   4.056
 2726TIP3   OH2 8141   3.639   2.383   1.126
 2726TIP3    H1 8142   3.685   2.353   1.205
 2726TIP3    H2 8143   3.708   2.389   1.059
 2727TIP3   OH2 8144   2.231   3.105   5.087
 2727TIP3    H1 8145   2.259   3.192   5.116
 2727TIP3    H2 8146   2.269   3.045   5.152
 2728TIP3   OH2 8147   3.604   3.335   4.205
 2728TIP3    H1 8148   3.527   3.292   4.241
 2728TIP3    H2 8149   3.677   3.279   4.231
 2729TIP3   OH2 8150   4.447   2.912   2.192
 2729TIP3    H1 8151   4.379   2.862   2.147
 2729TIP3    H2 8152   4.406   2.996   2.212
 2730TIP3   OH2 8153   3.294   1.669   2.213
 2730TIP3    H1 8154   3.341   1.703   2.136
 2730TIP3    H2 8155   3.203   1.694   2.199
 2731TIP3   OH2 8156   0.478   0.907   4.372
 2731TIP3    H1 8157   0.423   0.949   4.439
 2731TIP3    H2 8158   0.546   0.861   4.422
 2732TIP3   OH2 8159   1.910   6.381   2.019
 2732TIP3    H1 8160   1.999   6.347   2.033
 2732TIP3    H2 8161   1.917   6.436   1.941
 2733TIP3   OH2 8162   5.969   6.645   2.987
 2733TIP3    H1 8163   5.898   6.708   3.005
 2733TIP3    H2 8164   5.972   6.640   2.892
 2734TIP3   OH2 8165   0.134   5.663   2.179
 2734TIP3    H1 8166   0.136   5.754   2.147
 2734TIP3    H2 8167   0.041   5.644   2.190
 2735TIP3   OH2 8168   6.657   1.519   4.658
 2735TIP3    H1 8169   6.587   1.543   4.597
 2735TIP3    H2 8170   6.616   1.519   4.744
 2736TIP3   OH2 8171   4.293   3.288   2.715
 2736TIP3    H1 8172   4.233   3.214   2.725
 2736TIP3    H2 8173   4.362   3.272   2.780
 2737TIP3   OH2 8174   2.999   0.098   1.275
 2737TIP3    H1 8175   2.976   0.084   1.183
 2737TIP3    H2 8176   3.021   0.191   1.280
 2738TIP3   OH2 8177   2.539   3.217   5.322
 2738TIP3    H1 8178   2.572   3.286   5.380
 2738TIP3    H2 8179   2.523   3.143   5.380
 2739TIP3   OH2 8180   4.530   1.977   3.275
 2739TIP3    H1 8181   4.614   1.999   3.233
 2739TIP3    H2 8182   4.551   1.971   3.368
 2740TIP3   OH2 8183   6.246   0.707   0.075
 2740TIP3    H1 8184   6.176   0.687   0.137
 2740TIP3    H2 8185   6.296   0.777   0.117
 2741TIP3   OH2 8186   5.056   5.839   3.434
 2741TIP3    H1 8187   5.137   5.857   3.480
 2741TIP3    H2 8188   5.058   5.744   3.419
 2742TIP3   OH2 8189   4.324   0.765   2.974
 2742TIP3    H1 8190   4.395   0.827   2.959
 2742TIP3    H2 8191   4.263   0.812   3.031
 2743TIP3   OH2 8192   3.491   6.644   2.265
 2743TIP3    H1 8193   3.560   6.663   2.202
 2743TIP3    H2 8194   3.416   6.696   2.235
 2744TIP3   OH2 8195   0.934   5.320   0.836
 2744TIP3    H1 8196   0.952   5.232   0.803
 2744TIP3    H2 8197   0.848   5.313   0.877
 2745TIP3   OH2 8198   2.085   5.471   4.854
 2745TIP3    H1 8199   2.010   5.454   4.910
 2745TIP3    H2 8200   2.057   5.542   4.796
 2746TIP3   OH2 8201   1.725   0.062   4.640
 2746TIP3    H1 8202   1.715   0.151   4.609
 2746TIP3    H2 8203   1.791   0.067   4.709
 2747TIP3   OH2 8204   3.151   5.248   2.864
 2747TIP3    H1 8205   3.106   5.308   2.924
 2747TIP3    H2 8206   3.089   5.175   2.854
 2748TIP3   OH2 8207   0.890   4.025   1.747
 2748TIP3    H1 8208   0.967   4.067   1.709
 2748TIP3    H2 8209   0.854   4.090   1.808
 2749TIP3   OH2 8210   0.273   3.341   1.343
 2749TIP3    H1 8211   0.210   3.269   1.354
 2749TIP3    H2 8212   0.333   3.309   1.275
 2750TIP3   OH2 8213   5.774   5.731   3.994
 2750TIP3    H1 8214   5.722   5.783   4.055
 2750TIP3    H2 8215   5.792   5.790   3.921
 2751TIP3   OH2 8216   6.205   6.525   1.793
 2751TIP3    H1 8217   6.254   6.461   1.741
 2751TIP3    H2 8218   6.173   6.588   1.728
 2752TIP3   OH2 8219   0.938   4.192   5.541
 2752TIP3    H1 8220   0.947   4.128   5.611
 2752TIP3    H2 8221   0.962   4.276   5.582
 2753TIP3   OH2 8222   0.098   0.660   2.680
 2753TIP3    H1 8223   0.125   0.628   2.594
 2753TIP3    H2 8224   0.053   0.743   2.662
 2754TIP3   OH2 8225   3.780   1.790   1.361
 2754TIP3    H1 8226   3.852   1.742   1.403
 2754TIP3    H2 8227   3.751   1.853   1.427
 2755TIP3   OH2 8228   4.343   4.322   1.178
 2755TIP3    H1 8229   4.299   4.382   1.118
 2755TIP3    H2 8230   4.292   4.241   1.172
 2756TIP3   OH2 8231   7.051   5.096   2.096
 2756TIP3    H1 8232   7.000   5.038   2.039
 2756TIP3    H2 8233   7.136   5.054   2.104
 2757TIP3   OH2 8234   7.095   1.127   3.188
 2757TIP3    H1 8235   7.011   1.105   3.228
 2757TIP3    H2 8236   7.139   1.181   3.254
 2758TIP3   OH2 8237   5.104   1.283   4.101
 2758TIP3    H1 8238   5.038   1.221   4.070
 2758TIP3    H2 8239   5.184   1.231   4.108
 2759TIP3   OH2 8240   0.139   0.141   4.644
 2759TIP3    H1 8241   0.226   0.137   4.605
 2759TIP3    H2 8242   0.129   0.057   4.689
 2760TIP3   OH2 8243   0.587   1.475   0.193
 2760TIP3    H1 8244   0.578   1.534   0.117
 2760TIP3    H2 8245   0.642   1.403   0.161
 2761TIP3   OH2 8246   1.511   6.735   3.068
 2761TIP3    H1 8247   1.423   6.698   3.071
 2761TIP3    H2 8248   1.560   6.685   3.134
 2762TIP3   OH2 8249   1.631   6.283   4.242
 2762TIP3    H1 8250   1.703   6.291   4.180
 2762TIP3    H2 8251   1.670   6.303   4.327
 2763TIP3   OH2 8252   3.067   2.551   2.936
 2763TIP3    H1 8253   3.028   2.618   2.880
 2763TIP3    H2 8254   3.078   2.475   2.880
 2764TIP3   OH2 8255   6.642   3.824   3.476
 2764TIP3    H1 8256   6.605   3.758   3.417
 2764TIP3    H2 8257   6.657   3.900   3.420
 2765TIP3   OH2 8258   2.388   1.847   2.181
 2765TIP3    H1 8259   2.342   1.884   2.257
 2765TIP3    H2 8260   2.421   1.923   2.134
 2766TIP3   OH2 8261   5.195   4.139   4.702
 2766TIP3    H1 8262   5.230   4.056   4.671
 2766TIP3    H2 8263   5.236   4.205   4.646
 2767TIP3   OH2 8264   1.660   5.637   1.775
 2767TIP3    H1 8265   1.737   5.582   1.762
 2767TIP3    H2 8266   1.657   5.654   1.870
 2768TIP3   OH2 8267   1.940   2.229   1.804
 2768TIP3    H1 8268   1.935   2.222   1.709
 2768TIP3    H2 8269   1.864   2.181   1.836
 2769TIP3   OH2 8270   1.189   5.907   3.240
 2769TIP3    H1 8271   1.131   5.978   3.213
 2769TIP3    H2 8272   1.277   5.946   3.237
 2770TIP3   OH2 8273   1.241   0.851   4.055
 2770TIP3    H1 8274   1.274   0.928   4.010
 2770TIP3    H2 8275   1.160   0.880   4.096
 2771TIP3   OH2 8276  -0.036   5.723   5.092
 2771TIP3    H1 8277   0.053   5.707   5.059
 2771TIP3    H2 8278  -0.076   5.779   5.026
 2772TIP3   OH2 8279   5.634   6.674   1.608
 2772TIP3    H1 8280   5.667   6.734   1.541
 2772TIP3    H2 8281   5.634   6.588   1.565
 2773TIP3   OH2 8282   2.366   5.355   4.322
 2773TIP3    H1 8283   2.405   5.290   4.380
 2773TIP3    H2 8284   2.284   5.316   4.294
 2774TIP3   OH2 8285   1.636   3.836   3.848
 2774TIP3    H1 8286   1.697   3.867   3.915
 2774TIP3    H2 8287   1.600   3.916   3.809
 2775TIP3   OH2 8288   4.923   4.873   2.018
 2775TIP3    H1 8289   4.902   4.785   2.050
 2775TIP3    H2 8290   4.846   4.925   2.037
 2776TIP3   OH2 8291   1.130   3.741   0.912
 2776TIP3    H1 8292   1.180   3.822   0.911
 2776TIP3    H2 8293   1.043   3.766   0.943
 2777TIP3   OH2 8294   7.056   2.590   0.955
 2777TIP3    H1 8295   7.111   2.553   1.024
 2777TIP3    H2 8296   7.056   2.684   0.973
 2778TIP3   OH2 8297   4.122   5.134   2.129
 2778TIP3    H1 8298   4.067   5.059   2.108
 2778TIP3    H2 8299   4.176   5.147   2.051
 2779TIP3   OH2 8300   1.435   0.728   4.754
 2779TIP3    H1 8301   1.480   0.707   4.836
 2779TIP3    H2 8302   1.462   0.818   4.734
 2780TIP3   OH2 8303   0.581   1.444   1.064
 2780TIP3    H1 8304   0.611   1.504   1.133
 2780TIP3    H2 8305   0.487   1.433   1.082
 2781TIP3   OH2 8306   6.042   2.206   3.925
 2781TIP3    H1 8307   5.984   2.139   3.889
 2781TIP3    H2 8308   5.983   2.274   3.957
 2782TIP3   OH2 8309   0.883   6.777   3.290
 2782TIP3    H1 8310   0.887   6.852   3.232
 2782TIP3    H2 8311   0.970   6.738   3.285
 2783TIP3   OH2 8312   2.688   5.316   2.195
 2783TIP3    H1 8313   2.645   5.401   2.181
 2783TIP3    H2 8314   2.780   5.334   2.177
 2784TIP3   OH2 8315   0.291   6.473   5.693
 2784TIP3    H1 8316   0.237   6.394   5.686
 2784TIP3    H2 8317   0.230   6.542   5.720
 2785TIP3   OH2 8318   1.751   2.943   2.098
 2785TIP3    H1 8319   1.731   3.024   2.146
 2785TIP3    H2 8320   1.679   2.935   2.035
 2786TIP3   OH2 8321   4.706   0.554   5.562
 2786TIP3    H1 8322   4.733   0.594   5.479
 2786TIP3    H2 8323   4.656   0.477   5.536
 2787TIP3   OH2 8324   7.022   4.127   5.842
 2787TIP3    H1 8325   7.066   4.097   5.921
 2787TIP3    H2 8326   7.087   4.182   5.797
 2788TIP3   OH2 8327   0.214   3.069   0.745
 2788TIP3    H1 8328   0.304   3.061   0.778
 2788TIP3    H2 8329   0.167   3.115   0.815
 2789TIP3   OH2 8330   0.040   5.031   4.075
 2789TIP3    H1 8331   0.108   5.080   4.029
 2789TIP3    H2 8332   0.081   4.948   4.098
 2790TIP3   OH2 8333   5.871   0.314   1.913
 2790TIP3    H1 8334   5.894   0.227   1.882
 2790TIP3    H2 8335   5.794   0.338   1.860
 2791TIP3   OH2 8336   5.512   1.124   5.210
 2791TIP3    H1 8337   5.531   1.149   5.300
 2791TIP3    H2 8338   5.583   1.162   5.159
 2792TIP3   OH2 8339   2.428   6.669   1.333
 2792TIP3    H1 8340   2.515   6.647   1.298
 2792TIP3    H2 8341   2.403   6.748   1.287
 2793TIP3   OH2 8342   5.517   1.820   5.163
 2793TIP3    H1 8343   5.466   1.887   5.119
 2793TIP3    H2 8344   5.480   1.815   5.251
 2794TIP3   OH2 8345   4.143   6.761   3.414
 2794TIP3    H1 8346   4.127   6.673   3.378
 2794TIP3    H2 8347   4.103   6.759   3.500
 2795TIP3   OH2 8348   5.083   2.047   1.817
 2795TIP3    H1 8349   5.021   2.116   1.797
 2795TIP3    H2 8350   5.076   1.985   1.744
 2796TIP3   OH2 8351   3.078   3.593   2.716
 2796TIP3    H1 8352   3.093   3.662   2.780
 2796TIP3    H2 8353   3.102   3.513   2.761
 2797TIP3   OH2 8354   6.170   5.257   3.423
 2797TIP3    H1 8355   6.183   5.342   3.381
 2797TIP3    H2 8356   6.232   5.199   3.380
 2798TIP3   OH2 8357   0.726   4.898   1.913
 2798TIP3    H1 8358   0.662   4.893   1.842
 2798TIP3    H2 8359   0.719   4.988   1.945
 2799TIP3   OH2 8360   0.669   3.908   3.532
 2799TIP3    H1 8361   0.608   3.835   3.521
 2799TIP3    H2 8362   0.640   3.973   3.468
 2800TIP3   OH2 8363   0.474   0.415   0.235
 2800TIP3    H1 8364   0.488   0.364   0.155
 2800TIP3    H2 8365   0.403   0.475   0.213
 2801TIP3   OH2 8366   2.242   5.136   5.668
 2801TIP3    H1 8367   2.295   5.057   5.681
 2801TIP3    H2 8368   2.215   5.131   5.576
 2802TIP3   OH2 8369   0.723   3.951   5.317
 2802TIP3    H1 8370   0.817   3.944   5.306
 2802TIP3    H2 8371   0.693   3.861   5.330
 2803TIP3   OH2 8372   4.098   1.969   1.697
 2803TIP3    H1 8373   4.034   1.911   1.655
 2803TIP3    H2 8374   4.176   1.962   1.641
 2804TIP3   OH2 8375   3.806   3.149   4.308
 2804TIP3    H1 8376   3.878   3.113   4.257
 2804TIP3    H2 8377   3.848   3.212   4.367
 2805TIP3   OH2 8378   5.383   1.988   3.995
 2805TIP3    H1 8379   5.318   1.962   4.060
 2805TIP3    H2 8380   5.346   2.065   3.952
 2806TIP3   OH2 8381   5.459   5.146   0.543
 2806TIP3    H1 8382   5.378   5.175   0.503
 2806TIP3    H2 8383   5.518   5.129   0.470
 2807TIP3   OH2 8384   4.830   2.087   1.386
 2807TIP3    H1 8385   4.901   2.145   1.357
 2807TIP3    H2 8386   4.750   2.133   1.360
 2808TIP3   OH2 8387   1.049   1.881   4.772
 2808TIP3    H1 8388   0.961   1.906   4.744
 2808TIP3    H2 8389   1.059   1.923   4.858
 2809TIP3   OH2 8390   7.082   4.374   3.121
 2809TIP3    H1 8391   7.175   4.382   3.097
 2809TIP3    H2 8392   7.046   4.313   3.057
 2810TIP3   OH2 8393   3.788   2.642   2.247
 2810TIP3    H1 8394   3.754   2.711   2.190
 2810TIP3    H2 8395   3.787   2.681   2.335
 2811TIP3   OH2 8396   7.013   5.856   0.747
 2811TIP3    H1 8397   7.009   5.786   0.813
 2811TIP3    H2 8398   6.930   5.902   0.756
 2812TIP3   OH2 8399   2.022   2.921   4.373
 2812TIP3    H1 8400   2.054   2.868   4.300
 2812TIP3    H2 8401   2.082   2.901   4.445
 2813TIP3   OH2 8402   0.393   2.309   4.909
 2813TIP3    H1 8403   0.326   2.269   4.965
 2813TIP3    H2 8404   0.388   2.403   4.929
 2814TIP3   OH2 8405   3.748   0.488   4.123
 2814TIP3    H1 8406   3.734   0.454   4.212
 2814TIP3    H2 8407   3.762   0.582   4.135
 2815TIP3   OH2 8408   6.867   3.493   5.473
 2815TIP3    H1 8409   6.817   3.420   5.439
 2815TIP3    H2 8410   6.831   3.509   5.560
 2816TIP3   OH2 8411   3.021   2.382   2.733
 2816TIP3    H1 8412   3.099   2.329   2.717
 2816TIP3    H2 8413   3.009   2.432   2.653
 2817TIP3   OH2 8414   6.816   1.838   2.566
 2817TIP3    H1 8415   6.746   1.810   2.625
 2817TIP3    H2 8416   6.788   1.925   2.535
 2818TIP3   OH2 8417   6.946   5.631   3.900
 2818TIP3    H1 8418   7.000   5.704   3.869
 2818TIP3    H2 8419   6.866   5.638   3.850
 2819TIP3   OH2 8420   2.121   5.994   3.104
 2819TIP3    H1 8421   2.137   6.021   3.014
 2819TIP3    H2 8422   2.205   5.961   3.135
 2820TIP3   OH2 8423   1.637   0.500   1.552
 2820TIP3    H1 8424   1.586   0.564   1.602
 2820TIP3    H2 8425   1.607   0.512   1.462
 2821TIP3   OH2 8426   3.972   2.147   1.325
 2821TIP3    H1 8427   3.888   2.191   1.334
 2821TIP3    H2 8428   3.951   2.065   1.281
 2822TIP3   OH2 8429   3.385   5.308   3.548
 2822TIP3    H1 8430   3.408   5.250   3.621
 2822TIP3    H2 8431   3.404   5.396   3.580
 2823TIP3   OH2 8432   5.066   4.136  -0.029
 2823TIP3    H1 8433   5.013   4.205   0.011
 2823TIP3    H2 8434   5.098   4.085   0.045
 2824TIP3   OH2 8435   5.583   5.175   0.250
 2824TIP3    H1 8436   5.582   5.080   0.242
 2824TIP3    H2 8437   5.673   5.200   0.231
 2825TIP3   OH2 8438   6.724   6.008   0.415
 2825TIP3    H1 8439   6.709   6.074   0.348
 2825TIP3    H2 8440   6.783   5.945   0.374
 2826TIP3   OH2 8441   0.181   2.210   3.430
 2826TIP3    H1 8442   0.267   2.170   3.421
 2826TIP3    H2 8443   0.163   2.209   3.524
 2827TIP3   OH2 8444   5.540   1.726   4.140
 2827TIP3    H1 8445   5.553   1.783   4.216
 2827TIP3    H2 8446   5.598   1.761   4.073
 2828TIP3   OH2 8447   5.495   3.755   5.272
 2828TIP3    H1 8448   5.498   3.664   5.300
 2828TIP3    H2 8449   5.576   3.793   5.306
 2829TIP3   OH2 8450   4.523   0.350   0.195
 2829TIP3    H1 8451   4.616   0.328   0.196
 2829TIP3    H2 8452   4.510   0.399   0.276
 2830TIP3   OH2 8453   0.488   3.244   1.820
 2830TIP3    H1 8454   0.425   3.312   1.793
 2830TIP3    H2 8455   0.559   3.293   1.861
 2831TIP3   OH2 8456   0.089   2.377   3.241
 2831TIP3    H1 8457   0.142   2.321   3.299
 2831TIP3    H2 8458   0.024   2.318   3.203
 2832TIP3   OH2 8459   2.698   3.201   0.277
 2832TIP3    H1 8460   2.775   3.151   0.305
 2832TIP3    H2 8461   2.644   3.138   0.230
 2833TIP3   OH2 8462   4.364   2.055   2.239
 2833TIP3    H1 8463   4.394   1.968   2.213
 2833TIP3    H2 8464   4.352   2.103   2.157
 2834TIP3   OH2 8465   1.136   3.215   3.457
 2834TIP3    H1 8466   1.224   3.181   3.440
 2834TIP3    H2 8467   1.101   3.233   3.369
 2835TIP3   OH2 8468   0.323   5.499   1.978
 2835TIP3    H1 8469   0.288   5.557   2.045
 2835TIP3    H2 8470   0.399   5.546   1.944
 2836TIP3   OH2 8471   3.361   3.509   0.227
 2836TIP3    H1 8472   3.293   3.522   0.294
 2836TIP3    H2 8473   3.358   3.589   0.175
 2837TIP3   OH2 8474   1.898   5.646   0.483
 2837TIP3    H1 8475   1.988   5.657   0.453
 2837TIP3    H2 8476   1.862   5.734   0.486
 2838TIP3   OH2 8477   4.652   2.015   2.939
 2838TIP3    H1 8478   4.726   1.963   2.908
 2838TIP3    H2 8479   4.652   2.002   3.034
 2839TIP3   OH2 8480   4.511   2.386   4.404
 2839TIP3    H1 8481   4.604   2.361   4.401
 2839TIP3    H2 8482   4.470   2.318   4.457
 2840TIP3   OH2 8483   3.189   3.923   2.704
 2840TIP3    H1 8484   3.127   3.886   2.768
 2840TIP3    H2 8485   3.274   3.890   2.731
 2841TIP3   OH2 8486   6.636   2.839   4.316
 2841TIP3    H1 8487   6.597   2.924   4.296
 2841TIP3    H2 8488   6.705   2.858   4.379
 2842TIP3   OH2 8489   0.689   0.666   5.548
 2842TIP3    H1 8490   0.608   0.714   5.563
 2842TIP3    H2 8491   0.753   0.733   5.525
 2843TIP3   OH2 8492   0.143   5.491   5.012
 2843TIP3    H1 8493   0.103   5.418   4.963
 2843TIP3    H2 8494   0.222   5.512   4.963
 2844TIP3   OH2 8495   5.261   6.815   3.283
 2844TIP3    H1 8496   5.188   6.790   3.340
 2844TIP3    H2 8497   5.339   6.797   3.336
 2845TIP3   OH2 8498   3.711   1.814   2.430
 2845TIP3    H1 8499   3.645   1.876   2.462
 2845TIP3    H2 8500   3.703   1.738   2.488
 2846TIP3   OH2 8501   3.105   0.966   3.730
 2846TIP3    H1 8502   3.053   0.950   3.652
 2846TIP3    H2 8503   3.065   0.912   3.798
 2847TIP3   OH2 8504   2.980   0.966   0.891
 2847TIP3    H1 8505   3.022   0.888   0.855
 2847TIP3    H2 8506   3.051   1.027   0.906
 2848TIP3   OH2 8507   3.716   0.547   5.453
 2848TIP3    H1 8508   3.781   0.595   5.505
 2848TIP3    H2 8509   3.766   0.481   5.406
 2849TIP3   OH2 8510   3.944   2.557   0.350
 2849TIP3    H1 8511   3.983   2.643   0.368
 2849TIP3    H2 8512   3.853   2.565   0.378
 2850TIP3   OH2 8513   2.982   4.072   0.671
 2850TIP3    H1 8514   2.995   4.106   0.760
 2850TIP3    H2 8515   2.891   4.042   0.670
 2851TIP3   OH2 8516   1.002   6.646   4.470
 2851TIP3    H1 8517   0.963   6.724   4.428
 2851TIP3    H2 8518   1.029   6.591   4.396
 2852TIP3   OH2 8519   1.501   5.396   1.287
 2852TIP3    H1 8520   1.536   5.456   1.222
 2852TIP3    H2 8521   1.544   5.313   1.270
 2853TIP3   OH2 8522   1.834   2.378   2.932
 2853TIP3    H1 8523   1.842   2.343   2.843
 2853TIP3    H2 8524   1.741   2.369   2.953
 2854TIP3   OH2 8525   1.620   5.410   5.660
 2854TIP3    H1 8526   1.534   5.420   5.700
 2854TIP3    H2 8527   1.615   5.328   5.611
 2855TIP3   OH2 8528   6.915   3.165   1.629
 2855TIP3    H1 8529   6.990   3.105   1.632
 2855TIP3    H2 8530   6.926   3.221   1.705
 2856TIP3   OH2 8531   6.427   4.502   4.897
 2856TIP3    H1 8532   6.391   4.449   4.968
 2856TIP3    H2 8533   6.350   4.537   4.852
 2857TIP3   OH2 8534   2.174   5.169   0.601
 2857TIP3    H1 8535   2.138   5.217   0.676
 2857TIP3    H2 8536   2.108   5.181   0.532
 2858TIP3   OH2 8537   5.265   1.725   2.309
 2858TIP3    H1 8538   5.299   1.805   2.269
 2858TIP3    H2 8539   5.285   1.734   2.402
 2859TIP3   OH2 8540   1.937   2.274   3.188
 2859TIP3    H1 8541   2.031   2.286   3.174
 2859TIP3    H2 8542   1.895   2.319   3.115
 2860TIP3   OH2 8543   1.953   2.363   3.875
 2860TIP3    H1 8544   1.916   2.277   3.853
 2860TIP3    H2 8545   1.890   2.402   3.936
 2861TIP3   OH2 8546   0.428   6.685   2.999
 2861TIP3    H1 8547   0.387   6.650   2.920
 2861TIP3    H2 8548   0.354   6.708   3.055
 2862TIP3   OH2 8549   4.159   0.924   5.078
 2862TIP3    H1 8550   4.124   0.921   4.989
 2862TIP3    H2 8551   4.254   0.925   5.066
 2863TIP3   OH2 8552   2.563   4.778   4.020
 2863TIP3    H1 8553   2.485   4.790   3.966
 2863TIP3    H2 8554   2.530   4.749   4.105
 2864TIP3   OH2 8555   0.091   1.490   5.402
 2864TIP3    H1 8556   0.181   1.508   5.377
 2864TIP3    H2 8557   0.078   1.398   5.378
 2865TIP3   OH2 8558   0.833   0.132   0.126
 2865TIP3    H1 8559   0.744   0.168   0.125
 2865TIP3    H2 8560   0.846   0.103   0.216
 2866TIP3   OH2 8561   5.165   0.705   3.677
 2866TIP3    H1 8562   5.178   0.611   3.688
 2866TIP3    H2 8563   5.096   0.727   3.739
 2867TIP3   OH2 8564   3.893   0.439   4.557
 2867TIP3    H1 8565   3.981   0.412   4.584
 2867TIP3    H2 8566   3.888   0.532   4.581
 2868TIP3   OH2 8567   1.483   0.975   4.990
 2868TIP3    H1 8568   1.431   0.905   5.031
 2868TIP3    H2 8569   1.429   1.053   4.999
 2869TIP3   OH2 8570   1.326   1.451   3.025
 2869TIP3    H1 8571   1.354   1.398   3.099
 2869TIP3    H2 8572   1.406   1.469   2.976
 2870TIP3   OH2 8573   0.731   2.987   3.034
 2870TIP3    H1 8574   0.735   2.900   3.073
 2870TIP3    H2 8575   0.752   3.046   3.106
 2871TIP3   OH2 8576   0.867   3.875   1.022
 2871TIP3    H1 8577   0.778   3.845   1.037
 2871TIP3    H2 8578   0.860   3.942   0.955
 2872TIP3   OH2 8579   0.316   1.133   2.694
 2872TIP3    H1 8580   0.381   1.203   2.699
 2872TIP3    H2 8581   0.367   1.053   2.699
 2873TIP3   OH2 8582   3.734   6.672   3.045
 2873TIP3    H1 8583   3.641   6.689   3.058
 2873TIP3    H2 8584   3.777   6.756   3.063
 2874TIP3   OH2 8585   2.331   5.576   1.033
 2874TIP3    H1 8586   2.303   5.611   0.949
 2874TIP3    H2 8587   2.289   5.490   1.038
 2875TIP3   OH2 8588   7.216   5.878   1.277
 2875TIP3    H1 8589   7.228   5.890   1.371
 2875TIP3    H2 8590   7.186   5.963   1.245
 2876TIP3   OH2 8591   2.243   4.863   1.517
 2876TIP3    H1 8592   2.157   4.821   1.510
 2876TIP3    H2 8593   2.248   4.922   1.443
 2877TIP3   OH2 8594   5.868   1.179   4.428
 2877TIP3    H1 8595   5.904   1.213   4.346
 2877TIP3    H2 8596   5.822   1.253   4.467
 2878TIP3   OH2 8597   3.386   0.903   2.407
 2878TIP3    H1 8598   3.308   0.847   2.409
 2878TIP3    H2 8599   3.439   0.871   2.480
 2879TIP3   OH2 8600   4.519   6.588   1.137
 2879TIP3    H1 8601   4.527   6.493   1.144
 2879TIP3    H2 8602   4.597   6.615   1.088
 2880TIP3   OH2 8603   3.604   2.969   4.246
 2880TIP3    H1 8604   3.668   3.027   4.288
 2880TIP3    H2 8605   3.556   3.027   4.186
 2881TIP3   OH2 8606   6.427   3.123   4.528
 2881TIP3    H1 8607   6.452   3.053   4.589
 2881TIP3    H2 8608   6.374   3.079   4.461
 2882TIP3   OH2 8609   2.228   0.861   3.435
 2882TIP3    H1 8610   2.169   0.902   3.498
 2882TIP3    H2 8611   2.260   0.782   3.479
 2883TIP3   OH2 8612   3.847   3.907   3.051
 2883TIP3    H1 8613   3.928   3.915   3.101
 2883TIP3    H2 8614   3.784   3.871   3.112
 2884TIP3   OH2 8615   5.641   2.628   0.203
 2884TIP3    H1 8616   5.663   2.705   0.255
 2884TIP3    H2 8617   5.679   2.554   0.251
 2885TIP3   OH2 8618   2.537   1.742   0.087
 2885TIP3    H1 8619   2.630   1.764   0.083
 2885TIP3    H2 8620   2.525   1.681   0.013
 2886TIP3   OH2 8621   3.458   4.934   3.107
 2886TIP3    H1 8622   3.410   4.918   3.026
 2886TIP3    H2 8623   3.545   4.899   3.090
 2887TIP3   OH2 8624   0.703   4.504   2.626
 2887TIP3    H1 8625   0.680   4.533   2.538
 2887TIP3    H2 8626   0.641   4.433   2.644
 2888TIP3   OH2 8627   6.527   1.238   0.573
 2888TIP3    H1 8628   6.608   1.188   0.582
 2888TIP3    H2 8629   6.512   1.277   0.659
 2889TIP3   OH2 8630   5.520   4.168   1.660
 2889TIP3    H1 8631   5.489   4.255   1.637
 2889TIP3    H2 8632   5.615   4.171   1.646
 2890TIP3   OH2 8633   5.045   2.455   4.219
 2890TIP3    H1 8634   5.136   2.475   4.241
 2890TIP3    H2 8635   5.036   2.362   4.238
 2891TIP3   OH2 8636   1.527   1.867   4.470
 2891TIP3    H1 8637   1.572   1.902   4.393
 2891TIP3    H2 8638   1.452   1.820   4.434
 2892TIP3   OH2 8639   5.911   2.421   1.901
 2892TIP3    H1 8640   5.824   2.420   1.941
 2892TIP3    H2 8641   5.966   2.467   1.964
 2893TIP3   OH2 8642   0.592   5.871   5.549
 2893TIP3    H1 8643   0.580   5.829   5.464
 2893TIP3    H2 8644   0.514   5.848   5.599
 2894TIP3   OH2 8645   3.931   4.810   3.152
 2894TIP3    H1 8646   3.998   4.878   3.159
 2894TIP3    H2 8647   3.961   4.740   3.209
 2895TIP3   OH2 8648   1.173   2.667   5.649
 2895TIP3    H1 8649   1.134   2.682   5.563
 2895TIP3    H2 8650   1.155   2.747   5.697
 2896TIP3   OH2 8651   5.041   0.783   5.129
 2896TIP3    H1 8652   4.997   0.864   5.101
 2896TIP3    H2 8653   5.055   0.734   5.048
 2897TIP3   OH2 8654   3.770   3.832   2.292
 2897TIP3    H1 8655   3.769   3.824   2.197
 2897TIP3    H2 8656   3.840   3.774   2.321
 2898TIP3   OH2 8657   1.132   5.496   3.152
 2898TIP3    H1 8658   1.205   5.490   3.213
 2898TIP3    H2 8659   1.113   5.405   3.128
 2899TIP3   OH2 8660   5.659   4.219   4.192
 2899TIP3    H1 8661   5.591   4.178   4.137
 2899TIP3    H2 8662   5.739   4.212   4.140
 2900TIP3   OH2 8663   5.050   6.091   4.638
 2900TIP3    H1 8664   5.040   6.089   4.733
 2900TIP3    H2 8665   4.990   6.159   4.608
 2901TIP3   OH2 8666   0.217   0.298   2.610
 2901TIP3    H1 8667   0.300   0.317   2.565
 2901TIP3    H2 8668   0.150   0.322   2.546
 2902TIP3   OH2 8669   5.809   4.730   5.959
 2902TIP3    H1 8670   5.863   4.759   5.886
 2902TIP3    H2 8671   5.720   4.755   5.934
 2903TIP3   OH2 8672   0.983   0.570   4.076
 2903TIP3    H1 8673   0.995   0.635   4.007
 2903TIP3    H2 8674   1.024   0.609   4.153
 2904TIP3   OH2 8675   7.035   2.586   1.412
 2904TIP3    H1 8676   7.055   2.541   1.331
 2904TIP3    H2 8677   6.979   2.525   1.461
 2905TIP3   OH2 8678   1.092   6.413   1.191
 2905TIP3    H1 8679   1.146   6.396   1.268
 2905TIP3    H2 8680   1.005   6.429   1.225
 2906TIP3   OH2 8681   3.523   3.233   3.053
 2906TIP3    H1 8682   3.573   3.271   3.125
 2906TIP3    H2 8683   3.563   3.269   2.974
 2907TIP3   OH2 8684   2.946   5.563   5.698
 2907TIP3    H1 8685   2.987   5.643   5.732
 2907TIP3    H2 8686   2.966   5.496   5.764
 2908TIP3   OH2 8687   3.138   1.662   4.206
 2908TIP3    H1 8688   3.119   1.756   4.206
 2908TIP3    H2 8689   3.061   1.622   4.245
 2909TIP3   OH2 8690   4.485   0.418   1.715
 2909TIP3    H1 8691   4.536   0.420   1.796
 2909TIP3    H2 8692   4.436   0.500   1.715
 2910TIP3   OH2 8693   0.193   1.464   0.262
 2910TIP3    H1 8694   0.241   1.543   0.239
 2910TIP3    H2 8695   0.221   1.444   0.351
 2911TIP3   OH2 8696   6.512   6.742   1.536
 2911TIP3    H1 8697   6.575   6.750   1.607
 2911TIP3    H2 8698   6.484   6.832   1.519
 2912TIP3   OH2 8699   0.840   2.139   2.065
 2912TIP3    H1 8700   0.802   2.083   2.133
 2912TIP3    H2 8701   0.764   2.184   2.027
 2913TIP3   OH2 8702   1.548   4.828   0.203
 2913TIP3    H1 8703   1.570   4.741   0.237
 2913TIP3    H2 8704   1.503   4.871   0.275
 2914TIP3   OH2 8705   3.683   3.394   1.105
 2914TIP3    H1 8706   3.636   3.433   1.178
 2914TIP3    H2 8707   3.621   3.396   1.032
 2915TIP3   OH2 8708   1.718   3.587   1.149
 2915TIP3    H1 8709   1.801   3.583   1.196
 2915TIP3    H2 8710   1.706   3.499   1.113
 2916TIP3   OH2 8711   3.010   0.997   3.190
 2916TIP3    H1 8712   2.947   0.945   3.240
 2916TIP3    H2 8713   3.075   1.024   3.254
 2917TIP3   OH2 8714   3.218   3.495   1.825
 2917TIP3    H1 8715   3.294   3.523   1.875
 2917TIP3    H2 8716   3.240   3.406   1.795
 2918TIP3   OH2 8717   3.150   5.912   5.373
 2918TIP3    H1 8718   3.158   5.879   5.462
 2918TIP3    H2 8719   3.058   5.899   5.350
 2919TIP3   OH2 8720   4.979   6.301   3.893
 2919TIP3    H1 8721   5.000   6.394   3.882
 2919TIP3    H2 8722   5.045   6.256   3.840
 2920TIP3   OH2 8723   3.250   1.573   3.105
 2920TIP3    H1 8724   3.182   1.622   3.150
 2920TIP3    H2 8725   3.290   1.636   3.045
 2921TIP3   OH2 8726   0.309   0.575   3.504
 2921TIP3    H1 8727   0.304   0.574   3.600
 2921TIP3    H2 8728   0.277   0.662   3.479
 2922TIP3   OH2 8729   2.737   4.365   0.843
 2922TIP3    H1 8730   2.681   4.432   0.882
 2922TIP3    H2 8731   2.692   4.340   0.763
 2923TIP3   OH2 8732   3.045   6.779   1.135
 2923TIP3    H1 8733   3.019   6.742   1.050
 2923TIP3    H2 8734   3.133   6.813   1.119
 2924TIP3   OH2 8735   3.853   6.089   2.203
 2924TIP3    H1 8736   3.834   6.005   2.246
 2924TIP3    H2 8737   3.926   6.125   2.254
 2925TIP3   OH2 8738   0.545   6.536   1.349
 2925TIP3    H1 8739   0.601   6.562   1.421
 2925TIP3    H2 8740   0.490   6.466   1.384
 2926TIP3   OH2 8741   4.256   3.693   0.735
 2926TIP3    H1 8742   4.246   3.787   0.752
 2926TIP3    H2 8743   4.236   3.652   0.819
 2927TIP3   OH2 8744   3.597   5.660   2.446
 2927TIP3    H1 8745   3.655   5.674   2.520
 2927TIP3    H2 8746   3.522   5.614   2.483
 2928TIP3   OH2 8747   3.697   4.725   2.003
 2928TIP3    H1 8748   3.628   4.730   2.069
 2928TIP3    H2 8749   3.775   4.758   2.046
 2929TIP3   OH2 8750   1.138   0.131   3.258
 2929TIP3    H1 8751   1.120   0.199   3.324
 2929TIP3    H2 8752   1.175   0.179   3.184
 2930TIP3   OH2 8753   4.690   2.591   4.916
 2930TIP3    H1 8754   4.669   2.649   4.990
 2930TIP3    H2 8755   4.782   2.567   4.931
 2931TIP3   OH2 8756   4.304   0.827   2.670
 2931TIP3    H1 8757   4.283   0.776   2.748
 2931TIP3    H2 8758   4.295   0.766   2.597
 2932TIP3   OH2 8759   2.568   5.227   3.833
 2932TIP3    H1 8760   2.534   5.197   3.749
 2932TIP3    H2 8761   2.585   5.320   3.820
 2933TIP3   OH2 8762   5.711   1.726   2.202
 2933TIP3    H1 8763   5.631   1.677   2.224
 2933TIP3    H2 8764   5.780   1.661   2.204
 2934TIP3   OH2 8765   5.187   2.761   5.160
 2934TIP3    H1 8766   5.269   2.805   5.138
 2934TIP3    H2 8767   5.123   2.797   5.099
 2935TIP3   OH2 8768   6.538   2.172   3.989
 2935TIP3    H1 8769   6.556   2.166   4.083
 2935TIP3    H2 8770   6.543   2.082   3.958
 2936TIP3   OH2 8771   7.190   5.461   3.063
 2936TIP3    H1 8772   7.203   5.515   2.984
 2936TIP3    H2 8773   7.151   5.521   3.127
 2937TIP3   OH2 8774   0.314   0.966   1.584
 2937TIP3    H1 8775   0.255   0.997   1.515
 2937TIP3    H2 8776   0.393   1.018   1.573
 2938TIP3   OH2 8777   4.646   3.458   3.900
 2938TIP3    H1 8778   4.606   3.519   3.962
 2938TIP3    H2 8779   4.574   3.403   3.870
 2939TIP3   OH2 8780   0.942   4.348   4.955
 2939TIP3    H1 8781   0.980   4.390   5.032
 2939TIP3    H2 8782   1.015   4.340   4.894
 2940TIP3   OH2 8783   2.278   3.669   3.273
 2940TIP3    H1 8784   2.212   3.658   3.204
 2940TIP3    H2 8785   2.361   3.650   3.229
 2941TIP3   OH2 8786   4.750   3.837   3.571
 2941TIP3    H1 8787   4.780   3.762   3.622
 2941TIP3    H2 8788   4.732   3.905   3.637
 2942TIP3   OH2 8789   6.319   6.657   5.482
 2942TIP3    H1 8790   6.295   6.567   5.461
 2942TIP3    H2 8791   6.268   6.710   5.421
 2943TIP3   OH2 8792   2.697   6.107   2.620
 2943TIP3    H1 8793   2.691   6.190   2.574
 2943TIP3    H2 8794   2.785   6.106   2.657
 2944TIP3   OH2 8795   6.529   5.439   5.655
 2944TIP3    H1 8796   6.572   5.442   5.569
 2944TIP3    H2 8797   6.549   5.352   5.689
 2945TIP3   OH2 8798   0.430   5.226   0.274
 2945TIP3    H1 8799   0.360   5.290   0.282
 2945TIP3    H2 8800   0.403   5.153   0.330
 2946TIP3   OH2 8801   2.272   2.664   1.050
 2946TIP3    H1 8802   2.345   2.719   1.022
 2946TIP3    H2 8803   2.221   2.650   0.971
 2947TIP3   OH2 8804   1.181   3.478   5.135
 2947TIP3    H1 8805   1.156   3.406   5.193
 2947TIP3    H2 8806   1.217   3.545   5.194
 2948TIP3   OH2 8807   2.985   4.865   5.323
 2948TIP3    H1 8808   3.067   4.817   5.313
 2948TIP3    H2 8809   3.012   4.955   5.343
 2949TIP3   OH2 8810   2.389   0.196   2.640
 2949TIP3    H1 8811   2.415   0.109   2.671
 2949TIP3    H2 8812   2.305   0.182   2.597
 2950TIP3   OH2 8813   2.646   2.948   5.782
 2950TIP3    H1 8814   2.640   2.890   5.705
 2950TIP3    H2 8815   2.699   2.899   5.845
 2951TIP3   OH2 8816   1.405   6.110   2.423
 2951TIP3    H1 8817   1.349   6.186   2.438
 2951TIP3    H2 8818   1.351   6.050   2.373
 2952TIP3   OH2 8819   3.599   4.513   5.020
 2952TIP3    H1 8820   3.582   4.473   4.935
 2952TIP3    H2 8821   3.514   4.513   5.064
 2953TIP3   OH2 8822   1.559   0.784   3.612
 2953TIP3    H1 8823   1.645   0.811   3.644
 2953TIP3    H2 8824   1.541   0.843   3.538
 2954TIP3   OH2 8825   5.544   2.669   4.973
 2954TIP3    H1 8826   5.586   2.718   4.903
 2954TIP3    H2 8827   5.558   2.723   5.051
 2955TIP3   OH2 8828   4.300   3.489   5.533
 2955TIP3    H1 8829   4.257   3.419   5.582
 2955TIP3    H2 8830   4.255   3.491   5.449
 2956TIP3   OH2 8831   2.884   4.071   1.803
 2956TIP3    H1 8832   2.891   3.979   1.777
 2956TIP3    H2 8833   2.794   4.096   1.779
 2957TIP3   OH2 8834   3.000   0.552   3.715
 2957TIP3    H1 8835   2.912   0.588   3.730
 2957TIP3    H2 8836   3.051   0.582   3.790
 2958TIP3   OH2 8837   1.215   2.222   1.737
 2958TIP3    H1 8838   1.175   2.251   1.655
 2958TIP3    H2 8839   1.211   2.126   1.732
 2959TIP3   OH2 8840   4.046   6.459   1.236
 2959TIP3    H1 8841   4.123   6.406   1.216
 2959TIP3    H2 8842   3.975   6.395   1.247
 2960TIP3   OH2 8843   3.775   5.244   0.781
 2960TIP3    H1 8844   3.859   5.215   0.815
 2960TIP3    H2 8845   3.710   5.198   0.836
 2961TIP3   OH2 8846   1.300   0.465   2.020
 2961TIP3    H1 8847   1.294   0.390   2.078
 2961TIP3    H2 8848   1.365   0.522   2.061
 2962TIP3   OH2 8849   0.872   0.760   2.344
 2962TIP3    H1 8850   0.855   0.676   2.302
 2962TIP3    H2 8851   0.873   0.740   2.438
 2963TIP3   OH2 8852   2.118   3.300   2.620
 2963TIP3    H1 8853   2.155   3.240   2.686
 2963TIP3    H2 8854   2.174   3.290   2.544
 2964TIP3   OH2 8855   6.429   3.086   0.309
 2964TIP3    H1 8856   6.351   3.038   0.279
 2964TIP3    H2 8857   6.479   3.103   0.229
 2965TIP3   OH2 8858   4.118   0.693   1.435
 2965TIP3    H1 8859   4.101   0.768   1.378
 2965TIP3    H2 8860   4.108   0.617   1.377
 2966TIP3   OH2 8861   2.178   2.420   1.670
 2966TIP3    H1 8862   2.175   2.434   1.764
 2966TIP3    H2 8863   2.197   2.326   1.661
 2967TIP3   OH2 8864   7.065   0.109   4.554
 2967TIP3    H1 8865   6.995   0.097   4.489
 2967TIP3    H2 8866   7.129   0.165   4.510
 2968TIP3   OH2 8867   3.753   4.774   3.477
 2968TIP3    H1 8868   3.683   4.816   3.528
 2968TIP3    H2 8869   3.708   4.737   3.401
 2969TIP3   OH2 8870   4.879   2.653   4.317
 2969TIP3    H1 8871   4.827   2.652   4.237
 2969TIP3    H2 8872   4.942   2.582   4.306
 2970TIP3   OH2 8873   1.153   4.276   1.058
 2970TIP3    H1 8874   1.246   4.255   1.052
 2970TIP3    H2 8875   1.116   4.248   0.974
 2971TIP3   OH2 8876   3.871   5.520   0.726
 2971TIP3    H1 8877   3.931   5.483   0.661
 2971TIP3    H2 8878   3.847   5.447   0.782
 2972TIP3   OH2 8879   6.021   1.251   1.835
 2972TIP3    H1 8880   6.011   1.226   1.926
 2972TIP3    H2 8881   5.937   1.227   1.794
 2973TIP3   OH2 8882   1.565   1.137   4.677
 2973TIP3    H1 8883   1.475   1.112   4.696
 2973TIP3    H2 8884   1.564   1.157   4.583
 2974TIP3   OH2 8885   6.954   2.871   3.152
 2974TIP3    H1 8886   7.034   2.877   3.205
 2974TIP3    H2 8887   6.901   2.945   3.183
 2975TIP3   OH2 8888   6.061   3.136   4.223
 2975TIP3    H1 8889   5.967   3.153   4.216
 2975TIP3    H2 8890   6.100   3.194   4.157
 2976TIP3   OH2 8891   2.255   3.652   0.104
 2976TIP3    H1 8892   2.285   3.677   0.016
 2976TIP3    H2 8893   2.335   3.631   0.151
 2977TIP3   OH2 8894   2.915   4.854   4.996
 2977TIP3    H1 8895   2.927   4.780   5.057
 2977TIP3    H2 8896   2.837   4.831   4.946
 2978TIP3   OH2 8897   3.519   4.819   0.516
 2978TIP3    H1 8898   3.500   4.796   0.607
 2978TIP3    H2 8899   3.614   4.834   0.515
 2979TIP3   OH2 8900   5.875   4.376   3.175
 2979TIP3    H1 8901   5.850   4.346   3.088
 2979TIP3    H2 8902   5.799   4.356   3.230
 2980TIP3   OH2 8903   4.435   5.503   0.363
 2980TIP3    H1 8904   4.490   5.440   0.408
 2980TIP3    H2 8905   4.346   5.482   0.392
 2981TIP3   OH2 8906   0.471   6.593   0.159
 2981TIP3    H1 8907   0.521   6.532   0.105
 2981TIP3    H2 8908   0.396   6.618   0.105
 2982TIP3   OH2 8909   2.217   4.345   4.380
 2982TIP3    H1 8910   2.227   4.425   4.432
 2982TIP3    H2 8911   2.225   4.373   4.289
 2983TIP3   OH2 8912   7.222   0.673   1.564
 2983TIP3    H1 8913   7.159   0.677   1.636
 2983TIP3    H2 8914   7.201   0.751   1.511
 2984TIP3   OH2 8915   6.177   3.725   2.038
 2984TIP3    H1 8916   6.254   3.678   2.070
 2984TIP3    H2 8917   6.156   3.682   1.955
 2985TIP3   OH2 8918   3.796   0.479   2.472
 2985TIP3    H1 8919   3.858   0.410   2.494
 2985TIP3    H2 8920   3.710   0.440   2.486
 2986TIP3   OH2 8921   6.858   0.102   4.376
 2986TIP3    H1 8922   6.802   0.030   4.346
 2986TIP3    H2 8923   6.798   0.172   4.397
 2987TIP3   OH2 8924   0.336   1.627   3.694
 2987TIP3    H1 8925   0.410   1.566   3.694
 2987TIP3    H2 8926   0.325   1.652   3.785
 2988TIP3   OH2 8927   6.850   0.551   2.109
 2988TIP3    H1 8928   6.808   0.481   2.158
 2988TIP3    H2 8929   6.938   0.518   2.091
 2989TIP3   OH2 8930   5.202   0.679   1.473
 2989TIP3    H1 8931   5.121   0.724   1.497
 2989TIP3    H2 8932   5.175   0.613   1.410
 2990TIP3   OH2 8933   1.912   1.673   1.097
 2990TIP3    H1 8934   1.934   1.654   1.188
 2990TIP3    H2 8935   1.886   1.765   1.097
 2991TIP3   OH2 8936   0.180   4.625   5.254
 2991TIP3    H1 8937   0.249   4.601   5.316
 2991TIP3    H2 8938   0.099   4.600   5.298
 2992TIP3   OH2 8939   6.214   2.970   0.090
 2992TIP3    H1 8940   6.228   2.917   0.168
 2992TIP3    H2 8941   6.203   2.907   0.020
 2993TIP3   OH2 8942   1.363   4.934   5.290
 2993TIP3    H1 8943   1.412   5.009   5.256
 2993TIP3    H2 8944   1.370   4.868   5.220
 2994TIP3   OH2 8945   4.855   6.531   3.273
 2994TIP3    H1 8946   4.780   6.473   3.285
 2994TIP3    H2 8947   4.928   6.472   3.252
 2995TIP3   OH2 8948   3.080   2.690   4.472
 2995TIP3    H1 8949   3.160   2.650   4.439
 2995TIP3    H2 8950   3.019   2.617   4.484
 2996TIP3   OH2 8951   5.419   6.767   1.709
 2996TIP3    H1 8952   5.370   6.795   1.631
 2996TIP3    H2 8953   5.496   6.722   1.673
 2997TIP3   OH2 8954   5.318   3.541   2.947
 2997TIP3    H1 8955   5.297   3.622   2.900
 2997TIP3    H2 8956   5.298   3.561   3.039
 2998TIP3   OH2 8957   0.732   4.511   2.258
 2998TIP3    H1 8958   0.741   4.583   2.319
 2998TIP3    H2 8959   0.762   4.546   2.174
 2999TIP3   OH2 8960   3.398   2.039   3.248
 2999TIP3    H1 8961   3.423   1.989   3.326
 2999TIP3    H2 8962   3.474   2.032   3.190
 3000TIP3   OH2 8963   3.437   0.854   1.288
 3000TIP3    H1 8964   3.391   0.906   1.222
 3000TIP3    H2 8965   3.526   0.890   1.289
 3001TIP3   OH2 8966   6.246   1.591   2.492
 3001TIP3    H1 8967   6.269   1.500   2.472
 3001TIP3    H2 8968   6.294   1.642   2.428
 3002TIP3   OH2 8969   3.443   2.434   2.299
 3002TIP3    H1 8970   3.429   2.373   2.227
 3002TIP3    H2 8971   3.399   2.514   2.272
 3003TIP3   OH2 8972   0.122   3.797   5.431
 3003TIP3    H1 8973   0.056   3.805   5.361
 3003TIP3    H2 8974   0.194   3.749   5.390
 3004TIP3   OH2 8975   2.346   3.997   2.538
 3004TIP3    H1 8976   2.318   4.059   2.471
 3004TIP3    H2 8977   2.280   3.928   2.535
 3005TIP3   OH2 8978   4.770   0.514   0.061
 3005TIP3    H1 8979   4.769   0.428   0.018
 3005TIP3    H2 8980   4.854   0.552   0.036
 3006TIP3   OH2 8981   6.013   4.906   2.519
 3006TIP3    H1 8982   6.083   4.912   2.454
 3006TIP3    H2 8983   5.975   4.994   2.522
 3007TIP3   OH2 8984   2.524   2.920   4.752
 3007TIP3    H1 8985   2.584   2.956   4.818
 3007TIP3    H2 8986   2.582   2.891   4.681
 3008TIP3   OH2 8987   0.880   1.653   3.024
 3008TIP3    H1 8988   0.839   1.605   3.096
 3008TIP3    H2 8989   0.970   1.621   3.022
 3009TIP3   OH2 8990   0.832   6.602   0.360
 3009TIP3    H1 8991   0.817   6.546   0.284
 3009TIP3    H2 8992   0.863   6.543   0.428
 3010TIP3   OH2 8993   3.797   4.218   0.878
 3010TIP3    H1 8994   3.865   4.284   0.870
 3010TIP3    H2 8995   3.844   4.136   0.893
 3011TIP3   OH2 8996   1.366   2.312   4.806
 3011TIP3    H1 8997   1.271   2.301   4.810
 3011TIP3    H2 8998   1.381   2.368   4.730
 3012TIP3   OH2 8999   6.830   4.243   2.219
 3012TIP3    H1 9000   6.900   4.261   2.283
 3012TIP3    H2 9001   6.874   4.197   2.148
 3013TIP3   OH2 9002   6.475   0.198   5.324
 3013TIP3    H1 9003   6.566   0.227   5.313
 3013TIP3    H2 9004   6.425   0.252   5.263
 3014TIP3   OH2 9005   5.727   0.762   3.751
 3014TIP3    H1 9006   5.667   0.715   3.693
 3014TIP3    H2 9007   5.688   0.850   3.759
 3015TIP3   OH2 9008   1.641   2.288   0.859
 3015TIP3    H1 9009   1.605   2.217   0.912
 3015TIP3    H2 9010   1.563   2.332   0.823
 3016TIP3   OH2 9011   7.078   6.048   2.678
 3016TIP3    H1 9012   7.116   5.971   2.636
 3016TIP3    H2 9013   7.154   6.100   2.705
 3017TIP3   OH2 9014   6.278   1.684   3.306
 3017TIP3    H1 9015   6.301   1.654   3.218
 3017TIP3    H2 9016   6.299   1.610   3.363
 3018TIP3   OH2 9017   0.355   5.758   4.312
 3018TIP3    H1 9018   0.410   5.825   4.272
 3018TIP3    H2 9019   0.327   5.797   4.395
 3019TIP3   OH2 9020   3.905   3.891   2.783
 3019TIP3    H1 9021   3.858   3.814   2.750
 3019TIP3    H2 9022   3.907   3.879   2.878
 3020TIP3   OH2 9023   5.916   5.846   1.536
 3020TIP3    H1 9024   5.848   5.810   1.593
 3020TIP3    H2 9025   5.931   5.934   1.569
 3021TIP3   OH2 9026   5.470   1.492   5.500
 3021TIP3    H1 9027   5.466   1.396   5.493
 3021TIP3    H2 9028   5.492   1.521   5.411
 3022TIP3   OH2 9029   6.768   0.141   5.203
 3022TIP3    H1 9030   6.770   0.221   5.151
 3022TIP3    H2 9031   6.849   0.144   5.255
 3023TIP3   OH2 9032   2.717   1.436   3.996
 3023TIP3    H1 9033   2.686   1.366   4.053
 3023TIP3    H2 9034   2.810   1.419   3.985
 3024TIP3   OH2 9035   0.783   5.903   4.140
 3024TIP3    H1 9036   0.822   5.817   4.159
 3024TIP3    H2 9037   0.761   5.900   4.047
 3025TIP3   OH2 9038   6.497   1.751   4.672
 3025TIP3    H1 9039   6.412   1.767   4.713
 3025TIP3    H2 9040   6.550   1.713   4.742
 3026TIP3   OH2 9041   4.112   0.083   1.062
 3026TIP3    H1 9042   4.050   0.142   1.105
 3026TIP3    H2 9043   4.076  -0.005   1.076
 3027TIP3   OH2 9044   4.818   1.735   2.416
 3027TIP3    H1 9045   4.888   1.718   2.479
 3027TIP3    H2 9046   4.758   1.661   2.428
 3028TIP3   OH2 9047   6.561   5.584   0.729
 3028TIP3    H1 9048   6.639   5.626   0.762
 3028TIP3    H2 9049   6.534   5.638   0.654
 3029TIP3   OH2 9050   5.409   3.994   1.424
 3029TIP3    H1 9051   5.445   4.059   1.484
 3029TIP3    H2 9052   5.429   3.910   1.465
 3030TIP3   OH2 9053   0.859   3.190   3.912
 3030TIP3    H1 9054   0.891   3.223   3.828
 3030TIP3    H2 9055   0.770   3.161   3.895
 3031TIP3   OH2 9056   2.236   0.765   2.972
 3031TIP3    H1 9057   2.266   0.706   2.903
 3031TIP3    H2 9058   2.314   0.783   3.025
 3032TIP3   OH2 9059   4.496   5.574   4.138
 3032TIP3    H1 9060   4.463   5.577   4.227
 3032TIP3    H2 9061   4.590   5.589   4.146
 3033TIP3   OH2 9062   0.053   6.128   3.068
 3033TIP3    H1 9063   0.019   6.093   3.150
 3033TIP3    H2 9064   0.147   6.110   3.072
 3034TIP3   OH2 9065   5.111   0.325   2.379
 3034TIP3    H1 9066   5.079   0.330   2.288
 3034TIP3    H2 9067   5.189   0.269   2.373
 3035TIP3   OH2 9068   4.326   5.542   3.963
 3035TIP3    H1 9069   4.388   5.571   4.030
 3035TIP3    H2 9070   4.380   5.521   3.887
 3036TIP3   OH2 9071   5.592   0.281   4.423
 3036TIP3    H1 9072   5.589   0.369   4.461
 3036TIP3    H2 9073   5.611   0.296   4.330
 3037TIP3   OH2 9074   6.178   0.701   4.568
 3037TIP3    H1 9075   6.107   0.751   4.610
 3037TIP3    H2 9076   6.235   0.676   4.641
 3038TIP3   OH2 9077   3.881   6.319   0.356
 3038TIP3    H1 9078   3.809   6.378   0.330
 3038TIP3    H2 9079   3.957   6.376   0.365
 3039TIP3   OH2 9080   2.100   4.090   4.440
 3039TIP3    H1 9081   2.150   4.168   4.415
 3039TIP3    H2 9082   2.105   4.034   4.362
 3040TIP3   OH2 9083   4.244   3.704   4.552
 3040TIP3    H1 9084   4.305   3.773   4.528
 3040TIP3    H2 9085   4.295   3.645   4.607
 3041TIP3   OH2 9086   3.062   0.520   4.895
 3041TIP3    H1 9087   3.094   0.461   4.964
 3041TIP3    H2 9088   3.094   0.606   4.922
 3042TIP3   OH2 9089   0.074   3.422   4.941
 3042TIP3    H1 9090   0.012   3.455   4.876
 3042TIP3    H2 9091   0.022   3.406   5.019
 3043TIP3   OH2 9092   6.146   4.162   2.486
 3043TIP3    H1 9093   6.226   4.123   2.449
 3043TIP3    H2 9094   6.171   4.186   2.575
 3044TIP3   OH2 9095   3.511   3.847   0.335
 3044TIP3    H1 9096   3.435   3.900   0.312
 3044TIP3    H2 9097   3.552   3.826   0.251
 3045TIP3   OH2 9098   0.009   1.066   1.635
 3045TIP3    H1 9099  -0.011   0.993   1.577
 3045TIP3    H2 9100   0.071   1.031   1.699
 3046TIP3   OH2 9101   1.908   4.841   0.523
 3046TIP3    H1 9102   1.980   4.862   0.464
 3046TIP3    H2 9103   1.850   4.917   0.519
 3047TIP3   OH2 9104   7.163   5.711   1.688
 3047TIP3    H1 9105   7.198   5.800   1.698
 3047TIP3    H2 9106   7.204   5.678   1.608
 3048TIP3   OH2 9107   2.246   2.920   0.740
 3048TIP3    H1 9108   2.329   2.963   0.761
 3048TIP3    H2 9109   2.271   2.838   0.697
 3049TIP3   OH2 9110   1.810   1.798   3.169
 3049TIP3    H1 9111   1.762   1.766   3.092
 3049TIP3    H2 9112   1.812   1.893   3.158
 3050TIP3   OH2 9113   1.521   4.054   1.094
 3050TIP3    H1 9114   1.552   4.143   1.108
 3050TIP3    H2 9115   1.600   4.000   1.101
 3051TIP3   OH2 9116   2.299   3.256   1.251
 3051TIP3    H1 9117   2.331   3.254   1.341
 3051TIP3    H2 9118   2.227   3.193   1.250
 3052TIP3   OH2 9119   5.292   4.120   1.835
 3052TIP3    H1 9120   5.384   4.103   1.854
 3052TIP3    H2 9121   5.294   4.175   1.756
 3053TIP3   OH2 9122   6.981   3.590   2.141
 3053TIP3    H1 9123   7.016   3.666   2.187
 3053TIP3    H2 9124   6.929   3.627   2.070
 3054TIP3   OH2 9125   0.648   4.464   5.274
 3054TIP3    H1 9126   0.631   4.388   5.218
 3054TIP3    H2 9127   0.697   4.525   5.218
 3055TIP3   OH2 9128   6.308   5.851   1.348
 3055TIP3    H1 9129   6.222   5.855   1.391
 3055TIP3    H2 9130   6.366   5.817   1.416
 3056TIP3   OH2 9131   4.695   6.611   2.884
 3056TIP3    H1 9132   4.715   6.594   2.791
 3056TIP3    H2 9133   4.652   6.531   2.914
 3057TIP3   OH2 9134   0.070   1.966   5.052
 3057TIP3    H1 9135   0.025   1.894   5.097
 3057TIP3    H2 9136   0.161   1.938   5.047
 3058TIP3   OH2 9137   5.248   4.456   0.584
 3058TIP3    H1 9138   5.301   4.484   0.658
 3058TIP3    H2 9139   5.275   4.512   0.512
 3059TIP3   OH2 9140   7.136   2.339   0.572
 3059TIP3    H1 9141   7.099   2.318   0.658
 3059TIP3    H2 9142   7.093   2.421   0.548
 3060TIP3   OH2 9143   4.683   0.612   0.288
 3060TIP3    H1 9144   4.682   0.569   0.203
 3060TIP3    H2 9145   4.710   0.702   0.270
 3061TIP3   OH2 9146   0.733   3.530   2.437
 3061TIP3    H1 9147   0.662   3.528   2.372
 3061TIP3    H2 9148   0.784   3.451   2.418
 3062TIP3   OH2 9149   4.293   3.142   2.254
 3062TIP3    H1 9150   4.219   3.119   2.199
 3062TIP3    H2 9151   4.271   3.105   2.340
 3063TIP3   OH2 9152   5.321   5.072   0.030
 3063TIP3    H1 9153   5.372   5.015   0.087
 3063TIP3    H2 9154   5.230   5.044   0.043
 3064TIP3   OH2 9155   4.320   1.664   0.208
 3064TIP3    H1 9156   4.405   1.621   0.201
 3064TIP3    H2 9157   4.257   1.598   0.178
 3065TIP3   OH2 9158   0.496   3.630   2.285
 3065TIP3    H1 9159   0.512   3.546   2.243
 3065TIP3    H2 9160   0.463   3.607   2.372
 3066TIP3   OH2 9161   1.127   0.968   3.663
 3066TIP3    H1 9162   1.161   1.026   3.595
 3066TIP3    H2 9163   1.034   0.989   3.669
 3067TIP3   OH2 9164   0.533   1.662   4.837
 3067TIP3    H1 9165   0.517   1.661   4.743
 3067TIP3    H2 9166   0.449   1.637   4.876
 3068TIP3   OH2 9167   6.102   5.750   5.560
 3068TIP3    H1 9168   6.021   5.757   5.611
 3068TIP3    H2 9169   6.133   5.661   5.575
 3069TIP3   OH2 9170   3.461   3.987   5.210
 3069TIP3    H1 9171   3.511   3.984   5.129
 3069TIP3    H2 9172   3.375   3.952   5.186
 3070TIP3   OH2 9173   0.073   6.605   5.164
 3070TIP3    H1 9174   0.080   6.588   5.070
 3070TIP3    H2 9175   0.096   6.697   5.173
 3071TIP3   OH2 9176   2.959   5.108   2.635
 3071TIP3    H1 9177   2.928   5.102   2.545
 3071TIP3    H2 9178   2.932   5.025   2.675
 3072TIP3   OH2 9179   2.947   4.033   2.086
 3072TIP3    H1 9180   2.943   4.006   1.995
 3072TIP3    H2 9181   3.039   4.022   2.110
 3073TIP3   OH2 9182   6.296   5.525   0.544
 3073TIP3    H1 9183   6.318   5.612   0.575
 3073TIP3    H2 9184   6.375   5.494   0.501
 3074TIP3   OH2 9185   1.599   4.585   0.382
 3074TIP3    H1 9186   1.599   4.520   0.453
 3074TIP3    H2 9187   1.549   4.543   0.312
 3075TIP3   OH2 9188   2.481   2.262   2.424
 3075TIP3    H1 9189   2.533   2.268   2.344
 3075TIP3    H2 9190   2.421   2.189   2.409
 3076TIP3   OH2 9191   0.543  -0.032   5.232
 3076TIP3    H1 9192   0.604   0.041   5.243
 3076TIP3    H2 9193   0.459   0.003   5.262
 3077TIP3   OH2 9194   4.080   1.302   5.858
 3077TIP3    H1 9195   4.148   1.237   5.874
 3077TIP3    H2 9196   3.999   1.260   5.885
 3078TIP3   OH2 9197   6.148   6.318   4.702
 3078TIP3    H1 9198   6.095   6.398   4.706
 3078TIP3    H2 9199   6.230   6.345   4.662
 3079TIP3   OH2 9200   0.477   2.345   3.517
 3079TIP3    H1 9201   0.472   2.384   3.430
 3079TIP3    H2 9202   0.467   2.251   3.501
 3080TIP3   OH2 9203   0.219   2.039   4.005
 3080TIP3    H1 9204   0.154   2.005   3.943
 3080TIP3    H2 9205   0.303   2.017   3.966
 3081TIP3   OH2 9206   2.958   3.906   2.507
 3081TIP3    H1 9207   3.033   3.931   2.560
 3081TIP3    H2 9208   2.942   3.815   2.529
 3082TIP3   OH2 9209   2.630   5.407   3.460
 3082TIP3    H1 9210   2.566   5.359   3.514
 3082TIP3    H2 9211   2.612   5.378   3.371
 3083TIP3   OH2 9212   1.236   2.996   5.481
 3083TIP3    H1 9213   1.145   2.987   5.452
 3083TIP3    H2 9214   1.288   2.972   5.404
 3084TIP3   OH2 9215   0.864   0.134   2.176
 3084TIP3    H1 9216   0.851   0.213   2.123
 3084TIP3    H2 9217   0.889   0.066   2.112
 3085TIP3   OH2 9218   3.661   0.952   0.310
 3085TIP3    H1 9219   3.651   1.022   0.374
 3085TIP3    H2 9220   3.665   0.997   0.226
 3086TIP3   OH2 9221   2.671   6.482   4.063
 3086TIP3    H1 9222   2.692   6.526   3.981
 3086TIP3    H2 9223   2.754   6.451   4.097
 3087TIP3   OH2 9224   1.010   1.830   3.794
 3087TIP3    H1 9225   1.081   1.772   3.820
 3087TIP3    H2 9226   1.038   1.865   3.709
 3088TIP3   OH2 9227   0.466   6.665   3.517
 3088TIP3    H1 9228   0.473   6.747   3.468
 3088TIP3    H2 9229   0.501   6.598   3.458
 3089TIP3   OH2 9230   1.138   6.538   4.703
 3089TIP3    H1 9231   1.119   6.567   4.614
 3089TIP3    H2 9232   1.124   6.444   4.701
 3090TIP3   OH2 9233   0.458   5.618   0.458
 3090TIP3    H1 9234   0.364   5.638   0.456
 3090TIP3    H2 9235   0.497   5.683   0.400
 3091TIP3   OH2 9236   4.175   1.960   1.988
 3091TIP3    H1 9237   4.118   1.954   1.912
 3091TIP3    H2 9238   4.259   1.927   1.957
 3092TIP3   OH2 9239   2.688   0.287   0.213
 3092TIP3    H1 9240   2.611   0.331   0.250
 3092TIP3    H2 9241   2.676   0.195   0.235
 3093TIP3   OH2 9242   2.247   4.905   0.518
 3093TIP3    H1 9243   2.222   4.995   0.542
 3093TIP3    H2 9244   2.343   4.904   0.525
 3094TIP3   OH2 9245   6.298   6.253   3.255
 3094TIP3    H1 9246   6.225   6.240   3.194
 3094TIP3    H2 9247   6.364   6.191   3.226
 3095TIP3   OH2 9248   2.585   5.437   1.887
 3095TIP3    H1 9249   2.639   5.503   1.928
 3095TIP3    H2 9250   2.507   5.484   1.857
 3096TIP3   OH2 9251   5.475   0.314   1.486
 3096TIP3    H1 9252   5.488   0.382   1.552
 3096TIP3    H2 9253   5.384   0.286   1.497
 3097TIP3   OH2 9254   3.168   5.287   5.237
 3097TIP3    H1 9255   3.254   5.257   5.211
 3097TIP3    H2 9256   3.126   5.315   5.155
 3098TIP3   OH2 9257   3.971   5.901   0.102
 3098TIP3    H1 9258   3.876   5.909   0.100
 3098TIP3    H2 9259   3.995   5.920   0.193
 3099TIP3   OH2 9260   2.992   3.332   3.269
 3099TIP3    H1 9261   2.920   3.275   3.294
 3099TIP3    H2 9262   3.071   3.283   3.290
 3100TIP3   OH2 9263   6.945   3.482   2.894
 3100TIP3    H1 9264   6.915   3.573   2.894
 3100TIP3    H2 9265   6.958   3.461   2.801
 3101TIP3   OH2 9266   1.288   6.012   4.506
 3101TIP3    H1 9267   1.346   5.942   4.533
 3101TIP3    H2 9268   1.230   6.025   4.581
 3102TIP3   OH2 9269   6.912   4.262   3.313
 3102TIP3    H1 9270   6.916   4.290   3.405
 3102TIP3    H2 9271   6.983   4.310   3.271
 3103TIP3   OH2 9272   4.884   3.326   3.984
 3103TIP3    H1 9273   4.918   3.278   3.909
 3103TIP3    H2 9274   4.816   3.382   3.948
 3104TIP3   OH2 9275   5.146   5.416   3.775
 3104TIP3    H1 9276   5.167   5.384   3.687
 3104TIP3    H2 9277   5.210   5.373   3.831
 3105TIP3   OH2 9278   7.056   0.115   2.026
 3105TIP3    H1 9279   7.068   0.146   2.115
 3105TIP3    H2 9280   7.116   0.167   1.973
 3106TIP3   OH2 9281   6.037   5.794   0.989
 3106TIP3    H1 9282   5.981   5.824   1.061
 3106TIP3    H2 9283   6.120   5.772   1.031
 3107TIP3   OH2 9284   1.663   0.189   1.468
 3107TIP3    H1 9285   1.625   0.273   1.494
 3107TIP3    H2 9286   1.754   0.210   1.447
 3108TIP3   OH2 9287   1.976   4.150   0.657
 3108TIP3    H1 9288   2.032   4.225   0.676
 3108TIP3    H2 9289   2.009   4.114   0.575
 3109TIP3   OH2 9290   6.413   5.806   0.900
 3109TIP3    H1 9291   6.485   5.744   0.885
 3109TIP3    H2 9292   6.370   5.775   0.980
 3110TIP3   OH2 9293   4.260   4.705   4.827
 3110TIP3    H1 9294   4.293   4.783   4.871
 3110TIP3    H2 9295   4.195   4.739   4.764
 3111TIP3   OH2 9296   3.222   6.713   4.677
 3111TIP3    H1 9297   3.240   6.807   4.688
 3111TIP3    H2 9298   3.142   6.710   4.625
 3112TIP3   OH2 9299   6.824   2.732   1.162
 3112TIP3    H1 9300   6.914   2.763   1.172
 3112TIP3    H2 9301   6.833   2.637   1.152
 3113TIP3   OH2 9302   0.218   1.975   2.732
 3113TIP3    H1 9303   0.310   1.967   2.707
 3113TIP3    H2 9304   0.195   1.890   2.768
 3114TIP3   OH2 9305   7.117   3.456   0.754
 3114TIP3    H1 9306   7.190   3.395   0.758
 3114TIP3    H2 9307   7.088   3.453   0.663
 3115TIP3   OH2 9308   6.082   0.526   1.949
 3115TIP3    H1 9309   6.094   0.563   2.037
 3115TIP3    H2 9310   6.012   0.461   1.960
 3116TIP3   OH2 9311   0.327   2.368   3.057
 3116TIP3    H1 9312   0.236   2.387   3.080
 3116TIP3    H2 9313   0.379   2.427   3.112
 3117TIP3   OH2 9314   5.025   0.974   0.805
 3117TIP3    H1 9315   5.059   0.896   0.761
 3117TIP3    H2 9316   4.990   0.941   0.888
 3118TIP3   OH2 9317   3.945   1.609   0.648
 3118TIP3    H1 9318   4.006   1.676   0.679
 3118TIP3    H2 9319   3.935   1.627   0.554
 3119TIP3   OH2 9320   5.547   2.565   3.972
 3119TIP3    H1 9321   5.588   2.517   4.044
 3119TIP3    H2 9322   5.578   2.521   3.893
 3120TIP3   OH2 9323   5.616   1.032   2.855
 3120TIP3    H1 9324   5.577   1.119   2.841
 3120TIP3    H2 9325   5.615   0.991   2.769
 3121TIP3   OH2 9326   6.797   3.098   4.701
 3121TIP3    H1 9327   6.735   3.171   4.710
 3121TIP3    H2 9328   6.798   3.058   4.787
 3122TIP3   OH2 9329   3.656   3.545   2.180
 3122TIP3    H1 9330   3.700   3.556   2.264
 3122TIP3    H2 9331   3.718   3.497   2.126
 3123TIP3   OH2 9332   5.861   2.970   4.456
 3123TIP3    H1 9333   5.832   3.042   4.513
 3123TIP3    H2 9334   5.827   2.994   4.370
 3124TIP3   OH2 9335   3.343   6.819   1.927
 3124TIP3    H1 9336   3.298   6.824   1.842
 3124TIP3    H2 9337   3.435   6.805   1.905
 3125TIP3   OH2 9338   5.095   0.497   1.308
 3125TIP3    H1 9339   5.082   0.564   1.241
 3125TIP3    H2 9340   5.176   0.453   1.282
 3126TIP3   OH2 9341   3.532   4.556   3.764
 3126TIP3    H1 9342   3.546   4.650   3.755
 3126TIP3    H2 9343   3.567   4.535   3.851
 3127TIP3   OH2 9344   0.888   0.113   1.435
 3127TIP3    H1 9345   0.923   0.194   1.473
 3127TIP3    H2 9346   0.814   0.142   1.382
 3128TIP3   OH2 9347   2.720   3.014   4.930
 3128TIP3    H1 9348   2.794   3.036   4.873
 3128TIP3    H2 9349   2.676   3.097   4.946
 3129TIP3   OH2 9350   5.555   0.120   0.882
 3129TIP3    H1 9351   5.644   0.135   0.848
 3129TIP3    H2 9352   5.498   0.168   0.822
 3130TIP3   OH2 9353   5.187   2.287   4.437
 3130TIP3    H1 9354   5.254   2.221   4.419
 3130TIP3    H2 9355   5.232   2.371   4.428
 3131TIP3   OH2 9356   3.113   5.244   2.442
 3131TIP3    H1 9357   3.119   5.235   2.537
 3131TIP3    H2 9358   3.040   5.189   2.417
 3132TIP3   OH2 9359   1.300   3.931   0.274
 3132TIP3    H1 9360   1.302   3.894   0.186
 3132TIP3    H2 9361   1.383   3.977   0.282
 3133TIP3   OH2 9362   5.564   1.906   5.842
 3133TIP3    H1 9363   5.496   1.841   5.859
 3133TIP3    H2 9364   5.542   1.942   5.756
 3134TIP3   OH2 9365   0.219   6.744   3.163
 3134TIP3    H1 9366   0.168   6.668   3.135
 3134TIP3    H2 9367   0.168   6.820   3.135
 3135TIP3   OH2 9368   1.905   3.910   1.935
 3135TIP3    H1 9369   1.903   3.838   1.998
 3135TIP3    H2 9370   1.871   3.985   1.984
 3136TIP3   OH2 9371   3.747   2.367   2.346
 3136TIP3    H1 9372   3.683   2.437   2.330
 3136TIP3    H2 9373   3.832   2.412   2.343
 3137TIP3   OH2 9374   0.724   5.549   0.897
 3137TIP3    H1 9375   0.677   5.467   0.914
 3137TIP3    H2 9376   0.761   5.574   0.982
 3138TIP3   OH2 9377   6.321   6.022   2.103
 3138TIP3    H1 9378   6.297   5.943   2.054
 3138TIP3    H2 9379   6.372   6.073   2.040
 3139TIP3   OH2 9380   6.493   5.175   4.447
 3139TIP3    H1 9381   6.418   5.124   4.477
 3139TIP3    H2 9382   6.530   5.214   4.526
 3140TIP3   OH2 9383   0.711   1.703   5.383
 3140TIP3    H1 9384   0.802   1.690   5.410
 3140TIP3    H2 9385   0.687   1.787   5.421
 3141TIP3   OH2 9386   1.880   3.366   3.743
 3141TIP3    H1 9387   1.828   3.300   3.788
 3141TIP3    H2 9388   1.842   3.450   3.771
 3142TIP3   OH2 9389   3.681   4.824   5.379
 3142TIP3    H1 9390   3.734   4.882   5.434
 3142TIP3    H2 9391   3.632   4.884   5.322
 3143TIP3   OH2 9392   6.938   2.319   3.096
 3143TIP3    H1 9393   7.001   2.248   3.111
 3143TIP3    H2 9394   6.870   2.279   3.041
 3144TIP3   OH2 9395   4.834   2.453   1.576
 3144TIP3    H1 9396   4.782   2.489   1.505
 3144TIP3    H2 9397   4.787   2.478   1.656
 3145TIP3   OH2 9398   6.215   1.245   2.985
 3145TIP3    H1 9399   6.278   1.267   2.916
 3145TIP3    H2 9400   6.266   1.248   3.066
 3146TIP3   OH2 9401   2.342   4.805   2.068
 3146TIP3    H1 9402   2.316   4.888   2.109
 3146TIP3    H2 9403   2.295   4.804   1.984
 3147TIP3   OH2 9404   1.013   3.671   1.386
 3147TIP3    H1 9405   1.025   3.756   1.342
 3147TIP3    H2 9406   0.980   3.694   1.473
 3148TIP3   OH2 9407   2.119   5.466   4.469
 3148TIP3    H1 9408   2.213   5.480   4.462
 3148TIP3    H2 9409   2.092   5.434   4.383
 3149TIP3   OH2 9410   0.238   2.655   5.036
 3149TIP3    H1 9411   0.182   2.710   4.981
 3149TIP3    H2 9412   0.181   2.630   5.110
 3150TIP3   OH2 9413   5.430   3.549   4.273
 3150TIP3    H1 9414   5.487   3.550   4.350
 3150TIP3    H2 9415   5.486   3.580   4.201
 3151TIP3   OH2 9416   3.171   1.004   4.780
 3151TIP3    H1 9417   3.215   1.037   4.701
 3151TIP3    H2 9418   3.138   0.918   4.755
 3152TIP3   OH2 9419   2.003   6.063   1.139
 3152TIP3    H1 9420   2.079   6.113   1.111
 3152TIP3    H2 9421   2.000   5.988   1.080
 3153TIP3   OH2 9422   3.041   0.470   3.016
 3153TIP3    H1 9423   3.008   0.557   2.995
 3153TIP3    H2 9424   2.965   0.413   3.007
 3154TIP3   OH2 9425   0.853   3.293   2.363
 3154TIP3    H1 9426   0.851   3.201   2.390
 3154TIP3    H2 9427   0.945   3.318   2.372
 3155TIP3   OH2 9428   4.376   1.720   4.716
 3155TIP3    H1 9429   4.327   1.769   4.782
 3155TIP3    H2 9430   4.468   1.735   4.739
 3156TIP3   OH2 9431   5.694   5.177   1.616
 3156TIP3    H1 9432   5.753   5.225   1.675
 3156TIP3    H2 9433   5.750   5.114   1.572
 3157TIP3   OH2 9434   2.194   3.853   1.225
 3157TIP3    H1 9435   2.176   3.923   1.288
 3157TIP3    H2 9436   2.283   3.826   1.245
 3158TIP3   OH2 9437   0.605   2.055   1.794
 3158TIP3    H1 9438   0.610   2.125   1.860
 3158TIP3    H2 9439   0.580   2.100   1.714
 3159TIP3   OH2 9440   2.939   5.434   4.804
 3159TIP3    H1 9441   3.006   5.491   4.842
 3159TIP3    H2 9442   2.954   5.438   4.710
 3160TIP3   OH2 9443   2.571   5.824   1.088
 3160TIP3    H1 9444   2.479   5.842   1.108
 3160TIP3    H2 9445   2.620   5.886   1.142
 3161TIP3   OH2 9446   4.499   4.742   2.406
 3161TIP3    H1 9447   4.492   4.742   2.501
 3161TIP3    H2 9448   4.411   4.762   2.375
 3162TIP3   OH2 9449   6.294   2.141   0.049
 3162TIP3    H1 9450   6.209   2.100   0.032
 3162TIP3    H2 9451   6.282   2.232   0.023
 3163TIP3   OH2 9452   0.000   4.444   4.989
 3163TIP3    H1 9453   0.070   4.383   5.014
 3163TIP3    H2 9454  -0.060   4.444   5.064
 3164TIP3   OH2 9455   1.943   1.683   4.110
 3164TIP3    H1 9456   1.919   1.770   4.141
 3164TIP3    H2 9457   2.024   1.663   4.156
 3165TIP3   OH2 9458   7.040   1.515   5.594
 3165TIP3    H1 9459   7.096   1.533   5.670
 3165TIP3    H2 9460   7.093   1.541   5.518
 3166TIP3   OH2 9461   4.112   4.336   5.294
 3166TIP3    H1 9462   4.132   4.394   5.220
 3166TIP3    H2 9463   4.034   4.373   5.334
 3167TIP3   OH2 9464   2.999   4.846   3.732
 3167TIP3    H1 9465   3.034   4.839   3.821
 3167TIP3    H2 9466   3.030   4.768   3.687
 3168TIP3   OH2 9467   1.150   1.614   2.905
 3168TIP3    H1 9468   1.217   1.638   2.842
 3168TIP3    H2 9469   1.193   1.555   2.966
 3169TIP3   OH2 9470   2.353   4.053   1.768
 3169TIP3    H1 9471   2.396   4.083   1.848
 3169TIP3    H2 9472   2.295   3.982   1.796
 3170TIP3   OH2 9473   0.365   6.354   1.443
 3170TIP3    H1 9474   0.348   6.272   1.396
 3170TIP3    H2 9475   0.364   6.328   1.535
 3171TIP3   OH2 9476   0.259   2.628   2.135
 3171TIP3    H1 9477   0.253   2.701   2.196
 3171TIP3    H2 9478   0.305   2.559   2.183
 3172TIP3   OH2 9479   4.209   4.096   4.217
 3172TIP3    H1 9480   4.160   4.033   4.270
 3172TIP3    H2 9481   4.143   4.156   4.182
 3173TIP3   OH2 9482   3.967   3.092   0.789
 3173TIP3    H1 9483   3.959   2.996   0.787
 3173TIP3    H2 9484   4.018   3.110   0.869
 3174TIP3   OH2 9485   0.676   6.407   3.823
 3174TIP3    H1 9486   0.758   6.436   3.783
 3174TIP3    H2 9487   0.702   6.343   3.889
 3175TIP3   OH2 9488   0.824   0.293   1.040
 3175TIP3    H1 9489   0.773   0.245   1.105
 3175TIP3    H2 9490   0.896   0.332   1.089
 3176TIP3   OH2 9491   1.398   4.457   3.462
 3176TIP3    H1 9492   1.392   4.362   3.461
 3176TIP3    H2 9493   1.377   4.483   3.372
 3177TIP3   OH2 9494   6.841   6.769   2.208
 3177TIP3    H1 9495   6.896   6.844   2.185
 3177TIP3    H2 9496   6.764   6.807   2.250
 3178TIP3   OH2 9497   2.772   6.726   2.283
 3178TIP3    H1 9498   2.688   6.759   2.317
 3178TIP3    H2 9499   2.835   6.795   2.305
 3179TIP3   OH2 9500   0.242   5.205   3.439
 3179TIP3    H1 9501   0.242   5.283   3.384
 3179TIP3    H2 9502   0.334   5.195   3.467
 3180TIP3   OH2 9503   3.475   6.029   1.913
 3180TIP3    H1 9504   3.539   6.079   1.963
 3180TIP3    H2 9505   3.523   5.998   1.836
 3181TIP3   OH2 9506   6.808   4.620   0.480
 3181TIP3    H1 9507   6.793   4.682   0.550
 3181TIP3    H2 9508   6.737   4.636   0.418
 3182TIP3   OH2 9509   0.154   5.858   3.496
 3182TIP3    H1 9510   0.097   5.837   3.570
 3182TIP3    H2 9511   0.118   5.939   3.460
 3183TIP3   OH2 9512   5.154   5.158   4.504
 3183TIP3    H1 9513   5.082   5.152   4.566
 3183TIP3    H2 9514   5.205   5.234   4.533
 3184TIP3   OH2 9515   3.338   4.272   0.106
 3184TIP3    H1 9516   3.398   4.341   0.076
 3184TIP3    H2 9517   3.257   4.319   0.125
 3185TIP3   OH2 9518   5.779   6.401   4.101
 3185TIP3    H1 9519   5.827   6.463   4.046
 3185TIP3    H2 9520   5.718   6.455   4.151
 3186TIP3   OH2 9521   0.292   1.211   3.920
 3186TIP3    H1 9522   0.337   1.223   4.004
 3186TIP3    H2 9523   0.201   1.231   3.939
 3187TIP3   OH2 9524   1.382   4.175   0.878
 3187TIP3    H1 9525   1.454   4.130   0.924
 3187TIP3    H2 9526   1.410   4.178   0.787
 3188TIP3   OH2 9527   6.289   2.037   2.803
 3188TIP3    H1 9528   6.222   2.097   2.837
 3188TIP3    H2 9529   6.264   1.951   2.836
 3189TIP3   OH2 9530   4.410   6.197   3.407
 3189TIP3    H1 9531   4.433   6.236   3.323
 3189TIP3    H2 9532   4.329   6.241   3.432
 3190TIP3   OH2 9533   2.722   4.014   0.616
 3190TIP3    H1 9534   2.682   4.099   0.635
 3190TIP3    H2 9535   2.676   3.983   0.537
 3191TIP3   OH2 9536   3.720   4.630   0.337
 3191TIP3    H1 9537   3.759   4.705   0.382
 3191TIP3    H2 9538   3.732   4.557   0.397
 3192TIP3   OH2 9539   0.364   4.041   2.060
 3192TIP3    H1 9540   0.322   4.123   2.087
 3192TIP3    H2 9541   0.297   3.996   2.008
 3193TIP3   OH2 9542   6.145   2.309   4.799
 3193TIP3    H1 9543   6.132   2.334   4.707
 3193TIP3    H2 9544   6.069   2.345   4.845
 3194TIP3   OH2 9545   5.219   6.146   4.958
 3194TIP3    H1 9546   5.285   6.149   5.028
 3194TIP3    H2 9547   5.270   6.134   4.878
 3195TIP3   OH2 9548   5.034   2.724   3.557
 3195TIP3    H1 9549   5.016   2.771   3.638
 3195TIP3    H2 9550   4.976   2.764   3.493
 3196TIP3   OH2 9551   6.693   0.892   4.867
 3196TIP3    H1 9552   6.744   0.973   4.867
 3196TIP3    H2 9553   6.707   0.853   4.781
 3197TIP3   OH2 9554   3.951   5.033   1.146
 3197TIP3    H1 9555   3.934   4.950   1.190
 3197TIP3    H2 9556   4.001   5.009   1.068
 3198TIP3   OH2 9557   6.621   2.800   4.899
 3198TIP3    H1 9558   6.553   2.778   4.963
 3198TIP3    H2 9559   6.632   2.895   4.909
 3199TIP3   OH2 9560   4.559   3.102   5.151
 3199TIP3    H1 9561   4.508   3.077   5.229
 3199TIP3    H2 9562   4.553   3.026   5.093
 3200TIP3   OH2 9563   4.350   4.713   5.380
 3200TIP3    H1 9564   4.398   4.666   5.312
 3200TIP3    H2 9565   4.258   4.705   5.353
 3201TIP3   OH2 9566   7.004   2.384   3.405
 3201TIP3    H1 9567   7.092   2.357   3.378
 3201TIP3    H2 9568   7.001   2.367   3.499
 3202TIP3   OH2 9569   4.860   5.664   3.144
 3202TIP3    H1 9570   4.902   5.726   3.084
 3202TIP3    H2 9571   4.766   5.683   3.136
 3203TIP3   OH2 9572   6.766   2.977   5.776
 3203TIP3    H1 9573   6.803   3.060   5.746
 3203TIP3    H2 9574   6.785   2.974   5.869
 3204TIP3   OH2 9575   7.098   1.493   2.260
 3204TIP3    H1 9576   7.023   1.435   2.277
 3204TIP3    H2 9577   7.173   1.434   2.256
 3205TIP3   OH2 9578   0.915   3.169   2.118
 3205TIP3    H1 9579   0.863   3.187   2.196
 3205TIP3    H2 9580   0.942   3.078   2.127
 3206TIP3   OH2 9581   4.353   0.101   3.495
 3206TIP3    H1 9582   4.282   0.047   3.530
 3206TIP3    H2 9583   4.370   0.065   3.408
 3207TIP3   OH2 9584   5.978   2.590   0.592
 3207TIP3    H1 9585   5.936   2.599   0.678
 3207TIP3    H2 9586   6.003   2.680   0.568
 3208TIP3   OH2 9587   1.870   2.927   1.110
 3208TIP3    H1 9588   1.935   2.878   1.161
 3208TIP3    H2 9589   1.826   2.982   1.175
 3209TIP3   OH2 9590   1.001   1.131   4.487
 3209TIP3    H1 9591   0.912   1.111   4.456
 3209TIP3    H2 9592   1.016   1.221   4.459
 3210TIP3   OH2 9593   5.167   5.814   5.033
 3210TIP3    H1 9594   5.161   5.743   4.970
 3210TIP3    H2 9595   5.087   5.866   5.018
 3211TIP3   OH2 9596   6.182   5.066   0.164
 3211TIP3    H1 9597   6.127   5.025   0.231
 3211TIP3    H2 9598   6.217   5.145   0.205
 3212TIP3   OH2 9599   1.897   3.982   1.172
 3212TIP3    H1 9600   1.930   3.967   1.083
 3212TIP3    H2 9601   1.815   3.934   1.175
 3213TIP3   OH2 9602   4.367   4.787   1.042
 3213TIP3    H1 9603   4.339   4.789   0.950
 3213TIP3    H2 9604   4.287   4.768   1.091
 3214TIP3   OH2 9605   5.529   0.149   0.275
 3214TIP3    H1 9606   5.487   0.202   0.208
 3214TIP3    H2 9607   5.560   0.212   0.340
 3215TIP3   OH2 9608   7.172   5.830   2.558
 3215TIP3    H1 9609   7.141   5.797   2.473
 3215TIP3    H2 9610   7.241   5.769   2.584
 3216TIP3   OH2 9611   1.611   2.879   1.857
 3216TIP3    H1 9612   1.695   2.834   1.865
 3216TIP3    H2 9613   1.548   2.810   1.837
 3217TIP3   OH2 9614   0.306   0.334   5.193
 3217TIP3    H1 9615   0.309   0.429   5.208
 3217TIP3    H2 9616   0.220   0.307   5.223
 3218TIP3   OH2 9617   3.208   3.774   2.245
 3218TIP3    H1 9618   3.206   3.869   2.232
 3218TIP3    H2 9619   3.300   3.750   2.233
 3219TIP3   OH2 9620   1.322   5.540   3.965
 3219TIP3    H1 9621   1.229   5.563   3.959
 3219TIP3    H2 9622   1.366   5.623   3.986
 3220TIP3   OH2 9623   4.767   6.117   3.898
 3220TIP3    H1 9624   4.835   6.183   3.912
 3220TIP3    H2 9625   4.815   6.039   3.871
 3221TIP3   OH2 9626   3.529   2.007   3.870
 3221TIP3    H1 9627   3.556   2.064   3.798
 3221TIP3    H2 9628   3.492   2.067   3.935
 3222TIP3   OH2 9629   4.259   3.131   1.708
 3222TIP3    H1 9630   4.231   3.208   1.758
 3222TIP3    H2 9631   4.184   3.111   1.652
 3223TIP3   OH2 9632   2.083   5.813   4.439
 3223TIP3    H1 9633   2.133   5.851   4.367
 3223TIP3    H2 9634   2.027   5.747   4.397
 3224TIP3   OH2 9635   3.522   3.856   4.290
 3224TIP3    H1 9636   3.447   3.886   4.238
 3224TIP3    H2 9637   3.521   3.761   4.280
 3225TIP3   OH2 9638   1.816   2.571   3.318
 3225TIP3    H1 9639   1.849   2.572   3.229
 3225TIP3    H2 9640   1.876   2.513   3.365
 3226TIP3   OH2 9641   1.628   3.617   3.711
 3226TIP3    H1 9642   1.712   3.647   3.675
 3226TIP3    H2 9643   1.603   3.687   3.772
 3227TIP3   OH2 9644   3.531   4.192   1.969
 3227TIP3    H1 9645   3.530   4.241   2.052
 3227TIP3    H2 9646   3.615   4.145   1.971
 3228TIP3   OH2 9647   3.848   5.702   4.702
 3228TIP3    H1 9648   3.824   5.732   4.614
 3228TIP3    H2 9649   3.873   5.611   4.690
 3229TIP3   OH2 9650   5.213   4.874   0.515
 3229TIP3    H1 9651   5.185   4.964   0.503
 3229TIP3    H2 9652   5.190   4.853   0.606
 3230TIP3   OH2 9653   6.983   3.989   4.965
 3230TIP3    H1 9654   6.919   3.920   4.977
 3230TIP3    H2 9655   7.062   3.944   4.935
 3231TIP3   OH2 9656   5.336   4.890   4.064
 3231TIP3    H1 9657   5.395   4.817   4.083
 3231TIP3    H2 9658   5.308   4.921   4.150
 3232TIP3   OH2 9659   6.252   1.222   3.715
 3232TIP3    H1 9660   6.257   1.138   3.760
 3232TIP3    H2 9661   6.280   1.286   3.780
 3233TIP3   OH2 9662   4.101   5.267   3.633
 3233TIP3    H1 9663   4.186   5.224   3.619
 3233TIP3    H2 9664   4.121   5.343   3.688
 3234TIP3   OH2 9665   5.137   3.947   3.078
 3234TIP3    H1 9666   5.199   3.943   3.005
 3234TIP3    H2 9667   5.096   3.861   3.080
 3235TIP3   OH2 9668   1.421   5.828   3.986
 3235TIP3    H1 9669   1.508   5.861   4.008
 3235TIP3    H2 9670   1.365   5.905   3.986
 3236TIP3   OH2 9671   1.659   3.225   2.069
 3236TIP3    H1 9672   1.623   3.287   2.005
 3236TIP3    H2 9673   1.619   3.251   2.152
 3237TIP3   OH2 9674   5.997   6.340   2.580
 3237TIP3    H1 9675   6.023   6.250   2.560
 3237TIP3    H2 9676   5.967   6.336   2.671
 3238TIP3   OH2 9677   2.134   5.082   0.279
 3238TIP3    H1 9678   2.105   5.153   0.336
 3238TIP3    H2 9679   2.053   5.042   0.247
 3239TIP3   OH2 9680   4.202   1.741   0.781
 3239TIP3    H1 9681   4.265   1.679   0.743
 3239TIP3    H2 9682   4.223   1.825   0.740
 3240TIP3   OH2 9683   1.681   1.208   3.930
 3240TIP3    H1 9684   1.718   1.224   4.017
 3240TIP3    H2 9685   1.744   1.247   3.869
 3241TIP3   OH2 9686   3.282   4.035   4.256
 3241TIP3    H1 9687   3.274   4.002   4.346
 3241TIP3    H2 9688   3.205   4.090   4.244
 3242TIP3   OH2 9689   5.191   6.110   0.146
 3242TIP3    H1 9690   5.135   6.036   0.168
 3242TIP3    H2 9691   5.206   6.155   0.229
 3243TIP3   OH2 9692   2.393   5.897   0.021
 3243TIP3    H1 9693   2.404   5.945  -0.061
 3243TIP3    H2 9694   2.431   5.811   0.003
 3244TIP3   OH2 9695   0.852   5.817   3.623
 3244TIP3    H1 9696   0.882   5.740   3.574
 3244TIP3    H2 9697   0.907   5.889   3.592
 3245TIP3   OH2 9698   3.945   0.272   4.346
 3245TIP3    H1 9699   3.939   0.336   4.417
 3245TIP3    H2 9700   3.861   0.277   4.302
 3246TIP3   OH2 9701   4.576   5.232   5.197
 3246TIP3    H1 9702   4.630   5.276   5.130
 3246TIP3    H2 9703   4.561   5.145   5.160
 3247TIP3   OH2 9704   5.342   3.488   5.249
 3247TIP3    H1 9705   5.414   3.449   5.298
 3247TIP3    H2 9706   5.367   3.477   5.157
 3248TIP3   OH2 9707   6.456   4.938   3.853
 3248TIP3    H1 9708   6.526   4.879   3.824
 3248TIP3    H2 9709   6.467   5.017   3.800
 3249TIP3   OH2 9710   4.993   3.277   2.169
 3249TIP3    H1 9711   4.920   3.337   2.183
 3249TIP3    H2 9712   4.970   3.199   2.220
 3250TIP3   OH2 9713   2.590   3.600   4.081
 3250TIP3    H1 9714   2.582   3.637   4.169
 3250TIP3    H2 9715   2.664   3.646   4.041
 3251TIP3   OH2 9716   1.571   1.711   0.108
 3251TIP3    H1 9717   1.522   1.637   0.146
 3251TIP3    H2 9718   1.558   1.701   0.014
 3252TIP3   OH2 9719   1.623   4.998   2.656
 3252TIP3    H1 9720   1.704   5.046   2.671
 3252TIP3    H2 9721   1.631   4.965   2.566
 3253TIP3   OH2 9722   0.879   6.145   0.574
 3253TIP3    H1 9723   0.869   6.205   0.501
 3253TIP3    H2 9724   0.792   6.140   0.614
 3254TIP3   OH2 9725   1.900   4.463   4.319
 3254TIP3    H1 9726   1.930   4.420   4.239
 3254TIP3    H2 9727   1.873   4.392   4.376
 3255TIP3   OH2 9728   6.634   3.981   5.058
 3255TIP3    H1 9729   6.548   3.967   5.097
 3255TIP3    H2 9730   6.678   3.897   5.064
 3256TIP3   OH2 9731   3.244   2.684   3.998
 3256TIP3    H1 9732   3.191   2.648   4.070
 3256TIP3    H2 9733   3.329   2.702   4.038
 3257TIP3   OH2 9734   2.363   3.177   4.735
 3257TIP3    H1 9735   2.443   3.201   4.688
 3257TIP3    H2 9736   2.348   3.249   4.796
 3258TIP3   OH2 9737   5.632   6.531   4.685
 3258TIP3    H1 9738   5.672   6.462   4.633
 3258TIP3    H2 9739   5.695   6.603   4.684
 3259TIP3   OH2 9740   4.847   0.913   5.652
 3259TIP3    H1 9741   4.773   0.949   5.700
 3259TIP3    H2 9742   4.889   0.854   5.715
 3260TIP3   OH2 9743   7.185   1.349   1.754
 3260TIP3    H1 9744   7.156   1.428   1.801
 3260TIP3    H2 9745   7.263   1.321   1.802
 3261TIP3   OH2 9746   1.251   0.738   0.273
 3261TIP3    H1 9747   1.161   0.759   0.249
 3261TIP3    H2 9748   1.294   0.823   0.281
 3262TIP3   OH2 9749   4.371   4.088   5.258
 3262TIP3    H1 9750   4.405   4.151   5.321
 3262TIP3    H2 9751   4.423   4.009   5.272
 3263TIP3   OH2 9752   5.578   6.677   4.039
 3263TIP3    H1 9753   5.588   6.683   3.944
 3263TIP3    H2 9754   5.643   6.739   4.073
 3264TIP3   OH2 9755   3.150   4.018   5.150
 3264TIP3    H1 9756   3.075   4.045   5.203
 3264TIP3    H2 9757   3.159   4.087   5.084
 3265TIP3   OH2 9758   3.743   3.148   1.067
 3265TIP3    H1 9759   3.666   3.132   1.011
 3265TIP3    H2 9760   3.732   3.238   1.097
 3266TIP3   OH2 9761   2.865   5.044   1.571
 3266TIP3    H1 9762   2.838   4.959   1.605
 3266TIP3    H2 9763   2.837   5.043   1.479
 3267TIP3   OH2 9764   6.809   2.675   0.315
 3267TIP3    H1 9765   6.759   2.670   0.396
 3267TIP3    H2 9766   6.822   2.583   0.289
 3268TIP3   OH2 9767   6.609   4.149   4.284
 3268TIP3    H1 9768   6.558   4.088   4.230
 3268TIP3    H2 9769   6.691   4.162   4.236
 3269TIP3   OH2 9770   0.487   0.256   5.411
 3269TIP3    H1 9771   0.420   0.278   5.347
 3269TIP3    H2 9772   0.559   0.317   5.393
 3270TIP3   OH2 9773   3.594   5.878   3.641
 3270TIP3    H1 9774   3.687   5.858   3.654
 3270TIP3    H2 9775   3.563   5.808   3.583
 3271TIP3   OH2 9776   6.586   4.250   3.185
 3271TIP3    H1 9777   6.662   4.288   3.141
 3271TIP3    H2 9778   6.604   4.263   3.278
 3272TIP3   OH2 9779   3.266   2.978   4.926
 3272TIP3    H1 9780   3.207   2.902   4.926
 3272TIP3    H2 9781   3.244   3.026   4.846
 3273TIP3   OH2 9782   1.816   4.696   0.744
 3273TIP3    H1 9783   1.893   4.688   0.799
 3273TIP3    H2 9784   1.847   4.735   0.663
 3274TIP3   OH2 9785   3.629   0.092   2.498
 3274TIP3    H1 9786   3.612   0.176   2.541
 3274TIP3    H2 9787   3.708   0.107   2.447
 3275TIP3   OH2 9788   0.934   5.392   1.684
 3275TIP3    H1 9789   0.990   5.348   1.620
 3275TIP3    H2 9790   0.938   5.336   1.761
 3276TIP3   OH2 9791   2.468   1.236   4.798
 3276TIP3    H1 9792   2.400   1.171   4.778
 3276TIP3    H2 9793   2.548   1.185   4.809
 3277TIP3   OH2 9794   2.881   0.349   0.925
 3277TIP3    H1 9795   2.878   0.265   0.971
 3277TIP3    H2 9796   2.789   0.369   0.907
 3278TIP3   OH2 9797   6.813   2.428   0.155
 3278TIP3    H1 9798   6.768   2.347   0.130
 3278TIP3    H2 9799   6.905   2.413   0.133
 3279TIP3   OH2 9800   2.547   5.542   1.215
 3279TIP3    H1 9801   2.478   5.550   1.149
 3279TIP3    H2 9802   2.609   5.611   1.193
 3280TIP3   OH2 9803   1.110   2.855   3.654
 3280TIP3    H1 9804   1.074   2.936   3.618
 3280TIP3    H2 9805   1.060   2.840   3.734
 3281TIP3   OH2 9806   5.286   6.312   4.004
 3281TIP3    H1 9807   5.336   6.393   4.016
 3281TIP3    H2 9808   5.344   6.256   3.952
 3282TIP3   OH2 9809   0.667   1.779   3.672
 3282TIP3    H1 9810   0.599   1.800   3.608
 3282TIP3    H2 9811   0.663   1.683   3.680
 3283TIP3   OH2 9812   6.485   4.147   4.802
 3283TIP3    H1 9813   6.473   4.144   4.707
 3283TIP3    H2 9814   6.580   4.141   4.814
 3284TIP3   OH2 9815   2.574   6.202   3.863
 3284TIP3    H1 9816   2.620   6.286   3.865
 3284TIP3    H2 9817   2.589   6.169   3.775
 3285TIP3   OH2 9818   4.221   5.386   5.059
 3285TIP3    H1 9819   4.262   5.438   5.128
 3285TIP3    H2 9820   4.291   5.370   4.996
 3286TIP3   OH2 9821   2.212   3.571   2.292
 3286TIP3    H1 9822   2.281   3.606   2.348
 3286TIP3    H2 9823   2.138   3.556   2.351
 3287TIP3   OH2 9824   1.761   5.015   1.963
 3287TIP3    H1 9825   1.680   5.029   1.915
 3287TIP3    H2 9826   1.811   4.953   1.909
 3288TIP3   OH2 9827   1.320   4.868   2.529
 3288TIP3    H1 9828   1.377   4.820   2.589
 3288TIP3    H2 9829   1.366   4.865   2.445
 3289TIP3   OH2 9830   0.062   6.070   5.420
 3289TIP3    H1 9831   0.070   5.979   5.390
 3289TIP3    H2 9832   0.133   6.081   5.483
 3290TIP3   OH2 9833   0.908   3.771   4.869
 3290TIP3    H1 9834   0.933   3.737   4.954
 3290TIP3    H2 9835   0.825   3.816   4.884
 3291TIP3   OH2 9836   3.073   2.468   3.804
 3291TIP3    H1 9837   3.062   2.560   3.778
 3291TIP3    H2 9838   3.082   2.420   3.722
 3292TIP3   OH2 9839   0.892   0.226   5.483
 3292TIP3    H1 9840   0.832   0.294   5.454
 3292TIP3    H2 9841   0.842   0.145   5.476
 3293TIP3   OH2 9842   0.111   1.947   5.379
 3293TIP3    H1 9843   0.134   2.039   5.385
 3293TIP3    H2 9844   0.020   1.946   5.350
 3294TIP3   OH2 9845   2.561   4.430   2.841
 3294TIP3    H1 9846   2.592   4.520   2.827
 3294TIP3    H2 9847   2.499   4.415   2.770
 3295TIP3   OH2 9848   5.474   3.056   0.599
 3295TIP3    H1 9849   5.407   2.996   0.634
 3295TIP3    H2 9850   5.546   2.998   0.573
 3296TIP3   OH2 9851   7.200   4.667   1.733
 3296TIP3    H1 9852   7.168   4.717   1.658
 3296TIP3    H2 9853   7.123   4.621   1.766
 3297TIP3   OH2 9854   5.364   0.442   1.247
 3297TIP3    H1 9855   5.395   0.389   1.320
 3297TIP3    H2 9856   5.443   0.461   1.196
 3298TIP3   OH2 9857   4.594   2.736   5.898
 3298TIP3    H1 9858   4.572   2.752   5.807
 3298TIP3    H2 9859   4.623   2.821   5.931
 3299TIP3   OH2 9860   0.556   3.849   2.728
 3299TIP3    H1 9861   0.521   3.785   2.666
 3299TIP3    H2 9862   0.585   3.796   2.803
 3300TIP3   OH2 9863   2.717   1.768   4.568
 3300TIP3    H1 9864   2.678   1.739   4.485
 3300TIP3    H2 9865   2.805   1.733   4.566
 3301TIP3   OH2 9866   0.185   3.800   2.000
 3301TIP3    H1 9867   0.147   3.712   1.996
 3301TIP3    H2 9868   0.115   3.854   2.036
 3302TIP3   OH2 9869   5.749   5.459   0.311
 3302TIP3    H1 9870   5.809   5.395   0.273
 3302TIP3    H2 9871   5.680   5.406   0.352
 3303TIP3   OH2 9872   1.416   0.355   5.123
 3303TIP3    H1 9873   1.494   0.371   5.069
 3303TIP3    H2 9874   1.452   0.334   5.209
 3304TIP3   OH2 9875   6.711   0.505   0.611
 3304TIP3    H1 9876   6.702   0.477   0.702
 3304TIP3    H2 9877   6.726   0.600   0.616
 3305TIP3   OH2 9878   7.042   1.831   1.604
 3305TIP3    H1 9879   7.028   1.922   1.633
 3305TIP3    H2 9880   6.981   1.780   1.657
 3306TIP3   OH2 9881   6.660   4.587   5.687
 3306TIP3    H1 9882   6.643   4.582   5.593
 3306TIP3    H2 9883   6.718   4.514   5.705
 3307TIP3   OH2 9884   1.921   2.398   2.660
 3307TIP3    H1 9885   1.995   2.422   2.716
 3307TIP3    H2 9886   1.920   2.302   2.661
 3308TIP3   OH2 9887   5.831   6.724   1.132
 3308TIP3    H1 9888   5.840   6.673   1.052
 3308TIP3    H2 9889   5.835   6.815   1.103
 3309TIP3   OH2 9890   1.722   1.127   0.834
 3309TIP3    H1 9891   1.636   1.121   0.793
 3309TIP3    H2 9892   1.707   1.104   0.926
 3310TIP3   OH2 9893   6.229   5.864   3.567
 3310TIP3    H1 9894   6.252   5.955   3.550
 3310TIP3    H2 9895   6.252   5.851   3.659
 3311TIP3   OH2 9896   5.150   3.518   2.706
 3311TIP3    H1 9897   5.212   3.519   2.633
 3311TIP3    H2 9898   5.182   3.450   2.764
 3312TIP3   OH2 9899   2.542   3.002   0.748
 3312TIP3    H1 9900   2.615   3.030   0.804
 3312TIP3    H2 9901   2.471   3.063   0.770
 3313TIP3   OH2 9902   5.371   6.207   4.703
 3313TIP3    H1 9903   5.325   6.188   4.622
 3313TIP3    H2 9904   5.439   6.140   4.708
 3314TIP3   OH2 9905   5.933   3.035   2.289
 3314TIP3    H1 9906   5.863   3.000   2.233
 3314TIP3    H2 9907   5.917   3.129   2.291
 3315TIP3   OH2 9908   5.182   3.425   3.349
 3315TIP3    H1 9909   5.105   3.455   3.397
 3315TIP3    H2 9910   5.240   3.388   3.416
 3316TIP3   OH2 9911   4.894   3.885   2.361
 3316TIP3    H1 9912   4.950   3.963   2.361
 3316TIP3    H2 9913   4.830   3.903   2.292
 3317TIP3   OH2 9914   0.025   1.468   1.293
 3317TIP3    H1 9915   0.092   1.464   1.224
 3317TIP3    H2 9916  -0.016   1.554   1.281
 3318TIP3   OH2 9917   4.335   0.578   1.060
 3318TIP3    H1 9918   4.340   0.529   1.142
 3318TIP3    H2 9919   4.407   0.543   1.007
 3319TIP3   OH2 9920   1.521   4.008   2.211
 3319TIP3    H1 9921   1.475   3.941   2.161
 3319TIP3    H2 9922   1.578   4.051   2.147
 3320TIP3   OH2 9923   3.209   4.046   2.228
 3320TIP3    H1 9924   3.200   4.123   2.172
 3320TIP3    H2 9925   3.219   4.082   2.316
 3321TIP3   OH2 9926   2.547   4.026   3.125
 3321TIP3    H1 9927   2.474   4.017   3.185
 3321TIP3    H2 9928   2.568   4.120   3.125
 3322TIP3   OH2 9929   4.918   6.728   2.528
 3322TIP3    H1 9930   5.009   6.703   2.513
 3322TIP3    H2 9931   4.881   6.735   2.439
 3323TIP3   OH2 9932   0.220   2.414   2.477
 3323TIP3    H1 9933   0.169   2.461   2.544
 3323TIP3    H2 9934   0.237   2.328   2.515
 3324TIP3   OH2 9935   1.244   6.308   0.635
 3324TIP3    H1 9936   1.258   6.399   0.662
 3324TIP3    H2 9937   1.225   6.262   0.717
 3325TIP3   OH2 9938   0.308   5.793   5.241
 3325TIP3    H1 9939   0.377   5.749   5.290
 3325TIP3    H2 9940   0.353   5.861   5.191
 3326TIP3   OH2 9941   1.373   0.697   0.989
 3326TIP3    H1 9942   1.467   0.687   0.978
 3326TIP3    H2 9943   1.345   0.744   0.910
 3327TIP3   OH2 9944   3.889   0.126   1.206
 3327TIP3    H1 9945   3.877   0.151   1.298
 3327TIP3    H2 9946   3.835   0.048   1.195
 3328TIP3   OH2 9947   2.525   5.196   0.551
 3328TIP3    H1 9948   2.574   5.114   0.543
 3328TIP3    H2 9949   2.590   5.259   0.584
 3329TIP3   OH2 9950   4.390   1.616   0.643
 3329TIP3    H1 9951   4.352   1.539   0.684
 3329TIP3    H2 9952   4.484   1.599   0.643
 3330TIP3   OH2 9953   5.541   5.683   0.595
 3330TIP3    H1 9954   5.609   5.719   0.538
 3330TIP3    H2 9955   5.464   5.738   0.579
 3331TIP3   OH2 9956   6.221   4.355   2.208
 3331TIP3    H1 9957   6.305   4.359   2.253
 3331TIP3    H2 9958   6.226   4.275   2.155
 3332TIP3   OH2 9959   4.627   0.667   3.452
 3332TIP3    H1 9960   4.599   0.639   3.365
 3332TIP3    H2 9961   4.723   0.667   3.446
 3333TIP3   OH2 9962   5.839   4.365   1.452
 3333TIP3    H1 9963   5.897   4.305   1.500
 3333TIP3    H2 9964   5.881   4.374   1.366
 3334TIP3   OH2 9965   6.538   5.288   5.404
 3334TIP3    H1 9966   6.454   5.264   5.444
 3334TIP3    H2 9967   6.556   5.218   5.342
 3335TIP3   OH2 9968   6.167   5.448   3.656
 3335TIP3    H1 9969   6.199   5.416   3.572
 3335TIP3    H2 9970   6.121   5.373   3.694
 3336TIP3   OH2 9971   7.202   6.449   2.231
 3336TIP3    H1 9972   7.177   6.529   2.278
 3336TIP3    H2 9973   7.119   6.413   2.200
 3337TIP3   OH2 9974   0.665   2.564   0.168
 3337TIP3    H1 9975   0.717   2.549   0.089
 3337TIP3    H2 9976   0.654   2.477   0.206
 3338TIP3   OH2 9977   5.374   2.539   3.415
 3338TIP3    H1 9978   5.395   2.632   3.412
 3338TIP3    H2 9979   5.349   2.517   3.325
 3339TIP3   OH2 9980   0.740   6.173   3.985
 3339TIP3    H1 9981   0.666   6.132   3.940
 3339TIP3    H2 9982   0.704   6.200   4.070
 3340TIP3   OH2 9983   5.551   4.734   4.164
 3340TIP3    H1 9984   5.536   4.640   4.177
 3340TIP3    H2 9985   5.526   4.773   4.247
 3341TIP3   OH2 9986   2.512   2.474   0.639
 3341TIP3    H1 9987   2.541   2.563   0.654
 3341TIP3    H2 9988   2.492   2.440   0.727
 3342TIP3   OH2 9989   6.577   5.812   1.204
 3342TIP3    H1 9990   6.483   5.829   1.219
 3342TIP3    H2 9991   6.618   5.838   1.286
 3343TIP3   OH2 9992   3.464   0.946   0.742
 3343TIP3    H1 9993   3.387   0.935   0.686
 3343TIP3    H2 9994   3.509   0.862   0.737
 3344TIP3   OH2 9995   4.975   3.516   2.996
 3344TIP3    H1 9996   4.983   3.578   2.924
 3344TIP3    H2 9997   4.881   3.499   3.004
 3345TIP3   OH2 9998   1.082   1.664   1.101
 3345TIP3    H1 9999   1.015   1.726   1.130
 3345TIP3    H210000   1.159   1.687   1.152
 3346TIP3   OH210001   6.707   4.871   1.791
 3346TIP3    H110002   6.767   4.879   1.717
 3346TIP3    H210003   6.694   4.960   1.822
 3347TIP3   OH210004   1.572   6.017   3.529
 3347TIP3    H110005   1.628   5.978   3.461
 3347TIP3    H210006   1.550   5.944   3.587
 3348TIP3   OH210007   6.487   3.959   4.146
 3348TIP3    H110008   6.413   3.906   4.116
 3348TIP3    H210009   6.564   3.905   4.126
 3349TIP3   OH210010   0.844   5.204   3.867
 3349TIP3    H110011   0.931   5.236   3.841
 3349TIP3    H210012   0.858   5.162   3.952
 3350TIP3   OH210013   0.643   5.165   4.653
 3350TIP3    H110014   0.613   5.074   4.647
 3350TIP3    H210015   0.565   5.217   4.631
 3351TIP3   OH210016   4.933   0.878   0.090
 3351TIP3    H110017   4.977   0.963   0.080
 3351TIP3    H210018   4.892   0.862   0.005
 3352TIP3   OH210019   7.171   2.497   4.034
 3352TIP3    H110020   7.264   2.519   4.033
 3352TIP3    H210021   7.165   2.414   4.081
 3353TIP3   OH210022   5.308   2.804   3.423
 3353TIP3    H110023   5.256   2.762   3.491
 3353TIP3    H210024   5.244   2.849   3.368
 3354TIP3   OH210025   0.400   1.597   5.281
 3354TIP3    H110026   0.430   1.534   5.346
 3354TIP3    H210027   0.402   1.681   5.326
 3355TIP3   OH210028   2.980   3.775   5.875
 3355TIP3    H110029   3.057   3.801   5.925
 3355TIP3    H210030   3.016   3.736   5.795
 3356TIP3   OH210031   3.984   1.417   2.382
 3356TIP3    H110032   3.904   1.391   2.337
 3356TIP3    H210033   3.970   1.510   2.402
 3357TIP3   OH210034   4.529   4.640   5.558
 3357TIP3    H110035   4.532   4.694   5.636
 3357TIP3    H210036   4.462   4.680   5.503
 3358TIP3   OH210037   4.763   5.017   0.845
 3358TIP3    H110038   4.810   4.947   0.889
 3358TIP3    H210039   4.819   5.040   0.771
 3359TIP3   OH210040   5.472   3.613   3.690
 3359TIP3    H110041   5.563   3.639   3.705
 3359TIP3    H210042   5.458   3.627   3.597
 3360TIP3   OH210043   0.552   2.483   1.190
 3360TIP3    H110044   0.526   2.445   1.274
 3360TIP3    H210045   0.620   2.546   1.212
 3361TIP3   OH210046   6.218   3.900   3.538
 3361TIP3    H110047   6.235   3.895   3.444
 3361TIP3    H210048   6.133   3.944   3.545
 3362TIP3   OH210049   7.288   3.884   1.197
 3362TIP3    H110050   7.266   3.820   1.265
 3362TIP3    H210051   7.230   3.863   1.124
 3363TIP3   OH210052   6.642   1.815   0.254
 3363TIP3    H110053   6.548   1.795   0.257
 3363TIP3    H210054   6.665   1.805   0.162
 3364TIP3   OH210055   0.746   2.982   5.216
 3364TIP3    H110056   0.680   2.955   5.152
 3364TIP3    H210057   0.783   3.062   5.180
 3365TIP3   OH210058   1.690   4.354   4.089
 3365TIP3    H110059   1.637   4.433   4.090
 3365TIP3    H210060   1.769   4.380   4.041
 3366TIP3   OH210061   2.520   2.045   4.815
 3366TIP3    H110062   2.533   2.068   4.907
 3366TIP3    H210063   2.459   2.111   4.782
 3367TIP3   OH210064   5.215   5.084   3.680
 3367TIP3    H110065   5.273   5.034   3.737
 3367TIP3    H210066   5.248   5.174   3.686
 3368TIP3   OH210067   2.456   6.088   5.265
 3368TIP3    H110068   2.385   6.099   5.328
 3368TIP3    H210069   2.499   6.173   5.261
 3369TIP3   OH210070   1.006   1.199   2.343
 3369TIP3    H110071   1.061   1.158   2.410
 3369TIP3    H210072   0.926   1.224   2.388
 3370TIP3   OH210073   5.983   6.126   0.454
 3370TIP3    H110074   5.906   6.077   0.424
 3370TIP3    H210075   6.038   6.133   0.375
 3371TIP3   OH210076   0.081   2.677   0.327
 3371TIP3    H110077  -0.003   2.685   0.372
 3371TIP3    H210078   0.089   2.583   0.308
 3372TIP3   OH210079   6.287   5.779   0.645
 3372TIP3    H110080   6.211   5.823   0.607
 3372TIP3    H210081   6.288   5.807   0.736
 3373TIP3   OH210082   4.175   5.306   3.997
 3373TIP3    H110083   4.115   5.334   4.067
 3373TIP3    H210084   4.229   5.383   3.979
 3374TIP3   OH210085   4.092   1.391   0.617
 3374TIP3    H110086   4.037   1.469   0.612
 3374TIP3    H210087   4.149   1.397   0.541
 3375TIP3   OH210088   4.331   3.257   1.191
 3375TIP3    H110089   4.311   3.235   1.282
 3375TIP3    H210090   4.427   3.250   1.185
 3376TIP3   OH210091   0.410   3.384   3.544
 3376TIP3    H110092   0.337   3.342   3.498
 3376TIP3    H210093   0.488   3.341   3.510
 3377TIP3   OH210094   2.667   2.450   1.370
 3377TIP3    H110095   2.579   2.413   1.362
 3377TIP3    H210096   2.653   2.544   1.380
 3378TIP3   OH210097   3.366   2.804   5.850
 3378TIP3    H110098   3.367   2.713   5.880
 3378TIP3    H210099   3.343   2.855   5.928
 3379TIP3   OH210100   1.810   0.838   1.110
 3379TIP3    H110101   1.738   0.890   1.147
 3379TIP3    H210102   1.771   0.795   1.034
 3380TIP3   OH210103   1.979   0.710   4.504
 3380TIP3    H110104   2.071   0.723   4.482
 3380TIP3    H210105   1.976   0.717   4.600
 3381TIP3   OH210106   6.494   3.831   4.495
 3381TIP3    H110107   6.470   3.753   4.444
 3381TIP3    H210108   6.519   3.797   4.581
 3382TIP3   OH210109   1.985   1.373   2.017
 3382TIP3    H110110   1.941   1.448   2.056
 3382TIP3    H210111   2.034   1.334   2.089
 3383TIP3   OH210112   2.193   6.055   2.851
 3383TIP3    H110113   2.148   6.110   2.787
 3383TIP3    H210114   2.204   5.971   2.807
 3384TIP3   OH210115   7.118   0.334   1.451
 3384TIP3    H110116   7.024   0.328   1.438
 3384TIP3    H210117   7.129   0.336   1.546
 3385TIP3   OH210118   0.236   4.945   5.239
 3385TIP3    H110119   0.225   4.915   5.149
 3385TIP3    H210120   0.278   4.872   5.284
 3386TIP3   OH210121   6.554   3.569   0.548
 3386TIP3    H110122   6.499   3.522   0.611
 3386TIP3    H210123   6.525   3.661   0.555
 3387TIP3   OH210124   5.685   6.080   3.647
 3387TIP3    H110125   5.601   6.125   3.661
 3387TIP3    H210126   5.748   6.130   3.700
 3388TIP3   OH210127   4.729   0.307   4.151
 3388TIP3    H110128   4.738   0.320   4.056
 3388TIP3    H210129   4.671   0.232   4.159
 3389TIP3   OH210130   0.579   0.262   5.107
 3389TIP3    H110131   0.576   0.271   5.012
 3389TIP3    H210132   0.491   0.286   5.136
 3390TIP3   OH210133   6.268   3.277   5.621
 3390TIP3    H110134   6.347   3.227   5.640
 3390TIP3    H210135   6.298   3.352   5.571
 3391TIP3   OH210136   6.902   5.027   4.423
 3391TIP3    H110137   6.826   5.039   4.366
 3391TIP3    H210138   6.919   5.115   4.458
 3392TIP3   OH210139   0.833   0.498   0.241
 3392TIP3    H110140   0.868   0.451   0.317
 3392TIP3    H210141   0.757   0.545   0.275
 3393TIP3   OH210142   2.956   5.889   5.037
 3393TIP3    H110143   3.019   5.916   5.105
 3393TIP3    H210144   2.872   5.924   5.067
 3394TIP3   OH210145   0.173   1.819   3.158
 3394TIP3    H110146   0.267   1.832   3.163
 3394TIP3    H210147   0.162   1.733   3.116
 3395TIP3   OH210148   4.711   6.765   4.928
 3395TIP3    H110149   4.765   6.724   4.860
 3395TIP3    H210150   4.747   6.733   5.010
 3396TIP3   OH210151   6.705   4.535   3.942
 3396TIP3    H110152   6.646   4.462   3.959
 3396TIP3    H210153   6.717   4.578   4.027
 3397TIP3   OH210154   5.962   5.944   1.228
 3397TIP3    H110155   5.894   5.971   1.289
 3397TIP3    H210156   6.019   5.887   1.280
 3398TIP3   OH210157   3.087   0.144   3.759
 3398TIP3    H110158   3.040   0.183   3.685
 3398TIP3    H210159   3.054   0.054   3.762
 3399TIP3   OH210160   3.714   1.405   2.622
 3399TIP3    H110161   3.803   1.393   2.656
 3399TIP3    H210162   3.710   1.497   2.597
 3400TIP3   OH210163   3.240   1.645   2.687
 3400TIP3    H110164   3.229   1.738   2.706
 3400TIP3    H210165   3.279   1.608   2.766
 3401TIP3   OH210166   2.742   2.403   0.521
 3401TIP3    H110167   2.659   2.423   0.565
 3401TIP3    H210168   2.787   2.487   0.514
 3402TIP3   OH210169   3.125   6.647   2.598
 3402TIP3    H110170   3.046   6.605   2.565
 3402TIP3    H210171   3.194   6.620   2.537
 3403TIP3   OH210172   6.220   0.454   5.518
 3403TIP3    H110173   6.187   0.429   5.431
 3403TIP3    H210174   6.315   0.464   5.505
 3404TIP3   OH210175   5.172   6.729   0.305
 3404TIP3    H110176   5.235   6.723   0.376
 3404TIP3    H210177   5.119   6.650   0.313
 3405TIP3   OH210178   2.987   4.677   1.918
 3405TIP3    H110179   3.044   4.616   1.870
 3405TIP3    H210180   2.904   4.630   1.927
 3406TIP3   OH210181   1.720   5.855   3.372
 3406TIP3    H110182   1.810   5.829   3.394
 3406TIP3    H210183   1.683   5.778   3.328
 3407TIP3   OH210184   0.109   4.413   3.777
 3407TIP3    H110185   0.166   4.489   3.788
 3407TIP3    H210186   0.151   4.361   3.708
 3408TIP3   OH210187   6.613   3.721   1.847
 3408TIP3    H110188   6.567   3.752   1.768
 3408TIP3    H210189   6.601   3.791   1.910
 3409TIP3   OH210190   4.055   0.954   5.342
 3409TIP3    H110191   3.978   0.904   5.316
 3409TIP3    H210192   4.102   0.971   5.261
 3410TIP3   OH210193   3.999   1.622   4.016
 3410TIP3    H110194   4.033   1.586   4.098
 3410TIP3    H210195   3.956   1.548   3.974
 3411TIP3   OH210196   1.449   6.665   0.936
 3411TIP3    H110197   1.367   6.626   0.906
 3411TIP3    H210198   1.465   6.737   0.875
 3412TIP3   OH210199   6.068   1.012   2.266
 3412TIP3    H110200   5.994   1.018   2.325
 3412TIP3    H210201   6.037   1.049   2.184
 3413TIP3   OH210202   1.139   0.751   1.120
 3413TIP3    H110203   1.222   0.760   1.074
 3413TIP3    H210204   1.122   0.657   1.121
 3414TIP3   OH210205   7.065   2.854   1.397
 3414TIP3    H110206   7.120   2.867   1.320
 3414TIP3    H210207   7.068   2.759   1.412
 3415TIP3   OH210208   3.114   5.829   4.334
 3415TIP3    H110209   3.107   5.735   4.347
 3415TIP3    H210210   3.175   5.839   4.260
 3416TIP3   OH210211   7.048   3.229   4.922
 3416TIP3    H110212   7.089   3.215   5.008
 3416TIP3    H210213   6.983   3.159   4.915
 3417TIP3   OH210214   5.865   6.027   2.102
 3417TIP3    H110215   5.936   6.035   2.165
 3417TIP3    H210216   5.790   5.997   2.154
 3418TIP3   OH210217   1.888   4.004   0.874
 3418TIP3    H110218   1.915   4.050   0.795
 3418TIP3    H210219   1.845   3.925   0.842
 3419TIP3   OH210220   6.787   2.640   2.181
 3419TIP3    H110221   6.694   2.620   2.170
 3419TIP3    H210222   6.812   2.596   2.262
 3420TIP3   OH210223   7.119   6.804   4.321
 3420TIP3    H110224   7.129   6.709   4.327
 3420TIP3    H210225   7.097   6.819   4.229
 3421TIP3   OH210226   6.422   0.662   3.180
 3421TIP3    H110227   6.355   0.594   3.174
 3421TIP3    H210228   6.373   0.741   3.204
 3422TIP3   OH210229   4.785   5.360   5.072
 3422TIP3    H110230   4.837   5.361   5.153
 3422TIP3    H210231   4.847   5.384   5.004
 3423TIP3   OH210232   1.505   0.452   2.344
 3423TIP3    H110233   1.565   0.379   2.332
 3423TIP3    H210234   1.427   0.429   2.293
 3424TIP3   OH210235   0.158   4.125   0.785
 3424TIP3    H110236   0.191   4.043   0.821
 3424TIP3    H210237   0.112   4.099   0.705
 3425TIP3   OH210238   3.682   2.298   4.102
 3425TIP3    H110239   3.739   2.222   4.111
 3425TIP3    H210240   3.594   2.262   4.090
 3426TIP3   OH210241   4.661   2.162   5.838
 3426TIP3    H110242   4.641   2.069   5.852
 3426TIP3    H210243   4.610   2.207   5.905
 3427TIP3   OH210244   6.062   4.686   2.905
 3427TIP3    H110245   6.113   4.757   2.866
 3427TIP3    H210246   6.060   4.618   2.838
 3428TIP3   OH210247   4.098   4.782   3.671
 3428TIP3    H110248   4.135   4.702   3.635
 3428TIP3    H210249   4.013   4.756   3.707
 3429TIP3   OH210250   1.393   2.522   5.553
 3429TIP3    H110251   1.312   2.565   5.581
 3429TIP3    H210252   1.389   2.436   5.597
 3430TIP3   OH210253   2.787   6.303   2.360
 3430TIP3    H110254   2.789   6.304   2.264
 3430TIP3    H210255   2.803   6.211   2.383
 3431TIP3   OH210256   3.818   3.904   1.208
 3431TIP3    H110257   3.878   3.972   1.177
 3431TIP3    H210258   3.875   3.834   1.238
 3432TIP3   OH210259   2.667   2.244   3.300
 3432TIP3    H110260   2.596   2.202   3.348
 3432TIP3    H210261   2.745   2.192   3.321
 3433TIP3   OH210262   6.970   4.160   5.187
 3433TIP3    H110263   6.988   4.117   5.103
 3433TIP3    H210264   6.893   4.114   5.221
 3434TIP3   OH210265   5.599   0.310   3.712
 3434TIP3    H110266   5.533   0.240   3.714
 3434TIP3    H210267   5.648   0.294   3.631
 3435TIP3   OH210268   2.220   6.199   0.993
 3435TIP3    H110269   2.241   6.239   0.909
 3435TIP3    H210270   2.236   6.268   1.058
 3436TIP3   OH210271   4.126   4.921   1.424
 3436TIP3    H110272   4.065   4.916   1.350
 3436TIP3    H210273   4.107   5.006   1.465
 3437TIP3   OH210274   2.206   4.408   0.266
 3437TIP3    H110275   2.118   4.374   0.256
 3437TIP3    H210276   2.262   4.331   0.262
 3438TIP3   OH210277   6.533   0.131   3.155
 3438TIP3    H110278   6.576   0.082   3.086
 3438TIP3    H210279   6.597   0.197   3.182
 3439TIP3   OH210280   2.406   0.297   3.298
 3439TIP3    H110281   2.499   0.275   3.294
 3439TIP3    H210282   2.393   0.357   3.224
 3440TIP3   OH210283   0.598   5.859   3.402
 3440TIP3    H110284   0.621   5.817   3.485
 3440TIP3    H210285   0.620   5.951   3.415
 3441TIP3   OH210286   3.647   1.726   5.046
 3441TIP3    H110287   3.688   1.653   5.000
 3441TIP3    H210288   3.563   1.691   5.075
 3442TIP3   OH210289   5.037   5.898   1.527
 3442TIP3    H110290   4.998   5.974   1.484
 3442TIP3    H210291   5.113   5.876   1.473
 3443TIP3   OH210292   5.219   2.892   3.755
 3443TIP3    H110293   5.299   2.944   3.745
 3443TIP3    H210294   5.162   2.923   3.684
 3444TIP3   OH210295   2.829   1.715   3.663
 3444TIP3    H110296   2.749   1.719   3.611
 3444TIP3    H210297   2.820   1.787   3.726
 3445TIP3   OH210298   1.783   4.273   1.459
 3445TIP3    H110299   1.742   4.227   1.532
 3445TIP3    H210300   1.722   4.345   1.439
 3446TIP3   OH210301   4.419   2.115   2.801
 3446TIP3    H110302   4.503   2.080   2.831
 3446TIP3    H210303   4.379   2.043   2.753
 3447TIP3   OH210304   6.807   5.083   0.411
 3447TIP3    H110305   6.714   5.061   0.405
 3447TIP3    H210306   6.808   5.171   0.449
 3448TIP3   OH210307   3.508   4.994   3.390
 3448TIP3    H110308   3.485   4.989   3.298
 3448TIP3    H210309   3.436   4.949   3.435
 3449TIP3   OH210310   6.078   4.729   1.539
 3449TIP3    H110311   6.146   4.787   1.572
 3449TIP3    H210312   6.115   4.693   1.458
 3450TIP3   OH210313   6.255   3.103   0.696
 3450TIP3    H110314   6.194   3.036   0.665
 3450TIP3    H210315   6.208   3.146   0.768
 3451TIP3   OH210316   2.809   0.025  -0.026
 3451TIP3    H110317   2.903   0.029  -0.006
 3451TIP3    H210318   2.766   0.033   0.059
 3452TIP3   OH210319   0.020   2.973   2.613
 3452TIP3    H110320  -0.022   3.056   2.592
 3452TIP3    H210321   0.077   2.993   2.688
 3453TIP3   OH210322   1.712   5.912   5.139
 3453TIP3    H110323   1.734   6.000   5.107
 3453TIP3    H210324   1.629   5.924   5.186
 3454TIP3   OH210325   7.032   2.661   3.826
 3454TIP3    H110326   7.104   2.666   3.763
 3454TIP3    H210327   6.953   2.658   3.773
 3455TIP3   OH210328   5.895   3.957   3.258
 3455TIP3    H110329   5.903   3.886   3.194
 3455TIP3    H210330   5.974   4.009   3.246
 3456TIP3   OH210331   5.336   4.343   4.574
 3456TIP3    H110332   5.262   4.377   4.524
 3456TIP3    H210333   5.395   4.306   4.508
 3457TIP3   OH210334   2.545   5.296   5.111
 3457TIP3    H110335   2.614   5.343   5.064
 3457TIP3    H210336   2.464   5.323   5.068
 3458TIP3   OH210337   6.438   4.333   1.009
 3458TIP3    H110338   6.458   4.417   1.048
 3458TIP3    H210339   6.466   4.342   0.917
 3459TIP3   OH210340   2.571   6.175   4.377
 3459TIP3    H110341   2.633   6.143   4.312
 3459TIP3    H210342   2.601   6.264   4.397
 3460TIP3   OH210343   7.203   5.351   2.001
 3460TIP3    H110344   7.171   5.275   2.049
 3460TIP3    H210345   7.217   5.418   2.068
 3461TIP3   OH210346   5.888   4.228   2.096
 3461TIP3    H110347   5.803   4.185   2.110
 3461TIP3    H210348   5.873   4.318   2.124
 3462TIP3   OH210349   5.516   6.497   5.755
 3462TIP3    H110350   5.461   6.575   5.767
 3462TIP3    H210351   5.598   6.518   5.800
 3463TIP3   OH210352   4.867   3.744   0.828
 3463TIP3    H110353   4.879   3.670   0.886
 3463TIP3    H210354   4.894   3.712   0.741
 3464TIP3   OH210355   5.284   1.643   3.740
 3464TIP3    H110356   5.303   1.640   3.834
 3464TIP3    H210357   5.189   1.656   3.736
 3465TIP3   OH210358   2.112   3.715   3.038
 3465TIP3    H110359   2.117   3.810   3.031
 3465TIP3    H210360   2.039   3.699   3.098
 3466TIP3   OH210361   1.112   5.816   4.847
 3466TIP3    H110362   1.041   5.781   4.901
 3466TIP3    H210363   1.083   5.803   4.757
 3467TIP3   OH210364   6.798   1.617   5.507
 3467TIP3    H110365   6.877   1.574   5.540
 3467TIP3    H210366   6.832   1.691   5.456
 3468TIP3   OH210367   5.499   6.694   3.424
 3468TIP3    H110368   5.590   6.717   3.406
 3468TIP3    H210369   5.488   6.607   3.386
 3469TIP3   OH210370   4.372  -0.015   1.191
 3469TIP3    H110371   4.437   0.004   1.123
 3469TIP3    H210372   4.288   0.011   1.152
 3470TIP3   OH210373   0.076   5.695   3.691
 3470TIP3    H110374   0.142   5.669   3.755
 3470TIP3    H210375   0.112   5.668   3.607
 3471TIP3   OH210376   1.972   0.655   5.039
 3471TIP3    H110377   2.040   0.588   5.039
 3471TIP3    H210378   1.923   0.640   5.120
 3472TIP3   OH210379   6.483   2.764   5.144
 3472TIP3    H110380   6.420   2.700   5.109
 3472TIP3    H210381   6.429   2.840   5.167
 3473TIP3   OH210382   2.006   1.789   3.697
 3473TIP3    H110383   1.993   1.818   3.607
 3473TIP3    H210384   2.068   1.716   3.690
 3474TIP3   OH210385   0.782   0.581   1.824
 3474TIP3    H110386   0.843   0.646   1.859
 3474TIP3    H210387   0.735   0.627   1.755
 3475TIP3   OH210388   0.813   3.253   0.772
 3475TIP3    H110389   0.798   3.162   0.750
 3475TIP3    H210390   0.897   3.253   0.819
 3476TIP3   OH210391   3.554   3.316   3.928
 3476TIP3    H110392   3.468   3.349   3.903
 3476TIP3    H210393   3.563   3.340   4.021
 3477TIP3   OH210394   1.565   0.063   1.260
 3477TIP3    H110395   1.473   0.079   1.281
 3477TIP3    H210396   1.613   0.102   1.333
 3478TIP3   OH210397   2.023   1.988   3.023
 3478TIP3    H110398   1.937   2.027   3.013
 3478TIP3    H210399   2.056   2.022   3.106
 3479TIP3   OH210400   2.197   5.615   2.499
 3479TIP3    H110401   2.285   5.644   2.523
 3479TIP3    H210402   2.173   5.670   2.425
 3480TIP3   OH210403   4.089   1.947   4.618
 3480TIP3    H110404   4.058   1.950   4.709
 3480TIP3    H210405   4.065   2.033   4.582
 3481TIP3   OH210406   1.383   0.765   2.208
 3481TIP3    H110407   1.386   0.729   2.296
 3481TIP3    H210408   1.312   0.830   2.211
 3482TIP3   OH210409   4.601   6.129   2.821
 3482TIP3    H110410   4.528   6.078   2.787
 3482TIP3    H210411   4.663   6.134   2.749
 3483TIP3   OH210412   0.478   3.354   2.161
 3483TIP3    H110413   0.387   3.326   2.152
 3483TIP3    H210414   0.513   3.299   2.230
 3484TIP3   OH210415   3.648   6.217   4.024
 3484TIP3    H110416   3.678   6.196   3.936
 3484TIP3    H210417   3.645   6.133   4.069
 3485TIP3   OH210418   7.204   2.789   5.021
 3485TIP3    H110419   7.152   2.748   4.952
 3485TIP3    H210420   7.191   2.734   5.097
 3486TIP3   OH210421   0.723   2.760   2.030
 3486TIP3    H110422   0.817   2.759   2.015
 3486TIP3    H210423   0.714   2.769   2.124
 3487TIP3   OH210424   4.448   4.509   4.977
 3487TIP3    H110425   4.390   4.444   5.016
 3487TIP3    H210426   4.389   4.578   4.945
 3488TIP3   OH210427   7.132   4.164   0.274
 3488TIP3    H110428   7.228   4.171   0.282
 3488TIP3    H210429   7.119   4.094   0.210
 3489TIP3   OH210430   4.795   2.896   1.359
 3489TIP3    H110431   4.763   2.862   1.442
 3489TIP3    H210432   4.879   2.937   1.380
 3490TIP3   OH210433   3.879   5.721   4.329
 3490TIP3    H110434   3.950   5.707   4.267
 3490TIP3    H210435   3.836   5.636   4.336
 3491TIP3   OH210436   5.785   4.690   1.486
 3491TIP3    H110437   5.863   4.676   1.540
 3491TIP3    H210438   5.808   4.652   1.401
 3492TIP3   OH210439   2.257   4.332   5.228
 3492TIP3    H110440   2.280   4.423   5.213
 3492TIP3    H210441   2.225   4.329   5.318
 3493TIP3   OH210442   5.861   5.545   4.408
 3493TIP3    H110443   5.954   5.567   4.413
 3493TIP3    H210444   5.857   5.471   4.347
 3494TIP3   OH210445   4.541   5.811   1.644
 3494TIP3    H110446   4.618   5.764   1.613
 3494TIP3    H210447   4.571   5.858   1.722
 3495TIP3   OH210448   4.967   1.199   1.819
 3495TIP3    H110449   4.953   1.121   1.765
 3495TIP3    H210450   4.930   1.271   1.767
 3496TIP3   OH210451   3.957   1.157   3.462
 3496TIP3    H110452   3.910   1.240   3.456
 3496TIP3    H210453   3.904   1.095   3.412
 3497TIP3   OH210454   4.761   6.479   1.345
 3497TIP3    H110455   4.722   6.422   1.411
 3497TIP3    H210456   4.848   6.500   1.380
 3498TIP3   OH210457   0.155   5.740   3.246
 3498TIP3    H110458   0.248   5.717   3.242
 3498TIP3    H210459   0.144   5.779   3.333
 3499TIP3   OH210460   5.448   4.718   0.473
 3499TIP3    H110461   5.376   4.781   0.470
 3499TIP3    H210462   5.499   4.745   0.550
 3500TIP3   OH210463   6.088   6.251   4.025
 3500TIP3    H110464   6.181   6.265   4.005
 3500TIP3    H210465   6.086   6.239   4.120
 3501TIP3   OH210466   3.937   4.439   2.357
 3501TIP3    H110467   3.917   4.462   2.448
 3501TIP3    H210468   4.010   4.379   2.363
 3502TIP3   OH210469   5.276   6.245   3.069
 3502TIP3    H110470   5.328   6.164   3.072
 3502TIP3    H210471   5.340   6.313   3.044
 3503TIP3   OH210472   3.736   3.754   3.251
 3503TIP3    H110473   3.668   3.740   3.317
 3503TIP3    H210474   3.706   3.704   3.175
 3504TIP3   OH210475   2.550   1.541   1.062
 3504TIP3    H110476   2.558   1.612   0.998
 3504TIP3    H210477   2.641   1.522   1.088
 3505TIP3   OH210478   6.033   1.745   0.363
 3505TIP3    H110479   6.047   1.807   0.291
 3505TIP3    H210480   6.032   1.659   0.320
 3506TIP3   OH210481   6.192   5.095   0.939
 3506TIP3    H110482   6.185   5.066   1.030
 3506TIP3    H210483   6.161   5.020   0.887
 3507TIP3   OH210484   7.104   4.987   1.095
 3507TIP3    H110485   7.117   5.035   1.177
 3507TIP3    H210486   7.181   5.008   1.042
 3508TIP3   OH210487   0.718   0.537   4.487
 3508TIP3    H110488   0.625   0.556   4.498
 3508TIP3    H210489   0.748   0.510   4.574
 3509TIP3   OH210490   0.018   1.888   3.878
 3509TIP3    H110491   0.031   1.874   3.784
 3509TIP3    H210492   0.054   1.809   3.919
 3510TIP3   OH210493   5.537   5.579   4.385
 3510TIP3    H110494   5.502   5.512   4.444
 3510TIP3    H210495   5.588   5.637   4.442
 3511TIP3   OH210496   5.770   5.240   0.654
 3511TIP3    H110497   5.731   5.164   0.696
 3511TIP3    H210498   5.696   5.284   0.611
 3512TIP3   OH210499   5.681   5.789   2.605
 3512TIP3    H110500   5.715   5.857   2.663
 3512TIP3    H210501   5.693   5.824   2.517
 3513TIP3   OH210502   0.862   6.819   5.460
 3513TIP3    H110503   0.953   6.809   5.432
 3513TIP3    H210504   0.839   6.734   5.498
 3514TIP3   OH210505   2.343   2.139   4.510
 3514TIP3    H110506   2.372   2.048   4.519
 3514TIP3    H210507   2.317   2.163   4.599
 3515TIP3   OH210508   5.093   1.527   2.332
 3515TIP3    H110509   5.070   1.584   2.406
 3515TIP3    H210510   5.178   1.560   2.303
 3516TIP3   OH210511   3.380   1.270   1.125
 3516TIP3    H110512   3.325   1.347   1.138
 3516TIP3    H210513   3.368   1.219   1.205
 3517TIP3   OH210514   0.349   0.371   1.635
 3517TIP3    H110515   0.331   0.465   1.631
 3517TIP3    H210516   0.421   0.364   1.699
 3518TIP3   OH210517   2.005   3.023   0.201
 3518TIP3    H110518   2.078   2.999   0.258
 3518TIP3    H210519   1.927   2.992   0.247
 3519TIP3   OH210520   2.535   5.207   5.644
 3519TIP3    H110521   2.442   5.228   5.653
 3519TIP3    H210522   2.558   5.236   5.556
 3520TIP3   OH210523   4.376   0.440   3.498
 3520TIP3    H110524   4.435   0.370   3.525
 3520TIP3    H210525   4.330   0.405   3.422
 3521TIP3   OH210526   1.871   2.933   5.106
 3521TIP3    H110527   1.801   2.887   5.060
 3521TIP3    H210528   1.951   2.891   5.076
 3522TIP3   OH210529   2.935   4.358   2.269
 3522TIP3    H110530   2.902   4.400   2.349
 3522TIP3    H210531   2.935   4.264   2.290
 3523TIP3   OH210532   5.858   2.552   1.679
 3523TIP3    H110533   5.770   2.589   1.684
 3523TIP3    H210534   5.863   2.491   1.753
 3524TIP3   OH210535   6.805   2.577   2.649
 3524TIP3    H110536   6.878   2.540   2.699
 3524TIP3    H210537   6.841   2.594   2.562
 3525TIP3   OH210538   6.713   5.375   5.067
 3525TIP3    H110539   6.636   5.428   5.051
 3525TIP3    H210540   6.765   5.425   5.130
 3526TIP3   OH210541   6.006   3.737   3.664
 3526TIP3    H110542   5.935   3.750   3.601
 3526TIP3    H210543   6.020   3.823   3.703
 3527TIP3   OH210544   0.055   5.791   5.344
 3527TIP3    H110545   0.146   5.814   5.325
 3527TIP3    H210546   0.021   5.757   5.261
 3528TIP3   OH210547   1.043   2.925   4.366
 3528TIP3    H110548   0.954   2.905   4.393
 3528TIP3    H210549   1.035   2.952   4.275
 3529TIP3   OH210550   4.280   1.129   2.550
 3529TIP3    H110551   4.218   1.064   2.517
 3529TIP3    H210552   4.251   1.147   2.639
 3530TIP3   OH210553   3.384   5.507   5.630
 3530TIP3    H110554   3.393   5.506   5.534
 3530TIP3    H210555   3.461   5.460   5.662
 3531TIP3   OH210556   6.416   3.496   1.569
 3531TIP3    H110557   6.407   3.496   1.664
 3531TIP3    H210558   6.419   3.403   1.545
 3532TIP3   OH210559   1.339   2.498   1.005
 3532TIP3    H110560   1.428   2.525   1.026
 3532TIP3    H210561   1.342   2.476   0.911
 3533TIP3   OH210562   3.341   2.899   0.659
 3533TIP3    H110563   3.380   2.972   0.612
 3533TIP3    H210564   3.269   2.938   0.709
 3534TIP3   OH210565   5.537   5.654   5.294
 3534TIP3    H110566   5.448   5.640   5.326
 3534TIP3    H210567   5.528   5.723   5.228
 3535TIP3   OH210568   7.241   3.460   2.949
 3535TIP3    H110569   7.293   3.491   3.023
 3535TIP3    H210570   7.162   3.514   2.951
 3536TIP3   OH210571   6.359   0.139   0.168
 3536TIP3    H110572   6.351   0.210   0.104
 3536TIP3    H210573   6.382   0.062   0.116
 3537TIP3   OH210574   2.687   6.001   4.726
 3537TIP3    H110575   2.665   5.970   4.638
 3537TIP3    H210576   2.703   5.921   4.777
 3538TIP3   OH210577   4.969   4.762   2.624
 3538TIP3    H110578   4.952   4.854   2.645
 3538TIP3    H210579   5.020   4.765   2.543
 3539TIP3   OH210580   0.771   1.565   4.934
 3539TIP3    H110581   0.810   1.651   4.952
 3539TIP3    H210582   0.696   1.584   4.879
 3540TIP3   OH210583   2.002   1.003   5.631
 3540TIP3    H110584   1.993   0.919   5.676
 3540TIP3    H210585   2.096   1.022   5.632
 3541TIP3   OH210586   0.353   2.835   1.592
 3541TIP3    H110587   0.371   2.745   1.618
 3541TIP3    H210588   0.272   2.858   1.638
 3542TIP3   OH210589   6.057   1.489   4.317
 3542TIP3    H110590   6.101   1.405   4.303
 3542TIP3    H210591   6.111   1.553   4.270
 3543TIP3   OH210592   2.323   0.633   3.570
 3543TIP3    H110593   2.303   0.654   3.661
 3543TIP3    H210594   2.352   0.542   3.573
 3544TIP3   OH210595   6.432   2.422   3.928
 3544TIP3    H110596   6.466   2.336   3.952
 3544TIP3    H210597   6.361   2.439   3.990
 3545TIP3   OH210598   2.490   5.535   4.100
 3545TIP3    H110599   2.418   5.476   4.081
 3545TIP3    H210600   2.567   5.478   4.108
 3546TIP3   OH210601   5.018   2.647   1.123
 3546TIP3    H110602   5.093   2.621   1.177
 3546TIP3    H210603   5.044   2.729   1.082
 3547TIP3   OH210604   5.081   3.510   0.251
 3547TIP3    H110605   5.140   3.440   0.280
 3547TIP3    H210606   4.993   3.473   0.260
 3548TIP3   OH210607   2.404   1.238   2.340
 3548TIP3    H110608   2.320   1.275   2.316
 3548TIP3    H210609   2.394   1.214   2.432
 3549TIP3   OH210610   3.869   1.699   4.831
 3549TIP3    H110611   3.798   1.757   4.806
 3549TIP3    H210612   3.922   1.749   4.893
 3550TIP3   OH210613   6.684   0.710   1.972
 3550TIP3    H110614   6.615   0.648   1.945
 3550TIP3    H210615   6.732   0.663   2.040
 3551TIP3   OH210616   2.063   0.321   5.283
 3551TIP3    H110617   2.012   0.397   5.255
 3551TIP3    H210618   2.145   0.327   5.234
 3552TIP3   OH210619   4.106   0.560   3.190
 3552TIP3    H110620   4.073   0.549   3.101
 3552TIP3    H210621   4.144   0.475   3.212
 3553TIP3   OH210622   3.568   2.364   5.287
 3553TIP3    H110623   3.589   2.320   5.370
 3553TIP3    H210624   3.642   2.423   5.272
 3554TIP3   OH210625   0.175   3.292   3.447
 3554TIP3    H110626   0.124   3.294   3.366
 3554TIP3    H210627   0.110   3.273   3.515
 3555TIP3   OH210628   6.633   0.274   4.490
 3555TIP3    H110629   6.685   0.256   4.568
 3555TIP3    H210630   6.669   0.357   4.456
 3556TIP3   OH210631   2.873   2.862   4.674
 3556TIP3    H110632   2.945   2.903   4.626
 3556TIP3    H210633   2.796   2.874   4.618
 3557TIP3   OH210634   4.009   1.152   2.119
 3557TIP3    H110635   4.020   1.231   2.065
 3557TIP3    H210636   3.958   1.092   2.064
 3558TIP3   OH210637   7.179   5.215   0.393
 3558TIP3    H110638   7.269   5.187   0.375
 3558TIP3    H210639   7.145   5.244   0.308
 3559TIP3   OH210640   4.046   3.059   3.187
 3559TIP3    H110641   4.110   3.058   3.259
 3559TIP3    H210642   4.099   3.055   3.108
 3560TIP3   OH210643   0.356   6.811   0.271
 3560TIP3    H110644   0.440   6.774   0.299
 3560TIP3    H210645   0.318   6.847   0.351
 3561TIP3   OH210646   5.586   2.470   3.596
 3561TIP3    H110647   5.514   2.481   3.534
 3561TIP3    H210648   5.649   2.415   3.549
 3562TIP3   OH210649   4.765   5.997   3.116
 3562TIP3    H110650   4.743   6.004   3.209
 3562TIP3    H210651   4.760   6.087   3.083
 3563TIP3   OH210652   5.040   1.987   2.542
 3563TIP3    H110653   5.017   1.947   2.458
 3563TIP3    H210654   5.106   2.053   2.521
 3564TIP3   OH210655   2.062   1.401   1.752
 3564TIP3    H110656   2.039   1.365   1.837
 3564TIP3    H210657   2.157   1.411   1.754
 3565TIP3   OH210658   2.881   1.757   0.287
 3565TIP3    H110659   2.827   1.835   0.302
 3565TIP3    H210660   2.848   1.721   0.204
 3566TIP3   OH210661   0.169   4.259   0.258
 3566TIP3    H110662   0.163   4.333   0.319
 3566TIP3    H210663   0.232   4.200   0.298
 3567TIP3   OH210664   2.152   4.653   4.141
 3567TIP3    H110665   2.097   4.663   4.219
 3567TIP3    H210666   2.136   4.564   4.111
 3568TIP3   OH210667   5.191   5.686   3.989
 3568TIP3    H110668   5.118   5.677   3.928
 3568TIP3    H210669   5.151   5.681   4.076
 3569TIP3   OH210670   2.964   4.482   2.765
 3569TIP3    H110671   3.027   4.519   2.826
 3569TIP3    H210672   2.973   4.388   2.775
 3570TIP3   OH210673   6.438   2.264   3.467
 3570TIP3    H110674   6.389   2.182   3.460
 3570TIP3    H210675   6.514   2.252   3.411
 3571TIP3   OH210676   0.296   5.334   2.912
 3571TIP3    H110677   0.216   5.380   2.938
 3571TIP3    H210678   0.266   5.270   2.847
 3572TIP3   OH210679   1.139   0.354   3.055
 3572TIP3    H110680   1.212   0.324   3.001
 3572TIP3    H210681   1.167   0.439   3.089
 3573TIP3   OH210682   5.922   4.281   4.542
 3573TIP3    H110683   5.831   4.303   4.559
 3573TIP3    H210684   5.970   4.316   4.617
 3574TIP3   OH210685   1.151   0.163   1.096
 3574TIP3    H110686   1.118   0.134   1.011
 3574TIP3    H210687   1.122   0.254   1.103
 3575TIP3   OH210688   6.251   5.170   2.752
 3575TIP3    H110689   6.306   5.104   2.710
 3575TIP3    H210690   6.177   5.121   2.787
 3576TIP3   OH210691   5.944   0.426   2.857
 3576TIP3    H110692   5.968   0.510   2.817
 3576TIP3    H210693   5.968   0.361   2.791
 3577TIP3   OH210694   6.612   0.681   5.803
 3577TIP3    H110695   6.611   0.699   5.709
 3577TIP3    H210696   6.594   0.588   5.810
 3578TIP3   OH210697   6.626   6.390   1.893
 3578TIP3    H110698   6.659   6.387   1.982
 3578TIP3    H210699   6.583   6.476   1.886
 3579TIP3   OH210700   6.252   4.356   1.303
 3579TIP3    H110701   6.344   4.382   1.298
 3579TIP3    H210702   6.245   4.308   1.386
 3580TIP3   OH210703   1.475   2.035   1.692
 3580TIP3    H110704   1.404   2.057   1.632
 3580TIP3    H210705   1.435   1.978   1.758
 3581TIP3   OH210706   5.960   1.849   3.077
 3581TIP3    H110707   5.931   1.896   3.156
 3581TIP3    H210708   5.879   1.831   3.029
 3582TIP3   OH210709   6.338   1.311   1.377
 3582TIP3    H110710   6.315   1.390   1.327
 3582TIP3    H210711   6.360   1.246   1.311
 3583TIP3   OH210712   7.094   0.454   1.093
 3583TIP3    H110713   7.106   0.502   1.174
 3583TIP3    H210714   7.161   0.489   1.034
 3584TIP3   OH210715   5.009   0.987   1.622
 3584TIP3    H110716   5.094   0.958   1.655
 3584TIP3    H210717   4.969   0.908   1.586
 3585TIP3   OH210718   2.925   1.925   5.738
 3585TIP3    H110719   2.842   1.887   5.707
 3585TIP3    H210720   2.949   1.873   5.814
 3586TIP3   OH210721   7.000   3.092   0.336
 3586TIP3    H110722   7.029   3.075   0.246
 3586TIP3    H210723   6.945   3.017   0.358
 3587TIP3   OH210724   3.034   2.574   2.519
 3587TIP3    H110725   2.997   2.580   2.431
 3587TIP3    H210726   3.127   2.555   2.504
 3588TIP3   OH210727   4.444   0.139   4.853
 3588TIP3    H110728   4.501   0.187   4.793
 3588TIP3    H210729   4.415   0.063   4.802
 3589TIP3   OH210730   2.283   1.501   1.091
 3589TIP3    H110731   2.376   1.501   1.115
 3589TIP3    H210732   2.276   1.570   1.025
 3590TIP3   OH210733   6.089   2.071   0.509
 3590TIP3    H110734   6.123   2.159   0.527
 3590TIP3    H210735   6.002   2.086   0.472
 3591TIP3   OH210736   6.653   3.905   0.643
 3591TIP3    H110737   6.676   3.838   0.709
 3591TIP3    H210738   6.647   3.986   0.693
 3592TIP3   OH210739   6.199   2.709   5.856
 3592TIP3    H110740   6.265   2.729   5.790
 3592TIP3    H210741   6.219   2.620   5.884
 3593TIP3   OH210742   4.349   1.279   0.060
 3593TIP3    H110743   4.291   1.244   0.128
 3593TIP3    H210744   4.294   1.283  -0.019
 3594TIP3   OH210745   0.185   5.382   3.243
 3594TIP3    H110746   0.137   5.443   3.187
 3594TIP3    H210747   0.134   5.301   3.239
 3595TIP3   OH210748   2.631   3.307   0.034
 3595TIP3    H110749   2.553   3.252   0.025
 3595TIP3    H210750   2.646   3.312   0.129
 3596TIP3   OH210751   6.126   0.274   0.035
 3596TIP3    H110752   6.105   0.221   0.111
 3596TIP3    H210753   6.118   0.215  -0.040
 3597TIP3   OH210754   2.220   1.966   0.031
 3597TIP3    H110755   2.243   1.912   0.107
 3597TIP3    H210756   2.227   2.056   0.063
 3598TIP3   OH210757   2.558   3.011   0.146
 3598TIP3    H110758   2.495   2.939   0.156
 3598TIP3    H210759   2.617   2.983   0.076
 3599TIP3   OH210760   3.415   4.174   1.035
 3599TIP3    H110761   3.476   4.100   1.029
 3599TIP3    H210762   3.375   4.178   0.949
 3600TIP3   OH210763   3.471   0.931   4.345
 3600TIP3    H110764   3.473   0.841   4.312
 3600TIP3    H210765   3.440   0.922   4.436
 3601TIP3   OH210766   5.346   4.892   1.420
 3601TIP3    H110767   5.261   4.848   1.421
 3601TIP3    H210768   5.333   4.970   1.474
 3602TIP3   OH210769   1.360   3.516   4.312
 3602TIP3    H110770   1.412   3.551   4.384
 3602TIP3    H210771   1.414   3.529   4.234
 3603TIP3   OH210772   4.602   2.862   2.767
 3603TIP3    H110773   4.544   2.848   2.842
 3603TIP3    H210774   4.688   2.874   2.807
 3604TIP3   OH210775   6.914   6.444   0.976
 3604TIP3    H110776   6.861   6.433   1.055
 3604TIP3    H210777   6.920   6.356   0.939
 3605TIP3   OH210778   0.790  -0.051   3.785
 3605TIP3    H110779   0.880  -0.058   3.752
 3605TIP3    H210780   0.745   0.004   3.721
 3606TIP3   OH210781   1.515   5.823   3.092
 3606TIP3    H110782   1.447   5.774   3.045
 3606TIP3    H210783   1.469   5.865   3.164
 3607TIP3   OH210784   6.910   0.534   5.375
 3607TIP3    H110785   6.820   0.553   5.352
 3607TIP3    H210786   6.938   0.467   5.313
 3608TIP3   OH210787   1.706   3.819   0.802
 3608TIP3    H110788   1.688   3.726   0.789
 3608TIP3    H210789   1.624   3.863   0.780
 3609TIP3   OH210790   1.271   1.668   4.120
 3609TIP3    H110791   1.194   1.698   4.168
 3609TIP3    H210792   1.258   1.574   4.110
 3610TIP3   OH210793   4.192   4.948   0.063
 3610TIP3    H110794   4.140   4.925   0.140
 3610TIP3    H210795   4.268   4.993   0.098
 3611TIP3   OH210796   2.585   0.320   1.386
 3611TIP3    H110797   2.612   0.240   1.339
 3611TIP3    H210798   2.494   0.303   1.411
 3612TIP3   OH210799   0.641   6.467   0.674
 3612TIP3    H110800   0.606   6.521   0.603
 3612TIP3    H210801   0.736   6.471   0.661
 3613TIP3   OH210802   1.237   2.087   5.453
 3613TIP3    H110803   1.308   2.100   5.390
 3613TIP3    H210804   1.256   2.149   5.524
 3614TIP3   OH210805   2.069   0.923   4.957
 3614TIP3    H110806   2.045   0.831   4.970
 3614TIP3    H210807   1.990   0.972   4.981
 3615TIP3   OH210808   5.619   6.028   5.157
 3615TIP3    H110809   5.709   6.014   5.187
 3615TIP3    H210810   5.610   5.972   5.080
 3616TIP3   OH210811   5.921   6.125   3.474
 3616TIP3    H110812   5.864   6.138   3.550
 3616TIP3    H210813   6.009   6.129   3.510
 3617TIP3   OH210814   0.231   1.581   1.675
 3617TIP3    H110815   0.144   1.551   1.651
 3617TIP3    H210816   0.220   1.624   1.760
 3618TIP3   OH210817   6.831   5.251   3.223
 3618TIP3    H110818   6.826   5.344   3.246
 3618TIP3    H210819   6.793   5.246   3.135
 3619TIP3   OH210820   6.904   1.821   2.024
 3619TIP3    H110821   6.865   1.773   1.951
 3619TIP3    H210822   6.859   1.905   2.025
 3620TIP3   OH210823   5.574   6.329   0.633
 3620TIP3    H110824   5.513   6.290   0.696
 3620TIP3    H210825   5.590   6.417   0.666
 3621TIP3   OH210826   1.365   5.119   1.784
 3621TIP3    H110827   1.332   5.208   1.770
 3621TIP3    H210828   1.286   5.068   1.804
 3622TIP3   OH210829   5.467   1.887   0.887
 3622TIP3    H110830   5.485   1.885   0.793
 3622TIP3    H210831   5.535   1.832   0.926
 3623TIP3   OH210832   3.269   0.805   0.584
 3623TIP3    H110833   3.219   0.734   0.624
 3623TIP3    H210834   3.204   0.870   0.559
 3624TIP3   OH210835   6.710   0.332   2.273
 3624TIP3    H110836   6.621   0.364   2.289
 3624TIP3    H210837   6.737   0.294   2.357
 3625TIP3   OH210838   6.863   3.767   5.269
 3625TIP3    H110839   6.846   3.735   5.358
 3625TIP3    H210840   6.832   3.697   5.212
 3626TIP3   OH210841   2.027   5.649   4.645
 3626TIP3    H110842   2.061   5.583   4.584
 3626TIP3    H210843   2.046   5.732   4.602
 3627TIP3   OH210844   2.451   2.331   5.182
 3627TIP3    H110845   2.457   2.253   5.236
 3627TIP3    H210846   2.527   2.384   5.207
 3628TIP3   OH210847   5.052   0.438   5.210
 3628TIP3    H110848   5.131   0.407   5.253
 3628TIP3    H210849   5.052   0.533   5.225
 3629TIP3   OH210850   6.789   4.624   2.406
 3629TIP3    H110851   6.779   4.549   2.464
 3629TIP3    H210852   6.865   4.603   2.352
 3630TIP3   OH210853   2.004   1.717   5.919
 3630TIP3    H110854   1.959   1.793   5.882
 3630TIP3    H210855   2.092   1.721   5.882
 3631TIP3   OH210856   5.211   6.589   2.491
 3631TIP3    H110857   5.225   6.668   2.544
 3631TIP3    H210858   5.185   6.622   2.405
 3632TIP3   OH210859   4.933   4.856   3.275
 3632TIP3    H110860   4.892   4.918   3.214
 3632TIP3    H210861   5.009   4.823   3.227
 3633TIP3   OH210862   3.214   4.367   2.588
 3633TIP3    H110863   3.229   4.284   2.543
 3633TIP3    H210864   3.144   4.409   2.538
 3634TIP3   OH210865   5.130   6.121   5.799
 3634TIP3    H110866   5.179   6.185   5.850
 3634TIP3    H210867   5.170   6.125   5.711
 3635TIP3   OH210868   1.960   2.590   3.073
 3635TIP3    H110869   2.055   2.583   3.063
 3635TIP3    H210870   1.926   2.511   3.030
 3636TIP3   OH210871   1.124   5.245   5.637
 3636TIP3    H110872   1.174   5.164   5.651
 3636TIP3    H210873   1.034   5.216   5.625
 3637TIP3   OH210874   2.798   3.508   4.407
 3637TIP3    H110875   2.767   3.597   4.394
 3637TIP3    H210876   2.835   3.508   4.495
 3638TIP3   OH210877   5.022   6.720   3.405
 3638TIP3    H110878   4.994   6.674   3.326
 3638TIP3    H210879   5.036   6.650   3.470
 3639TIP3   OH210880   6.077   4.498   2.693
 3639TIP3    H110881   6.153   4.555   2.685
 3639TIP3    H210882   6.106   4.414   2.657
 3640TIP3   OH210883   6.003   2.741   0.853
 3640TIP3    H110884   6.014   2.801   0.779
 3640TIP3    H210885   6.043   2.788   0.927
 3641TIP3   OH210886   5.780   1.161   5.650
 3641TIP3    H110887   5.863   1.181   5.695
 3641TIP3    H210888   5.797   1.079   5.604
 3642TIP3   OH210889   2.465   2.454   3.375
 3642TIP3    H110890   2.397   2.400   3.416
 3642TIP3    H210891   2.516   2.392   3.323
 3643TIP3   OH210892   6.641   3.588   0.144
 3643TIP3    H110893   6.625   3.505   0.099
 3643TIP3    H210894   6.694   3.565   0.220
 3644TIP3   OH210895   1.837   2.608   1.301
 3644TIP3    H110896   1.891   2.567   1.369
 3644TIP3    H210897   1.750   2.614   1.341
 3645TIP3   OH210898   3.356   4.578   3.394
 3645TIP3    H110899   3.323   4.638   3.327
 3645TIP3    H210900   3.285   4.571   3.458
 3646TIP3   OH210901   3.316   2.716   0.914
 3646TIP3    H110902   3.362   2.761   0.843
 3646TIP3    H210903   3.373   2.642   0.936
 3647TIP3   OH210904   6.723   3.389   1.584
 3647TIP3    H110905   6.653   3.429   1.534
 3647TIP3    H210906   6.770   3.334   1.521
 3648TIP3   OH210907   2.878   6.508   1.176
 3648TIP3    H110908   2.964   6.535   1.209
 3648TIP3    H210909   2.866   6.420   1.210
 3649TIP3   OH210910   4.586   0.301   5.041
 3649TIP3    H110911   4.525   0.366   5.075
 3649TIP3    H210912   4.532   0.240   4.992
 3650TIP3   OH210913   5.839  -0.033   4.524
 3650TIP3    H110914   5.854   0.047   4.574
 3650TIP3    H210915   5.761  -0.072   4.562
 3651TIP3   OH210916   3.027   3.763   0.412
 3651TIP3    H110917   3.013   3.858   0.408
 3651TIP3    H210918   2.946   3.725   0.379
 3652TIP3   OH210919   2.246   1.789   1.244
 3652TIP3    H110920   2.204   1.745   1.318
 3652TIP3    H210921   2.338   1.796   1.270
 3653TIP3   OH210922   0.835   3.830   0.248
 3653TIP3    H110923   0.857   3.894   0.180
 3653TIP3    H210924   0.918   3.789   0.271
 3654TIP3   OH210925   0.152   2.250   5.907
 3654TIP3    H110926   0.134   2.180   5.969
 3654TIP3    H210927   0.188   2.207   5.830
 3655TIP3   OH210928   4.255   5.464   4.326
 3655TIP3    H110929   4.248   5.506   4.241
 3655TIP3    H210930   4.308   5.524   4.379
 3656TIP3   OH210931   2.189   2.930   4.107
 3656TIP3    H110932   2.197   3.010   4.158
 3656TIP3    H210933   2.124   2.951   4.039
 3657TIP3   OH210934   6.636   0.641   4.375
 3657TIP3    H110935   6.597   0.649   4.462
 3657TIP3    H210936   6.628   0.729   4.338
 3658TIP3   OH210937   1.889   2.334   3.504
 3658TIP3    H110938   1.905   2.239   3.506
 3658TIP3    H210939   1.825   2.349   3.573
 3659TIP3   OH210940   0.940   6.577   2.255
 3659TIP3    H110941   0.908   6.565   2.344
 3659TIP3    H210942   0.969   6.669   2.252
 3660TIP3   OH210943   6.606   0.680   0.830
 3660TIP3    H110944   6.664   0.721   0.765
 3660TIP3    H210945   6.627   0.725   0.912
 3661TIP3   OH210946   3.344   1.621   5.844
 3661TIP3    H110947   3.331   1.528   5.862
 3661TIP3    H210948   3.289   1.639   5.767
 3662TIP3   OH210949   5.422   3.609   2.588
 3662TIP3    H110950   5.477   3.648   2.657
 3662TIP3    H210951   5.455   3.520   2.579
 3663TIP3   OH210952   6.876   6.220   3.829
 3663TIP3    H110953   6.951   6.214   3.770
 3663TIP3    H210954   6.908   6.272   3.902
 3664TIP3   OH210955   1.924   0.354   4.674
 3664TIP3    H110956   1.847   0.408   4.693
 3664TIP3    H210957   1.926   0.348   4.579
 3665TIP3   OH210958   0.506   0.677   1.182
 3665TIP3    H110959   0.488   0.760   1.225
 3665TIP3    H210960   0.600   0.679   1.164
 3666TIP3   OH210961   4.296   0.102   5.637
 3666TIP3    H110962   4.202   0.088   5.649
 3666TIP3    H210963   4.314   0.070   5.548
 3667TIP3   OH210964   0.976   0.392   0.485
 3667TIP3    H110965   1.001   0.459   0.550
 3667TIP3    H210966   1.028   0.315   0.510
 3668TIP3   OH210967   5.786   1.855   1.880
 3668TIP3    H110968   5.861   1.798   1.862
 3668TIP3    H210969   5.797   1.881   1.971
 3669TIP3   OH210970   2.637   3.517   1.798
 3669TIP3    H110971   2.665   3.428   1.819
 3669TIP3    H210972   2.671   3.532   1.710
 3670TIP3   OH210973   3.502   1.467   2.804
 3670TIP3    H110974   3.478   1.375   2.817
 3670TIP3    H210975   3.589   1.463   2.764
 3671TIP3   OH210976   2.540   5.797   2.047
 3671TIP3    H110977   2.536   5.757   1.960
 3671TIP3    H210978   2.631   5.826   2.056
 3672TIP3   OH210979   2.427   0.379   3.579
 3672TIP3    H110980   2.407   0.340   3.495
 3672TIP3    H210981   2.348   0.365   3.632
 3673TIP3   OH210982   5.937   0.382   0.815
 3673TIP3    H110983   5.928   0.329   0.736
 3673TIP3    H210984   5.857   0.434   0.819
 3674TIP3   OH210985   6.694   5.865   1.439
 3674TIP3    H110986   6.760   5.934   1.444
 3674TIP3    H210987   6.625   5.894   1.498
 3675TIP3   OH210988   6.341   3.622   0.053
 3675TIP3    H110989   6.410   3.688   0.046
 3675TIP3    H210990   6.369   3.566   0.126
 3676TIP3   OH210991   3.047   3.172   1.892
 3676TIP3    H110992   3.028   3.079   1.908
 3676TIP3    H210993   3.113   3.171   1.823
 3677TIP3   OH210994   1.120   5.496   0.743
 3677TIP3    H110995   1.054   5.440   0.783
 3677TIP3    H210996   1.073   5.541   0.672
 3678TIP3   OH210997   6.339   4.752   0.633
 3678TIP3    H110998   6.414   4.726   0.580
 3678TIP3    H210999   6.294   4.670   0.652
 3679TIP3   OH211000   2.211   2.582   4.726
 3679TIP3    H111001   2.216   2.497   4.769
 3679TIP3    H211002   2.136   2.575   4.667
 3680TIP3   OH211003   2.821   6.267   2.917
 3680TIP3    H111004   2.889   6.332   2.935
 3680TIP3    H211005   2.739   6.316   2.921
 3681TIP3   OH211006   5.908   5.555   4.912
 3681TIP3    H111007   5.846   5.623   4.940
 3681TIP3    H211008   5.951   5.593   4.835
 3682TIP3   OH211009   1.550   1.899   5.664
 3682TIP3    H111010   1.549   1.804   5.669
 3682TIP3    H211011   1.524   1.929   5.751
 3683TIP3   OH211012   3.174   2.147   0.877
 3683TIP3    H111013   3.243   2.193   0.829
 3683TIP3    H211014   3.192   2.054   0.862
 3684TIP3   OH211015   0.283   5.621   0.132
 3684TIP3    H111016   0.360   5.595   0.081
 3684TIP3    H211017   0.218   5.647   0.067
 3685TIP3   OH211018   3.412   2.540   3.806
 3685TIP3    H111019   3.418   2.562   3.713
 3685TIP3    H211020   3.334   2.586   3.837
 3686TIP3   OH211021   5.808   6.581   5.815
 3686TIP3    H111022   5.878   6.600   5.753
 3686TIP3    H211023   5.837   6.501   5.860
 3687TIP3   OH211024   3.870   5.785   2.170
 3687TIP3    H111025   3.875   5.690   2.183
 3687TIP3    H211026   3.780   5.808   2.193
 3688TIP3   OH211027   6.875   0.200   0.194
 3688TIP3    H111028   6.952   0.157   0.229
 3688TIP3    H211029   6.880   0.289   0.229
 3689TIP3   OH211030   3.544   2.391   3.043
 3689TIP3    H111031   3.528   2.313   2.988
 3689TIP3    H211032   3.610   2.362   3.106
 3690TIP3   OH211033   0.937   4.848   4.680
 3690TIP3    H111034   0.886   4.905   4.623
 3690TIP3    H211035   1.012   4.901   4.707
 3691TIP3   OH211036   3.966   6.291   2.694
 3691TIP3    H111037   3.909   6.293   2.617
 3691TIP3    H211038   4.026   6.218   2.677
 3692TIP3   OH211039   7.146   2.118   3.405
 3692TIP3    H111040   7.127   2.075   3.488
 3692TIP3    H211041   7.237   2.146   3.413
 3693TIP3   OH211042   4.959   1.913   5.387
 3693TIP3    H111043   4.893   1.963   5.436
 3693TIP3    H211044   4.965   1.830   5.435
 3694TIP3   OH211045   5.107   2.539   2.531
 3694TIP3    H111046   5.174   2.581   2.477
 3694TIP3    H211047   5.026   2.550   2.481
 3695TIP3   OH211048   5.530   5.469   5.569
 3695TIP3    H111049   5.539   5.541   5.632
 3695TIP3    H211050   5.467   5.501   5.505
 3696TIP3   OH211051   3.578   1.942   5.288
 3696TIP3    H111052   3.529   1.977   5.213
 3696TIP3    H211053   3.663   1.984   5.283
 3697TIP3   OH211054   3.313   5.299   4.352
 3697TIP3    H111055   3.233   5.308   4.300
 3697TIP3    H211056   3.324   5.205   4.364
 3698TIP3   OH211057   5.723   1.415   4.420
 3698TIP3    H111058   5.732   1.510   4.428
 3698TIP3    H211059   5.631   1.400   4.401
 3699TIP3   OH211060   6.626   5.316   1.090
 3699TIP3    H111061   6.530   5.320   1.094
 3699TIP3    H211062   6.645   5.244   1.030
 3700TIP3   OH211063   2.995   5.615   4.128
 3700TIP3    H111064   3.023   5.692   4.078
 3700TIP3    H211065   2.935   5.649   4.194
 3701TIP3   OH211066   3.495   3.667   3.999
 3701TIP3    H111067   3.492   3.650   4.093
 3701TIP3    H211068   3.442   3.597   3.960
 3702TIP3   OH211069   3.537   0.383   3.154
 3702TIP3    H111070   3.481   0.398   3.230
 3702TIP3    H211071   3.477   0.391   3.079
 3703TIP3   OH211072   6.999   3.745   4.515
 3703TIP3    H111073   6.948   3.717   4.438
 3703TIP3    H211074   7.042   3.826   4.487
 3704TIP3   OH211075   2.955   1.654   4.555
 3704TIP3    H111076   3.005   1.734   4.575
 3704TIP3    H211077   2.999   1.585   4.605
 3705TIP3   OH211078   5.699   5.806   3.538
 3705TIP3    H111079   5.686   5.895   3.569
 3705TIP3    H211080   5.672   5.750   3.611
 3706TIP3   OH211081   5.085   0.070   4.050
 3706TIP3    H111082   5.050   0.067   4.139
 3706TIP3    H211083   5.154   0.004   4.049
 3707TIP3   OH211084   0.025   2.712   0.059
 3707TIP3    H111085  -0.039   2.646   0.032
 3707TIP3    H211086   0.033   2.702   0.153
 3708TIP3   OH211087   3.258   3.382   4.552
 3708TIP3    H111088   3.337   3.429   4.578
 3708TIP3    H211089   3.194   3.451   4.536
 3709TIP3   OH211090   3.660   0.358   1.313
 3709TIP3    H111091   3.652   0.414   1.390
 3709TIP3    H211092   3.686   0.273   1.349
 3710TIP3   OH211093   5.135   1.189   1.337
 3710TIP3    H111094   5.056   1.139   1.357
 3710TIP3    H211095   5.192   1.127   1.292
 3711TIP3   OH211096   6.444   1.851   2.114
 3711TIP3    H111097   6.455   1.868   2.020
 3711TIP3    H211098   6.466   1.933   2.156
 3712TIP3   OH211099   0.378   6.323   5.155
 3712TIP3    H111100   0.388   6.294   5.065
 3712TIP3    H211101   0.288   6.299   5.178
 3713TIP3   OH211102   3.018   5.407   3.314
 3713TIP3    H111103   3.042   5.459   3.390
 3713TIP3    H211104   2.930   5.436   3.292
 3714TIP3   OH211105   2.370   4.382   2.635
 3714TIP3    H111106   2.326   4.325   2.572
 3714TIP3    H211107   2.452   4.406   2.593
 3715TIP3   OH211108   4.920   1.994   4.484
 3715TIP3    H111109   4.827   1.975   4.472
 3715TIP3    H211110   4.943   2.048   4.409
 3716TIP3   OH211111   3.118   3.676   4.352
 3716TIP3    H111112   3.190   3.712   4.404
 3716TIP3    H211113   3.155   3.599   4.309
 3717TIP3   OH211114   1.273   3.189   2.967
 3717TIP3    H111115   1.209   3.148   2.908
 3717TIP3    H211116   1.323   3.248   2.911
 3718TIP3   OH211117   4.733   1.159   3.489
 3718TIP3    H111118   4.788   1.113   3.425
 3718TIP3    H211119   4.662   1.197   3.437
 3719TIP3   OH211120   1.269   6.656   2.778
 3719TIP3    H111121   1.250   6.612   2.696
 3719TIP3    H211122   1.365   6.662   2.781
 3720TIP3   OH211123   6.729   6.125   0.658
 3720TIP3    H111124   6.646   6.172   0.666
 3720TIP3    H211125   6.731   6.097   0.567
 3721TIP3   OH211126   5.014   1.687   3.706
 3721TIP3    H111127   4.930   1.732   3.698
 3721TIP3    H211128   4.992   1.594   3.699
 3722TIP3   OH211129   5.616   0.345   5.828
 3722TIP3    H111130   5.667   0.303   5.897
 3722TIP3    H211131   5.525   0.322   5.848
 3723TIP3   OH211132   3.823   4.090   2.604
 3723TIP3    H111133   3.896   4.063   2.547
 3723TIP3    H211134   3.826   4.028   2.676
 3724TIP3   OH211135   2.097   1.335   0.380
 3724TIP3    H111136   2.161   1.395   0.418
 3724TIP3    H211137   2.049   1.388   0.316
 3725TIP3   OH211138   5.283   3.229   5.422
 3725TIP3    H111139   5.355   3.194   5.475
 3725TIP3    H211140   5.215   3.252   5.486
 3726TIP3   OH211141   4.153   0.371   4.664
 3726TIP3    H111142   4.095   0.387   4.738
 3726TIP3    H211143   4.163   0.276   4.662
 3727TIP3   OH211144   3.811   3.782   0.530
 3727TIP3    H111145   3.719   3.766   0.549
 3727TIP3    H211146   3.823   3.751   0.440
 3728TIP3   OH211147   0.215   3.695   3.839
 3728TIP3    H111148   0.200   3.766   3.902
 3728TIP3    H211149   0.216   3.616   3.893
 3729TIP3   OH211150   2.350   1.832   0.253
 3729TIP3    H111151   2.319   1.766   0.315
 3729TIP3    H211152   2.420   1.789   0.205
 3730TIP3   OH211153   5.393   4.306   4.929
 3730TIP3    H111154   5.470   4.286   4.875
 3730TIP3    H211155   5.374   4.224   4.974
 3731TIP3   OH211156   2.055   3.208   2.251
 3731TIP3    H111157   2.124   3.209   2.317
 3731TIP3    H211158   2.063   3.123   2.208
 3732TIP3   OH211159   3.718   3.887   4.097
 3732TIP3    H111160   3.678   3.851   4.177
 3732TIP3    H211161   3.644   3.921   4.047
 3733TIP3   OH211162   1.675   2.536   0.235
 3733TIP3    H111163   1.639   2.510   0.320
 3733TIP3    H211164   1.644   2.625   0.222
 3734TIP3   OH211165   1.760   3.081   3.856
 3734TIP3    H111166   1.694   3.042   3.914
 3734TIP3    H211167   1.831   3.017   3.854
 3735TIP3   OH211168   4.601   3.432   3.447
 3735TIP3    H111169   4.686   3.476   3.443
 3735TIP3    H211170   4.538   3.498   3.421
 3736TIP3   OH211171   6.458   1.904   2.621
 3736TIP3    H111172   6.399   1.886   2.547
 3736TIP3    H211173   6.415   1.974   2.669
 3737TIP3   OH211174   0.825   1.263   5.034
 3737TIP3    H111175   0.853   1.257   4.943
 3737TIP3    H211176   0.801   1.173   5.058
 3738TIP3   OH211177   3.106   3.309   5.212
 3738TIP3    H111178   3.046   3.322   5.139
 3738TIP3    H211179   3.116   3.214   5.218
 3739TIP3   OH211180   6.540   6.685   1.111
 3739TIP3    H111181   6.536   6.712   1.020
 3739TIP3    H211182   6.484   6.747   1.158
 3740TIP3   OH211183   2.772   6.546   3.803
 3740TIP3    H111184   2.771   6.463   3.755
 3740TIP3    H211185   2.832   6.602   3.753
 3741TIP3   OH211186   2.709   5.732   0.322
 3741TIP3    H111187   2.692   5.641   0.347
 3741TIP3    H211188   2.628   5.760   0.280
 3742TIP3   OH211189   6.357   5.024   2.232
 3742TIP3    H111190   6.310   5.106   2.243
 3742TIP3    H211191   6.315   4.982   2.156
 3743TIP3   OH211192   4.031   5.282   0.061
 3743TIP3    H111193   3.953   5.231   0.042
 3743TIP3    H211194   4.077   5.232   0.129
 3744TIP3   OH211195   4.428   3.275   2.938
 3744TIP3    H111196   4.404   3.202   2.995
 3744TIP3    H211197   4.417   3.353   2.993
 3745TIP3   OH211198   6.045   1.686   1.377
 3745TIP3    H111199   6.109   1.756   1.393
 3745TIP3    H211200   6.022   1.695   1.285
 3746TIP3   OH211201   2.674   0.689   4.119
 3746TIP3    H111202   2.732   0.615   4.105
 3746TIP3    H211203   2.622   0.664   4.195
 3747TIP3   OH211204   0.369   5.834   1.573
 3747TIP3    H111205   0.432   5.877   1.630
 3747TIP3    H211206   0.419   5.812   1.494
 3748TIP3   OH211207   3.221   4.639   4.890
 3748TIP3    H111208   3.253   4.652   4.980
 3748TIP3    H211209   3.138   4.593   4.901
 3749TIP3   OH211210   2.857   3.383   0.733
 3749TIP3    H111211   2.907   3.373   0.652
 3749TIP3    H211212   2.791   3.450   0.712
 3750TIP3   OH211213   1.173   1.253   5.683
 3750TIP3    H111214   1.129   1.271   5.600
 3750TIP3    H211215   1.266   1.268   5.664
 3751TIP3   OH211216   2.384   6.455   3.668
 3751TIP3    H111217   2.335   6.379   3.637
 3751TIP3    H211218   2.338   6.483   3.747
 3752TIP3   OH211219   6.312   2.447   0.129
 3752TIP3    H111220   6.355   2.450   0.043
 3752TIP3    H211221   6.235   2.503   0.118
 3753TIP3   OH211222   0.552   2.883   5.055
 3753TIP3    H111223   0.476   2.875   4.997
 3753TIP3    H211224   0.621   2.831   5.012
 3754TIP3   OH211225   1.891   0.208   1.216
 3754TIP3    H111226   1.919   0.249   1.135
 3754TIP3    H211227   1.801   0.239   1.229
 3755TIP3   OH211228   1.527   5.360   4.393
 3755TIP3    H111229   1.551   5.288   4.451
 3755TIP3    H211230   1.557   5.332   4.307
 3756TIP3   OH211231   3.087   0.296   5.215
 3756TIP3    H111232   3.126   0.273   5.131
 3756TIP3    H211233   3.145   0.363   5.251
 3757TIP3   OH211234   5.319   3.006   2.801
 3757TIP3    H111235   5.414   2.998   2.797
 3757TIP3    H211236   5.298   3.073   2.735
 3758TIP3   OH211237   3.476   0.295   4.584
 3758TIP3    H111238   3.506   0.207   4.561
 3758TIP3    H211239   3.381   0.292   4.571
 3759TIP3   OH211240   2.439   5.010   5.263
 3759TIP3    H111241   2.490   5.004   5.182
 3759TIP3    H211242   2.348   4.999   5.234
 3760TIP3   OH211243   7.186   4.204   4.737
 3760TIP3    H111244   7.197   4.116   4.773
 3760TIP3    H211245   7.152   4.256   4.810
 3761TIP3   OH211246   7.178   2.167   3.139
 3761TIP3    H111247   7.201   2.108   3.067
 3761TIP3    H211248   7.181   2.112   3.217
 3762TIP3   OH211249   6.622   5.456   3.479
 3762TIP3    H111250   6.589   5.366   3.483
 3762TIP3    H211251   6.635   5.473   3.386
 3763TIP3   OH211252   3.150   6.043   0.245
 3763TIP3    H111253   3.116   6.132   0.256
 3763TIP3    H211254   3.236   6.056   0.205
 3764TIP3   OH211255   0.538   1.140   3.673
 3764TIP3    H111256   0.464   1.104   3.722
 3764TIP3    H211257   0.497   1.190   3.602
 3765TIP3   OH211258   5.219   1.858   5.704
 3765TIP3    H111259   5.148   1.890   5.760
 3765TIP3    H211260   5.286   1.828   5.765
 3766TIP3   OH211261   2.298   0.227   1.401
 3766TIP3    H111262   2.304   0.302   1.460
 3766TIP3    H211263   2.207   0.197   1.410
 3767TIP3   OH211264   0.410   4.454   1.459
 3767TIP3    H111265   0.503   4.432   1.460
 3767TIP3    H211266   0.382   4.445   1.551
 3768TIP3   OH211267   6.526   3.506   2.102
 3768TIP3    H111268   6.556   3.435   2.158
 3768TIP3    H211269   6.556   3.482   2.014
 3769TIP3   OH211270   1.408   0.803   3.161
 3769TIP3    H111271   1.496   0.839   3.150
 3769TIP3    H211272   1.359   0.872   3.206
 3770TIP3   OH211273   2.329   0.455   1.559
 3770TIP3    H111274   2.371   0.526   1.512
 3770TIP3    H211275   2.267   0.498   1.619
 3771TIP3   OH211276   1.619   5.138   4.511
 3771TIP3    H111277   1.564   5.105   4.582
 3771TIP3    H211278   1.703   5.096   4.525
 3772TIP3   OH211279   5.226   3.904   3.479
 3772TIP3    H111280   5.135   3.921   3.455
 3772TIP3    H211281   5.234   3.809   3.474
 3773TIP3   OH211282   2.047   0.218   5.816
 3773TIP3    H111283   2.062   0.221   5.910
 3773TIP3    H211284   2.010   0.131   5.800
 3774TIP3   OH211285   2.140   1.308   2.264
 3774TIP3    H111286   2.114   1.299   2.356
 3774TIP3    H211287   2.137   1.219   2.229
 3775TIP3   OH211288   5.218   5.134   5.914
 3775TIP3    H111289   5.180   5.068   5.856
 3775TIP3    H211290   5.200   5.218   5.871
 3776TIP3   OH211291   3.548   5.894   5.508
 3776TIP3    H111292   3.471   5.932   5.552
 3776TIP3    H211293   3.568   5.956   5.438
 3777TIP3   OH211294   7.177   5.953   0.298
 3777TIP3    H111295   7.101   5.924   0.248
 3777TIP3    H211296   7.172   5.903   0.380
 3778TIP3   OH211297   3.187   5.188   3.380
 3778TIP3    H111298   3.246   5.229   3.443
 3778TIP3    H211299   3.122   5.255   3.360
 3779TIP3   OH211300   3.788   4.281   4.730
 3779TIP3    H111301   3.866   4.288   4.785
 3779TIP3    H211302   3.817   4.229   4.654
 3780TIP3   OH211303   4.441   4.257   3.475
 3780TIP3    H111304   4.442   4.162   3.491
 3780TIP3    H211305   4.448   4.296   3.562
 3781TIP3   OH211306   2.390   0.681   1.373
 3781TIP3    H111307   2.392   0.777   1.369
 3781TIP3    H211308   2.325   0.656   1.308
 3782TIP3   OH211309   6.379   2.997   5.262
 3782TIP3    H111310   6.405   3.026   5.350
 3782TIP3    H211311   6.304   3.052   5.240
 3783TIP3   OH211312   5.220   5.936   2.177
 3783TIP3    H111313   5.254   5.958   2.263
 3783TIP3    H211314   5.267   5.858   2.150
 3784TIP3   OH211315   3.444   5.586   4.697
 3784TIP3    H111316   3.500   5.546   4.764
 3784TIP3    H211317   3.440   5.678   4.721
 3785TIP3   OH211318   0.938   1.447   0.455
 3785TIP3    H111319   0.923   1.353   0.454
 3785TIP3    H211320   0.930   1.472   0.547
 3786TIP3   OH211321   0.458   0.267   3.488
 3786TIP3    H111322   0.444   0.277   3.394
 3786TIP3    H211323   0.439   0.174   3.505
 3787TIP3   OH211324   3.138   6.047   2.244
 3787TIP3    H111325   3.090   6.084   2.170
 3787TIP3    H211326   3.143   6.118   2.308
 3788TIP3   OH211327   4.806   4.611   5.505
 3788TIP3    H111328   4.715   4.629   5.528
 3788TIP3    H211329   4.822   4.522   5.535
 3789TIP3   OH211330   0.490   5.957   1.039
 3789TIP3    H111331   0.499   5.935   0.946
 3789TIP3    H211332   0.480   5.873   1.083
 3790TIP3   OH211333   1.125   3.337   2.387
 3790TIP3    H111334   1.170   3.404   2.437
 3790TIP3    H211335   1.152   3.351   2.296
 3791TIP3   OH211336   1.810   4.714   4.131
 3791TIP3    H111337   1.822   4.651   4.201
 3791TIP3    H211338   1.806   4.662   4.051
 3792TIP3   OH211339   6.972   0.909   2.512
 3792TIP3    H111340   6.978   0.997   2.475
 3792TIP3    H211341   6.925   0.921   2.594
 3793TIP3   OH211342   4.126   0.134   4.187
 3793TIP3    H111343   4.152   0.059   4.241
 3793TIP3    H211344   4.054   0.174   4.235
 3794TIP3   OH211345   6.016   0.812   5.309
 3794TIP3    H111346   6.105   0.816   5.344
 3794TIP3    H211347   5.996   0.719   5.305
 3795TIP3   OH211348   1.164   1.190   0.552
 3795TIP3    H111349   1.071   1.204   0.535
 3795TIP3    H211350   1.195   1.272   0.589
 3796TIP3   OH211351   5.800   3.039   3.974
 3796TIP3    H111352   5.808   3.074   3.886
 3796TIP3    H211353   5.806   3.116   4.031
 3797TIP3   OH211354   6.401   3.498   4.173
 3797TIP3    H111355   6.446   3.539   4.248
 3797TIP3    H211356   6.431   3.407   4.175
 3798TIP3   OH211357   2.405   3.164   1.801
 3798TIP3    H111358   2.457   3.090   1.769
 3798TIP3    H211359   2.325   3.124   1.836
 3799TIP3   OH211360   4.021   0.175   0.421
 3799TIP3    H111361   3.973   0.237   0.476
 3799TIP3    H211362   3.970   0.169   0.341
 3800TIP3   OH211363   0.218   0.918   5.531
 3800TIP3    H111364   0.144   0.973   5.502
 3800TIP3    H211365   0.197   0.894   5.621
 3801TIP3   OH211366   4.587   3.142   1.179
 3801TIP3    H111367   4.587   3.047   1.166
 3801TIP3    H211368   4.673   3.162   1.214
 3802TIP3   OH211369   6.286   6.051   0.907
 3802TIP3    H111370   6.347   6.099   0.962
 3802TIP3    H211371   6.337   5.978   0.872
 3803TIP3   OH211372   3.672   6.523   4.999
 3803TIP3    H111373   3.592   6.574   4.984
 3803TIP3    H211374   3.710   6.560   5.079
 3804TIP3   OH211375   6.779   3.914   4.398
 3804TIP3    H111376   6.687   3.934   4.381
 3804TIP3    H211377   6.797   3.837   4.345
 3805TIP3   OH211378   4.118   1.828   5.433
 3805TIP3    H111379   4.176   1.762   5.394
 3805TIP3    H211380   4.040   1.780   5.459
 3806TIP3   OH211381   0.071   4.261   5.683
 3806TIP3    H111382   0.023   4.237   5.604
 3806TIP3    H211383   0.159   4.283   5.652
 3807TIP3   OH211384   2.177   2.567   0.208
 3807TIP3    H111385   2.098   2.544   0.258
 3807TIP3    H211386   2.203   2.653   0.242
 3808TIP3   OH211387   2.881   6.163   0.486
 3808TIP3    H111388   2.869   6.253   0.517
 3808TIP3    H211389   2.900   6.113   0.565
 3809TIP3   OH211390   4.847   6.290   3.611
 3809TIP3    H111391   4.752   6.296   3.620
 3809TIP3    H211392   4.880   6.290   3.701
 3810TIP3   OH211393   6.970   6.435   1.380
 3810TIP3    H111394   6.922   6.411   1.459
 3810TIP3    H211395   6.995   6.527   1.394
 3811TIP3   OH211396   4.470   1.335   4.436
 3811TIP3    H111397   4.410   1.270   4.472
 3811TIP3    H211398   4.451   1.336   4.342
 3812TIP3   OH211399   4.463   5.629   3.100
 3812TIP3    H111400   4.545   5.581   3.092
 3812TIP3    H211401   4.402   5.581   3.044
 3813TIP3   OH211402   0.358   0.002   4.202
 3813TIP3    H111403   0.272   0.032   4.231
 3813TIP3    H211404   0.409   0.082   4.193
 3814TIP3   OH211405   3.687   0.777   2.149
 3814TIP3    H111406   3.702   0.684   2.168
 3814TIP3    H211407   3.596   0.791   2.177
 3815TIP3   OH211408   5.323   5.270   4.249
 3815TIP3    H111409   5.384   5.320   4.304
 3815TIP3    H211410   5.269   5.223   4.312
 3816TIP3   OH211411   1.054   2.479   1.022
 3816TIP3    H111412   1.044   2.479   1.118
 3816TIP3    H211413   1.139   2.519   1.007
 3817TIP3   OH211414   3.933   0.555   3.501
 3817TIP3    H111415   3.860   0.562   3.440
 3817TIP3    H211416   3.986   0.483   3.467
 3818TIP3   OH211417   4.227   5.003   3.821
 3818TIP3    H111418   4.161   5.001   3.890
 3818TIP3    H211419   4.204   4.930   3.763
 3819TIP3   OH211420   4.520   3.168   4.478
 3819TIP3    H111421   4.608   3.200   4.496
 3819TIP3    H211422   4.528   3.118   4.398
 3820TIP3   OH211423   5.815   3.828   2.489
 3820TIP3    H111424   5.746   3.870   2.541
 3820TIP3    H211425   5.855   3.899   2.440
 3821TIP3   OH211426   4.411   1.012   2.883
 3821TIP3    H111427   4.393   0.993   2.791
 3821TIP3    H211428   4.366   1.095   2.900
 3822TIP3   OH211429   1.148   6.552   0.977
 3822TIP3    H111430   1.121   6.511   1.059
 3822TIP3    H211431   1.107   6.499   0.909
 3823TIP3   OH211432   2.299   3.177   2.412
 3823TIP3    H111433   2.361   3.188   2.484
 3823TIP3    H211434   2.353   3.151   2.337
 3824TIP3   OH211435   3.894   0.069   2.342
 3824TIP3    H111436   3.934   0.146   2.302
 3824TIP3    H211437   3.934   0.064   2.429
 3825TIP3   OH211438   3.455   0.774   1.879
 3825TIP3    H111439   3.395   0.848   1.881
 3825TIP3    H211440   3.461   0.746   1.971
 3826TIP3   OH211441   3.370   2.623   1.990
 3826TIP3    H111442   3.316   2.629   2.069
 3826TIP3    H211443   3.457   2.602   2.021
 3827TIP3   OH211444   4.973   3.972   3.422
 3827TIP3    H111445   4.888   3.944   3.458
 3827TIP3    H211446   4.953   4.000   3.333
 3828TIP3   OH211447   2.506   3.428   4.370
 3828TIP3    H111448   2.583   3.485   4.372
 3828TIP3    H211449   2.538   3.345   4.335
 3829TIP3   OH211450   2.998   0.102   3.008
 3829TIP3    H111451   2.933   0.033   3.025
 3829TIP3    H211452   2.964   0.178   3.055
 3830TIP3   OH211453   3.421   4.482   0.740
 3830TIP3    H111454   3.470   4.533   0.804
 3830TIP3    H211455   3.485   4.421   0.703
 3831TIP3   OH211456   3.803   4.651   5.210
 3831TIP3    H111457   3.766   4.629   5.125
 3831TIP3    H211458   3.748   4.722   5.243
 3832TIP3   OH211459   0.677   6.627   4.792
 3832TIP3    H111460   0.729   6.695   4.835
 3832TIP3    H211461   0.715   6.619   4.704
 3833TIP3   OH211462   3.639   0.702   4.856
 3833TIP3    H111463   3.681   0.704   4.942
 3833TIP3    H211464   3.557   0.749   4.868
 3834TIP3   OH211465   7.054   6.165   5.557
 3834TIP3    H111466   7.099   6.133   5.479
 3834TIP3    H211467   7.066   6.096   5.622
 3835TIP3   OH211468   0.556   4.930   3.865
 3835TIP3    H111469   0.534   4.846   3.905
 3835TIP3    H211470   0.511   4.929   3.781
 3836TIP3   OH211471   4.052   6.159   4.692
 3836TIP3    H111472   4.071   6.102   4.617
 3836TIP3    H211473   3.971   6.122   4.729
 3837TIP3   OH211474   6.588   1.071   1.967
 3837TIP3    H111475   6.609   1.035   1.881
 3837TIP3    H211476   6.526   1.008   2.005
 3838TIP3   OH211477   4.623   4.205   5.617
 3838TIP3    H111478   4.620   4.143   5.690
 3838TIP3    H211479   4.646   4.150   5.541
 3839TIP3   OH211480   5.193   2.810   4.445
 3839TIP3    H111481   5.181   2.893   4.492
 3839TIP3    H211482   5.267   2.826   4.387
 3840TIP3   OH211483   4.400   3.550   4.706
 3840TIP3    H111484   4.433   3.467   4.739
 3840TIP3    H211485   4.366   3.595   4.783
 3841TIP3   OH211486   3.383   1.094   3.925
 3841TIP3    H111487   3.456   1.121   3.980
 3841TIP3    H211488   3.421   1.083   3.838
 3842TIP3   OH211489   1.937   5.874   0.947
 3842TIP3    H111490   1.959   5.781   0.943
 3842TIP3    H211491   1.842   5.876   0.940
 3843TIP3   OH211492   6.727   2.786   2.821
 3843TIP3    H111493   6.746   2.719   2.755
 3843TIP3    H211494   6.773   2.864   2.790
 3844TIP3   OH211495   0.906   0.963   3.365
 3844TIP3    H111496   0.881   0.871   3.377
 3844TIP3    H211497   0.883   1.005   3.447
 3845TIP3   OH211498   1.165   1.437   3.414
 3845TIP3    H111499   1.141   1.381   3.341
 3845TIP3    H211500   1.143   1.387   3.492
 3846TIP3   OH211501   1.768   3.088   3.053
 3846TIP3    H111502   1.809   3.156   3.106
 3846TIP3    H211503   1.704   3.049   3.112
 3847TIP3   OH211504   1.027   5.546   0.239
 3847TIP3    H111505   0.940   5.562   0.203
 3847TIP3    H211506   1.043   5.621   0.297
 3848TIP3   OH211507   1.652   0.220   2.235
 3848TIP3    H111508   1.624   0.143   2.185
 3848TIP3    H211509   1.683   0.282   2.169
 3849TIP3   OH211510   5.794   1.201   3.185
 3849TIP3    H111511   5.748   1.188   3.268
 3849TIP3    H211512   5.872   1.250   3.208
 3850TIP3   OH211513   6.593   6.104   3.693
 3850TIP3    H111514   6.650   6.146   3.629
 3850TIP3    H211515   6.524   6.167   3.710
 3851TIP3   OH211516   1.692   0.457   4.951
 3851TIP3    H111517   1.751   0.381   4.951
 3851TIP3    H211518   1.701   0.494   4.863
 3852TIP3   OH211519   2.709   3.814   1.494
 3852TIP3    H111520   2.689   3.887   1.435
 3852TIP3    H211521   2.623   3.785   1.525
 3853TIP3   OH211522   1.987   4.411   2.332
 3853TIP3    H111523   1.928   4.450   2.397
 3853TIP3    H211524   1.939   4.417   2.250
 3854TIP3   OH211525   3.262   4.102   2.500
 3854TIP3    H111526   3.235   4.050   2.576
 3854TIP3    H211527   3.354   4.080   2.488
 3855TIP3   OH211528   3.367   0.807   4.569
 3855TIP3    H111529   3.307   0.881   4.560
 3855TIP3    H211530   3.311   0.732   4.588
 3856TIP3   OH211531   1.167   3.632   3.495
 3856TIP3    H111532   1.211   3.648   3.579
 3856TIP3    H211533   1.238   3.629   3.431
 3857TIP3   OH211534   5.236   2.026   1.162
 3857TIP3    H111535   5.274   2.068   1.240
 3857TIP3    H211536   5.291   1.949   1.147
 3858TIP3   OH211537   0.821   3.579   3.151
 3858TIP3    H111538   0.866   3.542   3.226
 3858TIP3    H211539   0.887   3.635   3.109
 3859TIP3   OH211540   2.449   4.083   4.211
 3859TIP3    H111541   2.363   4.056   4.179
 3859TIP3    H211542   2.508   4.069   4.137
 3860TIP3   OH211543   5.855   5.531   5.641
 3860TIP3    H111544   5.816   5.539   5.554
 3860TIP3    H211545   5.825   5.609   5.688
 3861TIP3   OH211546   1.879   6.624   2.890
 3861TIP3    H111547   1.953   6.685   2.892
 3861TIP3    H211548   1.805   6.676   2.859
 3862TIP3   OH211549   7.167   3.037   1.589
 3862TIP3    H111550   7.148   2.959   1.537
 3862TIP3    H211551   7.231   3.008   1.654
 3863TIP3   OH211552   1.561   6.312   3.552
 3863TIP3    H111553   1.657   6.317   3.552
 3863TIP3    H211554   1.542   6.220   3.537
 3864TIP3   OH211555   3.352   1.442   3.609
 3864TIP3    H111556   3.360   1.509   3.541
 3864TIP3    H211557   3.442   1.416   3.627
 3865TIP3   OH211558   1.870   1.777   4.813
 3865TIP3    H111559   1.881   1.686   4.838
 3865TIP3    H211560   1.777   1.786   4.793
 3866TIP3   OH211561   2.509   0.503   4.810
 3866TIP3    H111562   2.490   0.479   4.719
 3866TIP3    H211563   2.582   0.445   4.835
 3867TIP3   OH211564   0.040   5.107   2.334
 3867TIP3    H111565   0.049   5.017   2.364
 3867TIP3    H211566   0.129   5.142   2.336
 3868TIP3   OH211567   1.639   6.607   0.131
 3868TIP3    H111568   1.716   6.555   0.153
 3868TIP3    H211569   1.567   6.545   0.132
 3869TIP3   OH211570   2.873   3.283   4.268
 3869TIP3    H111571   2.856   3.344   4.340
 3869TIP3    H211572   2.903   3.339   4.196
 3870TIP3   OH211573   0.455   3.083   0.898
 3870TIP3    H111574   0.547   3.067   0.881
 3870TIP3    H211575   0.439   3.044   0.984
 3871TIP3   OH211576   6.493   0.627   0.258
 3871TIP3    H111577   6.468   0.581   0.338
 3871TIP3    H211578   6.441   0.586   0.189
 3872TIP3   OH211579   3.371   2.954   2.422
 3872TIP3    H111580   3.462   2.941   2.450
 3872TIP3    H211581   3.332   3.005   2.493
 3873TIP3   OH211582   4.027   3.102   4.158
 3873TIP3    H111583   4.042   3.019   4.114
 3873TIP3    H211584   4.109   3.120   4.204
 3874TIP3   OH211585   5.044   5.317   1.569
 3874TIP3    H111586   5.036   5.396   1.623
 3874TIP3    H211587   5.053   5.246   1.633
 3875TIP3   OH211588   6.439   2.287   1.264
 3875TIP3    H111589   6.448   2.342   1.342
 3875TIP3    H211590   6.432   2.349   1.192
 3876TIP3   OH211591   5.429   3.486   0.645
 3876TIP3    H111592   5.503   3.522   0.694
 3876TIP3    H211593   5.355   3.495   0.705
 3877TIP3   OH211594   0.039   4.839   0.352
 3877TIP3    H111595  -0.055   4.849   0.363
 3877TIP3    H211596   0.077   4.880   0.430
 3878TIP3   OH211597   6.626   1.411   0.266
 3878TIP3    H111598   6.593   1.450   0.348
 3878TIP3    H211599   6.669   1.484   0.221
 3879TIP3   OH211600   6.383   3.994   0.871
 3879TIP3    H111601   6.327   4.057   0.825
 3879TIP3    H211602   6.347   3.909   0.848
 3880TIP3   OH211603   4.621   1.048   1.400
 3880TIP3    H111604   4.611   0.970   1.345
 3880TIP3    H211605   4.532   1.074   1.422
 3881TIP3   OH211606   5.222   0.558   0.437
 3881TIP3    H111607   5.132   0.533   0.459
 3881TIP3    H211608   5.216   0.593   0.348
 3882TIP3   OH211609   2.924   5.030   3.015
 3882TIP3    H111610   2.973   5.057   3.093
 3882TIP3    H211611   2.989   4.985   2.961
 3883TIP3   OH211612   1.615   0.305   4.537
 3883TIP3    H111613   1.618   0.274   4.446
 3883TIP3    H211614   1.526   0.338   4.548
 3884TIP3   OH211615   0.700   2.363   0.361
 3884TIP3    H111616   0.710   2.270   0.345
 3884TIP3    H211617   0.777   2.387   0.413
 3885TIP3   OH211618   3.018   5.209   4.976
 3885TIP3    H111619   2.994   5.288   4.928
 3885TIP3    H211620   2.968   5.215   5.058
 3886TIP3   OH211621   2.024   1.541   4.858
 3886TIP3    H111622   2.001   1.503   4.942
 3886TIP3    H211623   2.103   1.495   4.831
 3887TIP3   OH211624   4.646   5.008   1.492
 3887TIP3    H111625   4.649   5.033   1.399
 3887TIP3    H211626   4.553   4.998   1.511
 3888TIP3   OH211627   6.631   1.187   2.723
 3888TIP3    H111628   6.713   1.199   2.674
 3888TIP3    H211629   6.598   1.275   2.738
 3889TIP3   OH211630   4.163   2.634   5.050
 3889TIP3    H111631   4.120   2.652   5.133
 3889TIP3    H211632   4.092   2.631   4.986
 3890TIP3   OH211633   4.185   2.857   3.432
 3890TIP3    H111634   4.157   2.927   3.491
 3890TIP3    H211635   4.108   2.802   3.422
 3891TIP3   OH211636   3.584   6.307   3.134
 3891TIP3    H111637   3.619   6.353   3.210
 3891TIP3    H211638   3.527   6.239   3.170
 3892TIP3   OH211639   5.043   0.270   3.343
 3892TIP3    H111640   5.100   0.337   3.381
 3892TIP3    H211641   5.102   0.215   3.292
 3893TIP3   OH211642   4.154   2.367   3.401
 3893TIP3    H111643   4.239   2.391   3.363
 3893TIP3    H211644   4.160   2.395   3.492
 3894TIP3   OH211645   0.016   3.921   4.792
 3894TIP3    H111646   0.056   3.906   4.707
 3894TIP3    H211647  -0.005   3.834   4.825
 3895TIP3   OH211648   5.383   4.262   3.390
 3895TIP3    H111649   5.304   4.211   3.374
 3895TIP3    H211650   5.352   4.352   3.402
 3896TIP3   OH211651   7.192   5.764   0.521
 3896TIP3    H111652   7.160   5.790   0.607
 3896TIP3    H211653   7.124   5.705   0.488
 3897TIP3   OH211654   5.631   6.412   4.912
 3897TIP3    H111655   5.621   6.466   4.834
 3897TIP3    H211656   5.686   6.338   4.884
 3898TIP3   OH211657   4.903   2.129   4.949
 3898TIP3    H111658   4.964   2.123   5.022
 3898TIP3    H211659   4.950   2.179   4.882
 3899TIP3   OH211660   0.298   0.085   0.005
 3899TIP3    H111661   0.298  -0.006   0.037
 3899TIP3    H211662   0.349   0.082  -0.075
 3900TIP3   OH211663   2.047   3.125   1.373
 3900TIP3    H111664   2.056   3.064   1.446
 3900TIP3    H211665   2.028   3.209   1.414
 3901TIP3   OH211666   1.717   3.807   2.354
 3901TIP3    H111667   1.623   3.822   2.340
 3901TIP3    H211668   1.736   3.729   2.301
 3902TIP3   OH211669   0.623   0.570   3.029
 3902TIP3    H111670   0.668   0.486   3.042
 3902TIP3    H211671   0.553   0.570   3.096
 3903TIP3   OH211672   6.061   3.515   1.042
 3903TIP3    H111673   6.018   3.589   1.084
 3903TIP3    H211674   6.155   3.532   1.053
 3904TIP3   OH211675   1.755   4.155   2.790
 3904TIP3    H111676   1.696   4.096   2.743
 3904TIP3    H211677   1.722   4.155   2.880
 3905TIP3   OH211678   3.572   4.184   0.226
 3905TIP3    H111679   3.482   4.200   0.197
 3905TIP3    H211680   3.625   4.197   0.147
 3906TIP3   OH211681   3.857   2.010   5.537
 3906TIP3    H111682   3.889   1.920   5.527
 3906TIP3    H211683   3.828   2.015   5.628
 3907TIP3   OH211684   4.424   3.907   4.514
 3907TIP3    H111685   4.431   3.944   4.426
 3907TIP3    H211686   4.512   3.915   4.551
 3908TIP3   OH211687   5.632   5.507   0.963
 3908TIP3    H111688   5.543   5.533   0.940
 3908TIP3    H211689   5.637   5.414   0.938
 3909TIP3   OH211690   2.113   2.081   3.406
 3909TIP3    H111691   2.021   2.068   3.384
 3909TIP3    H211692   2.140   1.998   3.445
 3910TIP3   OH211693   4.998   3.479   5.039
 3910TIP3    H111694   5.055   3.544   5.081
 3910TIP3    H211695   5.014   3.398   5.087
 3911TIP3   OH211696   1.457   1.118   0.737
 3911TIP3    H111697   1.407   1.194   0.708
 3911TIP3    H211698   1.403   1.078   0.804
 3912TIP3   OH211699   2.680   1.072   5.586
 3912TIP3    H111700   2.646   1.116   5.664
 3912TIP3    H211701   2.769   1.046   5.611
 3913TIP3   OH211702   5.356   4.827   2.762
 3913TIP3    H111703   5.427   4.890   2.776
 3913TIP3    H211704   5.289   4.877   2.715
 3914TIP3   OH211705   1.086   2.965   1.273
 3914TIP3    H111706   1.154   3.000   1.331
 3914TIP3    H211707   1.110   2.873   1.262
 3915TIP3   OH211708   6.048   1.735   5.460
 3915TIP3    H111709   5.962   1.774   5.477
 3915TIP3    H211710   6.039   1.694   5.374
 3916TIP3   OH211711   4.234   1.877   3.412
 3916TIP3    H111712   4.289   1.946   3.449
 3916TIP3    H211713   4.166   1.862   3.477
 3917TIP3   OH211714   5.708   2.882   4.184
 3917TIP3    H111715   5.763   2.805   4.200
 3917TIP3    H211716   5.759   2.935   4.122
 3918TIP3   OH211717   3.437   0.954   1.010
 3918TIP3    H111718   3.428   0.955   0.914
 3918TIP3    H211719   3.531   0.966   1.025
 3919TIP3   OH211720   2.983   1.456   1.915
 3919TIP3    H111721   2.901   1.477   1.871
 3919TIP3    H211722   2.980   1.361   1.928
 3920TIP3   OH211723   6.864   6.095   4.400
 3920TIP3    H111724   6.783   6.145   4.408
 3920TIP3    H211725   6.848   6.035   4.327
 3921TIP3   OH211726   2.110   2.019   1.431
 3921TIP3    H111727   2.163   2.084   1.384
 3921TIP3    H211728   2.135   1.935   1.392
 3922TIP3   OH211729   0.314   2.324   1.971
 3922TIP3    H111730   0.334   2.348   2.062
 3922TIP3    H211731   0.270   2.239   1.978
 3923TIP3   OH211732   2.804   0.977   5.015
 3923TIP3    H111733   2.892   0.998   5.047
 3923TIP3    H211734   2.786   1.044   4.950
 3924TIP3   OH211735   5.711   1.036   0.405
 3924TIP3    H111736   5.641   1.078   0.455
 3924TIP3    H211737   5.788   1.043   0.461
 3925TIP3   OH211738   2.278   4.319   1.412
 3925TIP3    H111739   2.204   4.258   1.411
 3925TIP3    H211740   2.334   4.287   1.483
 3926TIP3   OH211741   5.268   4.852   0.193
 3926TIP3    H111742   5.363   4.846   0.187
 3926TIP3    H211743   5.249   4.853   0.286
 3927TIP3   OH211744   3.102   3.445   3.547
 3927TIP3    H111745   3.164   3.400   3.489
 3927TIP3    H211746   3.128   3.417   3.635
 3928TIP3   OH211747   4.509   3.486   2.019
 3928TIP3    H111748   4.540   3.568   2.057
 3928TIP3    H211749   4.445   3.453   2.082
 3929TIP3   OH211750   3.872   1.908   2.677
 3929TIP3    H111751   3.891   1.948   2.592
 3929TIP3    H211752   3.922   1.960   2.740
 3930TIP3   OH211753   6.898   3.856   3.887
 3930TIP3    H111754   6.990   3.835   3.901
 3930TIP3    H211755   6.878   3.820   3.800
 3931TIP3   OH211756   5.118   0.107   2.001
 3931TIP3    H111757   5.194   0.125   2.056
 3931TIP3    H211758   5.113   0.182   1.941
 3932TIP3   OH211759   1.858   1.971   1.216
 3932TIP3    H111760   1.764   1.961   1.231
 3932TIP3    H211761   1.899   1.940   1.297
 3933TIP3   OH211762   6.661   2.077   1.599
 3933TIP3    H111763   6.571   2.050   1.614
 3933TIP3    H211764   6.662   2.170   1.621
 3934TIP3   OH211765   3.165   2.014   1.861
 3934TIP3    H111766   3.156   1.925   1.827
 3934TIP3    H211767   3.156   2.070   1.784
 3935TIP3   OH211768   1.526   1.443   4.599
 3935TIP3    H111769   1.543   1.371   4.661
 3935TIP3    H211770   1.464   1.500   4.645
 3936TIP3   OH211771   2.287   2.185   4.765
 3936TIP3    H111772   2.211   2.128   4.760
 3936TIP3    H211773   2.275   2.234   4.847
 3937TIP3   OH211774   3.684   4.853   0.095
 3937TIP3    H111775   3.698   4.935   0.048
 3937TIP3    H211776   3.593   4.858   0.124
 3938TIP3   OH211777   2.276   3.327   5.262
 3938TIP3    H111778   2.349   3.276   5.297
 3938TIP3    H211779   2.205   3.312   5.324
 3939TIP3   OH211780   3.922   0.316   5.243
 3939TIP3    H111781   3.979   0.350   5.312
 3939TIP3    H211782   3.868   0.251   5.286
 3940TIP3   OH211783   1.323   5.599   2.701
 3940TIP3    H111784   1.272   5.676   2.724
 3940TIP3    H211785   1.414   5.627   2.709
 3941TIP3   OH211786   3.572   1.113   5.178
 3941TIP3    H111787   3.576   1.110   5.082
 3941TIP3    H211788   3.483   1.084   5.198
 3942TIP3   OH211789   6.919   5.152   2.901
 3942TIP3    H111790   7.011   5.159   2.924
 3942TIP3    H211791   6.885   5.082   2.957
 3943TIP3   OH211792   5.090   0.827   1.988
 3943TIP3    H111793   5.044   0.911   1.986
 3943TIP3    H211794   5.182   0.851   2.000
 3944TIP3   OH211795   2.350   3.811   5.017
 3944TIP3    H111796   2.370   3.892   4.971
 3944TIP3    H211797   2.264   3.825   5.057
 3945TIP3   OH211798   6.319   2.976   4.208
 3945TIP3    H111799   6.291   2.893   4.247
 3945TIP3    H211800   6.241   3.031   4.210
 3946TIP3   OH211801   1.753   5.872   0.462
 3946TIP3    H111802   1.779   5.964   0.451
 3946TIP3    H211803   1.659   5.872   0.448
 3947TIP3   OH211804   1.292   0.279   2.224
 3947TIP3    H111805   1.273   0.197   2.179
 3947TIP3    H211806   1.207   0.310   2.255
 3948TIP3   OH211807   6.436   5.100   1.796
 3948TIP3    H111808   6.532   5.103   1.798
 3948TIP3    H211809   6.409   5.163   1.863
 3949TIP3   OH211810   5.893   6.437   1.600
 3949TIP3    H111811   5.942   6.432   1.518
 3949TIP3    H211812   5.945   6.386   1.663
 3950TIP3   OH211813   5.219   4.581   3.862
 3950TIP3    H111814   5.263   4.617   3.939
 3950TIP3    H211815   5.274   4.608   3.788
 3951TIP3   OH211816   7.157   5.289   1.197
 3951TIP3    H111817   7.146   5.365   1.256
 3951TIP3    H211818   7.247   5.261   1.210
 3952TIP3   OH211819   0.916   6.450   3.711
 3952TIP3    H111820   0.953   6.538   3.705
 3952TIP3    H211821   0.990   6.394   3.736
 3953TIP3   OH211822   6.276   4.428   0.344
 3953TIP3    H111823   6.213   4.366   0.381
 3953TIP3    H211824   6.355   4.415   0.396
 3954TIP3   OH211825   2.736   6.135   1.468
 3954TIP3    H111826   2.643   6.151   1.482
 3954TIP3    H211827   2.767   6.098   1.550
 3955TIP3   OH211828   3.675   6.376   4.707
 3955TIP3    H111829   3.681   6.415   4.794
 3955TIP3    H211830   3.724   6.435   4.651
 3956TIP3   OH211831   4.779   1.157   0.407
 3956TIP3    H111832   4.790   1.070   0.370
 3956TIP3    H211833   4.853   1.167   0.467
 3957TIP3   OH211834   5.125   2.438   4.731
 3957TIP3    H111835   5.058   2.377   4.700
 3957TIP3    H211836   5.199   2.383   4.756
 3958TIP3   OH211837   5.312   3.976   3.754
 3958TIP3    H111838   5.259   4.055   3.744
 3958TIP3    H211839   5.304   3.932   3.669
 3959TIP3   OH211840   4.247   2.660   5.807
 3959TIP3    H111841   4.283   2.572   5.810
 3959TIP3    H211842   4.155   2.648   5.785
 3960TIP3   OH211843   2.845   3.358   5.345
 3960TIP3    H111844   2.768   3.357   5.402
 3960TIP3    H211845   2.907   3.298   5.387
 3961TIP3   OH211846   7.148   4.847   2.565
 3961TIP3    H111847   7.087   4.815   2.632
 3961TIP3    H211848   7.091   4.878   2.494
 3962TIP3   OH211849   0.737   1.616   0.386
 3962TIP3    H111850   0.787   1.538   0.409
 3962TIP3    H211851   0.690   1.592   0.307
 3963TIP3   OH211852   6.790   1.562   1.288
 3963TIP3    H111853   6.751   1.480   1.258
 3963TIP3    H211854   6.719   1.626   1.283
 3964TIP3   OH211855   4.756   6.270   2.533
 3964TIP3    H111856   4.780   6.216   2.458
 3964TIP3    H211857   4.818   6.245   2.602
 3965TIP3   OH211858   0.928   4.891   2.771
 3965TIP3    H111859   0.936   4.893   2.866
 3965TIP3    H211860   0.979   4.814   2.745
 3966TIP3   OH211861   2.882   1.309   4.258
 3966TIP3    H111862   2.927   1.286   4.177
 3966TIP3    H211863   2.885   1.405   4.261
 3967TIP3   OH211864   4.197   3.788   2.640
 3967TIP3    H111865   4.187   3.877   2.675
 3967TIP3    H211866   4.241   3.801   2.556
 3968TIP3   OH211867   4.021   5.061   5.335
 3968TIP3    H111868   3.964   5.124   5.380
 3968TIP3    H211869   3.962   5.016   5.275
 3969TIP3   OH211870   0.896   1.473   4.379
 3969TIP3    H111871   0.833   1.423   4.430
 3969TIP3    H211872   0.904   1.557   4.425
 3970TIP3   OH211873   7.065   1.976   4.528
 3970TIP3    H111874   7.046   1.972   4.434
 3970TIP3    H211875   7.094   2.067   4.542
 3971TIP3   OH211876   5.690   5.171   3.083
 3971TIP3    H111877   5.757   5.197   3.147
 3971TIP3    H211878   5.635   5.249   3.074
 3972TIP3   OH211879   2.095   6.403   4.019
 3972TIP3    H111880   2.170   6.363   4.063
 3972TIP3    H211881   2.090   6.358   3.935
 3973TIP3   OH211882   5.680   6.788   1.937
 3973TIP3    H111883   5.619   6.731   1.889
 3973TIP3    H211884   5.745   6.814   1.873
 3974TIP3   OH211885   4.272   2.490   2.066
 3974TIP3    H111886   4.261   2.414   2.008
 3974TIP3    H211887   4.183   2.517   2.087
 3975TIP3   OH211888   0.249   2.088   3.028
 3975TIP3    H111889   0.254   2.041   3.111
 3975TIP3    H211890   0.168   2.057   2.987
 3976TIP3   OH211891   5.193   3.072   4.540
 3976TIP3    H111892   5.269   3.129   4.548
 3976TIP3    H211893   5.121   3.130   4.515
 3977TIP3   OH211894   2.849   5.651   4.600
 3977TIP3    H111895   2.780   5.584   4.599
 3977TIP3    H211896   2.850   5.684   4.510
 3978TIP3   OH211897   6.935   1.976   2.977
 3978TIP3    H111898   6.854   1.967   2.926
 3978TIP3    H211899   6.905   2.005   3.063
 3979TIP3   OH211900   5.645   1.867   1.664
 3979TIP3    H111901   5.691   1.878   1.748
 3979TIP3    H211902   5.584   1.940   1.660
 3980TIP3   OH211903   3.874   3.350   4.466
 3980TIP3    H111904   3.913   3.290   4.529
 3980TIP3    H211905   3.937   3.422   4.459
 3981TIP3   OH211906   0.691   1.026   4.801
 3981TIP3    H111907   0.692   1.009   4.896
 3981TIP3    H211908   0.662   0.943   4.763
 3982TIP3   OH211909   6.503   6.621   2.289
 3982TIP3    H111910   6.481   6.587   2.376
 3982TIP3    H211911   6.438   6.690   2.274
 3983TIP3   OH211912  -0.001   3.684   3.399
 3983TIP3    H111913   0.064   3.656   3.464
 3983TIP3    H211914  -0.065   3.613   3.397
 3984TIP3   OH211915   6.876   6.431   0.277
 3984TIP3    H111916   6.868   6.527   0.270
 3984TIP3    H211917   6.868   6.413   0.370
 3985TIP3   OH211918   5.947   4.339   4.232
 3985TIP3    H111919   5.887   4.268   4.210
 3985TIP3    H211920   5.973   4.321   4.323
 3986TIP3   OH211921   0.505   5.986   4.184
 3986TIP3    H111922   0.515   6.075   4.216
 3986TIP3    H211923   0.593   5.958   4.161
 3987TIP3   OH211924   6.903   2.411   4.003
 3987TIP3    H111925   6.934   2.352   4.072
 3987TIP3    H211926   6.853   2.354   3.944
 3988TIP3   OH211927   2.874   5.456   3.937
 3988TIP3    H111928   2.905   5.516   4.005
 3988TIP3    H211929   2.874   5.370   3.980
 3989TIP3   OH211930   3.246   3.974   0.269
 3989TIP3    H111931   3.255   3.883   0.240
 3989TIP3    H211932   3.153   3.982   0.291
 3990TIP3   OH211933   0.409   2.076   3.404
 3990TIP3    H111934   0.473   2.073   3.333
 3990TIP3    H211935   0.413   1.989   3.444
 3991TIP3   OH211936   5.940   5.003   0.318
 3991TIP3    H111937   5.883   4.926   0.318
 3991TIP3    H211938   5.895   5.067   0.263
 3992TIP3   OH211939   3.270   6.472   3.115
 3992TIP3    H111940   3.323   6.468   3.194
 3992TIP3    H211941   3.224   6.556   3.120
 3993TIP3   OH211942   2.679   1.284   2.943
 3993TIP3    H111943   2.726   1.208   2.978
 3993TIP3    H211944   2.591   1.251   2.925
 3994TIP3   OH211945   4.826   3.240   1.289
 3994TIP3    H111946   4.778   3.278   1.362
 3994TIP3    H211947   4.894   3.305   1.270
 3995TIP3   OH211948   6.843   0.966   2.229
 3995TIP3    H111949   6.836   1.051   2.185
 3995TIP3    H211950   6.919   0.924   2.188
 3996TIP3   OH211951   0.703   1.985   2.249
 3996TIP3    H111952   0.643   1.910   2.247
 3996TIP3    H211953   0.776   1.957   2.303
 3997TIP3   OH211954   2.837   4.132   4.673
 3997TIP3    H111955   2.752   4.143   4.715
 3997TIP3    H211956   2.843   4.203   4.610
 3998TIP3   OH211957   1.154   6.164   2.626
 3998TIP3    H111958   1.191   6.232   2.570
 3998TIP3    H211959   1.090   6.118   2.571
 3999TIP3   OH211960   6.272   3.681   3.934
 3999TIP3    H111961   6.227   3.755   3.893
 3999TIP3    H211962   6.286   3.709   4.025
 4000TIP3   OH211963   4.225   1.346   1.464
 4000TIP3    H111964   4.270   1.401   1.399
 4000TIP3    H211965   4.257   1.378   1.548
 4001TIP3   OH211966   6.745   6.586   2.789
 4001TIP3    H111967   6.724   6.493   2.778
 4001TIP3    H211968   6.688   6.614   2.861
 4002TIP3   OH211969   7.132   0.100   0.239
 4002TIP3    H111970   7.164   0.161   0.173
 4002TIP3    H211971   7.189   0.115   0.315
 4003TIP3   OH211972   5.199   3.622   4.141
 4003TIP3    H111973   5.220   3.677   4.065
 4003TIP3    H211974   5.285   3.596   4.176
 4004TIP3   OH211975   5.293   5.269   3.943
 4004TIP3    H111976   5.297   5.213   4.020
 4004TIP3    H211977   5.373   5.250   3.895
 4005TIP3   OH211978   1.734   1.745   0.726
 4005TIP3    H111979   1.674   1.679   0.692
 4005TIP3    H211980   1.808   1.695   0.760
 4006TIP3   OH211981   4.590   2.948   5.643
 4006TIP3    H111982   4.537   2.990   5.575
 4006TIP3    H211983   4.617   3.020   5.700
 4007TIP3   OH211984   4.260   2.776   0.604
 4007TIP3    H111985   4.306   2.745   0.525
 4007TIP3    H211986   4.326   2.827   0.651
 4008TIP3   OH211987   0.733   3.668   5.299
 4008TIP3    H111988   0.709   3.607   5.230
 4008TIP3    H211989   0.726   3.617   5.380
 4009TIP3   OH211990   3.813   5.104   5.050
 4009TIP3    H111991   3.762   5.120   4.971
 4009TIP3    H211992   3.895   5.066   5.018
 4010TIP3   OH211993   4.481   3.178   3.404
 4010TIP3    H111994   4.494   3.192   3.311
 4010TIP3    H211995   4.513   3.259   3.445
 4011TIP3   OH211996   0.272   5.592   3.863
 4011TIP3    H111997   0.355   5.545   3.854
 4011TIP3    H211998   0.291   5.663   3.923
 4012TIP3   OH211999   6.122   3.932   3.924
 4012TIP3    H112000   6.190   3.983   3.879
 4012TIP3    H212001   6.154   3.922   4.013
 4013TIP3   OH212002   3.998   5.591   3.419
 4013TIP3    H112003   4.034   5.678   3.436
 4013TIP3    H212004   3.973   5.593   3.327
 4014TIP3   OH212005   6.385   6.324   5.401
 4014TIP3    H112006   6.380   6.233   5.371
 4014TIP3    H212007   6.472   6.353   5.374
 4015TIP3   OH212008   3.527   5.275   0.020
 4015TIP3    H112009   3.504   5.262   0.112
 4015TIP3    H212010   3.450   5.244  -0.028
 4016TIP3   OH212011   5.539   6.202   2.795
 4016TIP3    H112012   5.466   6.143   2.781
 4016TIP3    H212013   5.602   6.150   2.847
 4017TIP3   OH212014   3.001   2.740   3.774
 4017TIP3    H112015   2.911   2.772   3.776
 4017TIP3    H212016   3.052   2.809   3.817
 4018TIP3   OH212017   2.004   0.983   1.390
 4018TIP3    H112018   2.076   1.044   1.403
 4018TIP3    H212019   2.012   0.955   1.299
 4019TIP3   OH212020   0.892   4.571   3.872
 4019TIP3    H112021   0.965   4.549   3.814
 4019TIP3    H212022   0.830   4.499   3.862
 4020TIP3   OH212023   5.995   1.305  -0.029
 4020TIP3    H112024   6.082   1.266  -0.040
 4020TIP3    H212025   5.961   1.265   0.050
 4021TIP3   OH212026   1.513   2.031   4.010
 4021TIP3    H112027   1.551   2.019   3.923
 4021TIP3    H212028   1.418   2.028   3.995
 4022TIP3   OH212029   5.557   3.209   5.555
 4022TIP3    H112030   5.557   3.247   5.643
 4022TIP3    H212031   5.647   3.221   5.524
 4023TIP3   OH212032   6.823   0.706   4.688
 4023TIP3    H112033   6.734   0.671   4.683
 4023TIP3    H212034   6.878   0.628   4.701
 4024TIP3   OH212035   6.440   1.172   3.168
 4024TIP3    H112036   6.469   1.247   3.220
 4024TIP3    H212037   6.521   1.128   3.141
 4025TIP3   OH212038   1.444   1.328   5.618
 4025TIP3    H112039   1.511   1.317   5.686
 4025TIP3    H212040   1.487   1.379   5.550
 4026TIP3   OH212041   3.804   6.146   0.558
 4026TIP3    H112042   3.720   6.109   0.532
 4026TIP3    H212043   3.832   6.197   0.482
 4027TIP3   OH212044   6.981   3.286   1.911
 4027TIP3    H112045   6.985   3.206   1.964
 4027TIP3    H212046   7.021   3.353   1.967
 4028TIP3   OH212047   4.095   2.498   1.005
 4028TIP3    H112048   4.190   2.505   1.000
 4028TIP3    H212049   4.077   2.484   1.098
 4029TIP3   OH212050   4.965   1.764   4.647
 4029TIP3    H112051   4.936   1.800   4.731
 4029TIP3    H212052   4.952   1.836   4.585
 4030TIP3   OH212053   0.841   2.548   0.865
 4030TIP3    H112054   0.919   2.584   0.906
 4030TIP3    H212055   0.799   2.496   0.933
 4031TIP3   OH212056   6.842   1.039   3.363
 4031TIP3    H112057   6.826   0.954   3.323
 4031TIP3    H212058   6.759   1.086   3.354
 4032TIP3   OH212059   5.596   0.377   5.521
 4032TIP3    H112060   5.529   0.316   5.490
 4032TIP3    H212061   5.606   0.356   5.614
 4033TIP3   OH212062   3.156   6.507   1.248
 4033TIP3    H112063   3.224   6.575   1.247
 4033TIP3    H212064   3.138   6.493   1.341
 4034TIP3   OH212065   3.095   3.213   3.843
 4034TIP3    H112066   3.123   3.177   3.759
 4034TIP3    H212067   3.163   3.277   3.865
 4035TIP3   OH212068   2.968   4.540   4.150
 4035TIP3    H112069   2.914   4.571   4.077
 4035TIP3    H212070   2.940   4.450   4.164
 4036TIP3   OH212071   7.111   5.524   4.110
 4036TIP3    H112072   7.183   5.481   4.064
 4036TIP3    H212073   7.055   5.559   4.041
 4037TIP3   OH212074   2.577   0.081   1.092
 4037TIP3    H112075   2.512   0.151   1.091
 4037TIP3    H212076   2.553   0.026   1.017
 4038TIP3   OH212077   2.704   2.093   2.602
 4038TIP3    H112078   2.678   2.024   2.541
 4038TIP3    H212079   2.645   2.083   2.677
 4039TIP3   OH212080   2.640   6.038   0.925
 4039TIP3    H112081   2.656   6.098   0.998
 4039TIP3    H212082   2.609   5.958   0.967
 4040TIP3   OH212083   1.356   3.615   2.016
 4040TIP3    H112084   1.296   3.585   2.085
 4040TIP3    H212085   1.377   3.536   1.966
 4041TIP3   OH212086   6.756   1.161   0.266
 4041TIP3    H112087   6.680   1.218   0.279
 4041TIP3    H212088   6.814   1.211   0.209
 4042TIP3   OH212089   3.241   5.868   0.453
 4042TIP3    H112090   3.189   5.914   0.386
 4042TIP3    H212091   3.330   5.866   0.418
 4043TIP3   OH212092   1.244   2.087   3.219
 4043TIP3    H112093   1.256   1.996   3.191
 4043TIP3    H212094   1.158   2.089   3.260
 4044TIP3   OH212095   6.658   5.420   4.291
 4044TIP3    H112096   6.720   5.472   4.342
 4044TIP3    H212097   6.587   5.400   4.351
 4045TIP3   OH212098   6.107   3.725   5.884
 4045TIP3    H112099   6.091   3.674   5.805
 4045TIP3    H212100   6.019   3.750   5.914
 4046TIP3   OH212101   1.348   2.055   5.061
 4046TIP3    H112102   1.415   2.047   4.993
 4046TIP3    H212103   1.372   2.134   5.109
 4047TIP3   OH212104   3.245   6.703   5.630
 4047TIP3    H112105   3.176   6.641   5.608
 4047TIP3    H212106   3.324   6.649   5.640
 4048TIP3   OH212107   2.425   4.529   3.390
 4048TIP3    H112108   2.418   4.435   3.378
 4048TIP3    H212109   2.438   4.564   3.301
 4049TIP3   OH212110   4.955   3.657   5.783
 4049TIP3    H112111   4.898   3.603   5.729
 4049TIP3    H212112   4.953   3.615   5.869
 4050TIP3   OH212113   6.640   3.037   3.491
 4050TIP3    H112114   6.732   3.049   3.514
 4050TIP3    H212115   6.626   2.942   3.499
 4051TIP3   OH212116   6.473   5.327   4.100
 4051TIP3    H112117   6.529   5.351   4.174
 4051TIP3    H212118   6.522   5.355   4.023
 4052TIP3   OH212119   0.279   4.230   0.571
 4052TIP3    H112120   0.225   4.224   0.650
 4052TIP3    H212121   0.339   4.303   0.588
 4053TIP3   OH212122   7.179   0.437   5.234
 4053TIP3    H112123   7.192   0.376   5.162
 4053TIP3    H212124   7.255   0.495   5.230
 4054TIP3   OH212125   2.167   1.738   1.525
 4054TIP3    H112126   2.103   1.735   1.596
 4054TIP3    H212127   2.238   1.792   1.559
 4055TIP3   OH212128   6.127   0.454   0.462
 4055TIP3    H112129   6.105   0.366   0.494
 4055TIP3    H212130   6.177   0.493   0.534
 4056TIP3   OH212131   4.906   2.750   0.057
 4056TIP3    H112132   4.880   2.698  -0.020
 4056TIP3    H212133   4.897   2.841   0.029
 4057TIP3   OH212134   3.025   6.590   2.045
 4057TIP3    H112135   2.931   6.572   2.038
 4057TIP3    H212136   3.035   6.633   2.130
 4058TIP3   OH212137   3.677   5.654   5.518
 4058TIP3    H112138   3.768   5.682   5.519
 4058TIP3    H212139   3.626   5.735   5.513
 4059TIP3   OH212140   4.496   3.753   5.606
 4059TIP3    H112141   4.447   3.807   5.668
 4059TIP3    H212142   4.434   3.685   5.579
 4060TIP3   OH212143   6.738   0.059   1.067
 4060TIP3    H112144   6.723  -0.031   1.037
 4060TIP3    H212145   6.802   0.050   1.138
 4061TIP3   OH212146   0.972   0.848   4.765
 4061TIP3    H112147   0.891   0.897   4.750
 4061TIP3    H212148   1.022   0.901   4.826
 4062TIP3   OH212149   4.379   3.474   3.126
 4062TIP3    H112150   4.400   3.517   3.209
 4062TIP3    H212151   4.296   3.513   3.099
 4063TIP3   OH212152   6.116   2.415   1.208
 4063TIP3    H112153   6.196   2.439   1.256
 4063TIP3    H212154   6.147   2.384   1.123
 4064TIP3   OH212155   1.968   0.818   1.877
 4064TIP3    H112156   2.050   0.785   1.914
 4064TIP3    H212157   1.991   0.848   1.790
 4065TIP3   OH212158   3.359   2.250   1.287
 4065TIP3    H112159   3.331   2.226   1.199
 4065TIP3    H212160   3.318   2.335   1.303
 4066TIP3   OH212161   5.211   4.477   3.388
 4066TIP3    H112162   5.197   4.500   3.296
 4066TIP3    H212163   5.140   4.416   3.408
 4067TIP3   OH212164   0.212   2.382   0.631
 4067TIP3    H112165   0.254   2.467   0.620
 4067TIP3    H212166   0.119   2.402   0.636
 4068TIP3   OH212167   2.680   5.380   5.799
 4068TIP3    H112168   2.630   5.312   5.754
 4068TIP3    H212169   2.640   5.462   5.772
 4069TIP3   OH212170   0.032   2.416   0.324
 4069TIP3    H112171   0.001   2.358   0.255
 4069TIP3    H212172  -0.013   2.387   0.403
 4070TIP3   OH212173   2.303   2.700   2.515
 4070TIP3    H112174   2.311   2.721   2.607
 4070TIP3    H212175   2.208   2.701   2.498
 4071TIP3   OH212176   1.541   4.185   1.641
 4071TIP3    H112177   1.528   4.178   1.546
 4071TIP3    H212178   1.465   4.141   1.678
 4072TIP3   OH212179   6.910   3.429   2.613
 4072TIP3    H112180   6.828   3.386   2.639
 4072TIP3    H212181   6.919   3.408   2.520
 4073TIP3   OH212182   0.233   0.107   2.102
 4073TIP3    H112183   0.279   0.188   2.126
 4073TIP3    H212184   0.277   0.077   2.023
 4074TIP3   OH212185   1.947   1.303   2.939
 4074TIP3    H112186   1.919   1.241   2.871
 4074TIP3    H212187   1.937   1.255   3.021
 4075TIP3   OH212188   6.789   4.956   3.059
 4075TIP3    H112189   6.817   4.887   3.119
 4075TIP3    H212190   6.706   4.987   3.095
 4076TIP3   OH212191   6.804   6.620   5.400
 4076TIP3    H112192   6.829   6.601   5.491
 4076TIP3    H212193   6.875   6.675   5.367
 4077TIP3   OH212194   4.196   4.263   0.727
 4077TIP3    H112195   4.113   4.236   0.767
 4077TIP3    H212196   4.234   4.324   0.790
 4078TIP3   OH212197   1.414   5.707   5.265
 4078TIP3    H112198   1.346   5.743   5.208
 4078TIP3    H212199   1.445   5.781   5.316
 4079TIP3   OH212200   4.279   0.798   0.225
 4079TIP3    H112201   4.368   0.826   0.206
 4079TIP3    H212202   4.258   0.735   0.155
 4080TIP3   OH212203   3.344   4.246   5.313
 4080TIP3    H112204   3.422   4.240   5.368
 4080TIP3    H212205   3.351   4.173   5.252
 4081TIP3   OH212206   1.740   0.157   3.612
 4081TIP3    H112207   1.685   0.137   3.687
 4081TIP3    H212208   1.758   0.073   3.571
 4082TIP3   OH212209   0.531   4.525   4.786
 4082TIP3    H112210   0.437   4.537   4.802
 4082TIP3    H212211   0.553   4.445   4.833
 4083TIP3   OH212212   4.807   4.911   0.086
 4083TIP3    H112213   4.812   4.848   0.014
 4083TIP3    H212214   4.770   4.862   0.159
 4084TIP3   OH212215   7.151   6.423   5.345
 4084TIP3    H112216   7.182   6.506   5.309
 4084TIP3    H212217   7.133   6.442   5.437
 4085TIP3   OH212218   5.955   5.744   0.612
 4085TIP3    H112219   5.911   5.703   0.686
 4085TIP3    H212220   6.004   5.817   0.650
 4086TIP3   OH212221   6.440   2.290   5.656
 4086TIP3    H112222   6.519   2.260   5.702
 4086TIP3    H212223   6.392   2.210   5.636
 4087TIP3   OH212224   5.982   0.696   3.814
 4087TIP3    H112225   5.982   0.601   3.828
 4087TIP3    H212226   5.892   0.716   3.786
 4088TIP3   OH212227   6.556   0.313   3.372
 4088TIP3    H112228   6.640   0.269   3.388
 4088TIP3    H212229   6.576   0.378   3.305
 4089TIP3   OH212230   7.131   3.186   2.328
 4089TIP3    H112231   7.201   3.180   2.393
 4089TIP3    H212232   7.085   3.267   2.350
 4090TIP3   OH212233   4.404   4.931   0.290
 4090TIP3    H112234   4.397   4.863   0.223
 4090TIP3    H212235   4.462   4.997   0.252
 4091TIP3   OH212236   2.924   0.657   5.703
 4091TIP3    H112237   2.988   0.682   5.770
 4091TIP3    H212238   2.971   0.595   5.647
 4092TIP3   OH212239   2.081   6.011   4.008
 4092TIP3    H112240   2.030   6.080   3.966
 4092TIP3    H212241   2.100   5.949   3.938
 4093TIP3   OH212242   1.624   5.601   3.331
 4093TIP3    H112243   1.669   5.575   3.251
 4093TIP3    H212244   1.682   5.572   3.401
 4094TIP3   OH212245   6.231   5.778   1.981
 4094TIP3    H112246   6.193   5.716   1.918
 4094TIP3    H212247   6.236   5.728   2.063
 4095TIP3   OH212248   6.113   2.630   4.885
 4095TIP3    H112249   6.019   2.626   4.902
 4095TIP3    H212250   6.146   2.693   4.950
 4096TIP3   OH212251   4.799   5.050   0.487
 4096TIP3    H112252   4.778   4.963   0.521
 4096TIP3    H212253   4.895   5.054   0.490
 4097TIP3   OH212254   1.383   1.785   0.660
 4097TIP3    H112255   1.415   1.860   0.710
 4097TIP3    H212256   1.332   1.734   0.723
 4098TIP3   OH212257   5.876   6.119   3.896
 4098TIP3    H112258   5.952   6.160   3.937
 4098TIP3    H212259   5.910   6.038   3.858
 4099TIP3   OH212260   6.182   3.777   0.564
 4099TIP3    H112261   6.272   3.809   0.555
 4099TIP3    H212262   6.134   3.818   0.492
 4100TIP3   OH212263   5.149   6.401   4.239
 4100TIP3    H112264   5.196   6.468   4.288
 4100TIP3    H212265   5.209   6.376   4.168
 4101TIP3   OH212266   6.485   6.451   1.208
 4101TIP3    H112267   6.489   6.538   1.169
 4101TIP3    H212268   6.420   6.459   1.277
 4102TIP3   OH212269   5.409   6.012   0.044
 4102TIP3    H112270   5.348   5.942   0.019
 4102TIP3    H212271   5.356   6.073   0.096
 4103TIP3   OH212272   3.643   2.808   5.840
 4103TIP3    H112273   3.552   2.782   5.826
 4103TIP3    H212274   3.690   2.772   5.765
 4104TIP3   OH212275   5.999   1.258   3.890
 4104TIP3    H112276   6.035   1.236   3.804
 4104TIP3    H212277   6.065   1.227   3.952
 4105TIP3   OH212278   0.434   0.908   2.783
 4105TIP3    H112279   0.481   0.955   2.851
 4105TIP3    H212280   0.356   0.874   2.827
 4106TIP3   OH212281   1.804   3.596   4.569
 4106TIP3    H112282   1.899   3.595   4.577
 4106TIP3    H212283   1.778   3.680   4.607
 4107TIP3   OH212284   7.074   5.909   4.905
 4107TIP3    H112285   7.052   5.938   4.816
 4107TIP3    H212286   6.995   5.864   4.935
 4108TIP3   OH212287   2.913   5.238   5.704
 4108TIP3    H112288   3.002   5.271   5.695
 4108TIP3    H212289   2.864   5.312   5.740
 4109TIP3   OH212290   6.850   5.931   4.198
 4109TIP3    H112291   6.781   5.871   4.227
 4109TIP3    H212292   6.844   5.932   4.103
 4110TIP3   OH212293   5.139   5.125   5.207
 4110TIP3    H112294   5.082   5.183   5.258
 4110TIP3    H212295   5.100   5.123   5.120
 4111TIP3   OH212296   2.321   1.495   0.472
 4111TIP3    H112297   2.269   1.495   0.553
 4111TIP3    H212298   2.282   1.564   0.419
 4112TIP3   OH212299   2.776   1.159   1.037
 4112TIP3    H112300   2.714   1.192   1.103
 4112TIP3    H212301   2.778   1.227   0.970
 4113TIP3   OH212302   5.590   2.317   3.815
 4113TIP3    H112303   5.583   2.372   3.737
 4113TIP3    H212304   5.593   2.228   3.782
 4114TIP3   OH212305   3.178   2.107   4.730
 4114TIP3    H112306   3.176   2.176   4.663
 4114TIP3    H212307   3.242   2.139   4.794
 4115TIP3   OH212308   6.903   4.004   2.478
 4115TIP3    H112309   6.817   4.038   2.452
 4115TIP3    H212310   6.883   3.937   2.544
 4116TIP3   OH212311   2.187   5.707   0.439
 4116TIP3    H112312   2.272   5.664   0.446
 4116TIP3    H212313   2.200   5.775   0.372
 4117TIP3   OH212314   5.827   2.722   5.543
 4117TIP3    H112315   5.801   2.664   5.472
 4117TIP3    H212316   5.913   2.753   5.518
 4118TIP3   OH212317   7.126   0.216   4.813
 4118TIP3    H112318   7.124   0.181   4.724
 4118TIP3    H212319   7.123   0.139   4.870
 4119TIP3   OH212320   1.877   3.632   3.850
 4119TIP3    H112321   1.802   3.639   3.909
 4119TIP3    H212322   1.953   3.633   3.909
 4120TIP3   OH212323   4.357   5.243   3.090
 4120TIP3    H112324   4.315   5.304   3.029
 4120TIP3    H212325   4.299   5.242   3.166
 4121TIP3   OH212326   3.895   4.147   5.026
 4121TIP3    H112327   3.976   4.172   4.981
 4121TIP3    H212328   3.833   4.131   4.955
 4122TIP3   OH212329   7.183   5.418   2.480
 4122TIP3    H112330   7.204   5.330   2.512
 4122TIP3    H212331   7.089   5.415   2.460
 4123TIP3   OH212332   1.365   3.065   1.824
 4123TIP3    H112333   1.363   3.002   1.897
 4123TIP3    H212334   1.452   3.054   1.786
 4124TIP3   OH212335   2.383   2.376   0.943
 4124TIP3    H112336   2.448   2.404   1.007
 4124TIP3    H212337   2.328   2.454   0.929
 4125TIP3   OH212338   5.660   2.459   0.949
 4125TIP3    H112339   5.638   2.413   0.867
 4125TIP3    H212340   5.747   2.425   0.972
 4126TIP3   OH212341   4.238   1.289   5.536
 4126TIP3    H112342   4.151   1.299   5.575
 4126TIP3    H212343   4.222   1.286   5.442
 4127TIP3   OH212344   3.644   0.104   3.129
 4127TIP3    H112345   3.581   0.151   3.073
 4127TIP3    H212346   3.663   0.165   3.199
 4128TIP3   OH212347   6.105   6.607   0.433
 4128TIP3    H112348   6.053   6.685   0.415
 4128TIP3    H212349   6.040   6.539   0.456
 4129TIP3   OH212350   3.858   2.721   3.629
 4129TIP3    H112351   3.881   2.632   3.657
 4129TIP3    H212352   3.790   2.749   3.689
 4130TIP3   OH212353   6.150   5.101   3.778
 4130TIP3    H112354   6.092   5.121   3.851
 4130TIP3    H212355   6.091   5.078   3.706
 4131TIP3   OH212356   5.111   0.174   2.869
 4131TIP3    H112357   5.181   0.154   2.808
 4131TIP3    H212358   5.037   0.120   2.840
 4132TIP3   OH212359   5.752   5.319   2.550
 4132TIP3    H112360   5.686   5.317   2.619
 4132TIP3    H212361   5.745   5.407   2.513
 4133TIP3   OH212362   3.490   4.775   2.225
 4133TIP3    H112363   3.512   4.854   2.174
 4133TIP3    H212364   3.406   4.747   2.189
 4134TIP3   OH212365   2.471   6.354   5.787
 4134TIP3    H112366   2.484   6.417   5.857
 4134TIP3    H212367   2.446   6.273   5.833
 4135TIP3   OH212368   5.784   0.961   4.911
 4135TIP3    H112369   5.757   1.040   4.958
 4135TIP3    H212370   5.812   0.901   4.980
 4136TIP3   OH212371   4.237   4.308   0.153
 4136TIP3    H112372   4.155   4.297   0.201
 4136TIP3    H212373   4.305   4.287   0.217
 4137TIP3   OH212374   6.592   5.974   3.935
 4137TIP3    H112375   6.681   5.938   3.926
 4137TIP3    H212376   6.578   6.026   3.856
 4138TIP3   OH212377   0.526   1.535   3.315
 4138TIP3    H112378   0.537   1.602   3.383
 4138TIP3    H212379   0.441   1.553   3.276
 4139TIP3   OH212380   3.746   2.755   5.292
 4139TIP3    H112381   3.705   2.743   5.206
 4139TIP3    H212382   3.705   2.833   5.328
 4140TIP3   OH212383   2.456   3.424   3.096
 4140TIP3    H112384   2.502   3.383   3.023
 4140TIP3    H212385   2.467   3.518   3.082
 4141TIP3   OH212386   4.052   5.483   5.328
 4141TIP3    H112387   4.141   5.452   5.342
 4141TIP3    H212388   4.016   5.423   5.262
 4142TIP3   OH212389   1.070   4.239   2.007
 4142TIP3    H112390   0.985   4.200   1.986
 4142TIP3    H212391   1.072   4.243   2.103
 4143TIP3   OH212392   5.549   1.430   4.709
 4143TIP3    H112393   5.510   1.382   4.782
 4143TIP3    H212394   5.635   1.389   4.696
 4144TIP3   OH212395   3.162   5.152   3.711
 4144TIP3    H112396   3.083   5.158   3.658
 4144TIP3    H212397   3.135   5.179   3.798
 4145TIP3   OH212398   2.477   1.466   2.588
 4145TIP3    H112399   2.510   1.470   2.499
 4145TIP3    H212400   2.387   1.433   2.579
 4146TIP3   OH212401   5.786   2.550   5.315
 4146TIP3    H112402   5.841   2.483   5.275
 4146TIP3    H212403   5.697   2.526   5.289
 4147TIP3   OH212404   2.059   6.766   3.293
 4147TIP3    H112405   2.143   6.721   3.306
 4147TIP3    H212406   2.065   6.803   3.205
 4148TIP3   OH212407   4.230   6.011   5.065
 4148TIP3    H112408   4.322   6.029   5.046
 4148TIP3    H212409   4.188   6.097   5.066
 4149TIP3   OH212410   5.113   0.774   4.587
 4149TIP3    H112411   5.107   0.809   4.676
 4149TIP3    H212412   5.092   0.681   4.596
 4150TIP3   OH212413   5.038   0.076   1.059
 4150TIP3    H112414   4.976   0.142   1.028
 4150TIP3    H212415   5.124   0.118   1.051
 4151TIP3   OH212416   5.991   6.717   0.840
 4151TIP3    H112417   5.959   6.681   0.758
 4151TIP3    H212418   5.922   6.778   0.868
 4152TIP3   OH212419   2.810   1.941   5.205
 4152TIP3    H112420   2.802   1.983   5.291
 4152TIP3    H212421   2.901   1.956   5.179
 4153TIP3   OH212422   5.663   4.288   3.628
 4153TIP3    H112423   5.719   4.245   3.563
 4153TIP3    H212424   5.651   4.377   3.594
 4154TIP3   OH212425   2.030   4.179   5.565
 4154TIP3    H112426   1.935   4.170   5.568
 4154TIP3    H212427   2.063   4.094   5.592
 4155TIP3   OH212428   4.206   2.464   0.339
 4155TIP3    H112429   4.113   2.486   0.339
 4155TIP3    H212430   4.221   2.423   0.424
 4156TIP3   OH212431   5.334   0.180   3.431
 4156TIP3    H112432   5.275   0.177   3.507
 4156TIP3    H212433   5.348   0.273   3.414
 4157TIP3   OH212434   4.984   3.103   0.179
 4157TIP3    H112435   4.924   3.058   0.120
 4157TIP3    H212436   5.070   3.068   0.157
 4158TIP3   OH212437   2.981   5.231   4.386
 4158TIP3    H112438   3.006   5.273   4.468
 4158TIP3    H212439   2.993   5.299   4.320
 4159TIP3   OH212440   1.380   2.753   2.679
 4159TIP3    H112441   1.413   2.677   2.726
 4159TIP3    H212442   1.432   2.826   2.712
 4160TIP3   OH212443   0.154   3.983   4.519
 4160TIP3    H112444   0.236   4.028   4.538
 4160TIP3    H212445   0.180   3.903   4.473
 4161TIP3   OH212446   0.813   6.230   3.220
 4161TIP3    H112447   0.850   6.295   3.279
 4161TIP3    H212448   0.806   6.150   3.273
 4162TIP3   OH212449   5.408   4.135   5.554
 4162TIP3    H112450   5.335   4.073   5.555
 4162TIP3    H212451   5.470   4.101   5.618
 4163TIP3   OH212452   4.425   3.111   4.737
 4163TIP3    H112453   4.448   3.198   4.769
 4163TIP3    H212454   4.421   3.120   4.642
 4164TIP3   OH212455   4.834   6.066   5.753
 4164TIP3    H112456   4.926   6.088   5.765
 4164TIP3    H212457   4.793   6.147   5.723
 4165TIP3   OH212458   2.428   5.755   3.925
 4165TIP3    H112459   2.474   5.747   3.842
 4165TIP3    H212460   2.439   5.670   3.967
 4166TIP3   OH212461   5.913   6.403   0.482
 4166TIP3    H112462   5.844   6.394   0.417
 4166TIP3    H212463   5.966   6.323   0.472
 4167TIP3   OH212464   1.498   6.077   5.199
 4167TIP3    H112465   1.531   6.166   5.210
 4167TIP3    H212466   1.460   6.077   5.111
 4168TIP3   OH212467   1.359   0.801   2.723
 4168TIP3    H112468   1.312   0.722   2.750
 4168TIP3    H212469   1.308   0.873   2.758
 4169TIP3   OH212470   5.680   5.712   4.981
 4169TIP3    H112471   5.694   5.730   4.888
 4169TIP3    H212472   5.584   5.715   4.991
 4170TIP3   OH212473   5.571   2.425   1.677
 4170TIP3    H112474   5.560   2.488   1.748
 4170TIP3    H212475   5.528   2.465   1.602
 4171TIP3   OH212476   2.928   2.095   3.661
 4171TIP3    H112477   2.851   2.150   3.668
 4171TIP3    H212478   2.921   2.033   3.733
 4172TIP3   OH212479   5.272   0.939   1.719
 4172TIP3    H112480   5.335   0.872   1.746
 4172TIP3    H212481   5.292   0.956   1.627
 4173TIP3   OH212482   1.415   2.339   3.880
 4173TIP3    H112483   1.480   2.311   3.944
 4173TIP3    H212484   1.348   2.383   3.932
 4174TIP3   OH212485   6.451   2.676   0.281
 4174TIP3    H112486   6.378   2.621   0.252
 4174TIP3    H212487   6.525   2.649   0.226
 4175TIP3   OH212488   4.880   1.495   2.129
 4175TIP3    H112489   4.913   1.534   2.210
 4175TIP3    H212490   4.949   1.434   2.103
 4176TIP3   OH212491   6.740   1.923   5.348
 4176TIP3    H112492   6.801   1.957   5.413
 4176TIP3    H212493   6.661   1.902   5.398
 4177TIP3   OH212494   3.672   1.013   1.303
 4177TIP3    H112495   3.684   0.988   1.211
 4177TIP3    H212496   3.744   1.073   1.321
 4178TIP3   OH212497   1.837   0.516   0.831
 4178TIP3    H112498   1.849   0.563   0.748
 4178TIP3    H212499   1.884   0.434   0.819
 4179TIP3   OH212500   2.023   4.626   1.468
 4179TIP3    H112501   2.059   4.594   1.385
 4179TIP3    H212502   2.052   4.562   1.533
 4180TIP3   OH212503   2.223   5.927   1.932
 4180TIP3    H112504   2.315   5.924   1.957
 4180TIP3    H212505   2.223   5.904   1.839
 4181TIP3   OH212506   0.245   3.107   2.003
 4181TIP3    H112507   0.206   3.193   2.018
 4181TIP3    H212508   0.302   3.119   1.927
 4182TIP3   OH212509   3.942   3.998   0.127
 4182TIP3    H112510   3.981   3.946   0.197
 4182TIP3    H212511   3.928   4.084   0.166
 4183TIP3   OH212512   0.280   2.132   5.666
 4183TIP3    H112513   0.363   2.178   5.653
 4183TIP3    H212514   0.224   2.165   5.596
 4184TIP3   OH212515   6.743   4.553   0.829
 4184TIP3    H112516   6.753   4.457   0.826
 4184TIP3    H212517   6.650   4.568   0.809
 4185TIP3   OH212518   5.656   5.635   2.219
 4185TIP3    H112519   5.696   5.637   2.132
 4185TIP3    H212520   5.730   5.624   2.279
 4186TIP3   OH212521   1.528   2.792   0.201
 4186TIP3    H112522   1.446   2.779   0.249
 4186TIP3    H212523   1.501   2.827   0.117
 4187TIP3   OH212524   1.537   2.694   4.152
 4187TIP3    H112525   1.464   2.756   4.144
 4187TIP3    H212526   1.570   2.685   4.062
 4188TIP3   OH212527   1.058   0.060   3.667
 4188TIP3    H112528   1.042   0.136   3.611
 4188TIP3    H212529   1.154   0.052   3.668
 4189TIP3   OH212530   2.466   3.929   3.746
 4189TIP3    H112531   2.487   3.948   3.654
 4189TIP3    H212532   2.474   3.834   3.753
 4190TIP3   OH212533   6.187   3.743   2.937
 4190TIP3    H112534   6.190   3.835   2.910
 4190TIP3    H212535   6.101   3.732   2.977
 4191TIP3   OH212536   1.618   0.753   5.327
 4191TIP3    H112537   1.598   0.677   5.381
 4191TIP3    H212538   1.713   0.756   5.324
 4192TIP3   OH212539   2.133   2.091   5.835
 4192TIP3    H112540   2.168   2.046   5.912
 4192TIP3    H212541   2.055   2.041   5.811
 4193TIP3   OH212542   6.811   5.503   0.802
 4193TIP3    H112543   6.876   5.467   0.862
 4193TIP3    H212544   6.731   5.508   0.853
 4194TIP3   OH212545   4.153   3.826   3.434
 4194TIP3    H112546   4.059   3.817   3.449
 4194TIP3    H212547   4.192   3.830   3.521
 4195TIP3   OH212548   0.264   5.211   4.326
 4195TIP3    H112549   0.189   5.162   4.293
 4195TIP3    H212550   0.244   5.226   4.419
 4196TIP3   OH212551   5.833   1.770   3.773
 4196TIP3    H112552   5.777   1.798   3.846
 4196TIP3    H212553   5.830   1.675   3.775
 4197TIP3   OH212554   4.297   3.511   4.043
 4197TIP3    H112555   4.317   3.474   4.129
 4197TIP3    H212556   4.279   3.603   4.061
 4198TIP3   OH212557   7.238   3.561   4.290
 4198TIP3    H112558   7.159   3.563   4.237
 4198TIP3    H212559   7.243   3.472   4.324
 4199TIP3   OH212560   2.763   6.467   0.910
 4199TIP3    H112561   2.799   6.475   0.998
 4199TIP3    H212562   2.770   6.555   0.873
 4200TIP3   OH212563   1.417   3.287   3.176
 4200TIP3    H112564   1.472   3.221   3.217
 4200TIP3    H212565   1.370   3.240   3.107
 4201TIP3   OH212566   5.572   2.521   4.636
 4201TIP3    H112567   5.652   2.541   4.586
 4201TIP3    H212568   5.537   2.607   4.660
 4202TIP3   OH212569   5.608   6.034   4.678
 4202TIP3    H112570   5.663   6.100   4.720
 4202TIP3    H212571   5.618   6.050   4.584
 4203TIP3   OH212572   6.111   1.959   1.768
 4203TIP3    H112573   6.053   1.958   1.691
 4203TIP3    H212574   6.072   2.024   1.826
 4204TIP3   OH212575   5.845   4.474   2.196
 4204TIP3    H112576   5.761   4.455   2.156
 4204TIP3    H212577   5.870   4.559   2.161
 4205TIP3   OH212578   5.011   4.673   0.641
 4205TIP3    H112579   5.042   4.583   0.652
 4205TIP3    H212580   5.036   4.716   0.723
 4206TIP3   OH212581   4.058   1.577   4.281
 4206TIP3    H112582   4.091   1.651   4.332
 4206TIP3    H212583   4.137   1.530   4.254
 4207TIP3   OH212584   5.295   1.003   0.354
 4207TIP3    H112585   5.255   1.084   0.383
 4207TIP3    H212586   5.345   1.028   0.276
 4208TIP3   OH212587   6.133   3.320   0.873
 4208TIP3    H112588   6.083   3.364   0.942
 4208TIP3    H212589   6.138   3.385   0.802
 4209TIP3   OH212590   4.101   4.903   4.084
 4209TIP3    H112591   4.044   4.977   4.103
 4209TIP3    H212592   4.046   4.841   4.037
 4210TIP3   OH212593   2.961   3.012   2.710
 4210TIP3    H112594   3.028   3.033   2.646
 4210TIP3    H212595   2.882   2.998   2.658
 4211TIP3   OH212596   6.744   4.094   3.650
 4211TIP3    H112597   6.700   4.010   3.637
 4211TIP3    H212598   6.751   4.103   3.745
 4212TIP3   OH212599   4.061   4.627   1.767
 4212TIP3    H112600   4.000   4.554   1.776
 4212TIP3    H212601   4.147   4.588   1.780
 4213TIP3   OH212602   1.767   6.602   4.572
 4213TIP3    H112603   1.786   6.643   4.488
 4213TIP3    H212604   1.675   6.576   4.567
 4214TIP3   OH212605   6.343   5.301   1.018
 4214TIP3    H112606   6.297   5.218   1.012
 4214TIP3    H212607   6.353   5.330   0.927
 4215TIP3   OH212608   4.314   3.216   0.855
 4215TIP3    H112609   4.325   3.306   0.886
 4215TIP3    H212610   4.266   3.172   0.925
 4216TIP3   OH212611   0.938   4.417   0.636
 4216TIP3    H112612   0.980   4.494   0.598
 4216TIP3    H212613   0.845   4.438   0.638
 4217TIP3   OH212614   3.549   4.176   4.258
 4217TIP3    H112615   3.454   4.187   4.265
 4217TIP3    H212616   3.562   4.082   4.245
 4218TIP3   OH212617   3.595   5.183   5.453
 4218TIP3    H112618   3.591   5.177   5.548
 4218TIP3    H212619   3.567   5.272   5.433
 4219TIP3   OH212620   6.349   5.843   5.052
 4219TIP3    H112621   6.311   5.777   5.109
 4219TIP3    H212622   6.283   5.857   4.984
 4220TIP3   OH212623   4.065   2.343   2.360
 4220TIP3    H112624   4.073   2.289   2.282
 4220TIP3    H212625   4.145   2.396   2.362
 4221TIP3   OH212626   6.648   0.497   3.221
 4221TIP3    H112627   6.672   0.456   3.137
 4221TIP3    H212628   6.577   0.557   3.199
 4222TIP3   OH212629   1.688   6.291   4.655
 4222TIP3    H112630   1.665   6.219   4.596
 4222TIP3    H212631   1.784   6.296   4.651
 4223TIP3   OH212632   2.767   1.282   0.466
 4223TIP3    H112633   2.721   1.218   0.413
 4223TIP3    H212634   2.849   1.298   0.420
 4224TIP3   OH212635   3.721   0.941   1.033
 4224TIP3    H112636   3.763   1.013   0.986
 4224TIP3    H212637   3.745   0.862   0.984
 4225TIP3   OH212638   2.745   3.590   4.906
 4225TIP3    H112639   2.670   3.585   4.966
 4225TIP3    H212640   2.783   3.677   4.922
 4226TIP3   OH212641   1.482   2.801   2.306
 4226TIP3    H112642   1.506   2.803   2.399
 4226TIP3    H212643   1.563   2.779   2.260
 4227TIP3   OH212644   3.620   5.535   1.468
 4227TIP3    H112645   3.575   5.548   1.384
 4227TIP3    H212646   3.588   5.450   1.499
 4228TIP3   OH212647   1.386   2.845   1.526
 4228TIP3    H112648   1.394   2.783   1.454
 4228TIP3    H212649   1.421   2.927   1.491
 4229TIP3   OH212650   7.155   3.142   5.648
 4229TIP3    H112651   7.174   3.126   5.556
 4229TIP3    H212652   7.221   3.091   5.695
 4230TIP3   OH212653   4.607   4.339   1.273
 4230TIP3    H112654   4.582   4.394   1.347
 4230TIP3    H212655   4.528   4.331   1.221
 4231TIP3   OH212656   5.480   2.995   1.914
 4231TIP3    H112657   5.467   2.967   1.823
 4231TIP3    H212658   5.552   2.940   1.945
 4232TIP3   OH212659   2.222   4.031   2.119
 4232TIP3    H112660   2.299   3.976   2.103
 4232TIP3    H212661   2.257   4.108   2.164
 4233TIP3   OH212662   1.515   2.965   2.850
 4233TIP3    H112663   1.481   3.045   2.811
 4233TIP3    H212664   1.609   2.968   2.834
 4234TIP3   OH212665   6.214   6.824   3.082
 4234TIP3    H112666   6.125   6.808   3.053
 4234TIP3    H212667   6.232   6.754   3.145
 4235TIP3   OH212668   2.675   4.156   5.377
 4235TIP3    H112669   2.686   4.112   5.462
 4235TIP3    H212670   2.732   4.108   5.317
 4236TIP3   OH212671   2.359   3.467   1.838
 4236TIP3    H112672   2.451   3.457   1.815
 4236TIP3    H212673   2.338   3.388   1.888
 4237TIP3   OH212674   3.446   1.170   2.847
 4237TIP3    H112675   3.361   1.138   2.877
 4237TIP3    H212676   3.499   1.092   2.836
 4238TIP3   OH212677   1.996   3.454   4.817
 4238TIP3    H112678   2.055   3.444   4.891
 4238TIP3    H212679   2.052   3.478   4.744
 4239TIP3   OH212680   7.080   3.021   4.690
 4239TIP3    H112681   7.031   3.024   4.772
 4239TIP3    H212682   7.039   2.951   4.640
 4240TIP3   OH212683   1.314   1.902   4.691
 4240TIP3    H112684   1.221   1.904   4.712
 4240TIP3    H212685   1.317   1.882   4.598
 4241TIP3   OH212686   0.173   6.517   4.898
 4241TIP3    H112687   0.170   6.422   4.906
 4241TIP3    H212688   0.254   6.543   4.940
 4242TIP3   OH212689   1.506   4.375   5.752
 4242TIP3    H112690   1.548   4.319   5.816
 4242TIP3    H212691   1.421   4.333   5.735
 4243TIP3   OH212692   4.384   2.535   3.543
 4243TIP3    H112693   4.463   2.499   3.584
 4243TIP3    H212694   4.408   2.547   3.451
 4244TIP3   OH212695   5.069   3.781   2.839
 4244TIP3    H112696   5.075   3.767   2.745
 4244TIP3    H212697   5.137   3.846   2.859
 4245TIP3   OH212698   7.004   3.530   3.384
 4245TIP3    H112699   6.942   3.521   3.457
 4245TIP3    H212700   6.968   3.474   3.315
 4246TIP3   OH212701   1.149   2.922   0.492
 4246TIP3    H112702   1.069   2.970   0.471
 4246TIP3    H212703   1.167   2.944   0.583
 4247TIP3   OH212704   3.563   1.475   3.076
 4247TIP3    H112705   3.518   1.471   2.992
 4247TIP3    H212706   3.495   1.459   3.141
 4248TIP3   OH212707   5.702   0.548   0.853
 4248TIP3    H112708   5.630   0.502   0.810
 4248TIP3    H212709   5.669   0.569   0.941
 4249TIP3   OH212710   6.594   3.330   5.515
 4249TIP3    H112711   6.626   3.337   5.605
 4249TIP3    H212712   6.574   3.237   5.504
 4250TIP3   OH212713   0.563   4.695   1.304
 4250TIP3    H112714   0.622   4.735   1.240
 4250TIP3    H212715   0.538   4.611   1.266
 4251TIP3   OH212716   5.371   1.216   4.058
 4251TIP3    H112717   5.390   1.307   4.036
 4251TIP3    H212718   5.452   1.183   4.098
 4252TIP3   OH212719   7.254   1.949   4.176
 4252TIP3    H112720   7.206   2.025   4.207
 4252TIP3    H212721   7.334   1.985   4.137
 4253TIP3   OH212722   4.433   6.144   2.525
 4253TIP3    H112723   4.495   6.217   2.531
 4253TIP3    H212724   4.384   6.162   2.445
 4254TIP3   OH212725   3.233   2.267   4.329
 4254TIP3    H112726   3.202   2.177   4.321
 4254TIP3    H212727   3.162   2.313   4.374
 4255TIP3   OH212728   1.848   5.364   4.594
 4255TIP3    H112729   1.935   5.402   4.580
 4255TIP3    H212730   1.853   5.278   4.553
 4256TIP3   OH212731   6.994   0.218   5.342
 4256TIP3    H112732   7.058   0.147   5.338
 4256TIP3    H212733   7.039   0.293   5.304
 4257TIP3   OH212734   3.556   1.845   5.634
 4257TIP3    H112735   3.563   1.783   5.561
 4257TIP3    H212736   3.616   1.811   5.700
 4258TIP3   OH212737   5.913   0.398   5.555
 4258TIP3    H112738   5.819   0.404   5.571
 4258TIP3    H212739   5.949   0.357   5.633
 4259TIP3   OH212740   5.395  -0.017   0.454
 4259TIP3    H112741   5.460   0.025   0.398
 4259TIP3    H212742   5.330   0.051   0.470
 4260TIP3   OH212743   2.332   2.366   2.686
 4260TIP3    H112744   2.374   2.447   2.657
 4260TIP3    H212745   2.283   2.336   2.609
 4261TIP3   OH212746   3.926   5.427   4.142
 4261TIP3    H112747   3.865   5.446   4.071
 4261TIP3    H212748   3.873   5.428   4.221
 4262TIP3   OH212749   1.917   5.585   2.514
 4262TIP3    H112750   2.013   5.582   2.519
 4262TIP3    H212751   1.891   5.640   2.588
 4263TIP3   OH212752   0.878   0.989   2.526
 4263TIP3    H112753   0.790   0.984   2.563
 4263TIP3    H212754   0.879   0.922   2.458
 4264TIP3   OH212755   5.242   3.499   2.279
 4264TIP3    H112756   5.314   3.554   2.311
 4264TIP3    H212757   5.167   3.558   2.275
 4265TIP3   OH212758   3.767  -0.043   4.328
 4265TIP3    H112759   3.854  -0.073   4.303
 4265TIP3    H212760   3.733   0.001   4.250
 4266TIP3   OH212761   4.707   0.888   0.265
 4266TIP3    H112762   4.623   0.933   0.253
 4266TIP3    H212763   4.758   0.913   0.188
 4267TIP3   OH212764   6.283   1.835   1.443
 4267TIP3    H112765   6.318   1.914   1.401
 4267TIP3    H212766   6.358   1.775   1.446
 4268TIP3   OH212767   1.604   2.554   1.070
 4268TIP3    H112768   1.658   2.624   1.034
 4268TIP3    H212769   1.667   2.488   1.100
 4269TIP3   OH212770   5.057   0.440   0.136
 4269TIP3    H112771   5.028   0.467   0.223
 4269TIP3    H212772   5.057   0.344   0.139
 4270TIP3   OH212773   3.394   5.059   4.006
 4270TIP3    H112774   3.461   5.068   4.074
 4270TIP3    H212775   3.338   4.988   4.037
 4271TIP3   OH212776   7.058   0.782   3.342
 4271TIP3    H112777   7.001   0.799   3.417
 4271TIP3    H212778   7.052   0.688   3.328
 4272TIP3   OH212779   1.591   4.427   2.932
 4272TIP3    H112780   1.625   4.337   2.938
 4272TIP3    H212781   1.669   4.482   2.927
 4273TIP3   OH212782   3.986   0.871   4.843
 4273TIP3    H112783   3.941   0.815   4.907
 4273TIP3    H212784   3.921   0.937   4.819
 4274TIP3   OH212785   0.545   5.694   5.324
 4274TIP3    H112786   0.634   5.720   5.303
 4274TIP3    H212787   0.536   5.606   5.287
 4275TIP3   OH212788   3.386   5.366   2.615
 4275TIP3    H112789   3.420   5.328   2.697
 4275TIP3    H212790   3.307   5.412   2.641
 4276TIP3   OH212791   0.454   1.522   4.218
 4276TIP3    H112792   0.522   1.579   4.256
 4276TIP3    H212793   0.380   1.581   4.203
 4277TIP3   OH212794   2.501   0.735   2.994
 4277TIP3    H112795   2.532   0.805   3.051
 4277TIP3    H212796   2.576   0.713   2.939
 4278TIP3   OH212797   1.067   2.975   2.603
 4278TIP3    H112798   0.992   3.012   2.556
 4278TIP3    H212799   1.077   2.887   2.565
 4279TIP3   OH212800   2.913   3.758   5.505
 4279TIP3    H112801   2.844   3.777   5.442
 4279TIP3    H212802   2.983   3.820   5.484
 4280TIP3   OH212803   3.871   1.019   1.913
 4280TIP3    H112804   3.905   0.951   1.972
 4280TIP3    H212805   3.815   0.971   1.852
 4281TIP3   OH212806   3.642   2.531   2.042
 4281TIP3    H112807   3.686   2.550   2.125
 4281TIP3    H212808   3.691   2.456   2.006
 4282TIP3   OH212809   0.974   4.013   4.564
 4282TIP3    H112810   0.941   3.924   4.554
 4282TIP3    H212811   1.016   4.034   4.481
 4283TIP3   OH212812   5.574   4.072   5.348
 4283TIP3    H112813   5.532   4.099   5.430
 4283TIP3    H212814   5.664   4.051   5.373
 4284TIP3   OH212815   4.101   4.538   1.407
 4284TIP3    H112816   4.014   4.524   1.446
 4284TIP3    H212817   4.144   4.453   1.414
 4285TIP3   OH212818   3.161   3.078   3.602
 4285TIP3    H112819   3.198   3.116   3.523
 4285TIP3    H212820   3.103   3.008   3.570
 4286TIP3   OH212821   3.056   6.189   3.496
 4286TIP3    H112822   3.070   6.124   3.428
 4286TIP3    H212823   3.048   6.138   3.577
 4287TIP3   OH212824   3.800   3.099   3.085
 4287TIP3    H112825   3.793   3.190   3.115
 4287TIP3    H212826   3.881   3.067   3.124
 4288TIP3   OH212827   1.644   1.089   0.507
 4288TIP3    H112828   1.591   1.100   0.586
 4288TIP3    H212829   1.716   1.152   0.518
 4289TIP3   OH212830   3.687   1.344   1.762
 4289TIP3    H112831   3.726   1.265   1.723
 4289TIP3    H212832   3.604   1.315   1.798
 4290TIP3   OH212833   2.482   3.131   5.628
 4290TIP3    H112834   2.546   3.202   5.628
 4290TIP3    H212835   2.535   3.051   5.636
 4291TIP3   OH212836   5.833   4.583   0.181
 4291TIP3    H112837   5.832   4.562   0.088
 4291TIP3    H212838   5.779   4.515   0.222
 4292TIP3   OH212839   7.046   5.691   3.108
 4292TIP3    H112840   7.104   5.731   3.043
 4292TIP3    H212841   6.981   5.644   3.055
 4293TIP3   OH212842   4.368   2.179   3.208
 4293TIP3    H112843   4.432   2.111   3.230
 4293TIP3    H212844   4.403   2.258   3.248
 4294TIP3   OH212845   0.215   3.092   3.921
 4294TIP3    H112846   0.236   3.078   3.829
 4294TIP3    H212847   0.300   3.084   3.966
 4295TIP3   OH212848   4.565   0.242   3.532
 4295TIP3    H112849   4.637   0.199   3.486
 4295TIP3    H212850   4.493   0.179   3.527
 4296TIP3   OH212851   3.100   5.311   0.786
 4296TIP3    H112852   3.023   5.362   0.759
 4296TIP3    H212853   3.152   5.372   0.838
 4297TIP3   OH212854   3.714   6.686   2.105
 4297TIP3    H112855   3.719   6.678   2.010
 4297TIP3    H212856   3.794   6.644   2.137
 4298TIP3   OH212857   3.313   5.943   1.481
 4298TIP3    H112858   3.397   5.905   1.459
 4298TIP3    H212859   3.301   5.924   1.574
 4299TIP3   OH212860   2.258   2.951   1.989
 4299TIP3    H112861   2.311   2.927   1.913
 4299TIP3    H212862   2.170   2.923   1.967
 4300TIP3   OH212863   2.797   2.212   4.358
 4300TIP3    H112864   2.730   2.155   4.320
 4300TIP3    H212865   2.786   2.200   4.453
 4301TIP3   OH212866   5.305   5.595   5.433
 4301TIP3    H112867   5.270   5.665   5.487
 4301TIP3    H212868   5.241   5.525   5.439
 4302TIP3   OH212869   5.108   2.712   2.258
 4302TIP3    H112870   5.182   2.651   2.258
 4302TIP3    H212871   5.131   2.777   2.192
 4303TIP3   OH212872   0.604   6.312   2.100
 4303TIP3    H112873   0.537   6.366   2.141
 4303TIP3    H212874   0.655   6.277   2.173
 4304TIP3   OH212875   1.267   0.593   5.100
 4304TIP3    H112876   1.265   0.589   5.196
 4304TIP3    H212877   1.313   0.514   5.073
 4305TIP3   OH212878   3.427   3.140   0.554
 4305TIP3    H112879   3.522   3.147   0.544
 4305TIP3    H212880   3.401   3.222   0.595
 4306TIP3   OH212881   2.650   1.227   4.135
 4306TIP3    H112882   2.718   1.230   4.202
 4306TIP3    H212883   2.568   1.237   4.184
 4307TIP3   OH212884   2.262   1.837   3.489
 4307TIP3    H112885   2.210   1.768   3.531
 4307TIP3    H212886   2.294   1.798   3.408
 4308TIP3   OH212887   5.679   4.009   4.903
 4308TIP3    H112888   5.590   4.011   4.936
 4308TIP3    H212889   5.710   4.099   4.909
 4309TIP3   OH212890   2.865   3.325   2.437
 4309TIP3    H112891   2.890   3.233   2.432
 4309TIP3    H212892   2.825   3.343   2.352
 4310TIP3   OH212893   1.360   0.543   0.130
 4310TIP3    H112894   1.318   0.610   0.183
 4310TIP3    H212895   1.398   0.591   0.056
 4311TIP3   OH212896   6.870   4.383   5.709
 4311TIP3    H112897   6.858   4.365   5.616
 4311TIP3    H212898   6.895   4.298   5.747
 4312TIP3   OH212899   5.121   6.404   2.153
 4312TIP3    H112900   5.203   6.448   2.176
 4312TIP3    H212901   5.149   6.327   2.104
 4313TIP3   OH212902   3.620   0.074   4.142
 4313TIP3    H112903   3.646   0.135   4.073
 4313TIP3    H212904   3.525   0.068   4.135
 4314TIP3   OH212905   0.688   0.450   5.390
 4314TIP3    H112906   0.683   0.500   5.309
 4314TIP3    H212907   0.712   0.514   5.457
 4315TIP3   OH212908   4.533   4.935   4.076
 4315TIP3    H112909   4.597   4.866   4.093
 4315TIP3    H212910   4.455   4.888   4.046
 4316TIP3   OH212911   0.451   4.134   2.439
 4316TIP3    H112912   0.422   4.056   2.391
 4316TIP3    H212913   0.516   4.175   2.382
 4317TIP3   OH212914   5.943   2.094   5.562
 4317TIP3    H112915   5.913   2.058   5.645
 4317TIP3    H212916   5.872   2.152   5.533
 4318TIP3   OH212917   4.060   0.901   0.559
 4318TIP3    H112918   4.092   0.987   0.584
 4318TIP3    H212919   4.039   0.858   0.642
 4319TIP3   OH212920   4.479   3.830   1.742
 4319TIP3    H112921   4.478   3.786   1.657
 4319TIP3    H212922   4.390   3.864   1.753
 4320TIP3   OH212923   2.617   0.434   0.907
 4320TIP3    H112924   2.585   0.523   0.922
 4320TIP3    H212925   2.550   0.377   0.945
 4321TIP3   OH212926   6.124   4.446   1.689
 4321TIP3    H112927   6.060   4.388   1.731
 4321TIP3    H212928   6.084   4.533   1.693
 4322TIP3   OH212929   0.511   2.782   2.335
 4322TIP3    H112930   0.477   2.835   2.263
 4322TIP3    H212931   0.586   2.832   2.368
 4323TIP3   OH212932   2.596   2.228   1.650
 4323TIP3    H112933   2.683   2.269   1.656
 4323TIP3    H212934   2.576   2.227   1.556
 4324TIP3   OH212935   4.059  -0.024   2.838
 4324TIP3    H112936   4.003  -0.058   2.908
 4324TIP3    H212937   4.089   0.061   2.870
 4325TIP3   OH212938   5.007   4.558   5.250
 4325TIP3    H112939   4.978   4.604   5.329
 4325TIP3    H212940   5.011   4.626   5.183
 4326TIP3   OH212941   4.297   4.724   1.501
 4326TIP3    H112942   4.224   4.779   1.473
 4326TIP3    H212943   4.277   4.638   1.464
 4327TIP3   OH212944   3.857   2.286   1.624
 4327TIP3    H112945   3.952   2.279   1.630
 4327TIP3    H212946   3.831   2.334   1.703
 4328TIP3   OH212947   6.093   5.851   0.208
 4328TIP3    H112948   6.024   5.826   0.145
 4328TIP3    H212949   6.097   5.946   0.201
 4329TIP3   OH212950   5.971   0.606   4.186
 4329TIP3    H112951   5.983   0.542   4.116
 4329TIP3    H212952   6.028   0.573   4.257
 4330TIP3   OH212953   1.242   3.196   5.208
 4330TIP3    H112954   1.238   3.245   5.291
 4330TIP3    H212955   1.318   3.231   5.163
 4331TIP3   OH212956   5.928   5.860   1.901
 4331TIP3    H112957   6.001   5.901   1.855
 4331TIP3    H212958   5.912   5.918   1.976
 4332TIP3   OH212959   3.430   1.688   4.154
 4332TIP3    H112960   3.336   1.703   4.149
 4332TIP3    H212961   3.442   1.633   4.231
 4333TIP3   OH212962   7.044   0.539   0.137
 4333TIP3    H112963   7.008   0.529   0.049
 4333TIP3    H212964   6.991   0.481   0.191
 4334TIP3   OH212965   3.120   0.253   5.591
 4334TIP3    H112966   3.156   0.185   5.532
 4334TIP3    H212967   3.071   0.204   5.656
 4335TIP3   OH212968   3.250   3.149   2.606
 4335TIP3    H112969   3.251   3.125   2.699
 4335TIP3    H212970   3.313   3.221   2.599
 4336TIP3   OH212971   4.415   1.888   1.850
 4336TIP3    H112972   4.421   1.792   1.842
 4336TIP3    H212973   4.499   1.921   1.818
 4337TIP3   OH212974   3.605   1.225   4.462
 4337TIP3    H112975   3.696   1.226   4.489
 4337TIP3    H212976   3.586   1.133   4.443
 4338TIP3   OH212977   1.131   4.110   3.603
 4338TIP3    H112978   1.148   4.175   3.672
 4338TIP3    H212979   1.043   4.077   3.623
 4339TIP3   OH212980   1.281   2.249   1.113
 4339TIP3    H112981   1.307   2.285   1.198
 4339TIP3    H212982   1.231   2.320   1.072
 4340TIP3   OH212983   4.771   2.458   4.591
 4340TIP3    H112984   4.694   2.471   4.646
 4340TIP3    H212985   4.816   2.542   4.592
 4341TIP3   OH212986   6.348   2.477   3.641
 4341TIP3    H112987   6.366   2.385   3.622
 4341TIP3    H212988   6.411   2.501   3.708
 4342TIP3   OH212989   2.632   3.875   0.405
 4342TIP3    H112990   2.705   3.819   0.376
 4342TIP3    H212991   2.560   3.850   0.347
 4343TIP3   OH212992   6.272   2.634   2.530
 4343TIP3    H112993   6.197   2.679   2.491
 4343TIP3    H212994   6.278   2.552   2.480
 4344TIP3   OH212995   1.679   0.002   5.122
 4344TIP3    H112996   1.598  -0.016   5.075
 4344TIP3    H212997   1.684  -0.066   5.188
 4345TIP3   OH212998   7.211   3.040   0.518
 4345TIP3    H112999   7.125   3.051   0.477
 4345TIP3    H213000   7.208   3.093   0.597
 4346TIP3   OH213001   4.805   3.656   3.778
 4346TIP3    H113002   4.753   3.591   3.825
 4346TIP3    H213003   4.843   3.711   3.847
 4347TIP3   OH213004   6.173   3.121   2.125
 4347TIP3    H113005   6.190   3.203   2.078
 4347TIP3    H213006   6.087   3.094   2.093
 4348TIP3   OH213007   3.609   4.183   2.483
 4348TIP3    H113008   3.582   4.096   2.513
 4348TIP3    H213009   3.701   4.190   2.510
 4349TIP3   OH213010   0.513   2.287   5.572
 4349TIP3    H113011   0.516   2.371   5.527
 4349TIP3    H213012   0.591   2.240   5.540
 4350TIP3   OH213013   5.152   5.702   1.188
 4350TIP3    H113014   5.132   5.626   1.242
 4350TIP3    H213015   5.119   5.679   1.101
 4351TIP3   OH213016   0.752   0.533   2.225
 4351TIP3    H113017   0.755   0.467   2.294
 4351TIP3    H213018   0.685   0.501   2.164
 4352TIP3   OH213019   3.092   3.023   5.220
 4352TIP3    H113020   3.002   2.991   5.226
 4352TIP3    H213021   3.119   3.005   5.130
 4353TIP3   OH213022   0.254   0.701   0.603
 4353TIP3    H113023   0.159   0.689   0.601
 4353TIP3    H213024   0.266   0.784   0.650
 4354TIP3   OH213025   5.070   4.964  -0.030
 4354TIP3    H113026   5.040   4.905   0.039
 4354TIP3    H213027   5.028   4.931  -0.109
 4355TIP3   OH213028   3.639   2.747   0.744
 4355TIP3    H113029   3.637   2.673   0.683
 4355TIP3    H213030   3.732   2.767   0.755
 4356TIP3   OH213031   0.473   2.506   3.854
 4356TIP3    H113032   0.383   2.501   3.822
 4356TIP3    H213033   0.525   2.460   3.788
 4357TIP3   OH213034   0.465   2.396   5.310
 4357TIP3    H113035   0.478   2.439   5.395
 4357TIP3    H213036   0.554   2.374   5.281
 4358TIP3   OH213037   5.701   4.000   3.660
 4358TIP3    H113038   5.665   4.079   3.701
 4358TIP3    H213039   5.789   4.025   3.634
 4359TIP3   OH213040   0.041   0.685   0.189
 4359TIP3    H113041   0.017   0.770   0.227
 4359TIP3    H213042  -0.042   0.639   0.178
 4360TIP3   OH213043   1.633   5.131   1.303
 4360TIP3    H113044   1.570   5.133   1.375
 4360TIP3    H213045   1.712   5.094   1.342
 4361TIP3   OH213046   3.066   3.389   2.062
 4361TIP3    H113047   3.055   3.306   2.016
 4361TIP3    H213048   3.098   3.450   1.995
 4362TIP3   OH213049   4.860   3.571   0.512
 4362TIP3    H113050   4.800   3.513   0.559
 4362TIP3    H213051   4.935   3.516   0.491
 4363TIP3   OH213052   7.052   1.607   0.417
 4363TIP3    H113053   6.958   1.605   0.439
 4363TIP3    H213054   7.063   1.536   0.353
 4364TIP3   OH213055   4.097   4.721   0.494
 4364TIP3    H113056   4.158   4.648   0.484
 4364TIP3    H213057   4.052   4.704   0.577
 4365TIP3   OH213058   2.756   5.647   3.467
 4365TIP3    H113059   2.735   5.704   3.541
 4365TIP3    H213060   2.724   5.560   3.494
 4366TIP3   OH213061   4.209   3.023   2.009
 4366TIP3    H113062   4.264   3.101   2.012
 4366TIP3    H213063   4.215   2.994   1.918
 4367TIP3   OH213064   0.768   0.386   0.720
 4367TIP3    H113065   0.755   0.431   0.636
 4367TIP3    H213066   0.812   0.451   0.775
 4368TIP3   OH213067   6.984   0.318   1.729
 4368TIP3    H113068   7.022   0.402   1.754
 4368TIP3    H213069   6.889   0.334   1.728
 4369TIP3   OH213070   2.201   6.463   4.626
 4369TIP3    H113071   2.260   6.401   4.670
 4369TIP3    H213072   2.257   6.511   4.566
 4370TIP3   OH213073   2.405   3.447   5.753
 4370TIP3    H113074   2.419   3.421   5.844
 4370TIP3    H213075   2.320   3.409   5.730
 4371TIP3   OH213076   6.372   3.048   4.902
 4371TIP3    H113077   6.446   3.043   4.962
 4371TIP3    H213078   6.398   2.994   4.827
 4372TIP3   OH213079   2.696   4.621   4.549
 4372TIP3    H113080   2.617   4.661   4.587
 4372TIP3    H213081   2.666   4.576   4.471
 4373TIP3   OH213082   5.770   4.739   0.585
 4373TIP3    H113083   5.744   4.827   0.613
 4373TIP3    H213084   5.740   4.682   0.656
 4374TIP3   OH213085   4.020   0.062   5.619
 4374TIP3    H113086   3.949   0.047   5.556
 4374TIP3    H213087   4.010  -0.009   5.682
 4375TIP3   OH213088   1.859   6.778   5.070
 4375TIP3    H113089   1.861   6.704   5.009
 4375TIP3    H213090   1.928   6.836   5.039
 4376TIP3   OH213091   6.724   1.874   0.706
 4376TIP3    H113092   6.661   1.822   0.658
 4376TIP3    H213093   6.787   1.903   0.640
 4377TIP3   OH213094   4.054   1.999   0.989
 4377TIP3    H113095   4.016   1.933   1.047
 4377TIP3    H213096   4.092   1.949   0.917
 4378TIP3   OH213097   0.712   2.938   3.338
 4378TIP3    H113098   0.747   2.944   3.427
 4378TIP3    H213099   0.753   3.012   3.292
 4379TIP3   OH213100   6.454   5.054   4.097
 4379TIP3    H113101   6.430   5.010   4.015
 4379TIP3    H213102   6.428   5.145   4.083
 4380TIP3   OH213103   4.286   0.328   3.239
 4380TIP3    H113104   4.377   0.318   3.210
 4380TIP3    H213105   4.243   0.247   3.212
 4381TIP3   OH213106   3.786   6.230   5.347
 4381TIP3    H113107   3.806   6.298   5.284
 4381TIP3    H213108   3.738   6.275   5.417
 4382TIP3   OH213109   1.268   2.967   2.286
 4382TIP3    H113110   1.333   2.899   2.305
 4382TIP3    H213111   1.273   3.026   2.362
 4383TIP3   OH213112   1.375   2.430   3.605
 4383TIP3    H113113   1.406   2.411   3.693
 4383TIP3    H213114   1.360   2.525   3.605
 4384TIP3   OH213115   1.140   4.415   2.936
 4384TIP3    H113116   1.101   4.337   2.975
 4384TIP3    H213117   1.074   4.449   2.876
 4385TIP3   OH213118   4.534   2.486   5.558
 4385TIP3    H113119   4.583   2.409   5.530
 4385TIP3    H213120   4.582   2.560   5.519
 4386TIP3   OH213121   1.831   2.779   5.381
 4386TIP3    H113122   1.823   2.694   5.340
 4386TIP3    H213123   1.869   2.761   5.467
 4387TIP3   OH213124   0.084   6.748   1.537
 4387TIP3    H113125   0.099   6.822   1.478
 4387TIP3    H213126   0.143   6.680   1.506
 4388TIP3   OH213127   6.480   4.349   2.628
 4388TIP3    H113128   6.502   4.265   2.588
 4388TIP3    H213129   6.448   4.402   2.555
 4389TIP3   OH213130   2.588   3.712   4.413
 4389TIP3    H113131   2.500   3.747   4.397
 4389TIP3    H213132   2.646   3.769   4.363
 4390TIP3   OH213133   1.182   6.196   5.738
 4390TIP3    H113134   1.271   6.182   5.771
 4390TIP3    H213135   1.127   6.143   5.795
 4391TIP3   OH213136   1.275   1.133   3.506
 4391TIP3    H113137   1.367   1.119   3.526
 4391TIP3    H213138   1.261   1.226   3.522
 4392TIP3   OH213139   4.762   4.666   4.954
 4392TIP3    H113140   4.772   4.744   4.899
 4392TIP3    H213141   4.802   4.595   4.904
 4393TIP3   OH213142   5.230   0.210   0.063
 4393TIP3    H113143   5.294   0.281   0.068
 4393TIP3    H213144   5.281   0.133   0.040
 4394TIP3   OH213145   3.126   6.242   3.864
 4394TIP3    H113146   3.094   6.331   3.847
 4394TIP3    H213147   3.220   6.252   3.873
 4395TIP3   OH213148   4.284   6.071   4.001
 4395TIP3    H113149   4.336   5.992   4.012
 4395TIP3    H213150   4.257   6.096   4.089
 4396TIP3   OH213151   5.088   6.012   1.097
 4396TIP3    H113152   5.014   6.071   1.085
 4396TIP3    H213153   5.053   5.925   1.075
 4397TIP3   OH213154   4.760   1.083   5.038
 4397TIP3    H113155   4.786   1.107   4.949
 4397TIP3    H213156   4.834   1.108   5.093
 4398TIP3   OH213157   5.847   0.697   5.803
 4398TIP3    H113158   5.902   0.744   5.740
 4398TIP3    H213159   5.833   0.611   5.763
 4399TIP3   OH213160   5.620   4.950   3.579
 4399TIP3    H113161   5.540   4.957   3.527
 4399TIP3    H213162   5.593   4.972   3.668
 4400TIP3   OH213163   3.320   3.729   4.541
 4400TIP3    H113164   3.356   3.816   4.554
 4400TIP3    H213165   3.394   3.670   4.554
 4401TIP3   OH213166   6.953   3.056   1.130
 4401TIP3    H113167   6.915   3.060   1.218
 4401TIP3    H213168   6.942   3.145   1.095
 4402TIP3   OH213169   6.992   0.500   3.327
 4402TIP3    H113170   7.038   0.418   3.348
 4402TIP3    H213171   6.946   0.523   3.407
 4403TIP3   OH213172   0.669   1.373   1.472
 4403TIP3    H113173   0.598   1.429   1.503
 4403TIP3    H213174   0.746   1.430   1.474
 4404TIP3   OH213175   2.517   0.910   2.149
 4404TIP3    H113176   2.564   0.834   2.114
 4404TIP3    H213177   2.471   0.946   2.074
 4405TIP3   OH213178   4.001   1.452   5.623
 4405TIP3    H113179   3.974   1.369   5.583
 4405TIP3    H213180   4.042   1.427   5.705
 4406TIP3   OH213181   3.742   6.242   1.594
 4406TIP3    H113182   3.701   6.281   1.670
 4406TIP3    H213183   3.749   6.313   1.531
 4407TIP3   OH213184   5.237   2.455   1.718
 4407TIP3    H113185   5.244   2.496   1.632
 4407TIP3    H213186   5.277   2.517   1.778
 4408TIP3   OH213187   6.848   4.007   3.334
 4408TIP3    H113188   6.914   3.940   3.314
 4408TIP3    H213189   6.892   4.090   3.318
 4409TIP3   OH213190   0.707   1.198   4.284
 4409TIP3    H113191   0.704   1.103   4.296
 4409TIP3    H213192   0.635   1.231   4.338
 4410TIP3   OH213193   6.781   6.098   5.096
 4410TIP3    H113194   6.695   6.061   5.117
 4410TIP3    H213195   6.836   6.022   5.075
 4411TIP3   OH213196   1.558   6.552   2.072
 4411TIP3    H113197   1.495   6.521   2.007
 4411TIP3    H213198   1.517   6.531   2.156
 4412TIP3   OH213199   1.734   1.070   1.341
 4412TIP3    H113200   1.752   1.101   1.253
 4412TIP3    H213201   1.659   1.122   1.370
 4413TIP3   OH213202   4.681   2.518   2.980
 4413TIP3    H113203   4.587   2.505   2.970
 4413TIP3    H213204   4.720   2.435   2.951
 4414TIP3   OH213205   0.990   5.123   2.047
 4414TIP3    H113206   0.896   5.111   2.030
 4414TIP3    H213207   1.002   5.218   2.052
 4415TIP3   OH213208   6.517   4.323   3.955
 4415TIP3    H113209   6.426   4.300   3.939
 4415TIP3    H213210   6.567   4.261   3.902
 4416TIP3   OH213211   6.960   0.985   5.145
 4416TIP3    H113212   6.958   0.920   5.216
 4416TIP3    H213213   6.954   1.069   5.190
 4417TIP3   OH213214   6.648   3.248   0.780
 4417TIP3    H113215   6.599   3.331   0.780
 4417TIP3    H213216   6.659   3.227   0.687
 4418TIP3   OH213217   6.773   2.618   3.753
 4418TIP3    H113218   6.705   2.623   3.820
 4418TIP3    H213219   6.727   2.590   3.674
 4419TIP3   OH213220   1.605   5.312   2.303
 4419TIP3    H113221   1.568   5.260   2.232
 4419TIP3    H213222   1.620   5.399   2.264
 4420TIP3   OH213223   5.213   2.730   5.582
 4420TIP3    H113224   5.180   2.794   5.518
 4420TIP3    H213225   5.280   2.682   5.535
 4421TIP3   OH213226   4.928   4.871   1.345
 4421TIP3    H113227   4.895   4.941   1.401
 4421TIP3    H213228   4.991   4.825   1.400
 4422TIP3   OH213229   4.817   2.563   5.843
 4422TIP3    H113230   4.758   2.619   5.893
 4422TIP3    H213231   4.875   2.624   5.796
 4423TIP3   OH213232   4.238   3.278   4.821
 4423TIP3    H113233   4.300   3.205   4.830
 4423TIP3    H213234   4.226   3.311   4.910
 4424TIP3   OH213235   6.260   1.816   4.507
 4424TIP3    H113236   6.252   1.732   4.551
 4424TIP3    H213237   6.173   1.831   4.469
 4425TIP3   OH213238   6.869   6.451   3.450
 4425TIP3    H113239   6.916   6.518   3.399
 4425TIP3    H213240   6.928   6.432   3.523
 4426TIP3   OH213241   6.552   6.006   5.132
 4426TIP3    H113242   6.494   6.035   5.203
 4426TIP3    H213243   6.494   5.960   5.071
 4427TIP3   OH213244   6.380   0.460   5.012
 4427TIP3    H113245   6.381   0.526   5.081
 4427TIP3    H213246   6.383   0.377   5.059
 4428TIP3   OH213247   7.138   6.177   1.889
 4428TIP3    H113248   7.114   6.266   1.863
 4428TIP3    H213249   7.203   6.189   1.959
 4429TIP3   OH213250   0.021   3.372   5.832
 4429TIP3    H113251  -0.002   3.285   5.798
 4429TIP3    H213252   0.056   3.419   5.757
 4430TIP3   OH213253   1.192   5.137   3.943
 4430TIP3    H113254   1.200   5.071   3.874
 4430TIP3    H213255   1.150   5.212   3.900
 4431TIP3   OH213256   3.498   3.308   0.333
 4431TIP3    H113257   3.424   3.249   0.346
 4431TIP3    H213258   3.466   3.376   0.274
 4432TIP3   OH213259   0.581   6.140   4.422
 4432TIP3    H113260   0.555   6.223   4.464
 4432TIP3    H213261   0.602   6.082   4.495
 4433TIP3   OH213262   6.087   3.141   0.320
 4433TIP3    H113263   6.033   3.110   0.393
 4433TIP3    H213264   6.146   3.068   0.301
 4434TIP3   OH213265   1.129   0.935   1.326
 4434TIP3    H113266   1.146   0.879   1.250
 4434TIP3    H213267   1.102   1.018   1.289
 4435TIP3   OH213268   2.384   1.301   4.202
 4435TIP3    H113269   2.304   1.295   4.150
 4435TIP3    H213270   2.375   1.232   4.268
 4436TIP3   OH213271   0.266   5.511   5.524
 4436TIP3    H113272   0.313   5.439   5.482
 4436TIP3    H213273   0.206   5.468   5.585
 4437TIP3   OH213274   3.396   2.924   3.739
 4437TIP3    H113275   3.389   3.003   3.684
 4437TIP3    H213276   3.350   2.856   3.689
 4438TIP3   OH213277   0.922   3.497   1.597
 4438TIP3    H113278   0.913   3.409   1.632
 4438TIP3    H213279   0.982   3.488   1.523
 4439TIP3   OH213280   4.048   4.994   2.432
 4439TIP3    H113281   3.960   5.031   2.433
 4439TIP3    H213282   4.059   4.953   2.517
 4440TIP3   OH213283   2.479   5.719   1.801
 4440TIP3    H113284   2.384   5.714   1.790
 4440TIP3    H213285   2.514   5.716   1.712
 4441TIP3   OH213286   4.604   5.594   5.127
 4441TIP3    H113287   4.676   5.535   5.108
 4441TIP3    H213288   4.618   5.669   5.069
 4442TIP3   OH213289   5.575   5.512   2.476
 4442TIP3    H113290   5.588   5.591   2.423
 4442TIP3    H213291   5.484   5.518   2.505
 4443TIP3   OH213292   4.678   0.385   1.088
 4443TIP3    H113293   4.697   0.478   1.078
 4443TIP3    H213294   4.600   0.371   1.034
 4444TIP3   OH213295   4.331   6.340   5.627
 4444TIP3    H113296   4.283   6.313   5.706
 4444TIP3    H213297   4.295   6.284   5.558
 4445TIP3   OH213298   5.784   4.731   5.478
 4445TIP3    H113299   5.876   4.729   5.453
 4445TIP3    H213300   5.781   4.784   5.558
 4446TIP3   OH213301   3.247   3.683   1.588
 4446TIP3    H113302   3.196   3.761   1.609
 4446TIP3    H213303   3.254   3.636   1.671
 4447TIP3   OH213304   3.113   3.202   4.346
 4447TIP3    H113305   3.147   3.285   4.315
 4447TIP3    H213306   3.023   3.199   4.314
 4448TIP3   OH213307   4.091   5.149   0.324
 4448TIP3    H113308   4.067   5.060   0.300
 4448TIP3    H213309   4.022   5.177   0.385
 4449TIP3   OH213310   2.310   6.460   1.047
 4449TIP3    H113311   2.241   6.474   1.111
 4449TIP3    H213312   2.340   6.549   1.024
 4450TIP3   OH213313   4.283   1.396   5.039
 4450TIP3    H113314   4.320   1.394   4.951
 4450TIP3    H213315   4.342   1.453   5.089
 4451TIP3   OH213316   4.990   1.421   1.395
 4451TIP3    H113317   5.032   1.499   1.359
 4451TIP3    H213318   5.052   1.350   1.380
 4452TIP3   OH213319   5.113   5.420   5.089
 4452TIP3    H113320   5.083   5.493   5.144
 4452TIP3    H213321   5.199   5.397   5.126
 4453TIP3   OH213322   5.632   2.572   2.929
 4453TIP3    H113323   5.546   2.615   2.930
 4453TIP3    H213324   5.694   2.644   2.919
 4454TIP3   OH213325   2.255   2.074   5.149
 4454TIP3    H113326   2.210   2.030   5.076
 4454TIP3    H213327   2.332   2.020   5.165
 4455TIP3   OH213328   2.825   5.740   0.928
 4455TIP3    H113329   2.802   5.798   0.855
 4455TIP3    H213330   2.782   5.779   1.004
 4456TIP3   OH213331   2.124   5.708   5.202
 4456TIP3    H113332   2.049   5.723   5.144
 4456TIP3    H213333   2.188   5.774   5.176
 4457TIP3   OH213334   6.196   6.514   2.459
 4457TIP3    H113335   6.119   6.489   2.509
 4457TIP3    H213336   6.161   6.545   2.375
 4458TIP3   OH213337   5.323   1.841   2.844
 4458TIP3    H113338   5.308   1.823   2.937
 4458TIP3    H213339   5.370   1.924   2.843
 4459TIP3   OH213340   0.342   0.320   3.098
 4459TIP3    H113341   0.269   0.273   3.139
 4459TIP3    H213342   0.330   0.306   3.004
 4460TIP3   OH213343   3.810   1.037   3.270
 4460TIP3    H113344   3.733   0.999   3.312
 4460TIP3    H213345   3.851   0.964   3.223
 4461TIP3   OH213346   2.241   2.939   5.696
 4461TIP3    H113347   2.320   2.963   5.647
 4461TIP3    H213348   2.231   2.846   5.680
 4462TIP3   OH213349   5.343   4.859   0.907
 4462TIP3    H113350   5.337   4.953   0.893
 4462TIP3    H213351   5.382   4.850   0.994
 4463TIP3   OH213352   4.574   2.207   1.333
 4463TIP3    H113353   4.593   2.262   1.257
 4463TIP3    H213354   4.479   2.199   1.334
 4464TIP3   OH213355   3.826   5.702   2.601
 4464TIP3    H113356   3.797   5.751   2.678
 4464TIP3    H213357   3.903   5.654   2.631
 4465TIP3   OH213358   1.803   2.273   5.133
 4465TIP3    H113359   1.894   2.261   5.160
 4465TIP3    H213360   1.798   2.364   5.104
 4466TIP3   OH213361   6.015   0.354   5.317
 4466TIP3    H113362   5.974   0.370   5.401
 4466TIP3    H213363   5.944   0.326   5.259
 4467TIP3   OH213364   1.334   4.161   0.032
 4467TIP3    H113365   1.314   4.118  -0.051
 4467TIP3    H213366   1.370   4.246   0.008
 4468TIP3   OH213367   4.270   0.067   3.809
 4468TIP3    H113368   4.353   0.027   3.835
 4468TIP3    H213369   4.294   0.135   3.747
 4469TIP3   OH213370   4.782   1.175   0.986
 4469TIP3    H113371   4.808   1.244   1.047
 4469TIP3    H213372   4.810   1.094   1.029
 4470TIP3   OH213373   3.545   5.508   0.756
 4470TIP3    H113374   3.530   5.565   0.832
 4470TIP3    H213375   3.619   5.453   0.783
 4471TIP3   OH213376   3.976   3.456   5.511
 4471TIP3    H113377   3.990   3.526   5.574
 4471TIP3    H213378   4.025   3.483   5.434
 4472TIP3   OH213379   3.513   0.769   4.141
 4472TIP3    H113380   3.598   0.789   4.180
 4472TIP3    H213381   3.535   0.732   4.055
 4473TIP3   OH213382   5.008   6.460   1.523
 4473TIP3    H113383   4.967   6.404   1.589
 4473TIP3    H213384   5.012   6.547   1.564
 4474TIP3   OH213385   0.416   4.110   3.089
 4474TIP3    H113386   0.476   4.108   3.164
 4474TIP3    H213387   0.468   4.147   3.018
 4475TIP3   OH213388   4.525   1.831   0.327
 4475TIP3    H113389   4.472   1.826   0.247
 4475TIP3    H213390   4.614   1.809   0.298
 4476TIP3   OH213391   6.231   3.134   3.241
 4476TIP3    H113392   6.321   3.112   3.217
 4476TIP3    H213393   6.238   3.220   3.282
 4477TIP3   OH213394   4.979   6.598   3.879
 4477TIP3    H113395   4.912   6.654   3.840
 4477TIP3    H213396   4.990   6.632   3.968
 4478TIP3   OH213397   1.515   3.123   4.457
 4478TIP3    H113398   1.604   3.131   4.492
 4478TIP3    H213399   1.467   3.196   4.496
 4479TIP3   OH213400   1.467   3.419   3.589
 4479TIP3    H113401   1.425   3.457   3.512
 4479TIP3    H213402   1.533   3.484   3.615
 4480TIP3   OH213403   3.266   4.124   1.874
 4480TIP3    H113404   3.208   4.200   1.863
 4480TIP3    H213405   3.351   4.163   1.898
 4481TIP3   OH213406   6.466   2.874   4.666
 4481TIP3    H113407   6.561   2.866   4.674
 4481TIP3    H213408   6.436   2.786   4.643
 4482TIP3   OH213409   2.680   2.375  -0.025
 4482TIP3    H113410   2.681   2.393  -0.119
 4482TIP3    H213411   2.736   2.298  -0.015
 4483TIP3   OH213412   4.037   3.681   0.958
 4483TIP3    H113413   4.016   3.588   0.944
 4483TIP3    H213414   4.100   3.681   1.030
 4484TIP3   OH213415   2.210   1.297   0.652
 4484TIP3    H113416   2.123   1.337   0.658
 4484TIP3    H213417   2.195   1.203   0.665
 4485TIP3   OH213418   4.709   5.469   4.522
 4485TIP3    H113419   4.748   5.506   4.601
 4485TIP3    H213420   4.770   5.400   4.496
 4486TIP3   OH213421   1.342   0.609   0.508
 4486TIP3    H113422   1.383   0.690   0.538
 4486TIP3    H213423   1.302   0.632   0.425
 4487TIP3   OH213424   6.058   0.383   4.674
 4487TIP3    H113425   5.992   0.450   4.692
 4487TIP3    H213426   6.059   0.375   4.579
 4488TIP3   OH213427   5.297   6.617   4.044
 4488TIP3    H113428   5.370   6.678   4.029
 4488TIP3    H213429   5.234   6.667   4.096
 4489TIP3   OH213430   3.842   1.053   2.318
 4489TIP3    H113431   3.755   1.035   2.282
 4489TIP3    H213432   3.883   1.110   2.254
 4490TIP3   OH213433   4.762   2.402   2.308
 4490TIP3    H113434   4.785   2.366   2.222
 4490TIP3    H213435   4.722   2.328   2.355
 4491TIP3   OH213436   3.053   6.579   0.595
 4491TIP3    H113437   3.099   6.519   0.536
 4491TIP3    H213438   3.031   6.654   0.539
 4492TIP3   OH213439   1.281   6.013   1.312
 4492TIP3    H113440   1.317   5.925   1.303
 4492TIP3    H213441   1.323   6.049   1.389
 4493TIP3   OH213442   1.217   6.234   1.998
 4493TIP3    H113443   1.187   6.305   2.054
 4493TIP3    H213444   1.306   6.215   2.029
 4494TIP3   OH213445   2.157   4.575   5.926
 4494TIP3    H113446   2.235   4.552   5.976
 4494TIP3    H213447   2.187   4.581   5.835
 4495TIP3   OH213448   1.625   5.248   4.152
 4495TIP3    H113449   1.716   5.233   4.126
 4495TIP3    H213450   1.576   5.240   4.070
 4496TIP3   OH213451   2.685   5.898   3.986
 4496TIP3    H113452   2.694   5.891   3.891
 4496TIP3    H213453   2.591   5.889   4.002
 4497TIP3   OH213454   4.057   4.109   2.065
 4497TIP3    H113455   4.135   4.155   2.034
 4497TIP3    H213456   4.020   4.168   2.132
 4498TIP3   OH213457   2.358   1.994   3.692
 4498TIP3    H113458   2.318   1.932   3.631
 4498TIP3    H213459   2.305   1.988   3.771
 4499TIP3   OH213460   0.802   5.094   5.344
 4499TIP3    H113461   0.730   5.041   5.309
 4499TIP3    H213462   0.858   5.032   5.391
 4500TIP3   OH213463   4.187   1.314   3.512
 4500TIP3    H113464   4.130   1.245   3.477
 4500TIP3    H213465   4.133   1.393   3.509
 4501TIP3   OH213466   3.885   1.579   3.701
 4501TIP3    H113467   3.941   1.522   3.649
 4501TIP3    H213468   3.847   1.522   3.767
 4502TIP3   OH213469   1.469   5.917   5.420
 4502TIP3    H113470   1.476   5.971   5.499
 4502TIP3    H213471   1.460   5.980   5.348
 4503TIP3   OH213472   0.143   0.120   0.851
 4503TIP3    H113473   0.061   0.109   0.804
 4503TIP3    H213474   0.184   0.197   0.811
 4504TIP3   OH213475   4.141   4.104   5.542
 4504TIP3    H113476   4.095   4.096   5.459
 4504TIP3    H213477   4.158   4.197   5.552
 4505TIP3   OH213478   7.218   1.223   4.379
 4505TIP3    H113479   7.273   1.177   4.315
 4505TIP3    H213480   7.133   1.231   4.336
 4506TIP3   OH213481   4.199   5.886   2.073
 4506TIP3    H113482   4.111   5.864   2.105
 4506TIP3    H213483   4.186   5.967   2.023
 4507TIP3   OH213484   6.924   5.180   0.811
 4507TIP3    H113485   6.856   5.159   0.875
 4507TIP3    H213486   6.973   5.252   0.852
 4508TIP3   OH213487   5.565   6.598   0.642
 4508TIP3    H113488   5.494   6.629   0.699
 4508TIP3    H213489   5.550   6.643   0.559
 4509TIP3   OH213490   1.985   2.968   0.828
 4509TIP3    H113491   2.072   2.938   0.803
 4509TIP3    H213492   1.974   2.938   0.919
 4510TIP3   OH213493   2.267   3.635   1.080
 4510TIP3    H113494   2.243   3.725   1.104
 4510TIP3    H213495   2.252   3.585   1.160
 4511TIP3   OH213496   4.303   6.334   2.817
 4511TIP3    H113497   4.354   6.399   2.768
 4511TIP3    H213498   4.222   6.325   2.767
 4512TIP3   OH213499   3.593   4.990   2.081
 4512TIP3    H113500   3.637   5.075   2.081
 4512TIP3    H213501   3.525   4.998   2.013
 4513TIP3   OH213502   6.830   3.004   0.645
 4513TIP3    H113503   6.772   2.982   0.572
 4513TIP3    H213504   6.800   2.947   0.717
 4514TIP3   OH213505   2.082   2.487   4.097
 4514TIP3    H113506   1.997   2.471   4.140
 4514TIP3    H213507   2.075   2.441   4.013
 4515TIP3   OH213508   0.703   2.343   1.011
 4515TIP3    H113509   0.641   2.290   0.961
 4515TIP3    H213510   0.648   2.394   1.070
 4516TIP3   OH213511   0.620   0.591   0.403
 4516TIP3    H113512   0.636   0.629   0.490
 4516TIP3    H213513   0.567   0.513   0.421
 4517TIP3   OH213514   2.712   4.871   2.921
 4517TIP3    H113515   2.790   4.920   2.948
 4517TIP3    H213516   2.662   4.932   2.868
 4518TIP3   OH213517   6.200   0.786   1.892
 4518TIP3    H113518   6.169   0.768   1.980
 4518TIP3    H213519   6.125   0.827   1.848
 4519TIP3   OH213520   4.116   4.225   2.347
 4519TIP3    H113521   4.195   4.208   2.297
 4519TIP3    H213522   4.088   4.139   2.378
 4520TIP3   OH213523   4.957   2.571   4.926
 4520TIP3    H113524   5.016   2.501   4.899
 4520TIP3    H213525   5.015   2.639   4.960
 4521TIP3   OH213526   2.861   3.620   2.548
 4521TIP3    H113527   2.937   3.626   2.606
 4521TIP3    H213528   2.866   3.531   2.512
 4522TIP3   OH213529   1.855   4.803   1.831
 4522TIP3    H113530   1.798   4.771   1.901
 4522TIP3    H213531   1.804   4.791   1.751
 4523TIP3   OH213532   3.876   6.514   5.249
 4523TIP3    H113533   3.956   6.485   5.204
 4523TIP3    H213534   3.907   6.574   5.316
 4524TIP3   OH213535   5.109   0.491   4.581
 4524TIP3    H113536   5.161   0.430   4.528
 4524TIP3    H213537   5.042   0.437   4.621
 4525TIP3   OH213538   2.893   4.942   1.882
 4525TIP3    H113539   2.926   4.852   1.873
 4525TIP3    H213540   2.821   4.948   1.819
 4526TIP3   OH213541   2.001   6.630   4.129
 4526TIP3    H113542   2.014   6.540   4.100
 4526TIP3    H213543   2.014   6.683   4.050
 4527TIP3   OH213544   3.700   3.619   3.020
 4527TIP3    H113545   3.612   3.610   2.982
 4527TIP3    H213546   3.755   3.646   2.947
 4528TIP3   OH213547   6.346   4.639   3.595
 4528TIP3    H113548   6.336   4.626   3.500
 4528TIP3    H213549   6.277   4.700   3.618
 4529TIP3   OH213550   5.787   1.014   1.001
 4529TIP3    H113551   5.843   1.086   1.027
 4529TIP3    H213552   5.827   0.937   1.041
 4530TIP3   OH213553   2.705   4.778   4.868
 4530TIP3    H113554   2.698   4.815   4.780
 4530TIP3    H213555   2.615   4.766   4.896
 4531TIP3   OH213556   0.855   1.777   5.066
 4531TIP3    H113557   0.916   1.850   5.052
 4531TIP3    H213558   0.836   1.779   5.160
 4532TIP3   OH213559   2.263   5.614   2.063
 4532TIP3    H113560   2.357   5.597   2.066
 4532TIP3    H213561   2.236   5.582   1.977
 4533TIP3   OH213562   4.992   4.154   1.815
 4533TIP3    H113563   5.087   4.140   1.821
 4533TIP3    H213564   4.969   4.121   1.728
 4534TIP3   OH213565   0.231   3.591   1.231
 4534TIP3    H113566   0.308   3.643   1.253
 4534TIP3    H213567   0.228   3.523   1.298
 4535TIP3   OH213568   0.421   3.391   5.532
 4535TIP3    H113569   0.489   3.343   5.485
 4535TIP3    H213570   0.339   3.365   5.490
 4536TIP3   OH213571   3.500   3.761   2.216
 4536TIP3    H113572   3.538   3.782   2.302
 4536TIP3    H213573   3.555   3.692   2.181
 4537TIP3   OH213574   5.926   5.849   2.771
 4537TIP3    H113575   5.929   5.755   2.754
 4537TIP3    H213576   5.920   5.856   2.866
 4538TIP3   OH213577   2.779   5.956   2.019
 4538TIP3    H113578   2.826   6.038   2.009
 4538TIP3    H213579   2.846   5.888   2.014
 4539TIP3   OH213580   5.033   2.396   5.287
 4539TIP3    H113581   4.946   2.405   5.248
 4539TIP3    H213582   5.016   2.360   5.374
 4540TIP3   OH213583   4.171   3.130   0.227
 4540TIP3    H113584   4.151   3.069   0.156
 4540TIP3    H213585   4.142   3.085   0.306
 4541TIP3   OH213586   4.811   5.685   0.018
 4541TIP3    H113587   4.904   5.673  -0.003
 4541TIP3    H213588   4.776   5.597   0.020
 4542TIP3   OH213589   5.874   4.944   1.515
 4542TIP3    H113590   5.827   4.887   1.455
 4542TIP3    H213591   5.955   4.897   1.535
 4543TIP3   OH213592   6.582   1.486   4.914
 4543TIP3    H113593   6.551   1.418   4.974
 4543TIP3    H213594   6.567   1.568   4.962
 4544TIP3   OH213595   5.257   4.062   4.263
 4544TIP3    H113596   5.323   4.003   4.298
 4544TIP3    H213597   5.174   4.029   4.298
 4545TIP3   OH213598   2.149   3.277   3.787
 4545TIP3    H113599   2.223   3.320   3.746
 4545TIP3    H213600   2.074   3.334   3.769
 4546TIP3   OH213601   6.214   1.036   5.188
 4546TIP3    H113602   6.258   0.985   5.256
 4546TIP3    H213603   6.174   0.971   5.131
 4547TIP3   OH213604   2.777   3.292   1.816
 4547TIP3    H113605   2.784   3.203   1.850
 4547TIP3    H213606   2.860   3.308   1.770
 4548TIP3   OH213607   6.407   6.174   1.893
 4548TIP3    H113608   6.468   6.246   1.874
 4548TIP3    H213609   6.320   6.211   1.877
 4549TIP3   OH213610   5.504   5.380   3.033
 4549TIP3    H113611   5.464   5.462   3.003
 4549TIP3    H213612   5.448   5.351   3.105
 4550TIP3   OH213613   6.976   1.957   0.585
 4550TIP3    H113614   6.928   2.020   0.530
 4550TIP3    H213615   7.066   1.962   0.555
 4551TIP3   OH213616   1.667   3.866   5.481
 4551TIP3    H113617   1.583   3.901   5.510
 4551TIP3    H213618   1.720   3.944   5.462
 4552TIP3   OH213619   0.791   2.065   0.689
 4552TIP3    H113620   0.876   2.102   0.715
 4552TIP3    H213621   0.814   1.993   0.631
 4553TIP3   OH213622   2.413   3.973   4.616
 4553TIP3    H113623   2.468   4.019   4.552
 4553TIP3    H213624   2.475   3.938   4.680
 4554TIP3   OH213625   5.002   4.847   2.326
 4554TIP3    H113626   4.979   4.839   2.233
 4554TIP3    H213627   4.926   4.889   2.366
 4555TIP3   OH213628   4.829   6.261   3.011
 4555TIP3    H113629   4.754   6.320   3.022
 4555TIP3    H213630   4.897   6.298   3.067
 4556TIP3   OH213631   3.384   1.497   1.726
 4556TIP3    H113632   3.413   1.513   1.816
 4556TIP3    H213633   3.388   1.402   1.716
 4557TIP3   OH213634   3.980   6.577   0.298
 4557TIP3    H113635   4.037   6.603   0.225
 4557TIP3    H213636   3.891   6.585   0.263
 4558TIP3   OH213637   4.479   0.392   0.890
 4558TIP3    H113638   4.399   0.368   0.843
 4558TIP3    H213639   4.538   0.427   0.822
 4559TIP3   OH213640   1.069   3.060   0.752
 4559TIP3    H113641   1.088   3.135   0.809
 4559TIP3    H213642   1.091   2.984   0.805
 4560TIP3   OH213643   5.773   5.781   4.714
 4560TIP3    H113644   5.710   5.843   4.677
 4560TIP3    H213645   5.856   5.802   4.671
 4561TIP3   OH213646   0.528   3.772   3.128
 4561TIP3    H113647   0.598   3.771   3.193
 4561TIP3    H213648   0.571   3.747   3.046
 4562TIP3   OH213649   5.845   2.191   4.261
 4562TIP3    H113650   5.828   2.101   4.237
 4562TIP3    H213651   5.796   2.204   4.342
 4563TIP3   OH213652   4.509   3.796   3.013
 4563TIP3    H113653   4.521   3.734   3.085
 4563TIP3    H213654   4.503   3.742   2.935
 4564TIP3   OH213655   6.141   2.150   5.828
 4564TIP3    H113656   6.178   2.123   5.744
 4564TIP3    H213657   6.140   2.070   5.881
 4565TIP3   OH213658   6.855   0.313   1.404
 4565TIP3    H113659   6.830   0.403   1.424
 4565TIP3    H213660   6.777   0.275   1.363
 4566TIP3   OH213661   2.374   5.346   0.346
 4566TIP3    H113662   2.436   5.285   0.386
 4566TIP3    H213663   2.364   5.416   0.411
 4567TIP3   OH213664   0.845   5.291   4.329
 4567TIP3    H113665   0.923   5.276   4.276
 4567TIP3    H213666   0.785   5.337   4.271
 4568TIP3   OH213667   1.108   1.903   2.325
 4568TIP3    H113668   1.077   1.991   2.346
 4568TIP3    H213669   1.048   1.845   2.371
 4569TIP3   OH213670   5.540   4.578   4.621
 4569TIP3    H113671   5.520   4.485   4.615
 4569TIP3    H213672   5.621   4.582   4.671
 4570TIP3   OH213673   1.295   5.363   0.560
 4570TIP3    H113674   1.336   5.309   0.627
 4570TIP3    H213675   1.233   5.418   0.607
 4571TIP3   OH213676   0.704   3.928   1.334
 4571TIP3    H113677   0.692   3.859   1.399
 4571TIP3    H213678   0.667   3.891   1.253
 4572TIP3   OH213679   2.011   2.507   5.795
 4572TIP3    H113680   1.997   2.464   5.880
 4572TIP3    H213681   2.087   2.462   5.759
 4573TIP3   OH213682   3.205   6.480   4.244
 4573TIP3    H113683   3.182   6.387   4.249
 4573TIP3    H213684   3.224   6.505   4.334
 4574TIP3   OH213685   5.643   5.343   3.617
 4574TIP3    H113686   5.589   5.270   3.647
 4574TIP3    H213687   5.733   5.315   3.633
 4575TIP3   OH213688   1.442   3.613   3.405
 4575TIP3    H113689   1.464   3.615   3.312
 4575TIP3    H213690   1.512   3.662   3.448
 4576TIP3   OH213691   0.058   4.706   0.765
 4576TIP3    H113692  -0.021   4.715   0.818
 4576TIP3    H213693   0.065   4.611   0.750
 4577TIP3   OH213694   4.715   0.980   1.978
 4577TIP3    H113695   4.659   1.008   1.906
 4577TIP3    H213696   4.731   1.060   2.028
 4578TIP3   OH213697   7.031   3.508   4.883
 4578TIP3    H113698   7.039   3.412   4.888
 4578TIP3    H213699   6.962   3.523   4.819
 4579TIP3   OH213700   7.187   3.554   1.965
 4579TIP3    H113701   7.127   3.560   2.039
 4579TIP3    H213702   7.143   3.601   1.894
 4580TIP3   OH213703   6.536   4.323   0.763
 4580TIP3    H113704   6.524   4.305   0.670
 4580TIP3    H213705   6.594   4.253   0.794
 4581TIP3   OH213706   6.214   2.936   2.585
 4581TIP3    H113707   6.218   2.974   2.497
 4581TIP3    H213708   6.278   2.865   2.583
 4582TIP3   OH213709   3.712   6.567   0.544
 4582TIP3    H113710   3.694   6.479   0.576
 4582TIP3    H213711   3.677   6.568   0.455
 4583TIP3   OH213712   1.290   3.526   1.398
 4583TIP3    H113713   1.244   3.599   1.357
 4583TIP3    H213714   1.246   3.448   1.365
 4584TIP3   OH213715   0.002   6.104   1.112
 4584TIP3    H113716   0.024   6.197   1.112
 4584TIP3    H213717   0.082   6.060   1.084
 4585TIP3   OH213718   6.428   1.581   5.702
 4585TIP3    H113719   6.459   1.588   5.612
 4585TIP3    H213720   6.333   1.588   5.695
 4586TIP3   OH213721   5.706   0.965   4.413
 4586TIP3    H113722   5.755   1.046   4.426
 4586TIP3    H213723   5.752   0.921   4.342
 4587TIP3   OH213724   4.085   5.368   0.562
 4587TIP3    H113725   4.138   5.324   0.496
 4587TIP3    H213726   4.128   5.452   0.577
 4588TIP3   OH213727   2.799   5.051   3.373
 4588TIP3    H113728   2.767   4.975   3.421
 4588TIP3    H213729   2.744   5.056   3.295
 4589TIP3   OH213730   6.486   1.248   1.600
 4589TIP3    H113731   6.456   1.302   1.528
 4589TIP3    H213732   6.459   1.159   1.577
 4590TIP3   OH213733   4.370   2.650   2.860
 4590TIP3    H113734   4.381   2.680   2.770
 4590TIP3    H213735   4.379   2.554   2.854
 4591TIP3   OH213736   2.469   0.727   0.518
 4591TIP3    H113737   2.435   0.652   0.468
 4591TIP3    H213738   2.530   0.688   0.580
 4592TIP3   OH213739   5.501   2.419   2.461
 4592TIP3    H113740   5.563   2.400   2.391
 4592TIP3    H213741   5.539   2.380   2.539
 4593TIP3   OH213742   3.711   4.859   3.007
 4593TIP3    H113743   3.795   4.860   3.053
 4593TIP3    H213744   3.695   4.767   2.988
 4594TIP3   OH213745   2.043   5.392   1.036
 4594TIP3    H113746   2.005   5.415   1.121
 4594TIP3    H213747   2.122   5.342   1.059
 4595TIP3   OH213748   0.248   0.890   4.040
 4595TIP3    H113749   0.297   0.970   4.057
 4595TIP3    H213750   0.308   0.820   4.065
 4596TIP3   OH213751   5.269   2.555   5.329
 4596TIP3    H113752   5.257   2.635   5.279
 4596TIP3    H213753   5.184   2.511   5.325
 4597TIP3   OH213754   3.250   3.998   0.830
 4597TIP3    H113755   3.323   4.011   0.770
 4597TIP3    H213756   3.206   4.083   0.834
 4598TIP3   OH213757   5.291   6.689   5.810
 4598TIP3    H113758   5.208   6.708   5.854
 4598TIP3    H213759   5.304   6.762   5.750
 4599TIP3   OH213760   0.883   3.645   5.780
 4599TIP3    H113761   0.896   3.735   5.752
 4599TIP3    H213762   0.969   3.604   5.770
 4600TIP3   OH213763   3.796   6.129   4.814
 4600TIP3    H113764   3.802   6.156   4.905
 4600TIP3    H213765   3.758   6.205   4.769
 4601TIP3   OH213766   0.696   1.297   2.436
 4601TIP3    H113767   0.641   1.313   2.513
 4601TIP3    H213768   0.731   1.383   2.413
 4602TIP3   OH213769   3.233   4.937   0.866
 4602TIP3    H113770   3.256   4.960   0.776
 4602TIP3    H213771   3.210   5.021   0.906
 4603TIP3   OH213772   6.770   3.525   5.148
 4603TIP3    H113773   6.815   3.453   5.190
 4603TIP3    H213774   6.678   3.512   5.169
 4604TIP3   OH213775   1.106   5.030   2.577
 4604TIP3    H113776   1.178   4.968   2.564
 4604TIP3    H213777   1.039   4.980   2.623
 4605TIP3   OH213778   3.348   1.084   5.835
 4605TIP3    H113779   3.415   1.017   5.836
 4605TIP3    H213780   3.272   1.043   5.877
 4606TIP3   OH213781   1.027   2.469   4.749
 4606TIP3    H113782   1.037   2.457   4.843
 4606TIP3    H213783   1.085   2.543   4.728
 4607TIP3   OH213784   3.395   6.221   3.913
 4607TIP3    H113785   3.443   6.211   3.995
 4607TIP3    H213786   3.422   6.145   3.861
 4608TIP3   OH213787   3.521   3.366   3.613
 4608TIP3    H113788   3.435   3.388   3.648
 4608TIP3    H213789   3.568   3.327   3.687
 4609TIP3   OH213790   0.849   3.707   3.597
 4609TIP3    H113791   0.812   3.624   3.567
 4609TIP3    H213792   0.820   3.771   3.532
 4610TIP3   OH213793   2.144   1.950   0.633
 4610TIP3    H113794   2.182   2.032   0.664
 4610TIP3    H213795   2.052   1.955   0.659
 4611TIP3   OH213796   2.081   4.840   2.423
 4611TIP3    H113797   2.110   4.750   2.428
 4611TIP3    H213798   2.056   4.853   2.331
 4612TIP3   OH213799   5.236   6.595   3.779
 4612TIP3    H113800   5.279   6.586   3.864
 4612TIP3    H213801   5.143   6.607   3.800
 4613TIP3   OH213802   1.253   2.665   5.184
 4613TIP3    H113803   1.259   2.688   5.091
 4613TIP3    H213804   1.335   2.695   5.222
 4614TIP3   OH213805   0.855   5.557   2.407
 4614TIP3    H113806   0.946   5.582   2.394
 4614TIP3    H213807   0.858   5.463   2.421
 4615TIP3   OH213808   1.154   3.399   3.832
 4615TIP3    H113809   1.159   3.440   3.918
 4615TIP3    H213810   1.222   3.442   3.780
 4616TIP3   OH213811   7.129   3.579   2.583
 4616TIP3    H113812   7.042   3.556   2.616
 4616TIP3    H213813   7.115   3.660   2.534
 4617TIP3   OH213814   6.026   4.989   2.814
 4617TIP3    H113815   5.937   4.995   2.849
 4617TIP3    H213816   6.017   4.938   2.734
 4618TIP3   OH213817   0.898   4.136   1.341
 4618TIP3    H113818   0.959   4.064   1.323
 4618TIP3    H213819   0.813   4.093   1.351
 4619TIP3   OH213820   1.148   1.108   1.551
 4619TIP3    H113821   1.142   1.054   1.630
 4619TIP3    H213822   1.150   1.045   1.479
 4620TIP3   OH213823   5.941   2.444   0.941
 4620TIP3    H113824   6.027   2.406   0.956
 4620TIP3    H213825   5.954   2.538   0.951
 4621TIP3   OH213826   2.673   3.727   2.775
 4621TIP3    H113827   2.646   3.816   2.753
 4621TIP3    H213828   2.737   3.704   2.708
 4622TIP3   OH213829   5.166   0.343   1.592
 4622TIP3    H113830   5.117   0.425   1.603
 4622TIP3    H213831   5.125   0.301   1.517
 4623TIP3   OH213832   2.827   3.017   4.219
 4623TIP3    H113833   2.831   3.105   4.256
 4623TIP3    H213834   2.758   3.021   4.154
 4624TIP3   OH213835   4.017   1.317   4.104
 4624TIP3    H113836   4.094   1.369   4.125
 4624TIP3    H213837   3.993   1.274   4.187
 4625TIP3   OH213838   2.190   6.810   1.016
 4625TIP3    H113839   2.171   6.841   0.928
 4625TIP3    H213840   2.278   6.772   1.009
 4626TIP3   OH213841   0.512   6.381   3.438
 4626TIP3    H113842   0.594   6.383   3.388
 4626TIP3    H213843   0.443   6.381   3.371
 4627TIP3   OH213844   0.117   6.491   3.392
 4627TIP3    H113845   0.121   6.587   3.394
 4627TIP3    H213846   0.052   6.469   3.458
 4628TIP3   OH213847   0.628   5.459   0.625
 4628TIP3    H113848   0.558   5.503   0.577
 4628TIP3    H213849   0.668   5.529   0.677
 4629TIP3   OH213850   5.975   3.946   1.796
 4629TIP3    H113851   5.966   3.969   1.888
 4629TIP3    H213852   5.993   3.852   1.796
 4630TIP3   OH213853   3.762  -0.016   5.553
 4630TIP3    H113854   3.774   0.006   5.460
 4630TIP3    H213855   3.712  -0.098   5.552
 4631TIP3   OH213856   6.367   0.920   3.299
 4631TIP3    H113857   6.361   1.003   3.253
 4631TIP3    H213858   6.283   0.910   3.344
 4632TIP3   OH213859   2.924   2.841   2.319
 4632TIP3    H113860   2.878   2.841   2.402
 4632TIP3    H213861   2.860   2.810   2.255
 4633TIP3   OH213862   0.701   5.794   2.490
 4633TIP3    H113863   0.754   5.829   2.561
 4633TIP3    H213864   0.759   5.730   2.447
 4634TIP3   OH213865   5.741   6.026   0.341
 4634TIP3    H113866   5.722   5.934   0.359
 4634TIP3    H213867   5.661   6.073   0.367
 4635TIP3   OH213868   4.556   1.536   3.498
 4635TIP3    H113869   4.507   1.585   3.432
 4635TIP3    H213870   4.646   1.564   3.487
 4636TIP3   OH213871   2.006   2.922   1.959
 4636TIP3    H113872   1.943   2.974   1.909
 4636TIP3    H213873   1.952   2.865   2.014
 4637TIP3   OH213874   1.205   1.944   1.593
 4637TIP3    H113875   1.181   1.976   1.506
 4637TIP3    H213876   1.249   1.860   1.576
 4638TIP3   OH213877   3.193   6.333   0.713
 4638TIP3    H113878   3.160   6.330   0.802
 4638TIP3    H213879   3.282   6.298   0.719
 4639TIP3   OH213880   3.664   0.289   0.387
 4639TIP3    H113881   3.682   0.383   0.394
 4639TIP3    H213882   3.729   0.248   0.444
 4640TIP3   OH213883   0.985   2.657   0.297
 4640TIP3    H113884   0.912   2.663   0.358
 4640TIP3    H213885   0.986   2.565   0.269
 4641TIP3   OH213886   2.922   2.753   4.128
 4641TIP3    H113887   2.973   2.781   4.052
 4641TIP3    H213888   2.890   2.834   4.167
 4642TIP3   OH213889   4.810   2.199   1.874
 4642TIP3    H113890   4.742   2.261   1.900
 4642TIP3    H213891   4.856   2.241   1.802
 4643TIP3   OH213892   4.697   6.764   3.947
 4643TIP3    H113893   4.636   6.800   4.012
 4643TIP3    H213894   4.715   6.675   3.979
 4644TIP3   OH213895   3.359   1.129   1.357
 4644TIP3    H113896   3.426   1.190   1.388
 4644TIP3    H213897   3.369   1.051   1.412
 4645TIP3   OH213898   3.128   5.846   0.687
 4645TIP3    H113899   3.075   5.925   0.697
 4645TIP3    H213900   3.172   5.856   0.603
 4646TIP3   OH213901   7.121   1.421   5.873
 4646TIP3    H113902   7.087   1.360   5.938
 4646TIP3    H213903   7.138   1.501   5.922
 4647TIP3   OH213904   1.868   0.099   2.371
 4647TIP3    H113905   1.785   0.130   2.334
 4647TIP3    H213906   1.885   0.156   2.445
 4648TIP3   OH213907   6.967   1.215   2.921
 4648TIP3    H113908   6.928   1.193   2.836
 4648TIP3    H213909   6.966   1.132   2.969
 4649TIP3   OH213910   4.284   1.028   2.121
 4649TIP3    H113911   4.283   0.933   2.134
 4649TIP3    H213912   4.193   1.055   2.136
 4650TIP3   OH213913   2.489   4.767   3.676
 4650TIP3    H113914   2.426   4.743   3.743
 4650TIP3    H213915   2.437   4.776   3.596
 4651TIP3   OH213916   5.202   3.062   3.296
 4651TIP3    H113917   5.175   3.038   3.208
 4651TIP3    H213918   5.292   3.091   3.287
 4652TIP3   OH213919   5.378   0.220   5.531
 4652TIP3    H113920   5.297   0.199   5.578
 4652TIP3    H213921   5.422   0.135   5.520
 4653TIP3   OH213922   0.786   4.652   2.036
 4653TIP3    H113923   0.881   4.656   2.034
 4653TIP3    H213924   0.758   4.735   1.997
 4654TIP3   OH213925   5.538   2.228   5.713
 4654TIP3    H113926   5.498   2.298   5.661
 4654TIP3    H213927   5.632   2.245   5.708
 4655TIP3   OH213928   7.080   2.300   2.557
 4655TIP3    H113929   7.044   2.236   2.618
 4655TIP3    H213930   7.135   2.249   2.498
 4656TIP3   OH213931   1.726   0.206   1.821
 4656TIP3    H113932   1.637   0.193   1.791
 4656TIP3    H213933   1.717   0.257   1.902
 4657TIP3   OH213934   4.623   2.110   4.245
 4657TIP3    H113935   4.676   2.151   4.315
 4657TIP3    H213936   4.653   2.153   4.165
 4658TIP3   OH213937   6.288   2.075   5.317
 4658TIP3    H113938   6.253   2.124   5.244
 4658TIP3    H213939   6.361   2.128   5.349
 4659TIP3   OH213940   2.835   4.147   3.664
 4659TIP3    H113941   2.826   4.052   3.667
 4659TIP3    H213942   2.915   4.162   3.612
 4660TIP3   OH213943   5.659   3.594   2.844
 4660TIP3    H113944   5.749   3.565   2.859
 4660TIP3    H213945   5.607   3.513   2.849
 4661TIP3   OH213946   3.097   6.452   2.910
 4661TIP3    H113947   3.162   6.437   2.978
 4661TIP3    H213948   3.094   6.547   2.900
 4662TIP3   OH213949   4.764   0.220   0.094
 4662TIP3    H113950   4.857   0.213   0.118
 4662TIP3    H213951   4.743   0.136   0.054
 4663TIP3   OH213952   6.020   0.982   1.398
 4663TIP3    H113953   5.932   1.015   1.377
 4663TIP3    H213954   6.067   1.058   1.431
 4664TIP3   OH213955   4.867   4.641   2.134
 4664TIP3    H113956   4.803   4.594   2.187
 4664TIP3    H213957   4.862   4.600   2.047
 4665TIP3   OH213958   6.858   5.787   5.025
 4665TIP3    H113959   6.869   5.739   5.107
 4665TIP3    H213960   6.764   5.787   5.010
 4666TIP3   OH213961   6.365   0.121   2.941
 4666TIP3    H113962   6.420   0.140   3.017
 4666TIP3    H213963   6.285   0.173   2.955
 4667TIP3   OH213964   2.192   4.062   5.759
 4667TIP3    H113965   2.152   4.133   5.809
 4667TIP3    H213966   2.277   4.097   5.731
 4668TIP3   OH213967   2.037   6.210   1.410
 4668TIP3    H113968   1.997   6.167   1.334
 4668TIP3    H213969   2.117   6.160   1.426
 4669TIP3   OH213970   5.699   0.351   2.152
 4669TIP3    H113971   5.771   0.323   2.096
 4669TIP3    H213972   5.621   0.314   2.112
 4670TIP3   OH213973   4.242   0.716   0.475
 4670TIP3    H113974   4.275   0.744   0.390
 4670TIP3    H213975   4.192   0.791   0.508
 4671TIP3   OH213976   6.564   5.839   0.575
 4671TIP3    H113977   6.612   5.916   0.606
 4671TIP3    H213978   6.477   5.873   0.551
 4672TIP3   OH213979   6.457   0.387   4.693
 4672TIP3    H113980   6.510   0.307   4.689
 4672TIP3    H213981   6.385   0.364   4.751
 4673TIP3   OH213982   1.926   2.120   0.987
 4673TIP3    H113983   1.897   2.062   1.058
 4673TIP3    H213984   1.883   2.086   0.909
 4674TIP3   OH213985   0.015   2.205   0.094
 4674TIP3    H113986  -0.030   2.218   0.011
 4674TIP3    H213987   0.100   2.168   0.070
 4675TIP3   OH213988   1.316   2.436   1.851
 4675TIP3    H113989   1.356   2.459   1.767
 4675TIP3    H213990   1.278   2.349   1.836
 4676TIP3   OH213991   3.457   0.276   1.015
 4676TIP3    H113992   3.538   0.237   0.982
 4676TIP3    H213993   3.396   0.203   1.021
 4677TIP3   OH213994   5.498   2.259   1.393
 4677TIP3    H113995   5.579   2.279   1.347
 4677TIP3    H213996   5.505   2.167   1.417
 4678TIP3   OH213997   0.069   4.471   3.328
 4678TIP3    H113998   0.040   4.545   3.381
 4678TIP3    H213999  -0.003   4.456   3.267
 4679TIP3   OH214000   3.874   4.278   5.609
 4679TIP3    H114001   3.842   4.216   5.543
 4679TIP3    H214002   3.965   4.295   5.584
 4680TIP3   OH214003   1.956   0.195   2.623
 4680TIP3    H114004   1.981   0.114   2.667
 4680TIP3    H214005   1.905   0.243   2.689
 4681TIP3   OH214006   4.160   0.150   0.789
 4681TIP3    H114007   4.137   0.242   0.803
 4681TIP3    H214008   4.118   0.104   0.863
 4682TIP3   OH214009   0.472   2.710   2.932
 4682TIP3    H114010   0.411   2.731   3.003
 4682TIP3    H214011   0.557   2.703   2.975
 4683TIP3   OH214012   3.434   4.802   4.347
 4683TIP3    H114013   3.387   4.812   4.264
 4683TIP3    H214014   3.378   4.847   4.411
 4684TIP3   OH214015   4.653   6.337   0.811
 4684TIP3    H114016   4.668   6.340   0.716
 4684TIP3    H214017   4.655   6.244   0.832
 4685TIP3   OH214018   1.447   5.540   3.690
 4685TIP3    H114019   1.517   5.475   3.694
 4685TIP3    H214020   1.380   5.507   3.750
 4686TIP3   OH214021   0.479   5.638   1.793
 4686TIP3    H114022   0.568   5.668   1.810
 4686TIP3    H214023   0.488   5.578   1.719
 4687TIP3   OH214024   0.267   6.602   1.379
 4687TIP3    H114025   0.272   6.506   1.382
 4687TIP3    H214026   0.339   6.628   1.323
 4688TIP3   OH214027   3.460   3.758   5.708
 4688TIP3    H114028   3.542   3.800   5.683
 4688TIP3    H214029   3.449   3.779   5.800
 4689TIP3   OH214030   2.978   4.420   1.666
 4689TIP3    H114031   3.004   4.411   1.758
 4689TIP3    H214032   2.911   4.353   1.654
 4690TIP3   OH214033   3.630   4.553   2.322
 4690TIP3    H114034   3.622   4.549   2.417
 4690TIP3    H214035   3.596   4.640   2.299
 4691TIP3   OH214036   1.856   3.910   2.564
 4691TIP3    H114037   1.869   4.000   2.535
 4691TIP3    H214038   1.813   3.868   2.490
 4692TIP3   OH214039   0.657   1.522   5.174
 4692TIP3    H114040   0.571   1.551   5.143
 4692TIP3    H214041   0.660   1.550   5.265
 4693TIP3   OH214042   1.490   5.979   0.437
 4693TIP3    H114043   1.508   5.970   0.343
 4693TIP3    H214044   1.414   5.922   0.452
 4694TIP3   OH214045   6.425   4.321   5.511
 4694TIP3    H114046   6.347   4.272   5.538
 4694TIP3    H214047   6.498   4.265   5.537
 4695TIP3   OH214048   1.398   3.802   3.998
 4695TIP3    H114049   1.484   3.813   3.959
 4695TIP3    H214050   1.395   3.868   4.068
 4696TIP3   OH214051   5.095   1.746   1.494
 4696TIP3    H114052   5.166   1.810   1.484
 4696TIP3    H214053   5.100   1.693   1.414
 4697TIP3   OH214054   4.302   5.303   5.829
 4697TIP3    H114055   4.324   5.365   5.898
 4697TIP3    H214056   4.375   5.242   5.827
 4698TIP3   OH214057   6.753   2.466   1.400
 4698TIP3    H114058   6.763   2.439   1.309
 4698TIP3    H214059   6.724   2.557   1.395
 4699TIP3   OH214060   1.253   0.772   1.671
 4699TIP3    H114061   1.266   0.813   1.756
 4699TIP3    H214062   1.161   0.748   1.669
 4700TIP3   OH214063   4.696   1.836   1.377
 4700TIP3    H114064   4.743   1.918   1.361
 4700TIP3    H214065   4.639   1.856   1.451
 4701TIP3   OH214066   2.835   5.594   1.443
 4701TIP3    H114067   2.852   5.685   1.420
 4701TIP3    H214068   2.900   5.544   1.393
 4702TIP3   OH214069   4.309   1.078   1.746
 4702TIP3    H114070   4.339   1.049   1.660
 4702TIP3    H214071   4.284   0.998   1.792
 4703TIP3   OH214072   6.021   1.318   3.245
 4703TIP3    H114073   6.065   1.274   3.317
 4703TIP3    H214074   6.088   1.327   3.177
 4704TIP3   OH214075   2.189   3.799   1.548
 4704TIP3    H114076   2.151   3.729   1.602
 4704TIP3    H214077   2.209   3.869   1.610
 4705TIP3   OH214078   5.531   0.098   2.075
 4705TIP3    H114079   5.534   0.021   2.131
 4705TIP3    H214080   5.610   0.094   2.023
 4706TIP3   OH214081   3.308   3.359   4.943
 4706TIP3    H114082   3.223   3.357   4.900
 4706TIP3    H214083   3.291   3.325   5.031
 4707TIP3   OH214084   5.699   0.877   2.365
 4707TIP3    H114085   5.689   0.852   2.273
 4707TIP3    H214086   5.756   0.954   2.363
 4708TIP3   OH214087   3.842   2.172   0.994
 4708TIP3    H114088   3.919   2.117   0.982
 4708TIP3    H214089   3.804   2.143   1.077
 4709TIP3   OH214090   4.313   5.925   1.480
 4709TIP3    H114091   4.387   5.900   1.535
 4709TIP3    H214092   4.343   5.907   1.390
 4710TIP3   OH214093   0.891   3.467   2.146
 4710TIP3    H114094   0.931   3.533   2.203
 4710TIP3    H214095   0.880   3.390   2.202
 4711TIP3   OH214096   3.783   2.995   1.618
 4711TIP3    H114097   3.820   3.012   1.704
 4711TIP3    H214098   3.801   2.902   1.601
 4712TIP3   OH214099   0.782   6.066   5.597
 4712TIP3    H114100   0.857   6.026   5.640
 4712TIP3    H214101   0.725   5.992   5.575
 4713TIP3   OH214102   0.284   1.056   4.505
 4713TIP3    H114103   0.189   1.067   4.495
 4713TIP3    H214104   0.310   1.126   4.565
 4714TIP3   OH214105   0.889   5.298   5.150
 4714TIP3    H114106   0.850   5.267   5.068
 4714TIP3    H214107   0.864   5.232   5.214
 4715TIP3   OH214108   6.258   4.490   0.735
 4715TIP3    H114109   6.324   4.442   0.685
 4715TIP3    H214110   6.181   4.432   0.735
 4716TIP3   OH214111   5.290   5.310   4.707
 4716TIP3    H114112   5.230   5.355   4.766
 4716TIP3    H214113   5.364   5.286   4.763
 4717TIP3   OH214114   4.605   6.039   1.272
 4717TIP3    H114115   4.691   6.045   1.232
 4717TIP3    H214116   4.575   5.950   1.252
 4718TIP3   OH214117   3.179   1.400   0.435
 4718TIP3    H114118   3.140   1.444   0.359
 4718TIP3    H214119   3.237   1.334   0.397
 4719TIP3   OH214120   7.112   3.744   0.990
 4719TIP3    H114121   7.025   3.706   0.979
 4719TIP3    H214122   7.172   3.671   0.983
 4720TIP3   OH214123   6.814   5.336   0.559
 4720TIP3    H114124   6.842   5.276   0.628
 4720TIP3    H214125   6.772   5.408   0.606
 4721TIP3   OH214126   0.913   4.672   4.476
 4721TIP3    H114127   0.824   4.645   4.500
 4721TIP3    H214128   0.944   4.721   4.551
 4722TIP3   OH214129   3.922   5.127   4.059
 4722TIP3    H114130   3.847   5.125   4.001
 4722TIP3    H214131   3.979   5.196   4.024
 4723TIP3   OH214132   4.299   1.399   2.075
 4723TIP3    H114133   4.393   1.401   2.092
 4723TIP3    H214134   4.290   1.343   1.998
 4724TIP3   OH214135   3.250   2.102   3.788
 4724TIP3    H114136   3.275   2.160   3.717
 4724TIP3    H214137   3.232   2.161   3.862
 4725TIP3   OH214138   6.933   3.249   3.412
 4725TIP3    H114139   6.843   3.282   3.416
 4725TIP3    H214140   6.929   3.163   3.454
 4726TIP3   OH214141   6.797   2.149   2.598
 4726TIP3    H114142   6.716   2.177   2.640
 4726TIP3    H214143   6.866   2.177   2.658
 4727TIP3   OH214144   0.403   4.121   0.338
 4727TIP3    H114145   0.484   4.071   0.353
 4727TIP3    H214146   0.383   4.158   0.424
 4728TIP3   OH214147   3.063   5.496   1.299
 4728TIP3    H114148   3.129   5.555   1.334
 4728TIP3    H214149   3.040   5.534   1.214
 4729TIP3   OH214150   4.870   1.581   1.720
 4729TIP3    H114151   4.870   1.669   1.759
 4729TIP3    H214152   4.962   1.566   1.697
 4730TIP3   OH214153   5.946   1.131   5.326
 4730TIP3    H114154   5.927   1.061   5.388
 4730TIP3    H214155   6.024   1.102   5.280
 4731TIP3   OH214156   0.515   0.543   4.204
 4731TIP3    H114157   0.516   0.574   4.294
 4731TIP3    H214158   0.606   0.523   4.184
 4732TIP3   OH214159   3.806   6.293   3.586
 4732TIP3    H114160   3.868   6.342   3.640
 4732TIP3    H214161   3.858   6.224   3.545
 4733TIP3   OH214162   4.207   1.949   2.411
 4733TIP3    H114163   4.260   2.002   2.352
 4733TIP3    H214164   4.157   1.891   2.354
 4734TIP3   OH214165   5.429   0.595   1.944
 4734TIP3    H114166   5.418   0.645   2.025
 4734TIP3    H214167   5.347   0.610   1.895
 4735TIP3   OH214168   1.341   5.336   0.077
 4735TIP3    H114169   1.412   5.274   0.092
 4735TIP3    H214170   1.282   5.324   0.152
 4736TIP3   OH214171   6.624   0.218   2.745
 4736TIP3    H114172   6.637   0.211   2.650
 4736TIP3    H214173   6.532   0.193   2.758
 4737TIP3   OH214174   4.671   4.027   3.749
 4737TIP3    H114175   4.717   4.101   3.789
 4737TIP3    H214176   4.609   3.998   3.816
 4738TIP3   OH214177   0.582   1.109   3.301
 4738TIP3    H114178   0.589   1.014   3.315
 4738TIP3    H214179   0.507   1.135   3.353
 4739TIP3   OH214180   3.251   1.643   5.512
 4739TIP3    H114181   3.175   1.642   5.569
 4739TIP3    H214182   3.288   1.555   5.520
 4740TIP3   OH214183   1.366   2.940   3.111
 4740TIP3    H114184   1.368   2.967   3.019
 4740TIP3    H214185   1.458   2.930   3.136
 4741TIP3   OH214186   6.918   1.724   2.290
 4741TIP3    H114187   6.849   1.740   2.226
 4741TIP3    H214188   6.881   1.754   2.373
 4742TIP3   OH214189   3.457   5.529   3.965
 4742TIP3    H114190   3.444   5.543   4.058
 4742TIP3    H214191   3.543   5.486   3.958
 4743TIP3   OH214192   5.680   3.260   3.082
 4743TIP3    H114193   5.753   3.199   3.094
 4743TIP3    H214194   5.618   3.237   3.152
 4744TIP3   OH214195   3.781   0.236   3.357
 4744TIP3    H114196   3.871   0.268   3.364
 4744TIP3    H214197   3.728   0.303   3.399
 4745TIP3   OH214198   2.155   3.472   2.905
 4745TIP3    H114199   2.233   3.505   2.859
 4745TIP3    H214200   2.117   3.551   2.945
 4746TIP3   OH214201   0.256   3.193   0.517
 4746TIP3    H114202   0.239   3.135   0.591
 4746TIP3    H214203   0.173   3.237   0.502
 4747TIP3   OH214204   0.104   2.602   5.690
 4747TIP3    H114205   0.106   2.570   5.600
 4747TIP3    H214206   0.040   2.673   5.690
 4748TIP3   OH214207   4.944   5.172   3.693
 4748TIP3    H114208   4.926   5.159   3.787
 4748TIP3    H214209   5.033   5.140   3.682
 4749TIP3   OH214210   6.955   4.859   0.377
 4749TIP3    H114211   6.908   4.942   0.382
 4749TIP3    H214212   6.948   4.822   0.465
 4750TIP3   OH214213   4.542   4.015   0.646
 4750TIP3    H114214   4.576   3.951   0.583
 4750TIP3    H214215   4.447   4.014   0.632
 4751TIP3   OH214216   1.407   5.232   0.784
 4751TIP3    H114217   1.408   5.275   0.870
 4751TIP3    H214218   1.381   5.142   0.803
 4752TIP3   OH214219   2.395   3.794   3.519
 4752TIP3    H114220   2.343   3.733   3.468
 4752TIP3    H214221   2.485   3.763   3.509
 4753TIP3   OH214222   6.419   4.462   1.549
 4753TIP3    H114223   6.348   4.517   1.584
 4753TIP3    H214224   6.483   4.459   1.619
 4754TIP3   OH214225   2.744   3.632  -0.005
 4754TIP3    H114226   2.810   3.565  -0.021
 4754TIP3    H214227   2.712   3.655  -0.092
 4755TIP3   OH214228   4.993   4.242   3.472
 4755TIP3    H114229   4.907   4.285   3.471
 4755TIP3    H214230   4.974   4.149   3.467
 4756TIP3   OH214231   0.231   3.891   0.979
 4756TIP3    H114232   0.203   3.891   1.070
 4756TIP3    H214233   0.271   3.805   0.966
 4757TIP3   OH214234   2.495   1.643   4.663
 4757TIP3    H114235   2.470   1.614   4.751
 4757TIP3    H214236   2.563   1.582   4.636
 4758TIP3   OH214237   6.023   3.421   5.138
 4758TIP3    H114238   5.936   3.428   5.098
 4758TIP3    H214239   6.043   3.327   5.135
 4759TIP3   OH214240   6.740   5.760   3.345
 4759TIP3    H114241   6.664   5.738   3.400
 4759TIP3    H214242   6.784   5.676   3.331
 4760TIP3   OH214243   0.118   0.506   0.967
 4760TIP3    H114244   0.158   0.592   0.959
 4760TIP3    H214245   0.173   0.449   0.914
 4761TIP3   OH214246   0.450   0.549   4.962
 4761TIP3    H114247   0.524   0.554   5.023
 4761TIP3    H214248   0.470   0.474   4.906
 4762TIP3   OH214249   0.456   5.862  -0.009
 4762TIP3    H114250   0.493   5.947  -0.032
 4762TIP3    H214251   0.369   5.882   0.025
 4763TIP3   OH214252   5.937   5.555   2.359
 4763TIP3    H114253   5.981   5.636   2.334
 4763TIP3    H214254   5.954   5.495   2.287
 4764TIP3   OH214255   5.653   2.011   0.357
 4764TIP3    H114256   5.676   1.988   0.266
 4764TIP3    H214257   5.729   2.059   0.389
 4765TIP3   OH214258   0.582   0.741   2.283
 4765TIP3    H114259   0.677   0.738   2.294
 4765TIP3    H214260   0.549   0.669   2.336
 4766TIP3   OH214261   5.197   3.307   2.873
 4766TIP3    H114262   5.194   3.396   2.909
 4766TIP3    H214263   5.234   3.254   2.944
 4767TIP3   OH214264   0.465   1.078   1.270
 4767TIP3    H114265   0.488   1.090   1.362
 4767TIP3    H214266   0.453   1.168   1.237
 4768TIP3   OH214267   4.228   6.194   5.440
 4768TIP3    H114268   4.272   6.109   5.443
 4768TIP3    H214269   4.138   6.176   5.464
 4769TIP3   OH214270   1.003   6.038   5.875
 4769TIP3    H114271   0.987   5.961   5.821
 4769TIP3    H214272   0.934   6.037   5.941
 4770TIP3   OH214273   1.375   4.438   5.359
 4770TIP3    H114274   1.297   4.394   5.392
 4770TIP3    H214275   1.376   4.522   5.405
 4771TIP3   OH214276   2.581   0.823   4.836
 4771TIP3    H114277   2.604   0.913   4.812
 4771TIP3    H214278   2.506   0.833   4.895
 4772TIP3   OH214279   3.563   5.362   4.375
 4772TIP3    H114280   3.468   5.351   4.369
 4772TIP3    H214281   3.584   5.421   4.302
 4773TIP3   OH214282   0.462   2.468   0.448
 4773TIP3    H114283   0.399   2.406   0.412
 4773TIP3    H214284   0.543   2.450   0.400
 4774TIP3   OH214285   1.634   2.672   3.154
 4774TIP3    H114286   1.680   2.661   3.237
 4774TIP3    H214287   1.681   2.742   3.110
 4775TIP3   OH214288   0.495   6.258   5.701
 4775TIP3    H114289   0.550   6.262   5.623
 4775TIP3    H214290   0.435   6.333   5.691
 4776TIP3   OH214291   1.472   6.056   4.896
 4776TIP3    H114292   1.451   6.149   4.894
 4776TIP3    H214293   1.565   6.053   4.920
 4777TIP3   OH214294   5.429   2.444   0.718
 4777TIP3    H114295   5.438   2.414   0.628
 4777TIP3    H214296   5.486   2.520   0.724
 4778TIP3   OH214297   4.933   3.732   4.143
 4778TIP3    H114298   4.895   3.675   4.209
 4778TIP3    H214299   5.019   3.694   4.125
 4779TIP3   OH214300   2.600   0.029   2.841
 4779TIP3    H114301   2.652   0.085   2.784
 4779TIP3    H214302   2.576   0.086   2.914
 4780TIP3   OH214303   1.571   5.691   2.733
 4780TIP3    H114304   1.537   5.780   2.740
 4780TIP3    H214305   1.648   5.691   2.789
 4781TIP3   OH214306   5.564   2.848   5.195
 4781TIP3    H114307   5.487   2.902   5.174
 4781TIP3    H214308   5.580   2.866   5.288
 4782TIP3   OH214309   3.126   0.655   2.645
 4782TIP3    H114310   3.154   0.700   2.725
 4782TIP3    H214311   3.107   0.726   2.584
 4783TIP3   OH214312   6.911   3.647   0.832
 4783TIP3    H114313   6.950   3.703   0.765
 4783TIP3    H214314   6.964   3.567   0.830
 4784TIP3   OH214315   0.241   3.076   3.661
 4784TIP3    H114316   0.198   2.992   3.645
 4784TIP3    H214317   0.313   3.078   3.599
 4785TIP3   OH214318   4.504   6.633   4.265
 4785TIP3    H114319   4.460   6.701   4.212
 4785TIP3    H214320   4.573   6.599   4.208
 4786TIP3   OH214321   0.208   2.288   4.177
 4786TIP3    H114322   0.289   2.338   4.165
 4786TIP3    H214323   0.226   2.203   4.137
 4787TIP3   OH214324   6.677   2.037   2.202
 4787TIP3    H114325   6.761   2.019   2.247
 4787TIP3    H214326   6.701   2.045   2.110
 4788TIP3   OH214327   6.265   1.089   0.542
 4788TIP3    H114328   6.338   1.030   0.519
 4788TIP3    H214329   6.296   1.176   0.518
 4789TIP3   OH214330   0.150   5.632   4.619
 4789TIP3    H114331   0.196   5.601   4.696
 4789TIP3    H214332   0.188   5.582   4.546
 4790TIP3   OH214333   4.599   2.747   2.520
 4790TIP3    H114334   4.593   2.801   2.598
 4790TIP3    H214335   4.678   2.694   2.534
 4791TIP3   OH214336   2.668   2.621   5.001
 4791TIP3    H114337   2.696   2.529   5.003
 4791TIP3    H214338   2.588   2.621   4.949
 4792TIP3   OH214339   6.701   5.941   2.965
 4792TIP3    H114340   6.662   5.940   2.878
 4792TIP3    H214341   6.795   5.953   2.949
 4793TIP3   OH214342   0.692   3.863   0.710
 4793TIP3    H114343   0.695   3.938   0.650
 4793TIP3    H214344   0.702   3.902   0.797
 4794TIP3   OH214345   0.845   4.876   1.501
 4794TIP3    H114346   0.884   4.886   1.588
 4794TIP3    H214347   0.915   4.902   1.441
 4795TIP3   OH214348   6.172   5.565   4.111
 4795TIP3    H114349   6.214   5.489   4.151
 4795TIP3    H214350   6.096   5.529   4.065
 4796TIP3   OH214351   6.371   1.693   0.046
 4796TIP3    H114352   6.443   1.636   0.021
 4796TIP3    H214353   6.401   1.736   0.126
 4797TIP3   OH214354   6.712   5.114   1.305
 4797TIP3    H114355   6.708   5.138   1.398
 4797TIP3    H214356   6.675   5.189   1.259
 4798TIP3   OH214357   7.049   5.508   1.823
 4798TIP3    H114358   7.120   5.552   1.776
 4798TIP3    H214359   7.093   5.454   1.889
 4799TIP3   OH214360   1.599   2.302   4.109
 4799TIP3    H114361   1.570   2.211   4.102
 4799TIP3    H214362   1.561   2.333   4.191
 4800TIP3   OH214363   3.212   0.731   0.966
 4800TIP3    H114364   3.297   0.770   0.982
 4800TIP3    H214365   3.168   0.732   1.051
 4801TIP3   OH214366   1.632   2.996   3.276
 4801TIP3    H114367   1.676   3.059   3.333
 4801TIP3    H214368   1.661   2.911   3.307
 4802TIP3   OH214369   4.940   1.438   4.623
 4802TIP3    H114370   4.849   1.438   4.592
 4802TIP3    H214371   4.976   1.356   4.591
 4803TIP3   OH214372   3.250   5.141   1.074
 4803TIP3    H114373   3.310   5.136   1.149
 4803TIP3    H214374   3.292   5.202   1.014
 4804TIP3   OH214375   4.902   3.055   4.795
 4804TIP3    H114376   4.851   2.985   4.753
 4804TIP3    H214377   4.869   3.136   4.755
 4805TIP3   OH214378   1.674   0.751   5.637
 4805TIP3    H114379   1.719   0.768   5.555
 4805TIP3    H214380   1.654   0.838   5.672
 4806TIP3   OH214381   2.570   1.885   0.670
 4806TIP3    H114382   2.525   1.834   0.602
 4806TIP3    H214383   2.636   1.936   0.622
 4807TIP3   OH214384   3.033   4.388   3.780
 4807TIP3    H114385   2.946   4.362   3.749
 4807TIP3    H214386   3.070   4.440   3.709
 4808TIP3   OH214387   0.515   4.964   5.611
 4808TIP3    H114388   0.568   4.902   5.660
 4808TIP3    H214389   0.573   5.038   5.593
 4809TIP3   OH214390   6.015   1.531   2.648
 4809TIP3    H114391   6.011   1.466   2.718
 4809TIP3    H214392   6.107   1.534   2.623
 4810TIP3   OH214393   3.678   6.428   2.642
 4810TIP3    H114394   3.660   6.522   2.650
 4810TIP3    H214395   3.687   6.397   2.732
 4811TIP3   OH214396   2.074   2.486   3.672
 4811TIP3    H114397   2.012   2.435   3.619
 4811TIP3    H214398   2.061   2.455   3.761
 4812TIP3   OH214399   3.808   2.961   5.473
 4812TIP3    H114400   3.784   3.054   5.479
 4812TIP3    H214401   3.880   2.951   5.535
 4813TIP3   OH214402   6.076   1.790   3.927
 4813TIP3    H114403   6.038   1.777   3.840
 4813TIP3    H214404   6.162   1.829   3.911
 4814TIP3   OH214405   2.244   4.334   5.513
 4814TIP3    H114406   2.176   4.267   5.515
 4814TIP3    H214407   2.320   4.292   5.553
 4815TIP3   OH214408   0.838   3.160   3.230
 4815TIP3    H114409   0.923   3.120   3.216
 4815TIP3    H214410   0.856   3.237   3.284
 4816TIP3   OH214411   1.054   6.104   3.135
 4816TIP3    H114412   0.989   6.169   3.161
 4816TIP3    H214413   1.124   6.155   3.093
 4817TIP3   OH214414   5.347   5.709   5.715
 4817TIP3    H114415   5.273   5.738   5.662
 4817TIP3    H214416   5.380   5.789   5.755
 4818TIP3   OH214417   4.761   0.048   5.504
 4818TIP3    H114418   4.837  -0.003   5.534
 4818TIP3    H214419   4.685  -0.003   5.532
 4819TIP3   OH214420   1.603   6.762   0.602
 4819TIP3    H114421   1.665   6.693   0.624
 4819TIP3    H214422   1.657   6.833   0.569
 4820TIP3   OH214423   4.430   0.647   2.464
 4820TIP3    H114424   4.472   0.575   2.418
 4820TIP3    H214425   4.358   0.673   2.407
 4821TIP3   OH214426   3.889   2.502   5.290
 4821TIP3    H114427   3.868   2.593   5.311
 4821TIP3    H214428   3.846   2.486   5.206
 4822TIP3   OH214429   6.680   1.058   1.712
 4822TIP3    H114430   6.639   1.121   1.652
 4822TIP3    H214431   6.640   0.974   1.688
 4823TIP3   OH214432   1.091   3.285   0.948
 4823TIP3    H114433   1.132   3.362   0.987
 4823TIP3    H214434   1.053   3.237   1.022
 4824TIP3   OH214435   1.366   6.511   5.067
 4824TIP3    H114436   1.281   6.481   5.101
 4824TIP3    H214437   1.362   6.606   5.074
 4825TIP3   OH214438   1.810   2.502   5.315
 4825TIP3    H114439   1.814   2.407   5.327
 4825TIP3    H214440   1.859   2.519   5.234
 4826TIP3   OH214441   0.866   3.331   5.380
 4826TIP3    H114442   0.900   3.288   5.302
 4826TIP3    H214443   0.772   3.312   5.379
 4827TIP3   OH214444   1.972   1.405   5.805
 4827TIP3    H114445   2.011   1.347   5.871
 4827TIP3    H214446   1.890   1.434   5.844
 4828TIP3   OH214447   4.024   3.161   3.859
 4828TIP3    H114448   4.047   3.127   3.946
 4828TIP3    H214449   4.024   3.256   3.870
 4829TIP3   OH214450   2.912   5.462   2.122
 4829TIP3    H114451   2.914   5.538   2.181
 4829TIP3    H214452   3.003   5.431   2.120
 4830TIP3   OH214453   0.816   1.539   3.297
 4830TIP3    H114454   0.722   1.548   3.286
 4830TIP3    H214455   0.827   1.454   3.341
 4831TIP3   OH214456   3.974   2.999   2.333
 4831TIP3    H114457   4.034   3.008   2.407
 4831TIP3    H214458   3.898   2.954   2.368
 4832TIP3   OH214459   4.311   1.679   2.197
 4832TIP3    H114460   4.406   1.688   2.207
 4832TIP3    H214461   4.300   1.598   2.148
 4833TIP3   OH214462   2.190   6.661   5.625
 4833TIP3    H114463   2.224   6.618   5.703
 4833TIP3    H214464   2.095   6.653   5.632
 4834TIP3   OH214465   0.425   5.693   3.237
 4834TIP3    H114466   0.449   5.763   3.297
 4834TIP3    H214467   0.496   5.629   3.245
 4835TIP3   OH214468   3.031   4.827   2.832
 4835TIP3    H114469   3.086   4.799   2.759
 4835TIP3    H214470   3.018   4.749   2.885
 4836TIP3   OH214471   0.651   2.686   3.677
 4836TIP3    H114472   0.588   2.724   3.737
 4836TIP3    H214473   0.670   2.600   3.714
 4837TIP3   OH214474   5.934   4.354   2.435
 4837TIP3    H114475   5.914   4.394   2.351
 4837TIP3    H214476   6.020   4.314   2.423
 4838TIP3   OH214477   1.016   3.868   2.788
 4838TIP3    H114478   0.973   3.943   2.830
 4838TIP3    H214479   1.102   3.864   2.828
 4839TIP3   OH214480   1.397   0.156   3.944
 4839TIP3    H114481   1.383   0.208   3.865
 4839TIP3    H214482   1.310   0.133   3.974
 4840TIP3   OH214483   2.241   3.677   2.037
 4840TIP3    H114484   2.232   3.635   2.123
 4840TIP3    H214485   2.278   3.609   1.981
 4841TIP3   OH214486   4.976   0.318   0.546
 4841TIP3    H114487   4.971   0.404   0.588
 4841TIP3    H214488   4.936   0.330   0.460
 4842TIP3   OH214489   6.656   5.477   3.981
 4842TIP3    H114490   6.633   5.559   4.026
 4842TIP3    H214491   6.653   5.500   3.888
 4843TIP3   OH214492   0.461   5.532   2.773
 4843TIP3    H114493   0.416   5.456   2.811
 4843TIP3    H214494   0.500   5.498   2.692
 4844TIP3   OH214495   3.218   6.235   4.762
 4844TIP3    H114496   3.222   6.139   4.767
 4844TIP3    H214497   3.198   6.253   4.671
 4845TIP3   OH214498   3.220   6.001   4.565
 4845TIP3    H114499   3.276   5.946   4.509
 4845TIP3    H214500   3.134   5.997   4.523
 4846TIP3   OH214501   1.664   6.101   1.529
 4846TIP3    H114502   1.607   6.156   1.476
 4846TIP3    H214503   1.675   6.150   1.611
 4847TIP3   OH214504   3.217   3.139   0.290
 4847TIP3    H114505   3.198   3.145   0.383
 4847TIP3    H214506   3.162   3.207   0.250
 4848TIP3   OH214507   6.834   4.390   4.738
 4848TIP3    H114508   6.797   4.317   4.787
 4848TIP3    H214509   6.867   4.350   4.657
 4849TIP3   OH214510   7.150   4.529   2.560
 4849TIP3    H114511   7.211   4.594   2.524
 4849TIP3    H214512   7.106   4.492   2.484
 4850TIP3   OH214513   0.532   4.227   1.948
 4850TIP3    H114514   0.495   4.155   2.000
 4850TIP3    H214515   0.495   4.214   1.861
 4851TIP3   OH214516   2.673   4.680   0.192
 4851TIP3    H114517   2.640   4.673   0.102
 4851TIP3    H214518   2.695   4.773   0.201
 4852TIP3   OH214519   1.235   6.023   4.761
 4852TIP3    H114520   1.175   5.959   4.800
 4852TIP3    H214521   1.313   6.021   4.816
 4853TIP3   OH214522   6.328   4.989   4.976
 4853TIP3    H114523   6.275   4.911   4.959
 4853TIP3    H214524   6.391   4.992   4.904
 4854TIP3   OH214525   6.698   2.839   5.547
 4854TIP3    H114526   6.714   2.874   5.634
 4854TIP3    H214527   6.704   2.744   5.557
 4855TIP3   OH214528   1.991   3.587   5.665
 4855TIP3    H114529   1.995   3.682   5.680
 4855TIP3    H214530   2.049   3.572   5.590
 4856TIP3   OH214531   0.248   5.508   4.398
 4856TIP3    H114532   0.251   5.581   4.336
 4856TIP3    H214533   0.235   5.430   4.344
 4857TIP3   OH214534   4.974   4.314   1.507
 4857TIP3    H114535   4.921   4.375   1.558
 4857TIP3    H214536   4.974   4.233   1.560
 4858TIP3   OH214537   5.620   5.846   3.255
 4858TIP3    H114538   5.637   5.940   3.262
 4858TIP3    H214539   5.650   5.811   3.339
 4859TIP3   OH214540   0.987   2.923   1.864
 4859TIP3    H114541   0.987   2.925   1.960
 4859TIP3    H214542   0.895   2.936   1.841
 4860TIP3   OH214543   1.115   3.794   5.504
 4860TIP3    H114544   1.085   3.866   5.449
 4860TIP3    H214545   1.066   3.718   5.472
 4861TIP3   OH214546   4.832   4.038   3.214
 4861TIP3    H114547   4.737   4.032   3.212
 4861TIP3    H214548   4.857   4.067   3.127
 4862TIP3   OH214549   6.223   5.140   1.417
 4862TIP3    H114550   6.295   5.194   1.447
 4862TIP3    H214551   6.154   5.202   1.393
 4863TIP3   OH214552   1.672   1.984   0.849
 4863TIP3    H114553   1.694   1.897   0.816
 4863TIP3    H214554   1.632   1.967   0.935
 4864TIP3   OH214555   6.676   6.488   3.775
 4864TIP3    H114556   6.722   6.549   3.717
 4864TIP3    H214557   6.698   6.401   3.741
 4865TIP3   OH214558   6.698   4.580   1.119
 4865TIP3    H114559   6.750   4.628   1.054
 4865TIP3    H214560   6.738   4.602   1.203
 4866TIP3   OH214561   2.706   1.707   4.932
 4866TIP3    H114562   2.743   1.761   4.862
 4866TIP3    H214563   2.754   1.732   5.010
 4867TIP3   OH214564   7.204   0.998   5.352
 4867TIP3    H114565   7.163   1.036   5.430
 4867TIP3    H214566   7.146   0.927   5.327
 4868TIP3   OH214567   3.840   4.164   1.666
 4868TIP3    H114568   3.804   4.104   1.732
 4868TIP3    H214569   3.763   4.201   1.623
 4869TIP3   OH214570   4.093   2.111   3.531
 4869TIP3    H114571   4.139   2.163   3.597
 4869TIP3    H214572   4.086   2.169   3.455
 4870TIP3   OH214573   1.600   1.340   5.132
 4870TIP3    H114574   1.621   1.322   5.040
 4870TIP3    H214575   1.601   1.435   5.138
 4871TIP3   OH214576   2.517   3.709   3.108
 4871TIP3    H114577   2.582   3.768   3.146
 4871TIP3    H214578   2.506   3.741   3.018
 4872TIP3   OH214579   5.828   1.520   1.127
 4872TIP3    H114580   5.813   1.457   1.056
 4872TIP3    H214581   5.857   1.467   1.201
 4873TIP3   OH214582   4.106   5.845   3.452
 4873TIP3    H114583   4.170   5.863   3.521
 4873TIP3    H214584   4.148   5.876   3.372
 4874TIP3   OH214585   1.987   4.742   4.384
 4874TIP3    H114586   1.930   4.665   4.375
 4874TIP3    H214587   1.955   4.804   4.319
 4875TIP3   OH214588   5.464   4.422   5.188
 4875TIP3    H114589   5.458   4.517   5.190
 4875TIP3    H214590   5.445   4.399   5.097
 4876TIP3   OH214591   4.224   2.443   4.687
 4876TIP3    H114592   4.288   2.466   4.754
 4876TIP3    H214593   4.140   2.441   4.733
 4877TIP3   OH214594   1.312   2.407   4.539
 4877TIP3    H114595   1.306   2.485   4.485
 4877TIP3    H214596   1.227   2.364   4.529
 4878TIP3   OH214597   5.527   4.962   2.200
 4878TIP3    H114598   5.504   4.943   2.291
 4878TIP3    H214599   5.623   4.962   2.199
 4879TIP3   OH214600   5.035   1.603   5.821
 4879TIP3    H114601   5.041   1.698   5.830
 4879TIP3    H214602   5.122   1.576   5.790
 4880TIP3   OH214603   0.425   6.865   3.273
 4880TIP3    H114604   0.355   6.808   3.244
 4880TIP3    H214605   0.506   6.815   3.258
 4881TIP3   OH214606   0.084   2.999   4.866
 4881TIP3    H114607   0.062   2.915   4.906
 4881TIP3    H214608   0.014   3.014   4.802
 4882TIP3   OH214609   2.962   4.983   4.722
 4882TIP3    H114610   2.945   4.979   4.816
 4882TIP3    H214611   3.047   4.940   4.711
 4883TIP3   OH214612   5.647   3.944   3.390
 4883TIP3    H114613   5.715   3.983   3.336
 4883TIP3    H214614   5.657   3.986   3.475
 4884TIP3   OH214615   1.050   0.385   2.344
 4884TIP3    H114616   1.029   0.429   2.427
 4884TIP3    H214617   0.970   0.336   2.323
 4885TIP3   OH214618   3.300   6.324   5.008
 4885TIP3    H114619   3.268   6.298   4.922
 4885TIP3    H214620   3.347   6.406   4.992
 4886TIP3   OH214621   0.245   1.775   2.357
 4886TIP3    H114622   0.230   1.680   2.357
 4886TIP3    H214623   0.259   1.798   2.449
 4887TIP3   OH214624   6.329   2.417   2.093
 4887TIP3    H114625   6.308   2.333   2.051
 4887TIP3    H214626   6.244   2.456   2.112
 4888TIP3   OH214627   5.404   5.110   1.109
 4888TIP3    H114628   5.309   5.109   1.125
 4888TIP3    H214629   5.435   5.027   1.143
 4889TIP3   OH214630   0.138   4.842   3.286
 4889TIP3    H114631   0.102   4.792   3.359
 4889TIP3    H214632   0.181   4.776   3.231
 4890TIP3   OH214633   1.434   3.010   5.902
 4890TIP3    H114634   1.366   3.046   5.960
 4890TIP3    H214635   1.428   3.063   5.823
 4891TIP3   OH214636   1.387   3.919   5.483
 4891TIP3    H114637   1.299   3.954   5.493
 4891TIP3    H214638   1.396   3.900   5.390
 4892TIP3   OH214639   5.050   0.035   2.521
 4892TIP3    H114640   5.007   0.121   2.520
 4892TIP3    H214641   5.121   0.045   2.584
 4893TIP3   OH214642   2.186   2.107   3.884
 4893TIP3    H114643   2.187   2.191   3.929
 4893TIP3    H214644   2.144   2.125   3.800
 4894TIP3   OH214645   4.430   5.359   2.730
 4894TIP3    H114646   4.482   5.438   2.749
 4894TIP3    H214647   4.488   5.304   2.679
 4895TIP3   OH214648   1.768   2.215   5.585
 4895TIP3    H114649   1.760   2.232   5.678
 4895TIP3    H214650   1.846   2.263   5.558
 4896TIP3   OH214651   0.618   6.721   2.518
 4896TIP3    H114652   0.678   6.752   2.585
 4896TIP3    H214653   0.591   6.634   2.548
 4897TIP3   OH214654   5.727   2.540   2.314
 4897TIP3    H114655   5.685   2.613   2.269
 4897TIP3    H214656   5.731   2.471   2.248
 4898TIP3   OH214657   5.427   0.303   0.734
 4898TIP3    H114658   5.390   0.376   0.783
 4898TIP3    H214659   5.482   0.344   0.667
 4899TIP3   OH214660   2.269   5.366   4.035
 4899TIP3    H114661   2.191   5.342   3.985
 4899TIP3    H214662   2.319   5.285   4.043
 4900TIP3   OH214663   5.244   4.643   2.927
 4900TIP3    H114664   5.301   4.710   2.891
 4900TIP3    H214665   5.301   4.567   2.939
 4901TIP3   OH214666   4.157   4.575   2.250
 4901TIP3    H114667   4.165   4.657   2.299
 4901TIP3    H214668   4.067   4.547   2.265
 4902TIP3   OH214669   0.779   5.688   2.025
 4902TIP3    H114670   0.780   5.762   2.086
 4902TIP3    H214671   0.769   5.729   1.939
 4903TIP3   OH214672   3.755   0.729   4.297
 4903TIP3    H114673   3.821   0.794   4.320
 4903TIP3    H214674   3.714   0.705   4.380
 4904TIP3   OH214675   0.634   2.045   0.087
 4904TIP3    H114676   0.715   2.063   0.039
 4904TIP3    H214677   0.652   2.075   0.176
 4905TIP3   OH214678   3.288   5.302   3.994
 4905TIP3    H114679   3.346   5.225   3.991
 4905TIP3    H214680   3.335   5.368   3.943
 4906TIP3   OH214681   4.469   5.324   4.619
 4906TIP3    H114682   4.444   5.384   4.689
 4906TIP3    H214683   4.556   5.353   4.592
 4907TIP3   OH214684   6.232   6.155   3.548
 4907TIP3    H114685   6.267   6.195   3.628
 4907TIP3    H214686   6.237   6.225   3.483
 4908TIP3   OH214687   0.490   0.061   2.500
 4908TIP3    H114688   0.495   0.014   2.416
 4908TIP3    H214689   0.472   0.152   2.475
 4909TIP3   OH214690   1.635   4.255   0.062
 4909TIP3    H114691   1.689   4.201   0.004
 4909TIP3    H214692   1.668   4.344   0.050
 4910TIP3   OH214693   4.529   0.822   1.290
 4910TIP3    H114694   4.496   0.776   1.367
 4910TIP3    H214695   4.453   0.833   1.234
 4911TIP3   OH214696   0.348   3.151   4.441
 4911TIP3    H114697   0.330   3.060   4.414
 4911TIP3    H214698   0.303   3.159   4.525
 4912TIP3   OH214699   1.960   0.128   3.378
 4912TIP3    H114700   2.034   0.068   3.394
 4912TIP3    H214701   1.939   0.163   3.464
 4913TIP3   OH214702   5.934   2.160   1.103
 4913TIP3    H114703   5.961   2.092   1.042
 4913TIP3    H214704   5.838   2.157   1.101
 4914TIP3   OH214705   6.031   5.443   0.601
 4914TIP3    H114706   6.123   5.464   0.582
 4914TIP3    H214707   5.992   5.528   0.621
 4915TIP3   OH214708   7.058   5.069   0.609
 4915TIP3    H114709   7.016   5.116   0.681
 4915TIP3    H214710   7.039   5.122   0.532
 4916TIP3   OH214711   5.800   1.664   4.356
 4916TIP3    H114712   5.793   1.704   4.270
 4916TIP3    H214713   5.894   1.659   4.373
 4917TIP3   OH214714   2.928   2.129   3.264
 4917TIP3    H114715   2.988   2.165   3.199
 4917TIP3    H214716   2.983   2.072   3.318
 4918TIP3   OH214717   6.145   5.003   1.183
 4918TIP3    H114718   6.173   5.066   1.250
 4918TIP3    H214719   6.170   4.918   1.219
 4919TIP3   OH214720   2.899   3.125   2.970
 4919TIP3    H114721   2.921   3.218   2.979
 4919TIP3    H214722   2.942   3.098   2.889
 4920TIP3   OH214723   1.794   0.879   0.425
 4920TIP3    H114724   1.862   0.924   0.375
 4920TIP3    H214725   1.728   0.946   0.442
 4921TIP3   OH214726   1.269   1.332   1.683
 4921TIP3    H114727   1.283   1.238   1.683
 4921TIP3    H214728   1.176   1.343   1.666
 4922TIP3   OH214729   6.541   2.751   5.974
 4922TIP3    H114730   6.463   2.731   6.026
 4922TIP3    H214731   6.523   2.714   5.888
 4923TIP3   OH214732   1.765   3.182   0.428
 4923TIP3    H114733   1.772   3.099   0.380
 4923TIP3    H214734   1.710   3.162   0.503
 4924TIP3   OH214735   2.207   1.276   5.607
 4924TIP3    H114736   2.242   1.188   5.616
 4924TIP3    H214737   2.120   1.272   5.646
 4925TIP3   OH214738   6.005   3.360   5.743
 4925TIP3    H114739   6.068   3.327   5.680
 4925TIP3    H214740   5.959   3.429   5.696
 4926TIP3   OH214741   4.567   5.150   0.291
 4926TIP3    H114742   4.608   5.223   0.244
 4926TIP3    H214743   4.635   5.082   0.293
 4927TIP3   OH214744   3.906   6.743   2.736
 4927TIP3    H114745   3.824   6.694   2.726
 4927TIP3    H214746   3.885   6.811   2.801
 4928TIP3   OH214747   1.356   6.786   1.900
 4928TIP3    H114748   1.308   6.772   1.981
 4928TIP3    H214749   1.402   6.703   1.884
 4929TIP3   OH214750   0.577   3.854   1.111
 4929TIP3    H114751   0.594   3.766   1.077
 4929TIP3    H214752   0.513   3.891   1.051
 4930TIP3   OH214753   2.057   4.172   1.855
 4930TIP3    H114754   2.152   4.171   1.849
 4930TIP3    H214755   2.035   4.094   1.906
 4931TIP3   OH214756   6.507   3.531   3.863
 4931TIP3    H114757   6.454   3.610   3.869
 4931TIP3    H214758   6.453   3.463   3.905
 4932TIP3   OH214759   1.278   4.732   3.789
 4932TIP3    H114760   1.362   4.691   3.769
 4932TIP3    H214761   1.283   4.752   3.883
 4933TIP3   OH214762   4.794   0.611   4.534
 4933TIP3    H114763   4.745   0.569   4.462
 4933TIP3    H214764   4.829   0.691   4.495
 4934TIP3   OH214765   0.790   4.240   3.252
 4934TIP3    H114766   0.837   4.319   3.224
 4934TIP3    H214767   0.702   4.250   3.215
 4935TIP3   OH214768   3.352   0.561   3.659
 4935TIP3    H114769   3.309   0.563   3.745
 4935TIP3    H214770   3.338   0.471   3.628
 4936TIP3   OH214771   3.123   5.921   2.937
 4936TIP3    H114772   3.162   6.004   2.966
 4936TIP3    H214773   3.050   5.948   2.881
 4937TIP3   OH214774   3.351   3.910   3.116
 4937TIP3    H114775   3.260   3.925   3.089
 4937TIP3    H214776   3.388   3.855   3.047
 4938TIP3   OH214777   1.238   1.108   0.957
 4938TIP3    H114778   1.189   1.114   1.040
 4938TIP3    H214779   1.214   1.188   0.910
 4939TIP3   OH214780   3.224   4.644   0.812
 4939TIP3    H114781   3.261   4.562   0.779
 4939TIP3    H214782   3.185   4.686   0.735
 4940TIP3   OH214783   5.924   0.068   2.947
 4940TIP3    H114784   5.883   0.025   2.872
 4940TIP3    H214785   5.889   0.022   3.023
 4941TIP3   OH214786   1.545   2.469   4.314
 4941TIP3    H114787   1.484   2.481   4.386
 4941TIP3    H214788   1.533   2.547   4.260
 4942TIP3   OH214789   4.556   6.324   1.097
 4942TIP3    H114790   4.585   6.316   1.006
 4942TIP3    H214791   4.587   6.244   1.139
 4943TIP3   OH214792   5.355   2.036   5.054
 4943TIP3    H114793   5.318   1.980   4.985
 4943TIP3    H214794   5.290   2.034   5.124
 4944TIP3   OH214795   1.872   5.718   5.025
 4944TIP3    H114796   1.830   5.799   5.052
 4944TIP3    H214797   1.812   5.679   4.962
 4945TIP3   OH214798   2.126   2.148   4.206
 4945TIP3    H114799   2.204   2.098   4.231
 4945TIP3    H214800   2.149   2.239   4.226
 4946TIP3   OH214801   6.803   1.484   4.398
 4946TIP3    H114802   6.753   1.405   4.418
 4946TIP3    H214803   6.863   1.494   4.472
 4947TIP3   OH214804   4.733   1.493   4.457
 4947TIP3    H114805   4.643   1.462   4.449
 4947TIP3    H214806   4.778   1.455   4.382
 4948TIP3   OH214807   2.340   1.724   0.897
 4948TIP3    H114808   2.266   1.784   0.907
 4948TIP3    H214809   2.416   1.776   0.923
 4949TIP3   OH214810   0.127   2.789   2.353
 4949TIP3    H114811   0.132   2.862   2.292
 4949TIP3    H214812   0.034   2.773   2.365
 4950TIP3   OH214813   1.572   0.775   1.990
 4950TIP3    H114814   1.634   0.839   2.024
 4950TIP3    H214815   1.500   0.776   2.052
 4951TIP3   OH214816   5.876   5.028   1.139
 4951TIP3    H114817   5.866   4.953   1.080
 4951TIP3    H214818   5.963   5.016   1.177
 4952TIP3   OH214819   4.184   1.573   0.984
 4952TIP3    H114820   4.189   1.651   0.929
 4952TIP3    H214821   4.090   1.556   0.992
 4953TIP3   OH214822   4.435   6.359   1.678
 4953TIP3    H114823   4.413   6.389   1.767
 4953TIP3    H214824   4.466   6.438   1.633
 4954TIP3   OH214825   5.865   0.941   2.037
 4954TIP3    H114826   5.845   0.910   1.948
 4954TIP3    H214827   5.780   0.958   2.076
 4955TIP3   OH214828   1.854   2.778   4.036
 4955TIP3    H114829   1.776   2.779   3.981
 4955TIP3    H214830   1.924   2.749   3.977
 4956TIP3   OH214831   3.948   1.044   3.732
 4956TIP3    H114832   3.905   1.122   3.698
 4956TIP3    H214833   3.909   0.972   3.683
 4957TIP3   OH214834   2.381   0.693   2.309
 4957TIP3    H114835   2.461   0.682   2.257
 4957TIP3    H214836   2.381   0.786   2.333
 4958TIP3   OH214837   2.843   3.171   5.657
 4958TIP3    H114838   2.818   3.187   5.748
 4958TIP3    H214839   2.935   3.198   5.653
 4959TIP3   OH214840   2.754   1.179   4.842
 4959TIP3    H114841   2.733   1.259   4.889
 4959TIP3    H214842   2.787   1.209   4.758
 4960TIP3   OH214843   1.507   6.311   1.078
 4960TIP3    H114844   1.501   6.341   0.987
 4960TIP3    H214845   1.460   6.227   1.078
 4961TIP3   OH214846   2.678   4.139   4.048
 4961TIP3    H114847   2.712   4.070   3.991
 4961TIP3    H214848   2.675   4.217   3.993
 4962TIP3   OH214849   4.296   1.125   3.261
 4962TIP3    H114850   4.266   1.216   3.268
 4962TIP3    H214851   4.384   1.132   3.222
 4963TIP3   OH214852   1.198   3.438   4.543
 4963TIP3    H114853   1.237   3.487   4.471
 4963TIP3    H214854   1.270   3.388   4.580
 4964TIP3   OH214855   0.490   4.202   4.668
 4964TIP3    H114856   0.401   4.236   4.661
 4964TIP3    H214857   0.527   4.244   4.745
 4965TIP3   OH214858   2.353   5.693   4.817
 4965TIP3    H114859   2.426   5.746   4.848
 4965TIP3    H214860   2.393   5.614   4.782
 4966TIP3   OH214861   1.333   6.013   0.830
 4966TIP3    H114862   1.322   6.061   0.913
 4966TIP3    H214863   1.249   6.022   0.786
 4967TIP3   OH214864   6.505   4.754   5.867
 4967TIP3    H114865   6.483   4.782   5.778
 4967TIP3    H214866   6.456   4.672   5.879
 4968TIP3   OH214867   2.857   6.128   5.479
 4968TIP3    H114868   2.908   6.166   5.408
 4968TIP3    H214869   2.772   6.171   5.473
 4969TIP3   OH214870   4.497   3.572   0.737
 4969TIP3    H114871   4.429   3.601   0.677
 4969TIP3    H214872   4.450   3.540   0.814
 4970TIP3   OH214873   1.126   4.558   3.323
 4970TIP3    H114874   1.093   4.469   3.335
 4970TIP3    H214875   1.190   4.550   3.251
 4971TIP3   OH214876   0.662   1.242   2.828
 4971TIP3    H114877   0.643   1.288   2.910
 4971TIP3    H214878   0.591   1.267   2.770
 4972TIP3   OH214879   5.181   2.054   5.250
 4972TIP3    H114880   5.223   2.073   5.334
 4972TIP3    H214881   5.098   2.012   5.274
 4973TIP3   OH214882   2.723   1.041   3.941
 4973TIP3    H114883   2.708   1.133   3.965
 4973TIP3    H214884   2.782   1.008   4.008
 4974TIP3   OH214885   5.440   5.568   3.500
 4974TIP3    H114886   5.503   5.520   3.445
 4974TIP3    H214887   5.487   5.584   3.582
 4975TIP3   OH214888   3.372   2.321   4.744
 4975TIP3    H114889   3.336   2.408   4.761
 4975TIP3    H214890   3.405   2.326   4.654
 4976TIP3   OH214891   4.204   6.125   2.645
 4976TIP3    H114892   4.211   6.045   2.697
 4976TIP3    H214893   4.285   6.128   2.594
 4977TIP3   OH214894   5.861   6.627   3.866
 4977TIP3    H114895   5.910   6.615   3.785
 4977TIP3    H214896   5.923   6.605   3.935
 4978TIP3   OH214897   3.866   4.477   5.399
 4978TIP3    H114898   3.784   4.429   5.394
 4978TIP3    H214899   3.848   4.560   5.355
 4979TIP3   OH214900   2.777   6.312   3.668
 4979TIP3    H114901   2.864   6.281   3.642
 4979TIP3    H214902   2.720   6.283   3.597
 4980TIP3   OH214903   2.985   4.163   5.353
 4980TIP3    H114904   2.938   4.181   5.434
 4980TIP3    H214905   2.995   4.249   5.311
 4981TIP3   OH214906   4.866   6.046   2.443
 4981TIP3    H114907   4.933   6.011   2.501
 4981TIP3    H214908   4.891   6.016   2.356
 4982TIP3   OH214909   1.859   4.523   2.902
 4982TIP3    H114910   1.835   4.615   2.900
 4982TIP3    H214911   1.946   4.521   2.943
 4983TIP3   OH214912   2.477   6.695   0.638
 4983TIP3    H114913   2.409   6.634   0.611
 4983TIP3    H214914   2.430   6.770   0.674
 4984TIP3   OH214915   2.569   1.738   0.404
 4984TIP3    H114916   2.571   1.675   0.475
 4984TIP3    H214917   2.574   1.685   0.324
 4985TIP3   OH214918   6.594   4.687   3.672
 4985TIP3    H114919   6.502   4.662   3.664
 4985TIP3    H214920   6.621   4.709   3.583
 4986TIP3   OH214921   2.340   1.582   5.229
 4986TIP3    H114922   2.267   1.644   5.225
 4986TIP3    H214923   2.298   1.497   5.241
 4987TIP3   OH214924   4.139   0.234   1.422
 4987TIP3    H114925   4.068   0.172   1.443
 4987TIP3    H214926   4.219   0.184   1.437
 4988TIP3   OH214927   2.925   4.890   4.051
 4988TIP3    H114928   2.871   4.816   4.023
 4988TIP3    H214929   2.905   4.959   3.988
 4989TIP3   OH214930   4.259   1.491   3.237
 4989TIP3    H114931   4.322   1.477   3.307
 4989TIP3    H214932   4.187   1.540   3.278
 4990TIP3   OH214933   6.601   1.851   3.005
 4990TIP3    H114934   6.594   1.779   3.068
 4990TIP3    H214935   6.554   1.923   3.045
 4991TIP3   OH214936   3.558   6.292   1.408
 4991TIP3    H114937   3.595   6.218   1.455
 4991TIP3    H214938   3.480   6.317   1.459
 4992TIP3   OH214939   1.348   6.502   1.904
 4992TIP3    H114940   1.365   6.472   1.815
 4992TIP3    H214941   1.257   6.475   1.921
 4993TIP3   OH214942   1.788   6.381   0.215
 4993TIP3    H114943   1.758   6.314   0.153
 4993TIP3    H214944   1.882   6.367   0.222
 4994TIP3   OH214945   1.327   1.934   0.414
 4994TIP3    H114946   1.380   1.891   0.482
 4994TIP3    H214947   1.379   1.925   0.334
 4995TIP3   OH214948   6.541   1.759   4.379
 4995TIP3    H114949   6.490   1.761   4.460
 4995TIP3    H214950   6.632   1.752   4.409
 4996TIP3   OH214951   0.076   4.397   0.682
 4996TIP3    H114952   0.014   4.401   0.609
 4996TIP3    H214953   0.027   4.355   0.752
 4997TIP3   OH214954   0.438   2.872  -0.002
 4997TIP3    H114955   0.494   2.942   0.031
 4997TIP3    H214956   0.428   2.811   0.071
 4998TIP3   OH214957   3.573   1.344   4.001
 4998TIP3    H114958   3.573   1.263   4.052
 4998TIP3    H214959   3.482   1.356   3.975
 4999TIP3   OH214960   4.343   6.369   0.221
 4999TIP3    H114961   4.404   6.333   0.157
 4999TIP3    H214962   4.263   6.384   0.171
 5000TIP3   OH214963   7.093   0.550   5.791
 5000TIP3    H114964   7.116   0.538   5.699
 5000TIP3    H214965   7.012   0.499   5.802
 5001TIP3   OH214966   1.021   6.296   0.847
 5001TIP3    H114967   0.940   6.326   0.889
 5001TIP3    H214968   0.995   6.219   0.797
 5002TIP3   OH214969   4.929   4.435   1.915
 5002TIP3    H114970   5.018   4.401   1.928
 5002TIP3    H214971   4.873   4.357   1.918
 5003TIP3   OH214972   6.760   3.848   0.939
 5003TIP3    H114973   6.688   3.796   0.974
 5003TIP3    H214974   6.822   3.783   0.905
 5004TIP3   OH214975   4.621   1.762   5.202
 5004TIP3    H114976   4.702   1.721   5.173
 5004TIP3    H214977   4.558   1.690   5.207
 5005TIP3   OH214978   7.221   0.837   2.355
 5005TIP3    H114979   7.181   0.878   2.431
 5005TIP3    H214980   7.148   0.822   2.295
 5006TIP3   OH214981   5.565   0.398   1.873
 5006TIP3    H114982   5.494   0.341   1.842
 5006TIP3    H214983   5.521   0.479   1.897
 5007TIP3   OH214984   2.333   5.563   2.893
 5007TIP3    H114985   2.403   5.517   2.940
 5007TIP3    H214986   2.292   5.495   2.839
 5008TIP3   OH214987   2.665   4.431   1.821
 5008TIP3    H114988   2.712   4.397   1.746
 5008TIP3    H214989   2.728   4.429   1.893
 5009TIP3   OH214990   1.129   4.435   5.650
 5009TIP3    H114991   1.205   4.483   5.616
 5009TIP3    H214992   1.165   4.353   5.683
 5010TIP3   OH214993   6.899   1.650   2.832
 5010TIP3    H114994   6.833   1.619   2.770
 5010TIP3    H214995   6.878   1.743   2.845
 5011TIP3   OH214996   6.379   0.175   5.798
 5011TIP3    H114997   6.378   0.092   5.847
 5011TIP3    H214998   6.296   0.175   5.750
 5012TIP3   OH214999   0.311   5.567   1.534
 5012TIP3    H115000   0.220   5.571   1.507
 5012TIP3    H215001   0.330   5.656   1.566
 5013TIP3   OH215002   2.274   5.003   1.259
 5013TIP3    H115003   2.345   4.951   1.221
 5013TIP3    H215004   2.305   5.093   1.254
 5014TIP3   OH215005   2.364   4.803   0.826
 5014TIP3    H115006   2.380   4.896   0.811
 5014TIP3    H215007   2.320   4.773   0.746
 5015TIP3   OH215008   3.080   3.770   0.697
 5015TIP3    H115009   3.091   3.865   0.701
 5015TIP3    H215010   3.064   3.752   0.604
 5016TIP3   OH215011   1.239   5.463   4.906
 5016TIP3    H115012   1.227   5.527   4.835
 5016TIP3    H215013   1.249   5.379   4.861
 5017TIP3   OH215014   3.410   6.638   0.437
 5017TIP3    H115015   3.347   6.570   0.413
 5017TIP3    H215016   3.472   6.639   0.364
 5018TIP3   OH215017   6.556   3.081   5.436
 5018TIP3    H115018   6.599   3.006   5.477
 5018TIP3    H215019   6.604   3.095   5.354
 5019TIP3   OH215020   7.088   5.749   4.264
 5019TIP3    H115021   7.105   5.669   4.216
 5019TIP3    H215022   7.004   5.781   4.231
 5020TIP3   OH215023   3.949   6.364   4.911
 5020TIP3    H115024   3.988   6.302   4.848
 5020TIP3    H215025   4.008   6.361   4.986
 5021TIP3   OH215026   5.365   0.547   2.244
 5021TIP3    H115027   5.427   0.554   2.317
 5021TIP3    H215028   5.318   0.630   2.244
 5022TIP3   OH215029   4.879   6.609   5.122
 5022TIP3    H115030   4.940   6.535   5.127
 5022TIP3    H215031   4.934   6.687   5.134
 5023TIP3   OH215032   5.911   5.502   3.993
 5023TIP3    H115033   5.853   5.577   4.007
 5023TIP3    H215034   5.895   5.445   4.068
 5024TIP3   OH215035   3.612   3.456   0.569
 5024TIP3    H115036   3.575   3.415   0.491
 5024TIP3    H215037   3.614   3.549   0.548
 5025TIP3   OH215038   4.192   5.855   3.713
 5025TIP3    H115039   4.216   5.948   3.706
 5025TIP3    H215040   4.184   5.839   3.807
 5026TIP3   OH215041   7.118   4.400   5.840
 5026TIP3    H115042   7.054   4.441   5.782
 5026TIP3    H215043   7.198   4.395   5.788
 5027TIP3   OH215044   3.427   0.299   3.897
 5027TIP3    H115045   3.402   0.282   3.806
 5027TIP3    H215046   3.522   0.300   3.895
 5028TIP3   OH215047   5.762   3.856   5.144
 5028TIP3    H115048   5.690   3.913   5.117
 5028TIP3    H215049   5.784   3.886   5.232
 5029TIP3   OH215050   0.146   1.732   2.842
 5029TIP3    H115051   0.085   1.675   2.795
 5029TIP3    H215052   0.204   1.672   2.888
 5030TIP3   OH215053   1.321   4.538   3.121
 5030TIP3    H115054   1.262   4.473   3.083
 5030TIP3    H215055   1.350   4.591   3.048
 5031TIP3   OH215056   1.419   4.840   2.171
 5031TIP3    H115057   1.340   4.894   2.175
 5031TIP3    H215058   1.419   4.791   2.253
 5032TIP3   OH215059   3.146   2.702   5.377
 5032TIP3    H115060   3.064   2.703   5.427
 5032TIP3    H215061   3.119   2.700   5.286
 5033TIP3   OH215062   3.797   3.610   3.767
 5033TIP3    H115063   3.842   3.668   3.827
 5033TIP3    H215064   3.724   3.662   3.733
 5034TIP3   OH215065   5.108   4.303   1.272
 5034TIP3    H115066   5.196   4.319   1.307
 5034TIP3    H215067   5.051   4.304   1.348
 5035TIP3   OH215068   6.986   1.001   4.668
 5035TIP3    H115069   6.915   1.058   4.641
 5035TIP3    H215070   6.979   0.925   4.610
 5036TIP3   OH215071   5.569   4.564   3.253
 5036TIP3    H115072   5.599   4.473   3.248
 5036TIP3    H215073   5.574   4.586   3.346
 5037TIP3   OH215074   6.181   3.484   0.638
 5037TIP3    H115075   6.195   3.435   0.557
 5037TIP3    H215076   6.153   3.571   0.609
 5038TIP3   OH215077   4.037   2.513   1.271
 5038TIP3    H115078   3.983   2.579   1.227
 5038TIP3    H215079   4.081   2.561   1.341
 5039TIP3   OH215080   3.178   0.428   0.424
 5039TIP3    H115081   3.195   0.504   0.367
 5039TIP3    H215082   3.083   0.418   0.423
 5040TIP3   OH215083   1.377   4.631   2.690
 5040TIP3    H115084   1.371   4.630   2.785
 5040TIP3    H215085   1.440   4.561   2.669
 5041TIP3   OH215086   0.942   4.806   5.208
 5041TIP3    H115087   0.858   4.775   5.174
 5041TIP3    H215088   0.966   4.878   5.151
 5042TIP3   OH215089   0.067   0.425   1.672
 5042TIP3    H115090   0.030   0.503   1.630
 5042TIP3    H215091   0.144   0.404   1.620
 5043TIP3   OH215092   6.098   5.018   1.803
 5043TIP3    H115093   6.074   5.097   1.755
 5043TIP3    H215094   6.163   4.975   1.748
 5044TIP3   OH215095   5.247   5.731   1.901
 5044TIP3    H115096   5.287   5.706   1.984
 5044TIP3    H215097   5.287   5.673   1.836
 5045TIP3   OH215098   0.621   0.166   2.014
 5045TIP3    H115099   0.652   0.076   2.015
 5045TIP3    H215100   0.697   0.218   1.990
 5046TIP3   OH215101   4.839   3.357   3.634
 5046TIP3    H115102   4.831   3.321   3.545
 5046TIP3    H215103   4.755   3.399   3.651
 5047TIP3   OH215104   0.808   5.250   0.222
 5047TIP3    H115105   0.821   5.281   0.133
 5047TIP3    H215106   0.713   5.250   0.234
 5048TIP3   OH215107   1.364   3.089   3.417
 5048TIP3    H115108   1.308   3.014   3.396
 5048TIP3    H215109   1.449   3.066   3.378
 5049TIP3   OH215110   5.538   2.594   1.922
 5049TIP3    H115111   5.565   2.547   2.001
 5049TIP3    H215112   5.448   2.620   1.939
 5050TIP3   OH215113   3.203   5.654   2.873
 5050TIP3    H115114   3.163   5.736   2.903
 5050TIP3    H215115   3.162   5.587   2.927
 5051TIP3   OH215116   6.701   2.575   5.601
 5051TIP3    H115117   6.677   2.557   5.692
 5051TIP3    H215118   6.717   2.489   5.563
 5052TIP3   OH215119   0.599   1.269   4.821
 5052TIP3    H115120   0.606   1.273   4.916
 5052TIP3    H215121   0.638   1.185   4.797
 5053TIP3   OH215122   2.274   6.586   3.273
 5053TIP3    H115123   2.259   6.499   3.237
 5053TIP3    H215124   2.330   6.573   3.349
 5054TIP3   OH215125   3.328   1.845   0.972
 5054TIP3    H115126   3.341   1.883   0.885
 5054TIP3    H215127   3.346   1.916   1.033
 5055TIP3   OH215128   6.426   4.063   3.601
 5055TIP3    H115129   6.353   4.018   3.559
 5055TIP3    H215130   6.413   4.046   3.694
 5056TIP3   OH215131   7.261   6.230   3.923
 5056TIP3    H115132   7.170   6.254   3.908
 5056TIP3    H215133   7.299   6.224   3.835
 5057TIP3   OH215134   5.173   3.996   0.278
 5057TIP3    H115135   5.267   3.977   0.274
 5057TIP3    H215136   5.166   4.064   0.345
 5058TIP3   OH215137   6.448   1.121   1.148
 5058TIP3    H115138   6.446   1.101   1.055
 5058TIP3    H215139   6.447   1.035   1.191
 5059TIP3   OH215140   6.052   5.356   3.040
 5059TIP3    H115141   6.107   5.434   3.042
 5059TIP3    H215142   6.030   5.344   2.948
 5060TIP3   OH215143   2.311   5.409   3.746
 5060TIP3    H115144   2.340   5.497   3.723
 5060TIP3    H215145   2.297   5.412   3.840
 5061TIP3   OH215146   3.211   1.623   0.617
 5061TIP3    H115147   3.182   1.687   0.552
 5061TIP3    H215148   3.237   1.546   0.566
 5062TIP3   OH215149   5.886   4.225   5.066
 5062TIP3    H115150   5.951   4.291   5.091
 5062TIP3    H215151   5.931   4.170   5.003
 5063TIP3   OH215152   7.085   1.127   5.572
 5063TIP3    H115153   7.161   1.109   5.627
 5063TIP3    H215154   7.041   1.201   5.615
 5064TIP3   OH215155   3.151   2.280   4.003
 5064TIP3    H115156   3.101   2.338   3.946
 5064TIP3    H215157   3.234   2.325   4.017
 5065TIP3   OH215158   7.228   3.623   0.353
 5065TIP3    H115159   7.246   3.575   0.272
 5065TIP3    H215160   7.141   3.660   0.340
 5066TIP3   OH215161   3.522   3.643   2.553
 5066TIP3    H115162   3.445   3.588   2.545
 5066TIP3    H215163   3.596   3.585   2.533
 5067TIP3   OH215164   2.582   4.297   3.106
 5067TIP3    H115165   2.668   4.333   3.129
 5067TIP3    H215166   2.556   4.346   3.028
 5068TIP3   OH215167   6.589   3.958   3.838
 5068TIP3    H115168   6.615   3.910   3.917
 5068TIP3    H215169   6.538   3.895   3.788
 5069TIP3   OH215170   1.646   3.769   4.728
 5069TIP3    H115171   1.632   3.727   4.813
 5069TIP3    H215172   1.731   3.812   4.736
 5070TIP3   OH215173   7.144   2.098   1.801
 5070TIP3    H115174   7.154   2.177   1.854
 5070TIP3    H215175   7.049   2.087   1.793
 5071TIP3   OH215176   4.843   2.910   5.065
 5071TIP3    H115177   4.913   2.931   5.004
 5071TIP3    H215178   4.762   2.936   5.020
 5072TIP3   OH215179   2.947   6.750   3.747
 5072TIP3    H115180   3.034   6.760   3.708
 5072TIP3    H215181   2.959   6.776   3.839
 5073TIP3   OH215182   4.320   3.700   2.246
 5073TIP3    H115183   4.410   3.722   2.221
 5073TIP3    H215184   4.314   3.606   2.234
 5074TIP3   OH215185   2.427   4.585   5.211
 5074TIP3    H115186   2.488   4.652   5.179
 5074TIP3    H215187   2.392   4.622   5.292
 5075TIP3   OH215188   1.709   6.021   3.111
 5075TIP3    H115189   1.634   5.963   3.093
 5075TIP3    H215190   1.749   5.984   3.190
 5076TIP3   OH215191   1.536   2.383   0.020
 5076TIP3    H115192   1.593   2.402   0.094
 5076TIP3    H215193   1.470   2.324   0.054
 5077TIP3   OH215194   4.189   1.791   0.458
 5077TIP3    H115195   4.247   1.734   0.407
 5077TIP3    H215196   4.248   1.855   0.499
 5078TIP3   OH215197   2.448   3.670   2.434
 5078TIP3    H115198   2.425   3.762   2.448
 5078TIP3    H215199   2.533   3.674   2.390
 5079TIP3   OH215200   2.202   5.200   0.047
 5079TIP3    H115201   2.150   5.144  -0.010
 5079TIP3    H215202   2.184   5.168   0.135
 5080TIP3   OH215203   0.867   3.771   4.593
 5080TIP3    H115204   0.898   3.694   4.547
 5080TIP3    H215205   0.893   3.758   4.684
 5081TIP3   OH215206   1.225   4.577   0.677
 5081TIP3    H115207   1.308   4.559   0.721
 5081TIP3    H215208   1.186   4.491   0.663
 5082TIP3   OH215209   0.854   6.019   0.944
 5082TIP3    H115210   0.797   5.968   1.002
 5082TIP3    H215211   0.877   6.096   0.996
 5083TIP3   OH215212   5.505   3.241   2.012
 5083TIP3    H115213   5.454   3.289   1.947
 5083TIP3    H215214   5.486   3.149   1.994
 5084TIP3   OH215215   6.226   0.244   2.200
 5084TIP3    H115216   6.260   0.333   2.200
 5084TIP3    H215217   6.295   0.191   2.161
 5085TIP3   OH215218   3.679   3.313   2.789
 5085TIP3    H115219   3.761   3.361   2.776
 5085TIP3    H215220   3.704   3.221   2.778
 5086TIP3   OH215221   4.211   2.164   2.999
 5086TIP3    H115222   4.270   2.145   2.927
 5086TIP3    H215223   4.269   2.179   3.074
 5087TIP3   OH215224   5.920   4.308   1.823
 5087TIP3    H115225   5.908   4.268   1.909
 5087TIP3    H215226   5.852   4.375   1.818
 5088TIP3   OH215227   5.973   2.794   1.997
 5088TIP3    H115228   5.883   2.793   1.964
 5088TIP3    H215229   5.996   2.887   2.002
 5089TIP3   OH215230   5.463   2.998   4.495
 5089TIP3    H115231   5.478   3.092   4.481
 5089TIP3    H215232   5.434   2.966   4.410
 5090TIP3   OH215233   5.866   5.002   1.932
 5090TIP3    H115234   5.899   5.045   2.011
 5090TIP3    H215235   5.943   4.992   1.876
 5091TIP3   OH215236   0.572   0.685   3.585
 5091TIP3    H115237   0.586   0.605   3.635
 5091TIP3    H215238   0.480   0.680   3.557
 5092TIP3   OH215239   3.377   6.363   5.335
 5092TIP3    H115240   3.464   6.402   5.347
 5092TIP3    H215241   3.379   6.328   5.246
 5093TIP3   OH215242   4.265   3.343   5.088
 5093TIP3    H115243   4.236   3.410   5.149
 5093TIP3    H215244   4.358   3.360   5.075
 5094TIP3   OH215245   1.751   4.670   3.488
 5094TIP3    H115246   1.752   4.580   3.457
 5094TIP3    H215247   1.817   4.715   3.435
 5095TIP3   OH215248   2.913   5.875   0.395
 5095TIP3    H115249   2.914   5.969   0.373
 5095TIP3    H215250   2.882   5.832   0.316
 5096TIP3   OH215251   1.731   0.984   0.029
 5096TIP3    H115252   1.774   0.901   0.010
 5096TIP3    H215253   1.803   1.043   0.052
 5097TIP3   OH215254   7.014   2.036   1.303
 5097TIP3    H115255   7.057   2.113   1.265
 5097TIP3    H215256   6.956   2.004   1.234
 5098TIP3   OH215257   2.870   5.278   5.189
 5098TIP3    H115258   2.869   5.312   5.278
 5098TIP3    H215259   2.881   5.354   5.133
 5099TIP3   OH215260   4.947   5.487   5.436
 5099TIP3    H115261   4.921   5.541   5.361
 5099TIP3    H215262   4.880   5.504   5.502
 5100TIP3   OH215263   0.765   6.553   4.543
 5100TIP3    H115264   0.754   6.460   4.524
 5100TIP3    H215265   0.855   6.572   4.519
 5101TIP3   OH215266   3.675   0.385   4.398
 5101TIP3    H115267   3.752   0.394   4.454
 5101TIP3    H215268   3.604   0.362   4.459
 5102TIP3   OH215269   0.067   1.551   4.128
 5102TIP3    H115270   0.098   1.543   4.218
 5102TIP3    H215271  -0.009   1.609   4.134
 5103TIP3   OH215272   4.536   0.065   4.244
 5103TIP3    H115273   4.495  -0.020   4.235
 5103TIP3    H215274   4.465   0.128   4.232
 5104TIP3   OH215275   3.357   4.442   5.086
 5104TIP3    H115276   3.327   4.362   5.043
 5104TIP3    H215277   3.342   4.426   5.179
 5105TIP3   OH215278   4.031   0.057   3.566
 5105TIP3    H115279   3.945   0.084   3.597
 5105TIP3    H215280   4.061  -0.008   3.630
 5106TIP3   OH215281   5.278   0.532   2.549
 5106TIP3    H115282   5.203   0.474   2.542
 5106TIP3    H215283   5.326   0.502   2.626
 5107TIP3   OH215284   0.444   1.495   2.242
 5107TIP3    H115285   0.513   1.448   2.196
 5107TIP3    H215286   0.401   1.429   2.296
 5108TIP3   OH215287   2.350   5.875   3.163
 5108TIP3    H115288   2.327   5.783   3.176
 5108TIP3    H215289   2.435   5.885   3.207
 5109TIP3   OH215290   5.838   3.526   5.593
 5109TIP3    H115291   5.879   3.522   5.506
 5109TIP3    H215292   5.792   3.610   5.594
 5110TIP3   OH215293   1.360   0.592   3.583
 5110TIP3    H115294   1.433   0.653   3.595
 5110TIP3    H215295   1.289   0.630   3.634
 5111TIP3   OH215296   6.110   2.522   3.750
 5111TIP3    H115297   6.136   2.560   3.834
 5111TIP3    H215298   6.193   2.498   3.708
 5112TIP3   OH215299   0.193   5.420   0.676
 5112TIP3    H115300   0.247   5.499   0.682
 5112TIP3    H215301   0.251   5.353   0.639
 5113TIP3   OH215302   1.882   3.350   5.374
 5113TIP3    H115303   1.901   3.312   5.288
 5113TIP3    H215304   1.861   3.275   5.429
 5114TIP3   OH215305   5.094   3.293   1.895
 5114TIP3    H115306   5.042   3.368   1.868
 5114TIP3    H215307   5.054   3.265   1.978
 5115TIP3   OH215308   3.512   2.917   1.352
 5115TIP3    H115309   3.442   2.980   1.369
 5115TIP3    H215310   3.582   2.968   1.312
 5116TIP3   OH215311   5.595   2.930   5.476
 5116TIP3    H115312   5.678   2.952   5.519
 5116TIP3    H215313   5.551   3.014   5.464
 5117TIP3   OH215314   3.862   4.862   1.319
 5117TIP3    H115315   3.777   4.867   1.276
 5117TIP3    H215316   3.854   4.789   1.380
 5118TIP3   OH215317   7.010   2.396   1.612
 5118TIP3    H115318   7.041   2.307   1.626
 5118TIP3    H215319   7.089   2.449   1.606
 5119TIP3   OH215320   4.146   6.434   4.173
 5119TIP3    H115321   4.110   6.365   4.228
 5119TIP3    H215322   4.165   6.505   4.234
 5120TIP3   OH215323   0.025   1.037   2.150
 5120TIP3    H115324   0.032   0.962   2.210
 5120TIP3    H215325   0.111   1.042   2.109
 5121TIP3   OH215326   3.437   0.537   4.322
 5121TIP3    H115327   3.515   0.483   4.313
 5121TIP3    H215328   3.457   0.616   4.272
 5122TIP3   OH215329   0.451   6.527   0.424
 5122TIP3    H115330   0.359   6.528   0.450
 5122TIP3    H215331   0.449   6.517   0.329
 5123TIP3   OH215332   4.350   2.445   1.369
 5123TIP3    H115333   4.345   2.358   1.409
 5123TIP3    H215334   4.270   2.451   1.317
 5124TIP3   OH215335   6.054   1.616   0.781
 5124TIP3    H115336   6.037   1.639   0.872
 5124TIP3    H215337   5.974   1.641   0.735
 5125TIP3   OH215338   3.017   3.314   2.683
 5125TIP3    H115339   2.955   3.324   2.611
 5125TIP3    H215340   3.080   3.248   2.653
 5126TIP3   OH215341   7.102   2.067   5.284
 5126TIP3    H115342   7.045   2.050   5.209
 5126TIP3    H215343   7.121   2.160   5.280
 5127TIP3   OH215344   3.139   5.613   1.716
 5127TIP3    H115345   3.209   5.550   1.699
 5127TIP3    H215346   3.061   5.558   1.727
 5128TIP3   OH215347   1.527   2.085   0.641
 5128TIP3    H115348   1.478   2.162   0.668
 5128TIP3    H215349   1.590   2.070   0.712
 5129TIP3   OH215350   6.692   2.199   5.266
 5129TIP3    H115351   6.699   2.103   5.265
 5129TIP3    H215352   6.725   2.227   5.181
 5130TIP3   OH215353   2.035   4.182   5.195
 5130TIP3    H115354   2.104   4.248   5.192
 5130TIP3    H215355   1.969   4.213   5.134
 5131TIP3   OH215356   2.809   1.490   1.695
 5131TIP3    H115357   2.881   1.481   1.633
 5131TIP3    H215358   2.760   1.567   1.664
 5132TIP3   OH215359   6.248   1.171   2.050
 5132TIP3    H115360   6.154   1.176   2.037
 5132TIP3    H215361   6.258   1.119   2.130
 5133TIP3   OH215362   3.971   1.198   2.569
 5133TIP3    H115363   3.997   1.266   2.506
 5133TIP3    H215364   3.977   1.117   2.519
 5134TIP3   OH215365   1.649   5.232   1.704
 5134TIP3    H115366   1.619   5.153   1.660
 5134TIP3    H215367   1.570   5.270   1.742
 5135TIP3   OH215368   0.812   6.849   1.441
 5135TIP3    H115369   0.810   6.777   1.505
 5135TIP3    H215370   0.725   6.847   1.400
 5136TIP3   OH215371   5.595   1.548   1.559
 5136TIP3    H115372   5.558   1.587   1.639
 5136TIP3    H215373   5.664   1.609   1.533
 5137TIP3   OH215374   0.911   2.519   1.780
 5137TIP3    H115375   0.884   2.469   1.857
 5137TIP3    H215376   0.899   2.458   1.707
 5138TIP3   OH215377   1.993   1.533   5.578
 5138TIP3    H115378   1.975   1.496   5.664
 5138TIP3    H215379   1.945   1.616   5.577
 5139TIP3   OH215380   6.123   3.548   4.266
 5139TIP3    H115381   6.213   3.539   4.233
 5139TIP3    H215382   6.108   3.469   4.318
 5140TIP3   OH215383   4.424   1.594   2.717
 5140TIP3    H115384   4.374   1.673   2.737
 5140TIP3    H215385   4.365   1.541   2.663
 5141TIP3   OH215386   6.335   6.030   2.886
 5141TIP3    H115387   6.426   6.008   2.864
 5141TIP3    H215388   6.334   6.033   2.982
 5142TIP3   OH215389   2.796   3.870   3.178
 5142TIP3    H115390   2.771   3.954   3.141
 5142TIP3    H215391   2.873   3.889   3.231
 5143TIP3   OH215392   0.999   5.412   2.047
 5143TIP3    H115393   1.074   5.438   1.993
 5143TIP3    H215394   0.952   5.493   2.064
 5144TIP3   OH215395   1.092   6.478   4.269
 5144TIP3    H115396   1.012   6.500   4.221
 5144TIP3    H215397   1.084   6.385   4.288
 5145TIP3   OH215398   1.999   0.614   1.494
 5145TIP3    H115399   1.914   0.659   1.499
 5145TIP3    H215400   1.982   0.528   1.534
 5146TIP3   OH215401   3.405   6.350   2.655
 5146TIP3    H115402   3.498   6.365   2.634
 5146TIP3    H215403   3.407   6.279   2.720
 5147TIP3   OH215404   5.532   0.696   3.537
 5147TIP3    H115405   5.529   0.660   3.448
 5147TIP3    H215406   5.493   0.628   3.592
 5148TIP3   OH215407   2.048   2.902   1.554
 5148TIP3    H115408   2.041   2.830   1.491
 5148TIP3    H215409   1.960   2.910   1.591
 5149TIP3   OH215410   3.354   0.349   0.640
 5149TIP3    H115411   3.309   0.353   0.555
 5149TIP3    H215412   3.284   0.358   0.705
 5150TIP3   OH215413   1.271   6.563   3.045
 5150TIP3    H115414   1.302   6.562   2.954
 5150TIP3    H215415   1.176   6.575   3.037
 5151TIP3   OH215416   2.873   0.857   2.175
 5151TIP3    H115417   2.833   0.906   2.102
 5151TIP3    H215418   2.963   0.842   2.147
 5152TIP3   OH215419   6.074   5.414   5.059
 5152TIP3    H115420   6.007   5.467   5.017
 5152TIP3    H215421   6.095   5.346   4.995
 5153TIP3   OH215422   4.652   1.199   4.130
 5153TIP3    H115423   4.707   1.146   4.073
 5153TIP3    H215424   4.665   1.289   4.099
 5154TIP3   OH215425   0.180   1.426   2.647
 5154TIP3    H115426   0.126   1.407   2.724
 5154TIP3    H215427   0.266   1.445   2.683
 5155TIP3   OH215428   2.827   1.344   3.433
 5155TIP3    H115429   2.804   1.384   3.517
 5155TIP3    H215430   2.810   1.250   3.446
 5156TIP3   OH215431   4.569   0.707   2.695
 5156TIP3    H115432   4.539   0.673   2.611
 5156TIP3    H215433   4.524   0.791   2.705
 5157TIP3   OH215434   3.934   1.129   1.376
 5157TIP3    H115435   3.968   1.063   1.437
 5157TIP3    H215436   3.936   1.211   1.426
 5158TIP3   OH215437   4.834   6.141   5.107
 5158TIP3    H115438   4.742   6.165   5.122
 5158TIP3    H215439   4.874   6.147   5.194
 5159TIP3   OH215440   4.724   4.260   3.047
 5159TIP3    H115441   4.644   4.279   3.098
 5159TIP3    H215442   4.769   4.344   3.042
 5160TIP3   OH215443   3.396   5.502   1.224
 5160TIP3    H115444   3.371   5.410   1.212
 5160TIP3    H215445   3.330   5.536   1.285
 5161TIP3   OH215446   1.643   4.967   2.348
 5161TIP3    H115447   1.583   4.953   2.275
 5161TIP3    H215448   1.711   5.024   2.312
 5162TIP3   OH215449   5.758   4.539   1.793
 5162TIP3    H115450   5.735   4.558   1.702
 5162TIP3    H215451   5.738   4.620   1.840
 5163TIP3   OH215452   5.347   1.328   2.700
 5163TIP3    H115453   5.407   1.375   2.642
 5163TIP3    H215454   5.355   1.373   2.784
 5164TIP3   OH215455   3.445   0.164   1.809
 5164TIP3    H115456   3.408   0.168   1.898
 5164TIP3    H215457   3.395   0.229   1.760
 5165TIP3   OH215458   6.860   4.894   1.568
 5165TIP3    H115459   6.921   4.821   1.553
 5165TIP3    H215460   6.880   4.956   1.497
 5166TIP3   OH215461   0.076   2.116   1.365
 5166TIP3    H115462   0.071   2.031   1.408
 5166TIP3    H215463  -0.005   2.123   1.315
 5167TIP3   OH215464   0.222   0.669   1.284
 5167TIP3    H115465   0.183   0.590   1.323
 5167TIP3    H215466   0.279   0.636   1.215
 5168TIP3   OH215467   2.675   6.673   1.242
 5168TIP3    H115468   2.742   6.609   1.219
 5168TIP3    H215469   2.650   6.712   1.158
 5169TIP3   OH215470   3.446   1.224   2.554
 5169TIP3    H115471   3.485   1.235   2.641
 5169TIP3    H215472   3.502   1.160   2.510
 5170TIP3   OH215473   1.104   5.546   4.674
 5170TIP3    H115474   1.022   5.539   4.723
 5170TIP3    H215475   1.107   5.466   4.621
 5171TIP3   OH215476   6.623   3.834   1.245
 5171TIP3    H115477   6.571   3.898   1.293
 5171TIP3    H215478   6.639   3.875   1.160
 5172TIP3   OH215479   6.311   4.782   2.396
 5172TIP3    H115480   6.286   4.799   2.305
 5172TIP3    H215481   6.369   4.855   2.419
 5173TIP3   OH215482   2.983   2.070   2.049
 5173TIP3    H115483   3.035   2.065   2.129
 5173TIP3    H215484   3.043   2.041   1.980
 5174TIP3   OH215485   6.392   0.205   4.340
 5174TIP3    H115486   6.463   0.221   4.402
 5174TIP3    H215487   6.377   0.290   4.299
 5175TIP3   OH215488   4.891   6.417   4.789
 5175TIP3    H115489   4.978   6.427   4.827
 5175TIP3    H215490   4.899   6.454   4.701
 5176TIP3   OH215491   5.919   3.784   3.034
 5176TIP3    H115492   5.826   3.763   3.044
 5176TIP3    H215493   5.925   3.827   2.949
 5177TIP3   OH215494   5.851   1.504   2.085
 5177TIP3    H115495   5.928   1.468   2.041
 5177TIP3    H215496   5.793   1.529   2.013
 5178TIP3   OH215497   2.271   5.871   1.431
 5178TIP3    H115498   2.296   5.783   1.460
 5178TIP3    H215499   2.280   5.868   1.336
 5179TIP3   OH215500   5.651   2.223   4.460
 5179TIP3    H115501   5.709   2.212   4.536
 5179TIP3    H215502   5.583   2.283   4.491
 5180TIP3   OH215503   4.830   5.742   2.241
 5180TIP3    H115504   4.782   5.684   2.182
 5180TIP3    H215505   4.856   5.687   2.314
 5181TIP3   OH215506   6.265   2.078   1.317
 5181TIP3    H115507   6.181   2.117   1.341
 5181TIP3    H215508   6.320   2.153   1.294
 5182TIP3   OH215509   5.826   2.869   3.472
 5182TIP3    H115510   5.803   2.825   3.390
 5182TIP3    H215511   5.863   2.799   3.526
 5183TIP3   OH215512   5.268   1.482   0.663
 5183TIP3    H115513   5.342   1.534   0.632
 5183TIP3    H215514   5.276   1.483   0.758
 5184TIP3   OH215515   1.654   1.726   3.695
 5184TIP3    H115516   1.674   1.737   3.788
 5184TIP3    H215517   1.714   1.785   3.650
 5185TIP3   OH215518   5.868   2.001   5.872
 5185TIP3    H115519   5.776   1.977   5.878
 5185TIP3    H215520   5.892   2.027   5.960
 5186TIP3   OH215521   3.155   0.514   1.961
 5186TIP3    H115522   3.100   0.436   1.951
 5186TIP3    H215523   3.193   0.529   1.874
 5187TIP3   OH215524   2.209   0.188   3.478
 5187TIP3    H115525   2.239   0.104   3.512
 5187TIP3    H215526   2.264   0.205   3.402
 5188TIP3   OH215527   0.985   6.771   5.729
 5188TIP3    H115528   0.929   6.716   5.674
 5188TIP3    H215529   0.926   6.803   5.798
 5189TIP3   OH215530   6.864   4.620   4.887
 5189TIP3    H115531   6.863   4.550   4.822
 5189TIP3    H215532   6.838   4.578   4.969
 5190TIP3   OH215533   6.469   1.692   4.087
 5190TIP3    H115534   6.491   1.667   4.177
 5190TIP3    H215535   6.508   1.625   4.032
 5191TIP3   OH215536   5.057   6.539   1.923
 5191TIP3    H115537   4.975   6.583   1.947
 5191TIP3    H215538   5.065   6.468   1.986
 5192TIP3   OH215539   2.584   6.253   0.512
 5192TIP3    H115540   2.606   6.268   0.604
 5192TIP3    H215541   2.665   6.273   0.465
 5193TIP3   OH215542   6.099   4.187   5.330
 5193TIP3    H115543   6.169   4.123   5.339
 5193TIP3    H215544   6.047   4.179   5.410
 5194TIP3   OH215545   0.829   0.449   4.727
 5194TIP3    H115546   0.898   0.387   4.748
 5194TIP3    H215547   0.833   0.515   4.796
 5195TIP3   OH215548   2.139   4.188   3.782
 5195TIP3    H115549   2.114   4.099   3.808
 5195TIP3    H215550   2.233   4.183   3.765
 5196TIP3   OH215551   0.558   0.096   1.001
 5196TIP3    H115552   0.495   0.062   1.065
 5196TIP3    H215553   0.643   0.064   1.031
 5197TIP3   OH215554   4.556   0.935   4.808
 5197TIP3    H115555   4.518   1.021   4.822
 5197TIP3    H215556   4.486   0.873   4.830
 5198TIP3   OH215557   5.516   6.823   4.798
 5198TIP3    H115558   5.541   6.872   4.876
 5198TIP3    H215559   5.546   6.734   4.814
 5199TIP3   OH215560   6.146   1.573   5.669
 5199TIP3    H115561   6.101   1.606   5.591
 5199TIP3    H215562   6.108   1.624   5.742
 5200TIP3   OH215563   5.340   3.288   3.529
 5200TIP3    H115564   5.358   3.330   3.613
 5200TIP3    H215565   5.422   3.293   3.481
 5201TIP3   OH215566   3.202   6.363   5.862
 5201TIP3    H115567   3.155   6.328   5.787
 5201TIP3    H215568   3.137   6.414   5.909
 5202TIP3   OH215569   2.996   1.768   0.821
 5202TIP3    H115570   2.931   1.715   0.774
 5202TIP3    H215571   3.080   1.738   0.786
 5203TIP3   OH215572   2.741   2.833   3.810
 5203TIP3    H115573   2.717   2.751   3.854
 5203TIP3    H215574   2.714   2.902   3.871
 5204TIP3   OH215575   5.671   1.835   3.548
 5204TIP3    H115576   5.737   1.804   3.610
 5204TIP3    H215577   5.597   1.776   3.560
 5205TIP3   OH215578   4.897   5.156   3.307
 5205TIP3    H115579   4.830   5.097   3.274
 5205TIP3    H215580   4.947   5.103   3.369
 5206TIP3   OH215581   4.926  -0.070   2.004
 5206TIP3    H115582   4.851  -0.044   1.949
 5206TIP3    H215583   4.994  -0.007   1.983
 5207TIP3   OH215584   3.157   4.404   4.028
 5207TIP3    H115585   3.107   4.457   4.090
 5207TIP3    H215586   3.112   4.414   3.945
 5208TIP3   OH215587   0.544   0.727   0.185
 5208TIP3    H115588   0.587   0.664   0.244
 5208TIP3    H215589   0.451   0.714   0.200
 5209TIP3   OH215590   5.773   2.048   2.845
 5209TIP3    H115591   5.712   2.104   2.892
 5209TIP3    H215592   5.747   1.959   2.869
 5210TIP3   OH215593   2.226   4.714   5.060
 5210TIP3    H115594   2.133   4.700   5.075
 5210TIP3    H215595   2.269   4.653   5.121
 5211TIP3   OH215596   5.442   4.939   5.050
 5211TIP3    H115597   5.461   4.901   5.135
 5211TIP3    H215598   5.510   4.902   4.992
 5212TIP3   OH215599   2.226   5.908   4.224
 5212TIP3    H115600   2.272   5.982   4.264
 5212TIP3    H215601   2.186   5.945   4.145
 5213TIP3   OH215602   7.196   0.155   2.289
 5213TIP3    H115603   7.218   0.242   2.323
 5213TIP3    H215604   7.271   0.129   2.237
 5214TIP3   OH215605   6.829   6.463   4.256
 5214TIP3    H115606   6.801   6.394   4.316
 5214TIP3    H215607   6.904   6.505   4.300
 5215TIP3   OH215608   2.539   6.741   3.826
 5215TIP3    H115609   2.578   6.780   3.905
 5215TIP3    H215610   2.596   6.666   3.806
 5216TIP3   OH215611   6.614   6.382   4.034
 5216TIP3    H115612   6.688   6.422   4.080
 5216TIP3    H215613   6.648   6.362   3.947
 5217TIP3   OH215614   0.474   2.580   4.482
 5217TIP3    H115615   0.558   2.577   4.436
 5217TIP3    H215616   0.468   2.495   4.526
 5218TIP3   OH215617   2.233   2.504   2.283
 5218TIP3    H115618   2.250   2.568   2.214
 5218TIP3    H215619   2.316   2.495   2.329
 5219TIP3   OH215620   2.761   4.123   0.245
 5219TIP3    H115621   2.802   4.204   0.277
 5219TIP3    H215622   2.667   4.138   0.255
 5220TIP3   OH215623   1.531   4.904   5.548
 5220TIP3    H115624   1.549   4.810   5.552
 5220TIP3    H215625   1.465   4.913   5.479
 5221TIP3   OH215626   5.445   2.051   1.654
 5221TIP3    H115627   5.355   2.057   1.623
 5221TIP3    H215628   5.476   2.141   1.657
 5222TIP3   OH215629   4.615   0.035   4.507
 5222TIP3    H115630   4.539   0.013   4.560
 5222TIP3    H215631   4.582   0.041   4.418
 5223TIP3   OH215632   1.655   1.408   3.264
 5223TIP3    H115633   1.711   1.485   3.271
 5223TIP3    H215634   1.619   1.397   3.352
 5224TIP3   OH215635   5.722   3.594   5.097
 5224TIP3    H115636   5.650   3.595   5.160
 5224TIP3    H215637   5.760   3.682   5.103
 5225TIP3   OH215638   1.156   4.163   0.251
 5225TIP3    H115639   1.215   4.098   0.287
 5225TIP3    H215640   1.184   4.173   0.160
 5226TIP3   OH215641   1.529   2.515   5.299
 5226TIP3    H115642   1.621   2.539   5.311
 5226TIP3    H215643   1.489   2.529   5.384
 5227TIP3   OH215644   2.744   2.182   1.422
 5227TIP3    H115645   2.748   2.274   1.398
 5227TIP3    H215646   2.823   2.166   1.472
 5228TIP3   OH215647   5.695   2.307   0.173
 5228TIP3    H115648   5.776   2.327   0.125
 5228TIP3    H215649   5.646   2.249   0.115
 5229TIP3   OH215650   0.918   0.787   1.975
 5229TIP3    H115651   0.956   0.724   2.037
 5229TIP3    H215652   0.901   0.865   2.028
 5230TIP3   OH215653   4.084   2.641   4.225
 5230TIP3    H115654   4.140   2.575   4.265
 5230TIP3    H215655   4.040   2.596   4.153
 5231TIP3   OH215656   3.573   1.084   4.876
 5231TIP3    H115657   3.609   1.070   4.789
 5231TIP3    H215658   3.542   0.997   4.903
 5232TIP3   OH215659   2.425   1.458   1.506
 5232TIP3    H115660   2.433   1.544   1.465
 5232TIP3    H215661   2.506   1.413   1.482
 5233TIP3   OH215662   1.736   2.763   0.945
 5233TIP3    H115663   1.780   2.796   1.023
 5233TIP3    H215664   1.682   2.836   0.915
 5234TIP3   OH215665   5.057   5.593   0.956
 5234TIP3    H115666   4.966   5.596   0.985
 5234TIP3    H215667   5.074   5.500   0.939
 5235TIP3   OH215668   1.209   6.333   0.024
 5235TIP3    H115669   1.274   6.263   0.017
 5235TIP3    H215670   1.133   6.300  -0.024
 5236TIP3   OH215671   4.055   5.460   1.097
 5236TIP3    H115672   3.983   5.441   1.158
 5236TIP3    H215673   4.075   5.376   1.056
 5237TIP3   OH215674   4.146   3.076   5.467
 5237TIP3    H115675   4.153   3.030   5.550
 5237TIP3    H215676   4.058   3.054   5.435
 5238TIP3   OH215677   6.411   6.023   1.585
 5238TIP3    H115678   6.430   6.116   1.599
 5238TIP3    H215679   6.463   5.978   1.652
 5239TIP3   OH215680   2.925   2.453   1.046
 5239TIP3    H115681   2.906   2.533   1.094
 5239TIP3    H215682   2.838   2.416   1.026
 5240TIP3   OH215683   5.871   4.662   2.595
 5240TIP3    H115684   5.936   4.596   2.617
 5240TIP3    H215685   5.921   4.733   2.554
 5241TIP3   OH215686   3.406   6.157   2.268
 5241TIP3    H115687   3.329   6.103   2.251
 5241TIP3    H215688   3.413   6.159   2.363
 5242TIP3   OH215689   5.387   3.608   1.436
 5242TIP3    H115690   5.406   3.522   1.474
 5242TIP3    H215691   5.418   3.671   1.501
 5243TIP3   OH215692   6.472   2.702   0.930
 5243TIP3    H115693   6.482   2.791   0.896
 5243TIP3    H215694   6.379   2.684   0.923
 5244TIP3   OH215695   1.060   6.163   1.501
 5244TIP3    H115696   1.155   6.152   1.493
 5244TIP3    H215697   1.040   6.142   1.592
 5245TIP3   OH215698   6.388   0.185   2.584
 5245TIP3    H115699   6.356   0.099   2.612
 5245TIP3    H215700   6.410   0.174   2.492
 5246TIP3   OH215701   5.995   0.354   4.961
 5246TIP3    H115702   6.021   0.342   4.870
 5246TIP3    H215703   5.899   0.355   4.959
 5247TIP3   OH215704   1.323   5.436   5.591
 5247TIP3    H115705   1.362   5.423   5.504
 5247TIP3    H215706   1.255   5.368   5.596
 5248TIP3   OH215707   6.668   0.110   0.745
 5248TIP3    H115708   6.724   0.033   0.756
 5248TIP3    H215709   6.686   0.140   0.656
 5249TIP3   OH215710   1.909   1.244   0.064
 5249TIP3    H115711   1.885   1.277  -0.023
 5249TIP3    H215712   1.978   1.180   0.046
 5250TIP3   OH215713   0.345   2.456   0.972
 5250TIP3    H115714   0.291   2.525   0.933
 5250TIP3    H215715   0.397   2.501   1.039
 5251TIP3   OH215716   0.450   3.829   0.037
 5251TIP3    H115717   0.506   3.754   0.056
 5251TIP3    H215718   0.370   3.812   0.088
 5252TIP3   OH215719   0.519   5.136   0.018
 5252TIP3    H115720   0.536   5.042   0.018
 5252TIP3    H215721   0.485   5.154   0.106
 5253TIP3   OH215722   1.420   4.951   3.459
 5253TIP3    H115723   1.360   4.879   3.440
 5253TIP3    H215724   1.442   4.940   3.551
 5254TIP3   OH215725   2.913   6.773   4.795
 5254TIP3    H115726   2.974   6.720   4.847
 5254TIP3    H215727   2.874   6.833   4.859
 5255TIP3   OH215728   0.047   4.644   2.170
 5255TIP3    H115729  -0.030   4.678   2.215
 5255TIP3    H215730   0.011   4.586   2.102
 5256TIP3   OH215731   0.886   6.543   2.556
 5256TIP3    H115732   0.852   6.464   2.598
 5256TIP3    H215733   0.827   6.613   2.585
 5257TIP3   OH215734   4.772   4.315   3.795
 5257TIP3    H115735   4.782   4.322   3.700
 5257TIP3    H215736   4.837   4.376   3.830
 5258TIP3   OH215737   1.352   1.605   5.624
 5258TIP3    H115738   1.343   1.513   5.596
 5258TIP3    H215739   1.422   1.603   5.689
 5259TIP3   OH215740   4.233   6.586   1.024
 5259TIP3    H115741   4.159   6.571   1.083
 5259TIP3    H215742   4.310   6.567   1.078
 5260TIP3   OH215743   3.447   6.791   1.075
 5260TIP3    H115744   3.396   6.743   1.010
 5260TIP3    H215745   3.406   6.769   1.158
 5261TIP3   OH215746   4.562   1.520   3.793
 5261TIP3    H115747   4.573   1.532   3.699
 5261TIP3    H215748   4.467   1.508   3.805
 5262TIP3   OH215749   3.694   2.588   0.091
 5262TIP3    H115750   3.784   2.606   0.120
 5262TIP3    H215751   3.686   2.636   0.009
 5263TIP3   OH215752   6.707   0.196   0.477
 5263TIP3    H115753   6.711   0.290   0.459
 5263TIP3    H215754   6.670   0.158   0.397
 5264TIP3   OH215755   7.087   3.303   4.611
 5264TIP3    H115756   7.011   3.343   4.654
 5264TIP3    H215757   7.076   3.209   4.626
 5265TIP3   OH215758   5.550   3.943   2.467
 5265TIP3    H115759   5.508   3.942   2.553
 5265TIP3    H215760   5.563   4.035   2.447
 5266TIP3   OH215761   0.933   4.648   5.667
 5266TIP3    H115762   1.000   4.681   5.726
 5266TIP3    H215763   0.974   4.574   5.622
 5267TIP3   OH215764   0.982   3.570   5.423
 5267TIP3    H115765   0.974   3.477   5.399
 5267TIP3    H215766   0.978   3.617   5.340
 5268TIP3   OH215767   7.092   6.200   3.673
 5268TIP3    H115768   7.178   6.163   3.655
 5268TIP3    H215769   7.100   6.293   3.649
 5269TIP3   OH215770   7.149   2.224   4.525
 5269TIP3    H115771   7.177   2.229   4.434
 5269TIP3    H215772   7.066   2.271   4.528
 5270TIP3   OH215773   3.919   0.551   0.143
 5270TIP3    H115774   3.981   0.557   0.216
 5270TIP3    H215775   3.833   0.555   0.185
 5271TIP3   OH215776   2.769   5.978   1.207
 5271TIP3    H115777   2.766   6.073   1.219
 5271TIP3    H215778   2.823   5.947   1.280
 5272TIP3   OH215779   2.800   4.510   3.666
 5272TIP3    H115780   2.876   4.567   3.656
 5272TIP3    H215781   2.761   4.507   3.578
 5273TIP3   OH215782   6.321   0.625   2.387
 5273TIP3    H115783   6.233   0.637   2.423
 5273TIP3    H215784   6.347   0.712   2.357
 5274TIP3   OH215785   1.530   1.116   3.600
 5274TIP3    H115786   1.503   1.091   3.688
 5274TIP3    H215787   1.577   1.199   3.612
 5275TIP3   OH215788   3.466   3.411   2.392
 5275TIP3    H115789   3.373   3.424   2.410
 5275TIP3    H215790   3.472   3.412   2.296
 5276TIP3   OH215791   3.890   4.380   2.619
 5276TIP3    H115792   3.970   4.354   2.664
 5276TIP3    H215793   3.845   4.298   2.601
 5277TIP3   OH215794   6.948   4.094   1.385
 5277TIP3    H115795   7.032   4.129   1.413
 5277TIP3    H215796   6.948   4.103   1.290
 5278TIP3   OH215797   3.779   5.029   2.500
 5278TIP3    H115798   3.696   5.057   2.463
 5278TIP3    H215799   3.768   5.034   2.594
 5279TIP3   OH215800   6.368   6.255   4.035
 5279TIP3    H115801   6.460   6.280   4.037
 5279TIP3    H215802   6.366   6.169   4.078
 5280TIP3   OH215803   2.024   3.246   1.732
 5280TIP3    H115804   1.943   3.201   1.754
 5280TIP3    H215805   2.017   3.331   1.776
 5281TIP3   OH215806   5.621   3.675   1.201
 5281TIP3    H115807   5.574   3.600   1.165
 5281TIP3    H215808   5.591   3.682   1.292
 5282TIP3   OH215809   2.834   6.514   5.047
 5282TIP3    H115810   2.820   6.604   5.076
 5282TIP3    H215811   2.916   6.517   4.998
 5283TIP3   OH215812   2.730   6.252   1.786
 5283TIP3    H115813   2.724   6.302   1.704
 5283TIP3    H215814   2.767   6.168   1.760
 5284TIP3   OH215815   0.562  -0.008   0.502
 5284TIP3    H115816   0.519  -0.028   0.585
 5284TIP3    H215817   0.625   0.061   0.523
 5285TIP3   OH215818   1.094   3.087   4.649
 5285TIP3    H115819   1.032   3.106   4.580
 5285TIP3    H215820   1.052   3.119   4.729
 5286TIP3   OH215821   2.679   5.453   2.512
 5286TIP3    H115822   2.751   5.493   2.464
 5286TIP3    H215823   2.720   5.418   2.591
 5287TIP3   OH215824   3.329   1.416   4.588
 5287TIP3    H115825   3.283   1.492   4.621
 5287TIP3    H215826   3.415   1.419   4.629
 5288TIP3   OH215827   1.921   2.835   2.286
 5288TIP3    H115828   1.863   2.869   2.218
 5288TIP3    H215829   2.007   2.871   2.264
 5289TIP3   OH215830   3.089   0.073   2.302
 5289TIP3    H115831   3.055   0.025   2.378
 5289TIP3    H215832   3.010   0.111   2.261
 5290TIP3   OH215833   3.284   5.490   3.181
 5290TIP3    H115834   3.375   5.468   3.161
 5290TIP3    H215835   3.238   5.406   3.179
 5291TIP3   OH215836   0.551   6.264   2.390
 5291TIP3    H115837   0.554   6.350   2.431
 5291TIP3    H215838   0.469   6.225   2.423
 5292TIP3   OH215839   2.673   2.210   5.882
 5292TIP3    H115840   2.697   2.301   5.866
 5292TIP3    H215841   2.744   2.176   5.937
 5293TIP3   OH215842   0.471   5.310   4.178
 5293TIP3    H115843   0.405   5.272   4.236
 5293TIP3    H215844   0.471   5.252   4.101
 5294TIP3   OH215845   6.818   5.925   5.690
 5294TIP3    H115846   6.828   5.957   5.600
 5294TIP3    H215847   6.747   5.861   5.684
 5295TIP3   OH215848   6.064   2.535   2.107
 5295TIP3    H115849   6.043   2.624   2.080
 5295TIP3    H215850   5.989   2.506   2.158
 5296TIP3   OH215851   4.272   5.031   4.270
 5296TIP3    H115852   4.344   5.082   4.233
 5296TIP3    H215853   4.229   4.990   4.194
 5297TIP3   OH215854   2.022   3.739   0.714
 5297TIP3    H115855   1.987   3.657   0.679
 5297TIP3    H215856   1.984   3.746   0.802
 5298TIP3   OH215857   2.254   3.170   4.244
 5298TIP3    H115858   2.239   3.258   4.210
 5298TIP3    H215859   2.238   3.177   4.338
 5299TIP3   OH215860   2.509   0.838   0.226
 5299TIP3    H115861   2.511   0.921   0.178
 5299TIP3    H215862   2.423   0.801   0.207
 5300TIP3   OH215863   1.433   0.016   3.524
 5300TIP3    H115864   1.504  -0.021   3.471
 5300TIP3    H215865   1.385   0.073   3.464
 5301TIP3   OH215866   4.622   0.873   2.408
 5301TIP3    H115867   4.563   0.799   2.428
 5301TIP3    H215868   4.660   0.851   2.323
 5302TIP3   OH215869   4.218   3.627   4.922
 5302TIP3    H115870   4.212   3.535   4.896
 5302TIP3    H215871   4.138   3.666   4.889
 5303TIP3   OH215872   2.493   0.826   4.453
 5303TIP3    H115873   2.500   0.750   4.395
 5303TIP3    H215874   2.473   0.789   4.539
 5304TIP3   OH215875   5.641   2.935   3.124
 5304TIP3    H115876   5.729   2.974   3.122
 5304TIP3    H215877   5.657   2.841   3.131
 5305TIP3   OH215878   3.805   2.071   5.232
 5305TIP3    H115879   3.895   2.075   5.201
 5305TIP3    H215880   3.793   2.153   5.280
 5306TIP3   OH215881   3.807   2.736   5.609
 5306TIP3    H115882   3.797   2.805   5.544
 5306TIP3    H215883   3.901   2.736   5.629
 5307TIP3   OH215884   3.975   5.597   1.438
 5307TIP3    H115885   3.969   5.690   1.456
 5307TIP3    H215886   4.041   5.590   1.368
 5308TIP3   OH215887   6.007   4.384   1.207
 5308TIP3    H115888   6.023   4.362   1.116
 5308TIP3    H215889   6.093   4.378   1.249
 5309TIP3   OH215890   4.867   3.161   5.379
 5309TIP3    H115891   4.879   3.207   5.462
 5309TIP3    H215892   4.818   3.223   5.324
 5310TIP3   OH215893   4.365   0.409   1.267
 5310TIP3    H115894   4.364   0.324   1.222
 5310TIP3    H215895   4.420   0.395   1.343
 5311TIP3   OH215896   3.713   5.873   0.137
 5311TIP3    H115897   3.654   5.872   0.062
 5311TIP3    H215898   3.656   5.871   0.214
 5312TIP3   OH215899   0.672   3.234   2.861
 5312TIP3    H115900   0.711   3.279   2.787
 5312TIP3    H215901   0.622   3.302   2.907
 5313TIP3   OH215902   0.056   6.751   2.271
 5313TIP3    H115903   0.145   6.784   2.268
 5313TIP3    H215904   0.036   6.726   2.181
 5314TIP3   OH215905   1.067   2.620   2.195
 5314TIP3    H115906   1.157   2.599   2.219
 5314TIP3    H215907   1.031   2.538   2.161
 5315TIP3   OH215908   1.456   5.454   5.353
 5315TIP3    H115909   1.549   5.473   5.362
 5315TIP3    H215910   1.418   5.535   5.320
 5316TIP3   OH215911   3.583   3.214   5.691
 5316TIP3    H115912   3.614   3.203   5.781
 5316TIP3    H215913   3.524   3.140   5.677
 5317TIP3   OH215914   1.057   0.896   3.098
 5317TIP3    H115915   0.973   0.897   3.144
 5317TIP3    H215916   1.116   0.946   3.155
 5318TIP3   OH215917   3.628   5.217   5.728
 5318TIP3    H115918   3.666   5.165   5.798
 5318TIP3    H215919   3.672   5.302   5.734
 5319TIP3   OH215920   2.674   1.850   3.852
 5319TIP3    H115921   2.664   1.780   3.916
 5319TIP3    H215922   2.600   1.909   3.868
 5320TIP3   OH215923   1.004   6.652   3.008
 5320TIP3    H115924   0.922   6.610   2.980
 5320TIP3    H215925   0.976   6.725   3.064
 5321TIP3   OH215926   1.014   4.298   1.595
 5321TIP3    H115927   1.016   4.320   1.502
 5321TIP3    H215928   0.927   4.325   1.624
 5322TIP3   OH215929   3.939   6.109   3.947
 5322TIP3    H115930   4.026   6.090   3.912
 5322TIP3    H215931   3.885   6.125   3.870
 5323TIP3   OH215932   0.195   4.347   1.029
 5323TIP3    H115933   0.137   4.288   1.079
 5323TIP3    H215934   0.229   4.292   0.958
 5324TIP3   OH215935   1.006   2.401   0.327
 5324TIP3    H115936   0.963   2.340   0.386
 5324TIP3    H215937   1.085   2.428   0.374
 5325TIP3   OH215938   4.327   4.475   4.083
 5325TIP3    H115939   4.402   4.438   4.037
 5325TIP3    H215940   4.342   4.454   4.175
 5326TIP3   OH215941   2.567   6.798   4.676
 5326TIP3    H115942   2.515   6.829   4.751
 5326TIP3    H215943   2.570   6.703   4.687
 5327TIP3   OH215944   4.020   5.471   3.096
 5327TIP3    H115945   4.031   5.397   3.156
 5327TIP3    H215946   4.104   5.477   3.050
 5328TIP3   OH215947   2.239   3.100   0.019
 5328TIP3    H115948   2.190   3.041   0.076
 5328TIP3    H215949   2.189   3.182   0.020
 5329TIP3   OH215950   3.582   6.843   1.787
 5329TIP3    H115951   3.597   6.916   1.727
 5329TIP3    H215952   3.670   6.813   1.811
 5330TIP3   OH215953   4.405   0.486   1.995
 5330TIP3    H115954   4.356   0.409   1.965
 5330TIP3    H215955   4.338   0.553   2.007
 5331TIP3   OH215956   2.221   1.172   1.953
 5331TIP3    H115957   2.169   1.152   1.875
 5331TIP3    H215958   2.237   1.266   1.948
 5332TIP3   OH215959   4.237   1.231   2.818
 5332TIP3    H115960   4.270   1.306   2.869
 5332TIP3    H215961   4.166   1.196   2.871
 5333TIP3   OH215962   2.713   4.321   3.830
 5333TIP3    H115963   2.743   4.397   3.781
 5333TIP3    H215964   2.757   4.247   3.788
 5334TIP3   OH215965   3.803   5.464   4.389
 5334TIP3    H115966   3.723   5.421   4.421
 5334TIP3    H215967   3.869   5.442   4.454
 5335TIP3   OH215968   5.758   1.668   2.774
 5335TIP3    H115969   5.852   1.647   2.780
 5335TIP3    H215970   5.732   1.689   2.863
 5336TIP3   OH215971   5.011   2.300   1.704
 5336TIP3    H115972   5.093   2.350   1.706
 5336TIP3    H215973   4.958   2.346   1.638
 5337TIP3   OH215974   4.412   4.565   3.318
 5337TIP3    H115975   4.403   4.477   3.354
 5337TIP3    H215976   4.335   4.575   3.262
 5338TIP3   OH215977   3.812   0.056   3.750
 5338TIP3    H115978   3.775   0.133   3.793
 5338TIP3    H215979   3.877   0.023   3.812
 5339TIP3   OH215980   3.602   5.965   1.682
 5339TIP3    H115981   3.572   5.907   1.612
 5339TIP3    H215982   3.644   6.038   1.636
 5340TIP3   OH215983   1.005   2.857   0.108
 5340TIP3    H115984   0.981   2.787   0.168
 5340TIP3    H215985   0.922   2.884   0.068
 5341TIP3   OH215986   6.922   5.343   3.816
 5341TIP3    H115987   6.937   5.430   3.851
 5341TIP3    H215988   6.878   5.296   3.887
 5342TIP3   OH215989   1.764   0.445   5.545
 5342TIP3    H115990   1.679   0.457   5.587
 5342TIP3    H215991   1.776   0.350   5.541
 5343TIP3   OH215992   6.209   3.334   2.665
 5343TIP3    H115993   6.255   3.411   2.700
 5343TIP3    H215994   6.221   3.340   2.570
 5344TIP3   OH215995   4.898   2.795   3.956
 5344TIP3    H115996   4.899   2.699   3.953
 5344TIP3    H215997   4.987   2.819   3.983
 5345TIP3   OH215998   1.012   2.832   3.039
 5345TIP3    H115999   1.013   2.887   3.117
 5345TIP3    H216000   1.064   2.880   2.974
 5346TIP3   OH216001   0.458   5.172   3.056
 5346TIP3    H116002   0.375   5.212   3.028
 5346TIP3    H216003   0.515   5.246   3.075
 5347TIP3   OH216004   5.050   2.223   1.296
 5347TIP3    H116005   5.082   2.175   1.219
 5347TIP3    H216006   4.995   2.292   1.260
 5348TIP3   OH216007   6.312   3.607   1.030
 5348TIP3    H116008   6.401   3.613   0.995
 5348TIP3    H216009   6.258   3.653   0.966
 5349TIP3   OH216010   4.866   6.657   2.295
 5349TIP3    H116011   4.866   6.564   2.319
 5349TIP3    H216012   4.828   6.659   2.207
 5350TIP3   OH216013   6.926   5.735   2.732
 5350TIP3    H116014   7.019   5.758   2.730
 5350TIP3    H216015   6.911   5.708   2.823
 5351TIP3   OH216016   1.290   0.368   3.402
 5351TIP3    H116017   1.286   0.453   3.445
 5351TIP3    H216018   1.347   0.382   3.326
 5352TIP3   OH216019   1.717   2.860   4.307
 5352TIP3    H116020   1.643   2.828   4.256
 5352TIP3    H216021   1.793   2.849   4.249
 5353TIP3   OH216022   4.937   1.432   3.684
 5353TIP3    H116023   4.870   1.410   3.749
 5353TIP3    H216024   5.018   1.396   3.719
 5354TIP3   OH216025   0.708   1.792   2.871
 5354TIP3    H116026   0.673   1.716   2.824
 5354TIP3    H216027   0.772   1.755   2.932
 5355TIP3   OH216028   1.060   4.748   2.998
 5355TIP3    H116029   1.025   4.753   3.087
 5355TIP3    H216030   1.136   4.807   2.999
 5356TIP3   OH216031   1.819   6.159   2.864
 5356TIP3    H116032   1.795   6.094   2.930
 5356TIP3    H216033   1.783   6.124   2.782
 5357TIP3   OH216034   5.657   3.801   5.524
 5357TIP3    H116035   5.607   3.739   5.577
 5357TIP3    H216036   5.675   3.874   5.583
 5358TIP3   OH216037   0.978   4.779   2.426
 5358TIP3    H116038   1.007   4.742   2.509
 5358TIP3    H216039   1.024   4.727   2.359
 5359TIP3   OH216040   2.655   3.863   4.190
 5359TIP3    H116041   2.666   3.953   4.219
 5359TIP3    H216042   2.744   3.832   4.174
 5360TIP3   OH216043   4.701   0.324   2.133
 5360TIP3    H116044   4.663   0.409   2.156
 5360TIP3    H216045   4.760   0.344   2.061
 5361TIP3   OH216046   5.126   0.933   4.874
 5361TIP3    H116047   5.187   0.919   4.947
 5361TIP3    H216048   5.131   1.027   4.857
 5362TIP3   OH216049   2.502   4.023  -0.008
 5362TIP3    H116050   2.491   3.969   0.070
 5362TIP3    H216051   2.417   4.020  -0.052
 5363TIP3   OH216052   0.561   5.434   2.520
 5363TIP3    H116053   0.519   5.468   2.442
 5363TIP3    H216054   0.652   5.464   2.513
 5364TIP3   OH216055   5.514   4.185   0.311
 5364TIP3    H116056   5.604   4.208   0.289
 5364TIP3    H216057   5.520   4.149   0.400
 5365TIP3   OH216058   4.702   2.156   0.480
 5365TIP3    H116059   4.630   2.174   0.419
 5365TIP3    H216060   4.711   2.236   0.531
 5366TIP3   OH216061   5.442   3.068   3.768
 5366TIP3    H116062   5.425   3.157   3.799
 5366TIP3    H216063   5.445   3.016   3.848
 5367TIP3   OH216064   4.756   2.283   4.392
 5367TIP3    H116065   4.766   2.347   4.463
 5367TIP3    H216066   4.845   2.273   4.357
 5368TIP3   OH216067   6.465   5.116   0.689
 5368TIP3    H116068   6.485   5.108   0.595
 5368TIP3    H216069   6.462   5.210   0.705
 5369TIP3   OH216070   5.133   5.052   5.599
 5369TIP3    H116071   5.096   4.964   5.609
 5369TIP3    H216072   5.227   5.040   5.611
 5370TIP3   OH216073   1.611   1.482   0.669
 5370TIP3    H116074   1.658   1.474   0.752
 5370TIP3    H216075   1.679   1.471   0.603
 5371TIP3   OH216076   5.701   1.841   0.127
 5371TIP3    H116077   5.727   1.893   0.051
 5371TIP3    H216078   5.606   1.829   0.117
 5372TIP3   OH216079   2.890   5.483   3.660
 5372TIP3    H116080   2.980   5.514   3.649
 5372TIP3    H216081   2.879   5.476   3.755
 5373TIP3   OH216082   6.665   1.651   3.621
 5373TIP3    H116083   6.644   1.647   3.528
 5373TIP3    H216084   6.759   1.668   3.624
 5374TIP3   OH216085   6.747   4.142   4.859
 5374TIP3    H116086   6.832   4.099   4.856
 5374TIP3    H216087   6.711   4.119   4.945
 5375TIP3   OH216088   0.217   6.022   0.120
 5375TIP3    H116089   0.184   5.959   0.185
 5375TIP3    H216090   0.169   6.001   0.040
 5376TIP3   OH216091   0.920   3.386   3.360
 5376TIP3    H116092   0.852   3.401   3.425
 5376TIP3    H216093   1.001   3.414   3.402
 5377TIP3   OH216094   5.836   2.662   4.877
 5377TIP3    H116095   5.811   2.684   4.787
 5377TIP3    H216096   5.817   2.741   4.927
 5378TIP3   OH216097   7.108   4.984   3.704
 5378TIP3    H116098   7.056   5.028   3.636
 5378TIP3    H216099   7.059   4.999   3.785
 5379TIP3   OH216100   5.849   3.603   4.236
 5379TIP3    H116101   5.832   3.543   4.163
 5379TIP3    H216102   5.935   3.577   4.268
 5380TIP3   OH216103   6.747   6.110   2.082
 5380TIP3    H116104   6.671   6.064   2.119
 5380TIP3    H216105   6.822   6.066   2.121
 5381TIP3   OH216106   4.553   1.281   5.049
 5381TIP3    H116107   4.628   1.223   5.059
 5381TIP3    H216108   4.588   1.359   5.005
 5382TIP3   OH216109   1.772   5.276   3.249
 5382TIP3    H116110   1.687   5.257   3.289
 5382TIP3    H216111   1.766   5.368   3.222
 5383TIP3   OH216112   1.345   4.077   2.986
 5383TIP3    H116113   1.360   4.140   2.915
 5383TIP3    H216114   1.279   4.118   3.041
 5384TIP3   OH216115   3.810   5.442   1.247
 5384TIP3    H116116   3.819   5.358   1.292
 5384TIP3    H216117   3.831   5.507   1.314
 5385TIP3   OH216118   5.063   3.505   1.501
 5385TIP3    H116119   5.108   3.556   1.568
 5385TIP3    H216120   5.033   3.569   1.437
 5386TIP3   OH216121   3.233   0.719   2.905
 5386TIP3    H116122   3.283   0.639   2.894
 5386TIP3    H216123   3.298   0.789   2.907
 5387TIP3   OH216124   4.011   3.587   4.469
 5387TIP3    H116125   3.943   3.654   4.472
 5387TIP3    H216126   4.089   3.631   4.501
 5388TIP3   OH216127   4.262   5.712   5.385
 5388TIP3    H116128   4.246   5.618   5.397
 5388TIP3    H216129   4.347   5.727   5.428
 5389TIP3   OH216130   6.140   3.402   2.004
 5389TIP3    H116131   6.208   3.464   1.978
 5389TIP3    H216132   6.080   3.455   2.058
 5390TIP3   OH216133   3.466   5.869   4.510
 5390TIP3    H116134   3.537   5.890   4.449
 5390TIP3    H216135   3.473   5.936   4.578
 5391TIP3   OH216136   6.937   5.952   3.568
 5391TIP3    H116137   6.953   5.950   3.473
 5391TIP3    H216138   6.969   6.038   3.596
 5392TIP3   OH216139   3.765   0.132   2.863
 5392TIP3    H116140   3.833   0.199   2.873
 5392TIP3    H216141   3.757   0.094   2.951
 5393TIP3   OH216142   2.788   1.538   2.928
 5393TIP3    H116143   2.821   1.573   3.011
 5393TIP3    H216144   2.767   1.447   2.947
 5394TIP3   OH216145   1.310   2.575   2.302
 5394TIP3    H116146   1.362   2.567   2.222
 5394TIP3    H216147   1.346   2.652   2.346
 5395TIP3   OH216148   0.272   3.863   2.617
 5395TIP3    H116149   0.341   3.913   2.659
 5395TIP3    H216150   0.194   3.918   2.624
 5396TIP3   OH216151   4.543   3.352   5.438
 5396TIP3    H116152   4.481   3.397   5.496
 5396TIP3    H216153   4.517   3.260   5.441
 5397TIP3   OH216154   5.304   2.660   0.907
 5397TIP3    H116155   5.371   2.711   0.861
 5397TIP3    H216156   5.329   2.667   1.000
 5398TIP3   OH216157   2.433   4.682   4.611
 5398TIP3    H116158   2.433   4.678   4.706
 5398TIP3    H216159   2.385   4.762   4.590
 5399TIP3   OH216160   3.645   3.644   3.495
 5399TIP3    H116161   3.645   3.555   3.531
 5399TIP3    H216162   3.568   3.685   3.534
 5400TIP3   OH216163   2.943   1.109   0.603
 5400TIP3    H116164   3.014   1.150   0.652
 5400TIP3    H216165   2.887   1.182   0.575
 5401TIP3   OH216166   0.674   5.967   3.158
 5401TIP3    H116167   0.648   5.960   3.250
 5401TIP3    H216168   0.661   5.878   3.124
 5402TIP3   OH216169   4.938   0.538   0.680
 5402TIP3    H116170   4.982   0.490   0.750
 5402TIP3    H216171   4.998   0.609   0.658
 5403TIP3   OH216172   4.905   0.087   2.241
 5403TIP3    H116173   4.892   0.179   2.220
 5403TIP3    H216174   4.903   0.042   2.157
 5404TIP3   OH216175   1.474   6.347   1.667
 5404TIP3    H116176   1.525   6.346   1.586
 5404TIP3    H216177   1.426   6.264   1.666
 5405TIP3   OH216178   3.328   0.184   2.043
 5405TIP3    H116179   3.356   0.269   2.079
 5405TIP3    H216180   3.233   0.184   2.056
 5406TIP3   OH216181   4.484   4.222   4.755
 5406TIP3    H116182   4.517   4.148   4.805
 5406TIP3    H216183   4.474   4.292   4.820
 5407TIP3   OH216184   1.843   5.534   5.681
 5407TIP3    H116185   1.852   5.542   5.587
 5407TIP3    H216186   1.759   5.490   5.694
 5408TIP3   OH216187   0.279   0.629   1.551
 5408TIP3    H116188   0.184   0.639   1.551
 5408TIP3    H216189   0.308   0.675   1.472
 5409TIP3   OH216190   5.809   3.098   0.984
 5409TIP3    H116191   5.825   3.180   1.030
 5409TIP3    H216192   5.893   3.052   0.988
 5410TIP3   OH216193   3.866   0.742   3.152
 5410TIP3    H116194   3.837   0.656   3.124
 5410TIP3    H216195   3.960   0.742   3.137
 5411TIP3   OH216196   3.216   5.712   5.588
 5411TIP3    H116197   3.162   5.641   5.555
 5411TIP3    H216198   3.302   5.673   5.603
 5412TIP3   OH216199   1.797   1.816   2.577
 5412TIP3    H116200   1.813   1.853   2.490
 5412TIP3    H216201   1.883   1.784   2.605
 5413TIP3   OH216202   4.078   3.009   1.449
 5413TIP3    H116203   4.017   3.074   1.485
 5413TIP3    H216204   4.063   2.930   1.500
 5414TIP3   OH216205   1.652   2.435   3.627
 5414TIP3    H116206   1.651   2.366   3.693
 5414TIP3    H216207   1.574   2.419   3.574
 5415TIP3   OH216208   6.476   1.170   2.262
 5415TIP3    H116209   6.541   1.157   2.331
 5415TIP3    H216210   6.458   1.081   2.229
 5416TIP3   OH216211   0.483   4.290   3.840
 5416TIP3    H116212   0.462   4.249   3.924
 5416TIP3    H216213   0.450   4.229   3.774
 5417TIP3   OH216214   1.192   4.841   5.471
 5417TIP3    H116215   1.112   4.893   5.485
 5417TIP3    H216216   1.243   4.892   5.408
 5418TIP3   OH216217   0.204   0.652   2.367
 5418TIP3    H116218   0.146   0.728   2.365
 5418TIP3    H216219   0.260   0.663   2.291
 5419TIP3   OH216220   2.446   1.477   5.674
 5419TIP3    H116221   2.413   1.562   5.644
 5419TIP3    H216222   2.379   1.414   5.646
 5420TIP3   OH216223   6.347   3.341   3.001
 5420TIP3    H116224   6.267   3.367   2.956
 5420TIP3    H216225   6.388   3.277   2.942
 5421TIP3   OH216226   2.512   6.014   0.262
 5421TIP3    H116227   2.485   5.977   0.178
 5421TIP3    H216228   2.513   6.108   0.247
 5422TIP3   OH216229   0.243   1.492   3.262
 5422TIP3    H116230   0.248   1.415   3.205
 5422TIP3    H216231   0.153   1.490   3.296
 5423TIP3   OH216232   3.883   4.797   4.426
 5423TIP3    H116233   3.968   4.833   4.400
 5423TIP3    H216234   3.892   4.778   4.519
 5424TIP3   OH216235   2.741   2.843   3.534
 5424TIP3    H116236   2.749   2.833   3.629
 5424TIP3    H216237   2.656   2.805   3.513
 5425TIP3   OH216238   0.483   2.874   3.844
 5425TIP3    H116239   0.476   2.933   3.919
 5425TIP3    H216240   0.397   2.834   3.837
 5426TIP3   OH216241   3.956   0.593   5.624
 5426TIP3    H116242   3.970   0.504   5.656
 5426TIP3    H216243   4.044   0.626   5.604
 5427TIP3   OH216244   4.337   2.726   2.569
 5427TIP3    H116245   4.314   2.657   2.506
 5427TIP3    H216246   4.432   2.725   2.572
 5428TIP3   OH216247   2.911   2.511   2.269
 5428TIP3    H116248   2.961   2.479   2.193
 5428TIP3    H216249   2.866   2.434   2.303
 5429TIP3   OH216250   3.926   5.673   5.137
 5429TIP3    H116251   4.019   5.696   5.136
 5429TIP3    H216252   3.920   5.598   5.196
 5430TIP3   OH216253   6.486   3.798   5.215
 5430TIP3    H116254   6.455   3.721   5.168
 5430TIP3    H216255   6.511   3.765   5.301
 5431TIP3   OH216256   6.787   0.068   1.906
 5431TIP3    H116257   6.882   0.077   1.917
 5431TIP3    H216258   6.766  -0.018   1.943
 5432TIP3   OH216259   4.446   4.219   3.031
 5432TIP3    H116260   4.378   4.251   3.091
 5432TIP3    H216261   4.434   4.272   2.952
 5433TIP3   OH216262   2.136   0.555   1.745
 5433TIP3    H116263   2.151   0.485   1.808
 5433TIP3    H216264   2.083   0.619   1.792
 5434TIP3   OH216265   6.912   5.429   2.471
 5434TIP3    H116266   6.847   5.459   2.407
 5434TIP3    H216267   6.859   5.401   2.546
 5435TIP3   OH216268   6.113   2.697   2.782
 5435TIP3    H116269   6.063   2.705   2.863
 5435TIP3    H216270   6.084   2.615   2.743
 5436TIP3   OH216271   1.692   2.509   2.021
 5436TIP3    H116272   1.683   2.552   2.106
 5436TIP3    H216273   1.779   2.469   2.024
 5437TIP3   OH216274   1.710   5.578   1.178
 5437TIP3    H116275   1.784   5.535   1.221
 5437TIP3    H216276   1.704   5.663   1.221
 5438TIP3   OH216277   1.325   4.829   1.674
 5438TIP3    H116278   1.267   4.772   1.725
 5438TIP3    H216279   1.268   4.865   1.606
 5439TIP3   OH216280   2.224   0.068   4.066
 5439TIP3    H116281   2.246   0.000   4.002
 5439TIP3    H216282   2.203   0.145   4.012
 5440TIP3   OH216283   5.204   0.429   3.486
 5440TIP3    H116284   5.204   0.451   3.579
 5440TIP3    H216285   5.213   0.514   3.442
 5441TIP3   OH216286   4.868   6.470   1.087
 5441TIP3    H116287   4.818   6.453   1.168
 5441TIP3    H216288   4.874   6.565   1.082
 5442TIP3   OH216289   4.575   0.463   4.330
 5442TIP3    H116290   4.529   0.391   4.373
 5442TIP3    H216291   4.634   0.421   4.268
 5443TIP3   OH216292   2.270   0.251   4.814
 5443TIP3    H116293   2.237   0.176   4.764
 5443TIP3    H216294   2.358   0.225   4.841
 5444TIP3   OH216295   2.256   3.188   0.410
 5444TIP3    H116296   2.247   3.100   0.372
 5444TIP3    H216297   2.249   3.247   0.335
 5445TIP3   OH216298   2.721   6.752   5.335
 5445TIP3    H116299   2.661   6.821   5.363
 5445TIP3    H216300   2.700   6.737   5.243
 5446TIP3   OH216301   4.419   5.726   3.362
 5446TIP3    H116302   4.357   5.694   3.428
 5446TIP3    H216303   4.429   5.652   3.301
 5447TIP3   OH216304   4.323   4.345   4.342
 5447TIP3    H116305   4.298   4.271   4.287
 5447TIP3    H216306   4.339   4.307   4.428
 5448TIP3   OH216307   6.337   5.291   4.920
 5448TIP3    H116308   6.329   5.199   4.944
 5448TIP3    H216309   6.283   5.300   4.842
 5449TIP3   OH216310   5.066   4.216   5.124
 5449TIP3    H116311   5.103   4.293   5.167
 5449TIP3    H216312   4.989   4.194   5.176
 5450TIP3   OH216313   6.345   0.911   4.431
 5450TIP3    H116314   6.427   0.892   4.475
 5450TIP3    H216315   6.277   0.879   4.491
 5451TIP3   OH216316   6.261   6.742   4.100
 5451TIP3    H116317   6.348   6.708   4.080
 5451TIP3    H216318   6.248   6.814   4.039
 5452TIP3   OH216319   5.934   5.331   4.235
 5452TIP3    H116320   5.927   5.242   4.200
 5452TIP3    H216321   6.028   5.345   4.245
 5453TIP3   OH216322   0.618   5.463   0.298
 5453TIP3    H116323   0.593   5.507   0.379
 5453TIP3    H216324   0.557   5.389   0.292
 5454TIP3   OH216325   2.455   2.772   4.010
 5454TIP3    H116326   2.458   2.849   3.954
 5454TIP3    H216327   2.367   2.774   4.049
 5455TIP3   OH216328   1.185   6.485   2.160
 5455TIP3    H116329   1.237   6.566   2.155
 5455TIP3    H216330   1.114   6.506   2.222
 5456TIP3   OH216331   0.675   4.482   0.610
 5456TIP3    H116332   0.627   4.406   0.642
 5456TIP3    H216333   0.679   4.541   0.685
 5457TIP3   OH216334   3.204   4.265   0.857
 5457TIP3    H116335   3.161   4.313   0.928
 5457TIP3    H216336   3.161   4.297   0.777
 5458TIP3   OH216337   3.888   2.841   3.382
 5458TIP3    H116338   3.853   2.928   3.398
 5458TIP3    H216339   3.876   2.794   3.465
 5459TIP3   OH216340   1.176   6.115   5.126
 5459TIP3    H116341   1.107   6.112   5.060
 5459TIP3    H216342   1.188   6.208   5.144
 5460TIP3   OH216343   2.233   6.071   5.422
 5460TIP3    H116344   2.252   5.977   5.432
 5460TIP3    H216345   2.138   6.075   5.410
 5461TIP3   OH216346   6.059   2.403   1.555
 5461TIP3    H116347   6.053   2.348   1.633
 5461TIP3    H216348   6.148   2.389   1.522
 5462TIP3   OH216349   3.614   2.747   3.774
 5462TIP3    H116350   3.551   2.681   3.747
 5462TIP3    H216351   3.572   2.831   3.755
 5463TIP3   OH216352   2.345   1.150   4.466
 5463TIP3    H116353   2.415   1.131   4.529
 5463TIP3    H216354   2.266   1.155   4.519
 5464TIP3   OH216355   1.090   1.189   1.189
 5464TIP3    H116356   1.003   1.216   1.216
 5464TIP3    H216357   1.149   1.241   1.244
 5465TIP3   OH216358   0.047   1.295   4.005
 5465TIP3    H116359  -0.035   1.266   4.045
 5465TIP3    H216360   0.062   1.382   4.043
 5466TIP3   OH216361   1.936   5.610   0.908
 5466TIP3    H116362   1.975   5.524   0.924
 5466TIP3    H216363   1.842   5.594   0.908
 5467TIP3   OH216364   3.778   5.321   2.414
 5467TIP3    H116365   3.832   5.243   2.428
 5467TIP3    H216366   3.774   5.363   2.500
 5468TIP3   OH216367   5.091   1.291   3.289
 5468TIP3    H116368   5.100   1.314   3.382
 5468TIP3    H216369   5.179   1.299   3.253
 5469TIP3   OH216370   5.093   2.546   0.773
 5469TIP3    H116371   5.172   2.586   0.810
 5469TIP3    H216372   5.109   2.452   0.776
 5470TIP3   OH216373   6.400   1.665   5.226
 5470TIP3    H116374   6.470   1.629   5.281
 5470TIP3    H216375   6.353   1.725   5.283
 5471TIP3   OH216376   4.509   3.989   0.263
 5471TIP3    H116377   4.566   4.004   0.188
 5471TIP3    H216378   4.480   3.898   0.253
 5472TIP3   OH216379   4.935   0.317   5.410
 5472TIP3    H116380   4.855   0.364   5.432
 5472TIP3    H216381   4.958   0.347   5.322
 5473TIP3   OH216382   2.783   2.671   5.706
 5473TIP3    H116383   2.776   2.585   5.663
 5473TIP3    H216384   2.765   2.653   5.798
 5474TIP3   OH216385   0.985   3.534   2.757
 5474TIP3    H116386   1.001   3.628   2.767
 5474TIP3    H216387   0.983   3.500   2.846
 5475TIP3   OH216388   1.303   2.009   2.162
 5475TIP3    H116389   1.248   2.010   2.240
 5475TIP3    H216390   1.256   2.064   2.099
 5476TIP3   OH216391   4.752   4.461   3.511
 5476TIP3    H116392   4.784   4.547   3.484
 5476TIP3    H216393   4.687   4.480   3.578
 5477TIP3   OH216394   7.035   6.666   0.267
 5477TIP3    H116395   7.043   6.758   0.239
 5477TIP3    H216396   7.114   6.650   0.319
 5478TIP3   OH216397   0.113   0.693   3.731
 5478TIP3    H116398   0.052   0.621   3.711
 5478TIP3    H216399   0.193   0.649   3.761
 5479TIP3   OH216400   4.177   0.866   4.433
 5479TIP3    H116401   4.121   0.791   4.413
 5479TIP3    H216402   4.217   0.888   4.349
 5480TIP3   OH216403   5.058   5.485   1.304
 5480TIP3    H116404   5.082   5.490   1.397
 5480TIP3    H216405   5.084   5.397   1.278
 5481TIP3   OH216406   5.745   3.373   0.860
 5481TIP3    H116407   5.759   3.287   0.900
 5481TIP3    H216408   5.776   3.363   0.770
 5482TIP3   OH216409   3.870   5.582   2.372
 5482TIP3    H116410   3.854   5.630   2.453
 5482TIP3    H216411   3.803   5.514   2.371
 5483TIP3   OH216412   0.657   6.495   5.882
 5483TIP3    H116413   0.572   6.534   5.859
 5483TIP3    H216414   0.718   6.532   5.819
 5484TIP3   OH216415   6.219   2.099   5.575
 5484TIP3    H116416   6.125   2.104   5.557
 5484TIP3    H216417   6.259   2.083   5.489
 5485TIP3   OH216418   5.485   3.299   0.455
 5485TIP3    H116419   5.451   3.364   0.517
 5485TIP3    H216420   5.480   3.216   0.502
 5486TIP3   OH216421   2.272   1.199   0.172
 5486TIP3    H116422   2.224   1.246   0.240
 5486TIP3    H216423   2.363   1.204   0.200
 5487TIP3   OH216424   4.680   5.457   3.027
 5487TIP3    H116425   4.739   5.382   3.026
 5487TIP3    H216426   4.715   5.516   2.960
 5488TIP3   OH216427   4.038   1.575   4.638
 5488TIP3    H116428   4.082   1.629   4.572
 5488TIP3    H216429   3.971   1.633   4.675
 5489TIP3   OH216430   4.185   5.744   5.105
 5489TIP3    H116431   4.267   5.742   5.154
 5489TIP3    H216432   4.180   5.834   5.071
 5490TIP3   OH216433   3.879   2.855   1.838
 5490TIP3    H116434   3.944   2.795   1.801
 5490TIP3    H216435   3.901   2.859   1.931
 5491TIP3   OH216436   0.575   5.579   3.582
 5491TIP3    H116437   0.634   5.579   3.507
 5491TIP3    H216438   0.626   5.542   3.654
 5492TIP3   OH216439   2.518   6.666   4.954
 5492TIP3    H116440   2.475   6.750   4.935
 5492TIP3    H216441   2.517   6.661   5.050
 5493TIP3   OH216442   3.717   0.678   2.813
 5493TIP3    H116443   3.741   0.701   2.723
 5493TIP3    H216444   3.785   0.718   2.867
 5494TIP3   OH216445   4.997   0.084   4.288
 5494TIP3    H116446   4.912   0.124   4.304
 5494TIP3    H216447   5.060   0.155   4.304
 5495TIP3   OH216448   5.470   4.346   3.806
 5495TIP3    H116449   5.530   4.330   3.733
 5495TIP3    H216450   5.420   4.264   3.813
 5496TIP3   OH216451   3.101   5.992   3.749
 5496TIP3    H116452   3.094   6.074   3.798
 5496TIP3    H216453   3.176   6.005   3.690
 5497TIP3   OH216454   2.910   0.967   5.744
 5497TIP3    H116455   2.894   0.874   5.725
 5497TIP3    H216456   2.947   0.967   5.833
 5498TIP3   OH216457   0.194   1.514   2.392
 5498TIP3    H116458   0.198   1.472   2.478
 5498TIP3    H216459   0.162   1.446   2.333
 5499TIP3   OH216460   3.378   6.090   5.614
 5499TIP3    H116461   3.423   6.173   5.597
 5499TIP3    H216462   3.285   6.111   5.606
 5500TIP3   OH216463   0.519   6.632   5.623
 5500TIP3    H116464   0.485   6.706   5.573
 5500TIP3    H216465   0.440   6.587   5.655
 5501TIP3   OH216466   5.469   6.161   3.845
 5501TIP3    H116467   5.446   6.069   3.831
 5501TIP3    H216468   5.534   6.159   3.915
 5502TIP3   OH216469   3.819   1.422   4.558
 5502TIP3    H116470   3.792   1.445   4.469
 5502TIP3    H216471   3.897   1.476   4.573
 5503TIP3   OH216472   3.848   4.101   5.821
 5503TIP3    H116473   3.862   4.179   5.768
 5503TIP3    H216474   3.934   4.080   5.857
 5504TIP3   OH216475   5.466   4.616   2.288
 5504TIP3    H116476   5.381   4.584   2.316
 5504TIP3    H216477   5.468   4.707   2.316
 5505TIP3   OH216478   0.111   0.944   5.083
 5505TIP3    H116479   0.081   0.973   5.169
 5505TIP3    H216480   0.034   0.901   5.044
 5506TIP3   OH216481   1.715   5.069   0.368
 5506TIP3    H116482   1.658   5.098   0.297
 5506TIP3    H216483   1.657   5.066   0.445
 5507TIP3   OH216484   5.893   5.853   3.776
 5507TIP3    H116485   5.926   5.764   3.791
 5507TIP3    H216486   5.888   5.861   3.681
 5508TIP3   OH216487   1.629   4.454   5.473
 5508TIP3    H116488   1.587   4.457   5.559
 5508TIP3    H216489   1.559   4.427   5.413
 5509TIP3   OH216490   2.564   3.424   0.381
 5509TIP3    H116491   2.606   3.339   0.374
 5509TIP3    H216492   2.519   3.422   0.466
 5510TIP3   OH216493   5.276   0.020   2.705
 5510TIP3    H116494   5.351   0.066   2.667
 5510TIP3    H216495   5.313  -0.024   2.782
 5511TIP3   OH216496   6.122   3.158   5.097
 5511TIP3    H116497   6.189   3.112   5.047
 5511TIP3    H216498   6.085   3.092   5.156
 5512TIP3   OH216499   1.464   3.876   4.442
 5512TIP3    H116500   1.478   3.782   4.455
 5512TIP3    H216501   1.408   3.881   4.364
 5513TIP3   OH216502   2.569   1.576   3.122
 5513TIP3    H116503   2.663   1.559   3.126
 5513TIP3    H216504   2.546   1.558   3.031
 5514TIP3   OH216505   0.766   0.110   0.644
 5514TIP3    H116506   0.796   0.090   0.733
 5514TIP3    H216507   0.733   0.200   0.650
 5515TIP3   OH216508   3.945   3.349   2.779
 5515TIP3    H116509   3.981   3.435   2.756
 5515TIP3    H216510   3.999   3.319   2.853
 5516TIP3   OH216511   1.318   1.193   4.239
 5516TIP3    H116512   1.374   1.148   4.176
 5516TIP3    H216513   1.279   1.123   4.290
 5517TIP3   OH216514   6.509   3.582   4.418
 5517TIP3    H116515   6.458   3.547   4.491
 5517TIP3    H216516   6.594   3.538   4.424
 5518TIP3   OH216517   2.001   2.341   0.848
 5518TIP3    H116518   1.916   2.384   0.836
 5518TIP3    H216519   1.985   2.273   0.914
 5519TIP3   OH216520   2.274   2.652   5.758
 5519TIP3    H116521   2.294   2.619   5.846
 5519TIP3    H216522   2.344   2.618   5.703
 5520TIP3   OH216523   2.906   2.063   2.816
 5520TIP3    H116524   2.848   2.087   2.744
 5520TIP3    H216525   2.925   2.147   2.860
 5521TIP3   OH216526   2.377   5.284   2.083
 5521TIP3    H116527   2.466   5.274   2.118
 5521TIP3    H216528   2.332   5.339   2.147
 5522TIP3   OH216529   3.245   4.775   5.697
 5522TIP3    H116530   3.286   4.844   5.646
 5522TIP3    H216531   3.289   4.779   5.782
 5523TIP3   OH216532   3.918   2.275   0.537
 5523TIP3    H116533   3.957   2.270   0.624
 5523TIP3    H216534   3.838   2.326   0.549
 5524TIP3   OH216535   0.460   2.321   4.643
 5524TIP3    H116536   0.433   2.283   4.727
 5524TIP3    H216537   0.381   2.319   4.589
 5525TIP3   OH216538   4.589   3.816   5.219
 5525TIP3    H116539   4.620   3.899   5.255
 5525TIP3    H216540   4.664   3.757   5.228
 5526TIP3   OH216541   2.198   3.835   5.602
 5526TIP3    H116542   2.109   3.860   5.578
 5526TIP3    H216543   2.219   3.892   5.677
 5527TIP3   OH216544   5.728   6.066   1.360
 5527TIP3    H116545   5.639   6.038   1.376
 5527TIP3    H216546   5.762   6.090   1.446
 5528TIP3   OH216547   1.049   1.385   3.855
 5528TIP3    H116548   1.079   1.314   3.911
 5528TIP3    H216549   1.024   1.455   3.915
 5529TIP3   OH216550   3.604   6.346   0.669
 5529TIP3    H116551   3.547   6.281   0.710
 5529TIP3    H216552   3.693   6.311   0.679
 5530TIP3   OH216553   2.116   3.624   3.990
 5530TIP3    H116554   2.205   3.613   3.958
 5530TIP3    H216555   2.124   3.619   4.086
 5531TIP3   OH216556   3.416   5.086   3.741
 5531TIP3    H116557   3.325   5.115   3.733
 5531TIP3    H216558   3.425   5.060   3.832
 5532TIP3   OH216559   2.052   2.974   3.042
 5532TIP3    H116560   2.115   2.966   3.114
 5532TIP3    H216561   1.970   3.001   3.083
 5533TIP3   OH216562   1.697   2.682   4.683
 5533TIP3    H116563   1.732   2.686   4.594
 5533TIP3    H216564   1.657   2.596   4.690
 5534TIP3   OH216565   2.966   6.030   4.443
 5534TIP3    H116566   2.919   6.064   4.366
 5534TIP3    H216567   2.993   5.941   4.417
 5535TIP3   OH216568   5.082   2.175   3.913
 5535TIP3    H116569   5.030   2.230   3.855
 5535TIP3    H216570   5.078   2.088   3.873
 5536TIP3   OH216571   1.992   2.979   2.766
 5536TIP3    H116572   2.014   2.944   2.852
 5536TIP3    H216573   2.055   3.051   2.753
 5537TIP3   OH216574   2.036   0.603   5.550
 5537TIP3    H116575   2.088   0.536   5.596
 5537TIP3    H216576   1.962   0.619   5.608
 5538TIP3   OH216577   5.815   4.239   2.646
 5538TIP3    H116578   5.858   4.282   2.572
 5538TIP3    H216579   5.784   4.311   2.701
 5539TIP3   OH216580   4.725   6.781   1.393
 5539TIP3    H116581   4.727   6.796   1.488
 5539TIP3    H216582   4.686   6.694   1.384
 5540TIP3   OH216583   6.529   3.363   5.251
 5540TIP3    H116584   6.489   3.358   5.337
 5540TIP3    H216585   6.612   3.316   5.261
 5541TIP3   OH216586   0.668   5.694   5.875
 5541TIP3    H116587   0.599   5.706   5.809
 5541TIP3    H216588   0.627   5.640   5.942
 5542TIP3   OH216589   6.408   0.669   5.197
 5542TIP3    H116590   6.378   0.711   5.277
 5542TIP3    H216591   6.422   0.741   5.135
 5543TIP3   OH216592   0.323   3.378  -0.029
 5543TIP3    H116593   0.415   3.366  -0.053
 5543TIP3    H216594   0.326   3.437   0.047
 5544TIP3   OH216595   0.239   2.898   4.594
 5544TIP3    H116596   0.182   2.829   4.627
 5544TIP3    H216597   0.215   2.976   4.644
 5545TIP3   OH216598   3.528   2.395   3.404
 5545TIP3    H116599   3.570   2.481   3.398
 5545TIP3    H216600   3.586   2.336   3.355
 5546TIP3   OH216601   5.211   1.543   4.703
 5546TIP3    H116602   5.214   1.543   4.798
 5546TIP3    H216603   5.291   1.498   4.676
 5547TIP3   OH216604   3.239   4.345   4.538
 5547TIP3    H116605   3.214   4.425   4.492
 5547TIP3    H216606   3.235   4.368   4.631
 5548TIP3   OH216607   0.296   3.264   5.213
 5548TIP3    H116608   0.242   3.264   5.291
 5548TIP3    H216609   0.317   3.172   5.198
 5549TIP3   OH216610   1.613   4.370   1.825
 5549TIP3    H116611   1.582   4.314   1.754
 5549TIP3    H216612   1.557   4.348   1.900
 5550TIP3   OH216613   5.838   3.076   3.674
 5550TIP3    H116614   5.923   3.088   3.632
 5550TIP3    H216615   5.796   3.006   3.624
 5551TIP3   OH216616   5.146   6.456   5.365
 5551TIP3    H116617   5.235   6.490   5.356
 5551TIP3    H216618   5.112   6.453   5.276
 5552TIP3   OH216619   1.970   3.035   5.415
 5552TIP3    H116620   2.045   3.094   5.417
 5552TIP3    H216621   1.980   2.981   5.493
 5553TIP3   OH216622   0.050   0.416   2.382
 5553TIP3    H116623   0.110   0.489   2.368
 5553TIP3    H216624  -0.021   0.453   2.434
 5554TIP3   OH216625   1.639   4.486   1.349
 5554TIP3    H116626   1.561   4.530   1.383
 5554TIP3    H216627   1.697   4.557   1.321
 5555TIP3   OH216628   6.231   6.184   4.944
 5555TIP3    H116629   6.315   6.219   4.972
 5555TIP3    H216630   6.207   6.236   4.867
 5556TIP3   OH216631   1.275   2.812   4.107
 5556TIP3    H116632   1.268   2.887   4.048
 5556TIP3    H216633   1.272   2.851   4.195
 5557TIP3   OH216634   2.402   5.225   3.539
 5557TIP3    H116635   2.352   5.278   3.600
 5557TIP3    H216636   2.360   5.139   3.542
 5558TIP3   OH216637   2.713   5.218   3.061
 5558TIP3    H116638   2.657   5.167   3.120
 5558TIP3    H216639   2.796   5.171   3.059
 5559TIP3   OH216640   0.812   4.594   1.459
 5559TIP3    H116641   0.782   4.684   1.444
 5559TIP3    H216642   0.741   4.539   1.426
 5560TIP3   OH216643   2.451   4.517   1.685
 5560TIP3    H116644   2.520   4.471   1.733
 5560TIP3    H216645   2.378   4.455   1.684
 5561TIP3   OH216646   6.592   6.700   2.983
 5561TIP3    H116647   6.569   6.787   2.950
 5561TIP3    H216648   6.668   6.714   3.039
 5562TIP3   OH216649   4.005   3.698   2.332
 5562TIP3    H116650   4.070   3.671   2.268
 5562TIP3    H216651   4.046   3.684   2.417
 5563TIP3   OH216652   4.304   5.104   5.252
 5563TIP3    H116653   4.341   5.071   5.333
 5563TIP3    H216654   4.209   5.095   5.264
 5564TIP3   OH216655   3.426   0.215   5.570
 5564TIP3    H116656   3.511   0.174   5.586
 5564TIP3    H216657   3.362   0.147   5.590
 5565TIP3   OH216658   5.280   4.092   1.023
 5565TIP3    H116659   5.208   4.154   1.012
 5565TIP3    H216660   5.320   4.085   0.937
 5566TIP3   OH216661   6.660   6.203   0.223
 5566TIP3    H116662   6.701   6.289   0.215
 5566TIP3    H216663   6.668   6.164   0.136
 5567TIP3   OH216664   2.467   6.601   3.450
 5567TIP3    H116665   2.546   6.649   3.474
 5567TIP3    H216666   2.458   6.534   3.517
 5568TIP3   OH216667   7.171   5.421   0.580
 5568TIP3    H116668   7.154   5.350   0.518
 5568TIP3    H216669   7.265   5.414   0.598
 5569TIP3   OH216670   2.581   5.749   0.681
 5569TIP3    H116671   2.675   5.728   0.682
 5569TIP3    H216672   2.575   5.829   0.629
 5570TIP3   OH216673   1.520   2.899   4.710
 5570TIP3    H116674   1.586   2.832   4.726
 5570TIP3    H216675   1.515   2.905   4.614
 5571TIP3   OH216676   2.834   1.513   3.215
 5571TIP3    H116677   2.821   1.440   3.274
 5571TIP3    H216678   2.862   1.585   3.271
 5572TIP3   OH216679   3.489   2.030   5.806
 5572TIP3    H116680   3.506   1.969   5.734
 5572TIP3    H216681   3.399   2.058   5.794
 5573TIP3   OH216682   2.268   4.173   0.122
 5573TIP3    H116683   2.191   4.188   0.067
 5573TIP3    H216684   2.277   4.078   0.125
 5574TIP3   OH216685   5.676   5.257   5.444
 5574TIP3    H116686   5.606   5.302   5.491
 5574TIP3    H216687   5.738   5.327   5.421
 5575TIP3   OH216688   2.214   6.131   4.966
 5575TIP3    H116689   2.300   6.117   4.926
 5575TIP3    H216690   2.157   6.067   4.922
 5576TIP3   OH216691   0.733   6.309   4.231
 5576TIP3    H116692   0.825   6.283   4.232
 5576TIP3    H216693   0.699   6.277   4.315
 5577TIP3   OH216694   3.731   5.719   0.847
 5577TIP3    H116695   3.771   5.724   0.934
 5577TIP3    H216696   3.766   5.639   0.809
 5578TIP3   OH216697   0.651   0.517   1.441
 5578TIP3    H116698   0.572   0.482   1.400
 5578TIP3    H216699   0.709   0.536   1.368
 5579TIP3   OH216700   3.381   2.983   3.122
 5579TIP3    H116701   3.455   2.937   3.160
 5579TIP3    H216702   3.412   3.072   3.108
 5580TIP3   OH216703   3.055   1.564   0.252
 5580TIP3    H116704   3.083   1.573   0.160
 5580TIP3    H216705   3.000   1.641   0.267
 5581TIP3   OH216706   2.812   6.092   0.197
 5581TIP3    H116707   2.862   6.152   0.252
 5581TIP3    H216708   2.725   6.089   0.238
 5582TIP3   OH216709   4.226   3.807   5.415
 5582TIP3    H116710   4.206   3.806   5.509
 5582TIP3    H216711   4.290   3.877   5.405
 5583TIP3   OH216712   2.736   4.794   5.433
 5583TIP3    H116713   2.821   4.785   5.390
 5583TIP3    H216714   2.748   4.865   5.496
 5584TIP3   OH216715   1.701   0.966   2.440
 5584TIP3    H116716   1.720   0.973   2.533
 5584TIP3    H216717   1.699   1.056   2.408
 5585TIP3   OH216718   2.804   5.318   2.708
 5585TIP3    H116719   2.885   5.269   2.693
 5585TIP3    H216720   2.830   5.390   2.765
 5586TIP3   OH216721   1.830   6.034   3.823
 5586TIP3    H116722   1.757   6.050   3.883
 5586TIP3    H216723   1.821   6.102   3.756
 5587TIP3   OH216724   2.637   2.662   4.176
 5587TIP3    H116725   2.572   2.705   4.119
 5587TIP3    H216726   2.591   2.652   4.260
 5588TIP3   OH216727   6.616   1.934   3.308
 5588TIP3    H116728   6.630   2.028   3.314
 5588TIP3    H216729   6.558   1.914   3.382
 5589TIP3   OH216730   1.370   3.173   0.739
 5589TIP3    H116731   1.303   3.167   0.671
 5589TIP3    H216732   1.332   3.230   0.805
 5590TIP3   OH216733   4.417   1.901   4.374
 5590TIP3    H116734   4.455   1.814   4.360
 5590TIP3    H216735   4.486   1.962   4.345
 5591TIP3   OH216736   1.506   4.712   4.224
 5591TIP3    H116737   1.471   4.800   4.210
 5591TIP3    H216738   1.576   4.724   4.288
 5592TIP3   OH216739   0.466   1.786   3.475
 5592TIP3    H116740   0.428   1.784   3.387
 5592TIP3    H216741   0.404   1.735   3.528
 5593TIP3   OH216742   1.435   3.613   0.419
 5593TIP3    H116743   1.397   3.551   0.358
 5593TIP3    H216744   1.517   3.641   0.377
 5594TIP3   OH216745   6.542   2.521   2.594
 5594TIP3    H116746   6.632   2.533   2.623
 5594TIP3    H216747   6.525   2.596   2.537
 5595TIP3   OH216748   1.714   0.187   0.355
 5595TIP3    H116749   1.655   0.128   0.307
 5595TIP3    H216750   1.753   0.131   0.421
 5596TIP3   OH216751   4.278   5.147   4.561
 5596TIP3    H116752   4.297   5.096   4.482
 5596TIP3    H216753   4.356   5.201   4.574
 5597TIP3   OH216754   7.073   4.703   5.206
 5597TIP3    H116755   7.030   4.623   5.178
 5597TIP3    H216756   7.081   4.694   5.301
 5598TIP3   OH216757   1.442   4.259   0.631
 5598TIP3    H116758   1.519   4.266   0.574
 5598TIP3    H216759   1.368   4.285   0.576
 5599TIP3   OH216760   4.021   6.162   4.369
 5599TIP3    H116761   3.932   6.193   4.380
 5599TIP3    H216762   4.018   6.069   4.393
 5600TIP3   OH216763   1.827   5.545   3.155
 5600TIP3    H116764   1.811   5.611   3.087
 5600TIP3    H216765   1.908   5.575   3.198
 5601TIP3   OH216766   6.739   0.509   2.771
 5601TIP3    H116767   6.670   0.519   2.836
 5601TIP3    H216768   6.770   0.419   2.781
 5602TIP3   OH216769   1.670   5.320   2.600
 5602TIP3    H116770   1.686   5.301   2.508
 5602TIP3    H216771   1.742   5.278   2.646
 5603TIP3   OH216772   3.313   5.842   5.148
 5603TIP3    H116773   3.277   5.883   5.227
 5603TIP3    H216774   3.262   5.879   5.076
 5604TIP3   OH216775   7.025   5.181   1.498
 5604TIP3    H116776   6.986   5.144   1.578
 5604TIP3    H216777   7.016   5.276   1.509
 5605TIP3   OH216778   6.972   1.220   3.853
 5605TIP3    H116779   7.010   1.139   3.819
 5605TIP3    H216780   6.988   1.285   3.785
 5606TIP3   OH216781   3.849   0.742   5.048
 5606TIP3    H116782   3.924   0.687   5.069
 5606TIP3    H216783   3.835   0.795   5.126
 5607TIP3   OH216784   2.437   0.744   1.727
 5607TIP3    H116785   2.490   0.812   1.768
 5607TIP3    H216786   2.498   0.672   1.710
 5608TIP3   OH216787   2.927   1.785   1.848
 5608TIP3    H116788   2.971   1.798   1.763
 5608TIP3    H216789   2.853   1.846   1.846
 5609TIP3   OH216790   4.680   2.442   4.114
 5609TIP3    H116791   4.616   2.382   4.077
 5609TIP3    H216792   4.668   2.435   4.209
 5610TIP3   OH216793   5.292   6.792   3.587
 5610TIP3    H116794   5.263   6.733   3.656
 5610TIP3    H216795   5.366   6.746   3.547
 5611TIP3   OH216796   7.016   2.961   4.204
 5611TIP3    H116797   7.074   2.969   4.128
 5611TIP3    H216798   7.060   2.899   4.261
 5612TIP3   OH216799   3.656   5.588   3.290
 5612TIP3    H116800   3.580   5.625   3.335
 5612TIP3    H216801   3.633   5.497   3.274
 5613TIP3   OH216802   6.636   4.501   3.383
 5613TIP3    H116803   6.604   4.423   3.428
 5613TIP3    H216804   6.559   4.558   3.379
 5614TIP3   OH216805   6.841   6.642   0.493
 5614TIP3    H116806   6.823   6.593   0.573
 5614TIP3    H216807   6.895   6.716   0.522
 5615TIP3   OH216808   3.321   5.829   1.715
 5615TIP3    H116809   3.303   5.860   1.804
 5615TIP3    H216810   3.264   5.752   1.705
 5616TIP3   OH216811   6.021   4.819   0.523
 5616TIP3    H116812   5.939   4.788   0.561
 5616TIP3    H216813   6.035   4.763   0.447
 5617TIP3   OH216814   6.423   2.715   3.324
 5617TIP3    H116815   6.332   2.698   3.350
 5617TIP3    H216816   6.416   2.741   3.232
 5618TIP3   OH216817   0.213   6.218   0.907
 5618TIP3    H116818   0.229   6.142   0.962
 5618TIP3    H216819   0.262   6.289   0.949
 5619TIP3   OH216820   2.867   3.784   4.380
 5619TIP3    H116821   2.860   3.804   4.474
 5619TIP3    H216822   2.959   3.762   4.367
 5620TIP3   OH216823   2.953   6.549   3.318
 5620TIP3    H116824   3.018   6.607   3.278
 5620TIP3    H216825   2.877   6.555   3.260
 5621TIP3   OH216826   3.289   3.586   0.649
 5621TIP3    H116827   3.235   3.665   0.661
 5621TIP3    H216828   3.269   3.557   0.560
 5622TIP3   OH216829   5.508   5.565   1.632
 5622TIP3    H116830   5.511   5.531   1.721
 5622TIP3    H216831   5.516   5.488   1.576
 5623TIP3   OH216832   2.094   6.359   5.799
 5623TIP3    H116833   2.127   6.326   5.715
 5623TIP3    H216834   2.147   6.436   5.816
 5624TIP3   OH216835   0.094   2.884   1.249
 5624TIP3    H116836   0.171   2.900   1.194
 5624TIP3    H216837   0.113   2.801   1.293
 5625TIP3   OH216838   6.702   6.480   2.142
 5625TIP3    H116839   6.773   6.542   2.157
 5625TIP3    H216840   6.623   6.524   2.173
 5626TIP3   OH216841   2.619   4.780   5.173
 5626TIP3    H116842   2.651   4.863   5.138
 5626TIP3    H216843   2.621   4.791   5.268
 5627TIP3   OH216844   1.682   4.770   5.836
 5627TIP3    H116845   1.722   4.848   5.875
 5627TIP3    H216846   1.755   4.723   5.795
 5628TIP3   OH216847   2.895   2.395   5.423
 5628TIP3    H116848   2.976   2.400   5.474
 5628TIP3    H216849   2.922   2.356   5.340
 5629TIP3   OH216850   1.366   1.171   5.184
 5629TIP3    H116851   1.393   1.087   5.220
 5629TIP3    H216852   1.446   1.208   5.147
 5630TIP3   OH216853   0.107   2.669   3.307
 5630TIP3    H116854   0.029   2.721   3.292
 5630TIP3    H216855   0.074   2.581   3.324
 5631TIP3   OH216856   3.217   3.040   3.333
 5631TIP3    H116857   3.252   3.015   3.248
 5631TIP3    H216858   3.154   2.971   3.354
 5632TIP3   OH216859   1.632   0.344   1.152
 5632TIP3    H116860   1.569   0.374   1.086
 5632TIP3    H216861   1.593   0.370   1.235
 5633TIP3   OH216862   5.840   3.469   1.724
 5633TIP3    H116863   5.880   3.388   1.755
 5633TIP3    H216864   5.769   3.486   1.786
 5634TIP3   OH216865   2.560   4.051   1.370
 5634TIP3    H116866   2.492   4.003   1.323
 5634TIP3    H216867   2.608   4.099   1.303
 5635TIP3   OH216868   2.839   1.072   3.003
 5635TIP3    H116869   2.905   1.031   3.058
 5635TIP3    H216870   2.889   1.114   2.933
 5636TIP3   OH216871   4.236   4.485   0.564
 5636TIP3    H116872   4.308   4.428   0.587
 5636TIP3    H216873   4.158   4.440   0.596
 5637TIP3   OH216874   3.344   2.927   0.171
 5637TIP3    H116875   3.414   2.910   0.233
 5637TIP3    H216876   3.301   3.006   0.205
 5638TIP3   OH216877   3.157   0.361   0.822
 5638TIP3    H116878   3.218   0.362   0.896
 5638TIP3    H216879   3.087   0.301   0.850
 5639TIP3   OH216880   5.023   3.917   4.344
 5639TIP3    H116881   4.960   3.989   4.351
 5639TIP3    H216882   4.986   3.859   4.278
 5640TIP3   OH216883   2.285   1.016   5.634
 5640TIP3    H116884   2.336   1.023   5.553
 5640TIP3    H216885   2.302   0.927   5.665
 5641TIP3   OH216886   4.361   6.331   2.086
 5641TIP3    H116887   4.332   6.379   2.008
 5641TIP3    H216888   4.426   6.388   2.126
 5642TIP3   OH216889   6.240   4.917   5.350
 5642TIP3    H116890   6.277   4.985   5.293
 5642TIP3    H216891   6.293   4.840   5.334
 5643TIP3   OH216892   0.136   5.234   4.577
 5643TIP3    H116893   0.092   5.151   4.558
 5643TIP3    H216894   0.067   5.289   4.615
 5644TIP3   OH216895   1.646   2.257   0.303
 5644TIP3    H116896   1.669   2.294   0.388
 5644TIP3    H216897   1.724   2.270   0.249
 5645TIP3   OH216898   6.468   5.679   1.500
 5645TIP3    H116899   6.443   5.631   1.421
 5645TIP3    H216900   6.563   5.671   1.504
 5646TIP3   OH216901   5.597   4.295   3.234
 5646TIP3    H116902   5.535   4.275   3.303
 5646TIP3    H216903   5.585   4.226   3.169
 5647TIP3   OH216904   1.423   2.577   2.044
 5647TIP3    H116905   1.508   2.566   2.002
 5647TIP3    H216906   1.361   2.531   1.987
 5648TIP3   OH216907   6.624   4.004   2.996
 5648TIP3    H116908   6.592   3.917   3.023
 5648TIP3    H216909   6.612   4.059   3.073
 5649TIP3   OH216910   4.111   3.701   4.160
 5649TIP3    H116911   4.088   3.608   4.161
 5649TIP3    H216912   4.059   3.739   4.089
 5650TIP3   OH216913   6.663   4.403   2.049
 5650TIP3    H116914   6.645   4.479   2.104
 5650TIP3    H216915   6.726   4.352   2.100
 5651TIP3   OH216916   6.957   6.035   2.936
 5651TIP3    H116917   7.023   5.971   2.965
 5651TIP3    H216918   6.968   6.040   2.842
 5652TIP3   OH216919   5.590   4.512   0.357
 5652TIP3    H116920   5.609   4.460   0.434
 5652TIP3    H216921   5.535   4.584   0.390
 5653TIP3   OH216922   0.310   0.818   3.448
 5653TIP3    H116923   0.233   0.850   3.400
 5653TIP3    H216924   0.384   0.859   3.404
 5654TIP3   OH216925   0.165   2.894   1.753
 5654TIP3    H116926   0.232   2.874   1.818
 5654TIP3    H216927   0.105   2.820   1.758
 5655TIP3   OH216928   3.840   0.231   1.480
 5655TIP3    H116929   3.828   0.190   1.566
 5655TIP3    H216930   3.883   0.315   1.499
 5656TIP3   OH216931   0.810   4.945   3.975
 5656TIP3    H116932   0.720   4.974   3.963
 5656TIP3    H216933   0.815   4.923   4.068
 5657TIP3   OH216934   1.728   4.157   5.553
 5657TIP3    H116935   1.694   4.112   5.631
 5657TIP3    H216936   1.714   4.250   5.570
 5658TIP3   OH216937   3.925   6.781   3.630
 5658TIP3    H116938   3.857   6.735   3.581
 5658TIP3    H216939   3.905   6.763   3.722
 5659TIP3   OH216940   4.131   5.809   0.828
 5659TIP3    H116941   4.132   5.785   0.921
 5659TIP3    H216942   4.062   5.754   0.790
 5660TIP3   OH216943   4.414   0.421   5.838
 5660TIP3    H116944   4.392   0.394   5.748
 5660TIP3    H216945   4.330   0.445   5.876
 5661TIP3   OH216946   2.391   3.371   0.605
 5661TIP3    H116947   2.335   3.309   0.558
 5661TIP3    H216948   2.424   3.321   0.680
 5662TIP3   OH216949   4.534   4.312   3.942
 5662TIP3    H116950   4.612   4.316   3.886
 5662TIP3    H216951   4.568   4.289   4.029
 5663TIP3   OH216952   0.393   3.257   4.105
 5663TIP3    H116953   0.427   3.343   4.081
 5663TIP3    H216954   0.299   3.262   4.086
 5664TIP3   OH216955   0.202   2.625   4.101
 5664TIP3    H116956   0.190   2.563   4.172
 5664TIP3    H216957   0.297   2.635   4.093
 5665TIP3   OH216958   1.821   3.124   4.290
 5665TIP3    H116959   1.752   3.062   4.267
 5665TIP3    H216960   1.899   3.070   4.302
 5666TIP3   OH216961   1.702   0.526   4.686
 5666TIP3    H116962   1.700   0.618   4.662
 5666TIP3    H216963   1.646   0.483   4.621
 5667TIP3   OH216964   4.086   6.509   3.306
 5667TIP3    H116965   4.162   6.486   3.252
 5667TIP3    H216966   4.034   6.428   3.308
 5668TIP3   OH216967   2.569   1.387   4.605
 5668TIP3    H116968   2.641   1.332   4.574
 5668TIP3    H216969   2.519   1.330   4.663
 5669TIP3   OH216970   0.164   4.847   5.637
 5669TIP3    H116971   0.154   4.895   5.554
 5669TIP3    H216972   0.201   4.912   5.697
 5670TIP3   OH216973   0.898   5.252   1.405
 5670TIP3    H116974   0.856   5.199   1.338
 5670TIP3    H216975   0.910   5.338   1.364
 5671TIP3   OH216976   1.272   6.611   4.088
 5671TIP3    H116977   1.230   6.697   4.085
 5671TIP3    H216978   1.236   6.570   4.167
 5672TIP3   OH216979   4.727   2.187   3.995
 5672TIP3    H116980   4.782   2.262   3.975
 5672TIP3    H216981   4.781   2.111   3.972
 5673TIP3   OH216982   6.403   6.681   3.316
 5673TIP3    H116983   6.444   6.601   3.348
 5673TIP3    H216984   6.475   6.734   3.282
 5674TIP3   OH216985   2.158   4.612   3.131
 5674TIP3    H116986   2.201   4.589   3.048
 5674TIP3    H216987   2.156   4.530   3.181
 5675TIP3   OH216988   1.518   6.207   5.524
 5675TIP3    H116989   1.477   6.259   5.454
 5675TIP3    H216990   1.475   6.237   5.604
 5676TIP3   OH216991   0.714   5.142   2.048
 5676TIP3    H116992   0.692   5.141   2.142
 5676TIP3    H216993   0.684   5.227   2.017
 5677TIP3   OH216994   3.376   1.637   5.216
 5677TIP3    H116995   3.345   1.680   5.295
 5677TIP3    H216996   3.351   1.545   5.226
 5678TIP3   OH216997   0.859   6.441   2.020
 5678TIP3    H116998   0.858   6.500   2.096
 5678TIP3    H216999   0.767   6.417   2.008
 5679TIP3   OH217000   5.947   2.066   5.060
 5679TIP3    H117001   5.882   2.004   5.092
 5679TIP3    H217002   5.920   2.085   4.970
 5680TIP3   OH217003   1.061   1.495   2.497
 5680TIP3    H117004   1.069   1.573   2.552
 5680TIP3    H217005   0.991   1.444   2.538
 5681TIP3   OH217006   6.531   6.607   0.825
 5681TIP3    H117007   6.502   6.630   0.737
 5681TIP3    H217008   6.475   6.534   0.850
 5682TIP3   OH217009   1.912   3.387   0.945
 5682TIP3    H117010   1.942   3.470   0.982
 5682TIP3    H217011   1.989   3.350   0.904
 5683TIP3   OH217012   4.771   1.165   4.374
 5683TIP3    H117013   4.730   1.168   4.288
 5683TIP3    H217014   4.716   1.106   4.425
 5684TIP3   OH217015   4.453   4.846   3.244
 5684TIP3    H117016   4.407   4.836   3.161
 5684TIP3    H217017   4.461   4.757   3.278
 5685TIP3   OH217018   5.884   3.534   3.318
 5685TIP3    H117019   5.798   3.523   3.276
 5685TIP3    H217020   5.947   3.517   3.247
 5686TIP3   OH217021   6.768   1.542   3.088
 5686TIP3    H117022   6.822   1.560   3.012
 5686TIP3    H217023   6.702   1.480   3.057
 5687TIP3   OH217024   4.662   2.249   5.476
 5687TIP3    H117025   4.725   2.179   5.493
 5687TIP3    H217026   4.676   2.272   5.384
 5688TIP3   OH217027   2.663   0.465   5.677
 5688TIP3    H117028   2.590   0.430   5.625
 5688TIP3    H217029   2.693   0.391   5.729
 5689TIP3   OH217030   3.848   5.958   5.706
 5689TIP3    H117031   3.764   5.967   5.750
 5689TIP3    H217032   3.891   5.885   5.751
 5690TIP3   OH217033   5.106   5.123   1.152
 5690TIP3    H117034   5.042   5.153   1.216
 5690TIP3    H217035   5.089   5.176   1.074
 5691TIP3   OH217036   1.056   4.011   4.849
 5691TIP3    H117037   1.003   3.931   4.840
 5691TIP3    H217038   1.057   4.048   4.761
 5692TIP3   OH217039   6.627   1.181   3.746
 5692TIP3    H117040   6.712   1.198   3.706
 5692TIP3    H217041   6.605   1.091   3.720
 5693TIP3   OH217042   2.201   3.300   3.172
 5693TIP3    H117043   2.240   3.346   3.098
 5693TIP3    H217044   2.229   3.350   3.249
 5694TIP3   OH217045   6.847   4.676   4.403
 5694TIP3    H117046   6.893   4.760   4.399
 5694TIP3    H217047   6.892   4.627   4.472
 5695TIP3   OH217048   4.596   3.223   0.884
 5695TIP3    H117049   4.585   3.218   0.979
 5695TIP3    H217050   4.506   3.219   0.849
 5696TIP3   OH217051   5.575   1.370   5.044
 5696TIP3    H117052   5.592   1.447   4.989
 5696TIP3    H217053   5.485   1.345   5.022
 5697TIP3   OH217054   5.725   4.444   5.529
 5697TIP3    H117055   5.735   4.420   5.437
 5697TIP3    H217056   5.751   4.536   5.532
 5698TIP3   OH217057   2.250   5.370   2.299
 5698TIP3    H117058   2.203   5.371   2.382
 5698TIP3    H217059   2.239   5.459   2.264
 5699TIP3   OH217060   4.997   4.562  -0.056
 5699TIP3    H117061   5.040   4.569   0.029
 5699TIP3    H217062   4.947   4.480  -0.051
 5700TIP3   OH217063   4.379   5.189   3.700
 5700TIP3    H117064   4.315   5.128   3.737
 5700TIP3    H217065   4.451   5.133   3.671
 5701TIP3   OH217066   5.770   6.728   3.302
 5701TIP3    H117067   5.832   6.795   3.272
 5701TIP3    H217068   5.823   6.649   3.309
 5702TIP3   OH217069   1.669   6.070   2.387
 5702TIP3    H117070   1.576   6.069   2.409
 5702TIP3    H217071   1.672   6.091   2.294
 5703TIP3   OH217072   0.531   1.287   0.829
 5703TIP3    H117073   0.575   1.343   0.894
 5703TIP3    H217074   0.524   1.202   0.873
 5704TIP3   OH217075   5.398   0.932   2.330
 5704TIP3    H117076   5.449   0.994   2.382
 5704TIP3    H217077   5.427   0.946   2.240
 5705TIP3   OH217078   7.044   5.289   4.247
 5705TIP3    H117079   7.091   5.371   4.228
 5705TIP3    H217080   6.989   5.275   4.170
 5706TIP3   OH217081   4.300   0.308   5.216
 5706TIP3    H117082   4.331   0.394   5.243
 5706TIP3    H217083   4.276   0.319   5.124
 5707TIP3   OH217084   0.526   4.521   1.102
 5707TIP3    H117085   0.610   4.538   1.058
 5707TIP3    H217086   0.461   4.563   1.046
 5708TIP3   OH217087   1.848   2.160   4.146
 5708TIP3    H117088   1.860   2.110   4.065
 5708TIP3    H217089   1.936   2.165   4.184
 5709TIP3   OH217090   4.056   3.929   4.693
 5709TIP3    H117091   4.106   3.857   4.654
 5709TIP3    H217092   3.965   3.908   4.674
 5710TIP3   OH217093   2.167   4.577   2.470
 5710TIP3    H117094   2.259   4.588   2.448
 5710TIP3    H217095   2.140   4.498   2.424
 5711TIP3   OH217096   4.524   5.581   5.390
 5711TIP3    H117097   4.577   5.640   5.442
 5711TIP3    H217098   4.545   5.604   5.299
 5712TIP3   OH217099   4.453   5.853   3.988
 5712TIP3    H117100   4.465   5.803   4.068
 5712TIP3    H217101   4.499   5.802   3.921
 5713TIP3   OH217102   3.813   0.853   3.569
 5713TIP3    H117103   3.785   0.843   3.479
 5713TIP3    H217104   3.741   0.817   3.621
 5714TIP3   OH217105   1.479   4.543   1.084
 5714TIP3    H117106   1.401   4.577   1.126
 5714TIP3    H217107   1.552   4.585   1.131
 5715TIP3   OH217108   2.284   0.762   0.700
 5715TIP3    H117109   2.255   0.675   0.728
 5715TIP3    H217110   2.351   0.745   0.634
 5716TIP3   OH217111   4.591   1.713   0.849
 5716TIP3    H117112   4.595   1.769   0.927
 5716TIP3    H217113   4.540   1.637   0.877
 5717TIP3   OH217114   1.484   4.077   3.740
 5717TIP3    H117115   1.523   4.157   3.706
 5717TIP3    H217116   1.445   4.102   3.823
 5718TIP3   OH217117   0.758   2.909   2.739
 5718TIP3    H117118   0.791   2.819   2.743
 5718TIP3    H217119   0.751   2.928   2.645
 5719TIP3   OH217120   1.738   5.709   2.964
 5719TIP3    H117121   1.788   5.773   2.914
 5719TIP3    H217122   1.679   5.762   3.018
 5720TIP3   OH217123   4.619   0.933   0.889
 5720TIP3    H117124   4.673   0.993   0.939
 5720TIP3    H217125   4.615   0.971   0.801
 5721TIP3   OH217126   6.431   6.105   1.304
 5721TIP3    H117127   6.351   6.155   1.290
 5721TIP3    H217128   6.408   6.042   1.372
 5722TIP3   OH217129   3.246   4.181   4.943
 5722TIP3    H117130   3.308   4.127   4.894
 5722TIP3    H217131   3.191   4.220   4.875
 5723TIP3   OH217132   1.830   5.518   3.540
 5723TIP3    H117133   1.821   5.593   3.598
 5723TIP3    H217134   1.925   5.506   3.531
 5724TIP3   OH217135   4.380   6.331   4.759
 5724TIP3    H117136   4.355   6.258   4.815
 5724TIP3    H217137   4.430   6.389   4.817
 5725TIP3   OH217138   0.807   0.340   1.682
 5725TIP3    H117139   0.799   0.422   1.730
 5725TIP3    H217140   0.735   0.340   1.620
 5726TIP3   OH217141   2.907   1.942   1.181
 5726TIP3    H117142   2.920   2.025   1.135
 5726TIP3    H217143   2.937   1.959   1.271
 5727TIP3   OH217144   6.723   0.229   4.760
 5727TIP3    H117145   6.799   0.189   4.801
 5727TIP3    H217146   6.649   0.200   4.814
 5728TIP3   OH217147   7.132   0.725   5.028
 5728TIP3    H117148   7.056   0.782   5.027
 5728TIP3    H217149   7.096   0.636   5.026
 5729TIP3   OH217150   2.071   1.397   3.845
 5729TIP3    H117151   1.980   1.423   3.856
 5729TIP3    H217152   2.121   1.474   3.871
 5730TIP3   OH217153   6.643   0.248   1.258
 5730TIP3    H117154   6.555   0.284   1.261
 5730TIP3    H217155   6.645   0.196   1.178
 5731TIP3   OH217156   6.776   5.084   2.679
 5731TIP3    H117157   6.713   5.155   2.670
 5731TIP3    H217158   6.824   5.105   2.760
 5732TIP3   OH217159   5.950   1.656   1.839
 5732TIP3    H117160   5.983   1.675   1.926
 5732TIP3    H217161   6.027   1.629   1.789
 5733TIP3   OH217162   4.938   0.765   4.360
 5733TIP3    H117163   5.007   0.773   4.427
 5733TIP3    H217164   4.986   0.765   4.277
 5734TIP3   OH217165   6.442   3.436   0.778
 5734TIP3    H117166   6.436   3.381   0.856
 5734TIP3    H217167   6.352   3.449   0.750
 5735TIP3   OH217168   2.373   1.890   1.602
 5735TIP3    H117169   2.444   1.901   1.539
 5735TIP3    H217170   2.418   1.875   1.685
 5736TIP3   OH217171   5.771   2.317   5.489
 5736TIP3    H117172   5.804   2.317   5.578
 5736TIP3    H217173   5.786   2.407   5.458
 5737TIP3   OH217174   0.264   3.451   2.321
 5737TIP3    H117175   0.286   3.518   2.387
 5737TIP3    H217176   0.254   3.371   2.371
 5738TIP3   OH217177   4.656   4.874   2.943
 5738TIP3    H117178   4.579   4.931   2.944
 5738TIP3    H217179   4.625   4.792   2.904
 5739TIP3   OH217180   3.999   3.439   4.212
 5739TIP3    H117181   3.993   3.480   4.298
 5739TIP3    H217182   3.940   3.364   4.218
 5740TIP3   OH217183   6.900   0.731   2.865
 5740TIP3    H117184   6.854   0.673   2.804
 5740TIP3    H217185   6.919   0.676   2.941
 5741TIP3   OH217186   0.579   4.972   5.237
 5741TIP3    H117187   0.565   4.923   5.156
 5741TIP3    H217188   0.550   4.913   5.307
 5742TIP3   OH217189   5.928   4.455   0.495
 5742TIP3    H117190   5.835   4.435   0.508
 5742TIP3    H217191   5.929   4.519   0.424
 5743TIP3   OH217192   6.359   2.531   1.826
 5743TIP3    H117193   6.360   2.497   1.915
 5743TIP3    H217194   6.335   2.623   1.836
 5744TIP3   OH217195   6.350   6.738   0.471
 5744TIP3    H117196   6.264   6.706   0.500
 5744TIP3    H217197   6.329   6.812   0.413
 5745TIP3   OH217198   2.403   0.122   0.132
 5745TIP3    H117199   2.364   0.209   0.127
 5745TIP3    H217200   2.446   0.120   0.217
 5746TIP3   OH217201   4.533   0.804   1.831
 5746TIP3    H117202   4.573   0.751   1.900
 5746TIP3    H217203   4.445   0.822   1.863
 5747TIP3   OH217204   3.333   6.629   4.035
 5747TIP3    H117205   3.297   6.590   3.956
 5747TIP3    H217206   3.287   6.585   4.107
 5748TIP3   OH217207   5.108   2.039   3.423
 5748TIP3    H117208   5.061   2.122   3.426
 5748TIP3    H217209   5.118   2.020   3.329
 5749TIP3   OH217210   5.397   1.868   5.443
 5749TIP3    H117211   5.369   1.951   5.482
 5749TIP3    H217212   5.378   1.803   5.510
 5750TIP3   OH217213   6.339   4.886   4.252
 5750TIP3    H117214   6.404   4.846   4.309
 5750TIP3    H217215   6.390   4.936   4.188
 5751TIP3   OH217216   5.159   5.972   1.805
 5751TIP3    H117217   5.166   5.882   1.838
 5751TIP3    H217218   5.132   5.961   1.714
 5752TIP3   OH217219   6.222   5.645   5.192
 5752TIP3    H117220   6.290   5.606   5.247
 5752TIP3    H217221   6.167   5.571   5.167
 5753TIP3   OH217222   0.708   4.295   2.976
 5753TIP3    H117223   0.763   4.367   3.007
 5753TIP3    H217224   0.627   4.336   2.948
 5754TIP3   OH217225   2.787   4.628   3.916
 5754TIP3    H117226   2.786   4.582   3.832
 5754TIP3    H217227   2.718   4.693   3.908
 5755TIP3   OH217228   5.679   1.818   3.013
 5755TIP3    H117229   5.619   1.754   3.052
 5755TIP3    H217230   5.669   1.896   3.067
 5756TIP3   OH217231   3.233   2.484   1.238
 5756TIP3    H117232   3.290   2.513   1.167
 5756TIP3    H217233   3.226   2.560   1.296
 5757TIP3   OH217234   5.369   6.487   4.648
 5757TIP3    H117235   5.458   6.523   4.649
 5757TIP3    H217236   5.382   6.392   4.645
 5758TIP3   OH217237   3.763   2.228   2.710
 5758TIP3    H117238   3.794   2.317   2.724
 5758TIP3    H217239   3.830   2.173   2.751
 5759TIP3   OH217240   2.016   1.368   3.449
 5759TIP3    H117241   2.072   1.309   3.398
 5759TIP3    H217242   1.985   1.432   3.385
 5760TIP3   OH217243   3.432   5.141   2.826
 5760TIP3    H117244   3.422   5.047   2.840
 5760TIP3    H217245   3.343   5.176   2.832
 5761TIP3   OH217246   6.808   0.794   0.649
 5761TIP3    H117247   6.873   0.757   0.589
 5761TIP3    H217248   6.845   0.879   0.674
 5762TIP3   OH217249   1.093   3.485   5.787
 5762TIP3    H117250   1.188   3.471   5.779
 5762TIP3    H217251   1.055   3.400   5.769
 5763TIP3   OH217252   6.324   0.119   0.433
 5763TIP3    H117253   6.230   0.137   0.434
 5763TIP3    H217254   6.350   0.131   0.341
 5764TIP3   OH217255   2.269   0.299   0.617
 5764TIP3    H117256   2.364   0.291   0.608
 5764TIP3    H217257   2.257   0.378   0.670
 5765TIP3   OH217258   5.319   1.252   3.163
 5765TIP3    H117259   5.388   1.282   3.103
 5765TIP3    H217260   5.261   1.200   3.107
 5766TIP3   OH217261   5.568   4.189   2.197
 5766TIP3    H117262   5.550   4.204   2.290
 5766TIP3    H217263   5.570   4.277   2.159
 5767TIP3   OH217264   0.450   5.794   3.704
 5767TIP3    H117265   0.497   5.725   3.656
 5767TIP3    H217266   0.403   5.747   3.773
 5768TIP3   OH217267   5.766   6.364   4.524
 5768TIP3    H117268   5.738   6.288   4.472
 5768TIP3    H217269   5.828   6.410   4.469
 5769TIP3   OH217270   2.725   0.102   1.319
 5769TIP3    H117271   2.816   0.102   1.289
 5769TIP3    H217272   2.675   0.069   1.245
 5770TIP3   OH217273   2.733   2.585   1.875
 5770TIP3    H117274   2.707   2.537   1.953
 5770TIP3    H217275   2.651   2.623   1.842
 5771TIP3   OH217276   6.064   0.332   1.374
 5771TIP3    H117277   6.052   0.266   1.305
 5771TIP3    H217278   6.102   0.407   1.328
 5772TIP3   OH217279   2.763   2.984   5.465
 5772TIP3    H117280   2.841   2.929   5.454
 5772TIP3    H217281   2.791   3.054   5.524
 5773TIP3   OH217282   6.092   4.138   3.274
 5773TIP3    H117283   6.146   4.165   3.349
 5773TIP3    H217284   6.057   4.220   3.239
 5774TIP3   OH217285   1.326   2.687   3.667
 5774TIP3    H117286   1.247   2.740   3.656
 5774TIP3    H217287   1.397   2.752   3.677
 5775TIP3   OH217288   7.014   4.226   2.614
 5775TIP3    H117289   6.976   4.162   2.554
 5775TIP3    H217290   7.084   4.268   2.564
 5776TIP3   OH217291   5.290   5.638   3.238
 5776TIP3    H117292   5.209   5.634   3.289
 5776TIP3    H217293   5.358   5.661   3.301
 5777TIP3   OH217294   5.370   6.540   2.194
 5777TIP3    H117295   5.429   6.523   2.120
 5777TIP3    H217296   5.376   6.461   2.247
 5778TIP3   OH217297   6.793   6.491   5.070
 5778TIP3    H117298   6.819   6.461   5.156
 5778TIP3    H217299   6.795   6.587   5.076
 5779TIP3   OH217300   3.570   1.363   1.408
 5779TIP3    H117301   3.558   1.450   1.446
 5779TIP3    H217302   3.661   1.362   1.379
 5780TIP3   OH217303   6.156   6.179   1.312
 5780TIP3    H117304   6.128   6.193   1.222
 5780TIP3    H217305   6.120   6.253   1.360
 5781TIP3   OH217306   4.964   3.850   1.357
 5781TIP3    H117307   5.059   3.854   1.353
 5781TIP3    H217308   4.934   3.884   1.273
 5782TIP3   OH217309   2.021   3.519   2.496
 5782TIP3    H117310   1.928   3.542   2.503
 5782TIP3    H217311   2.029   3.436   2.543
 5783TIP3   OH217312   3.100   5.330   0.395
 5783TIP3    H117313   3.056   5.379   0.325
 5783TIP3    H217314   3.159   5.395   0.435
 5784TIP3   OH217315   3.504   4.246   3.546
 5784TIP3    H117316   3.544   4.329   3.519
 5784TIP3    H217317   3.442   4.270   3.614
 5785TIP3   OH217318   0.350   3.622   0.978
 5785TIP3    H117319   0.311   3.604   1.064
 5785TIP3    H217320   0.431   3.572   0.977
 5786TIP3   OH217321   4.488   1.994   3.813
 5786TIP3    H117322   4.398   2.013   3.839
 5786TIP3    H217323   4.531   1.967   3.894
 5787TIP3   OH217324   1.424   2.393   0.741
 5787TIP3    H117325   1.434   2.452   0.667
 5787TIP3    H217326   1.335   2.361   0.734
 5788TIP3   OH217327   0.066   5.199   5.687
 5788TIP3    H117328   0.012   5.125   5.716
 5788TIP3    H217329   0.104   5.171   5.604
 5789TIP3   OH217330   2.145   3.920   3.556
 5789TIP3    H117331   2.123   3.917   3.463
 5789TIP3    H217332   2.234   3.885   3.560
 5790TIP3   OH217333   0.169   4.400   1.333
 5790TIP3    H117334   0.238   4.410   1.398
 5790TIP3    H217335   0.214   4.374   1.253
 5791TIP3   OH217336   4.863   1.865   4.906
 5791TIP3    H117337   4.863   1.961   4.912
 5791TIP3    H217338   4.881   1.836   4.996
 5792TIP3   OH217339   1.933   3.621   5.333
 5792TIP3    H117340   2.023   3.601   5.355
 5792TIP3    H217341   1.888   3.537   5.335
 5793TIP3   OH217342   6.363   5.182   5.815
 5793TIP3    H117343   6.453   5.160   5.790
 5793TIP3    H217344   6.370   5.211   5.906
 5794TIP3   OH217345   4.077   2.924   4.424
 5794TIP3    H117346   4.118   2.947   4.340
 5794TIP3    H217347   4.006   2.866   4.400
 5795TIP3   OH217348   6.289   6.294   1.649
 5795TIP3    H117349   6.366   6.302   1.593
 5795TIP3    H217350   6.216   6.323   1.594
 5796TIP3   OH217351   1.862   1.969   5.808
 5796TIP3    H117352   1.823   2.053   5.782
 5796TIP3    H217353   1.814   1.944   5.887
 5797TIP3   OH217354   4.401   0.329   3.873
 5797TIP3    H117355   4.496   0.321   3.883
 5797TIP3    H217356   4.365   0.282   3.949
 5798TIP3   OH217357   1.989   4.080   0.126
 5798TIP3    H117358   1.952   4.148   0.069
 5798TIP3    H217359   1.999   4.003   0.069
 5799TIP3   OH217360   1.803   0.775   3.199
 5799TIP3    H117361   1.787   0.741   3.111
 5799TIP3    H217362   1.895   0.804   3.198
 5800TIP3   OH217363   6.191   1.401   0.879
 5800TIP3    H117364   6.141   1.331   0.837
 5800TIP3    H217365   6.158   1.481   0.839
 5801TIP3   OH217366   4.432   2.212   4.609
 5801TIP3    H117367   4.493   2.139   4.607
 5801TIP3    H217368   4.454   2.259   4.690
 5802TIP3   OH217369   3.906   5.098   3.563
 5802TIP3    H117370   3.948   5.019   3.529
 5802TIP3    H217371   3.978   5.152   3.595
 5803TIP3   OH217372   3.280   4.691   2.087
 5803TIP3    H117373   3.228   4.708   2.008
 5803TIP3    H217374   3.226   4.632   2.139
 5804TIP3   OH217375   1.009   1.947   1.769
 5804TIP3    H117376   0.970   1.996   1.696
 5804TIP3    H217377   1.101   1.940   1.746
 5805TIP3   OH217378   5.592   0.174   2.696
 5805TIP3    H117379   5.562   0.183   2.786
 5805TIP3    H217380   5.597   0.264   2.663
 5806TIP3   OH217381   1.373   6.252   0.391
 5806TIP3    H117382   1.372   6.157   0.382
 5806TIP3    H217383   1.335   6.269   0.477
 5807TIP3   OH217384   3.517   4.309   2.265
 5807TIP3    H117385   3.548   4.399   2.273
 5807TIP3    H217386   3.545   4.266   2.346
 5808TIP3   OH217387   3.587   1.451   4.720
 5808TIP3    H117388   3.584   1.547   4.715
 5808TIP3    H217389   3.661   1.426   4.666
 5809TIP3   OH217390   6.784   6.778   5.103
 5809TIP3    H117391   6.692   6.797   5.122
 5809TIP3    H217392   6.830   6.797   5.185
 5810TIP3   OH217393   1.377   0.956   3.812
 5810TIP3    H117394   1.417   0.882   3.767
 5810TIP3    H217395   1.285   0.955   3.786
 5811TIP3   OH217396   6.026   3.702   2.281
 5811TIP3    H117397   6.074   3.708   2.364
 5811TIP3    H217398   6.095   3.699   2.214
 5812TIP3   OH217399   2.924   6.289   3.232
 5812TIP3    H117400   2.936   6.248   3.317
 5812TIP3    H217401   2.939   6.382   3.248
 5813TIP3   OH217402   2.248   0.393   1.963
 5813TIP3    H117403   2.267   0.409   2.056
 5813TIP3    H217404   2.334   0.386   1.922
 5814TIP3   OH217405   4.264   2.924   5.680
 5814TIP3    H117406   4.282   2.845   5.732
 5814TIP3    H217407   4.282   2.996   5.741
 5815TIP3   OH217408   6.551   0.453   5.535
 5815TIP3    H117409   6.528   0.437   5.627
 5815TIP3    H217410   6.627   0.397   5.519
 5816TIP3   OH217411   6.934   1.147   4.915
 5816TIP3    H117412   6.988   1.124   4.840
 5816TIP3    H217413   6.949   1.077   4.979
 5817TIP3   OH217414   6.466   4.416   4.330
 5817TIP3    H117415   6.525   4.342   4.318
 5817TIP3    H217416   6.513   4.476   4.388
 5818TIP3   OH217417   4.103   1.071   3.949
 5818TIP3    H117418   4.038   1.069   3.878
 5818TIP3    H217419   4.085   1.152   3.995
 5819TIP3   OH217420   5.997   0.912   3.222
 5819TIP3    H117421   5.907   0.895   3.250
 5819TIP3    H217422   5.988   0.946   3.133
 5820TIP3   OH217423   2.974   2.977   3.964
 5820TIP3    H117424   3.020   3.049   3.921
 5820TIP3    H217425   2.932   3.017   4.040
 5821TIP3   OH217426   4.403   5.596   0.884
 5821TIP3    H117427   4.475   5.536   0.906
 5821TIP3    H217428   4.374   5.630   0.969
 5822TIP3   OH217429   1.275   4.220   2.353
 5822TIP3    H117430   1.213   4.166   2.304
 5822TIP3    H217431   1.256   4.200   2.445
 5823TIP3   OH217432   5.410   2.125   2.770
 5823TIP3    H117433   5.389   2.147   2.679
 5823TIP3    H217434   5.450   2.205   2.805
 5824TIP3   OH217435   3.314   1.282   0.709
 5824TIP3    H117436   3.402   1.247   0.692
 5824TIP3    H217437   3.326   1.377   0.713
 5825TIP3   OH217438   2.605   2.457   2.583
 5825TIP3    H117439   2.629   2.429   2.672
 5825TIP3    H217440   2.558   2.382   2.546
 5826TIP3   OH217441   3.398   5.009   1.882
 5826TIP3    H117442   3.371   4.960   1.804
 5826TIP3    H217443   3.317   5.046   1.916
 5827TIP3   OH217444   5.562   0.620   2.424
 5827TIP3    H117445   5.593   0.688   2.364
 5827TIP3    H217446   5.491   0.661   2.473
 5828TIP3   OH217447   4.165   3.276   1.961
 5828TIP3    H117448   4.105   3.241   2.027
 5828TIP3    H217449   4.180   3.366   1.989
 5829TIP3   OH217450   6.666   3.046   2.403
 5829TIP3    H117451   6.633   2.982   2.340
 5829TIP3    H217452   6.591   3.102   2.422
 5830TIP3   OH217453   5.476   1.461   2.483
 5830TIP3    H117454   5.469   1.508   2.400
 5830TIP3    H217455   5.533   1.387   2.464
 5831TIP3   OH217456   0.704   5.468   4.171
 5831TIP3    H117457   0.615   5.435   4.172
 5831TIP3    H217458   0.720   5.492   4.079
 5832TIP3   OH217459   5.947   1.625   5.215
 5832TIP3    H117460   5.942   1.543   5.264
 5832TIP3    H217461   5.929   1.600   5.125
 5833TIP3   OH217462   5.953   1.188   1.133
 5833TIP3    H117463   6.021   1.128   1.103
 5833TIP3    H217464   5.999   1.250   1.190
 5834TIP3   OH217465   0.498   4.341   3.539
 5834TIP3    H117466   0.581   4.298   3.561
 5834TIP3    H217467   0.522   4.433   3.524
 5835TIP3   OH217468   0.887   1.100   4.057
 5835TIP3    H117469   0.808   1.142   4.023
 5835TIP3    H217470   0.884   1.117   4.151
 5836TIP3   OH217471   6.692   2.969   0.414
 5836TIP3    H117472   6.607   3.014   0.419
 5836TIP3    H217473   6.709   2.959   0.320
 5837TIP3   OH217474   3.645   5.462   4.855
 5837TIP3    H117475   3.712   5.415   4.903
 5837TIP3    H217476   3.686   5.486   4.772
 5838TIP3   OH217477   4.309   6.551   0.586
 5838TIP3    H117478   4.257   6.624   0.554
 5838TIP3    H217479   4.374   6.536   0.517
 5839TIP3   OH217480   4.631   0.599   0.678
 5839TIP3    H117481   4.726   0.593   0.664
 5839TIP3    H217482   4.621   0.667   0.744
 5840TIP3   OH217483   3.333   4.913   5.270
 5840TIP3    H117484   3.413   4.933   5.221
 5840TIP3    H217485   3.267   4.971   5.233
 5841TIP3   OH217486   6.966   1.194   4.254
 5841TIP3    H117487   6.893   1.230   4.305
 5841TIP3    H217488   6.924   1.143   4.185
 5842TIP3   OH217489   5.076   3.523   3.886
 5842TIP3    H117490   5.021   3.558   3.816
 5842TIP3    H217491   5.163   3.558   3.868
 5843TIP3   OH217492   3.602   4.493   3.507
 5843TIP3    H117493   3.536   4.534   3.451
 5843TIP3    H217494   3.568   4.505   3.596
 5844TIP3   OH217495   6.260   5.739   1.656
 5844TIP3    H117496   6.291   5.651   1.679
 5844TIP3    H217497   6.320   5.769   1.587
 5845TIP3   OH217498   1.809   2.468   4.107
 5845TIP3    H117499   1.767   2.553   4.114
 5845TIP3    H217500   1.739   2.405   4.125
 5846TIP3   OH217501   2.614   5.181   2.430
 5846TIP3    H117502   2.630   5.239   2.355
 5846TIP3    H217503   2.579   5.238   2.498
 5847TIP3   OH217504   1.947   1.447   4.347
 5847TIP3    H117505   2.024   1.390   4.344
 5847TIP3    H217506   1.929   1.458   4.440
 5848TIP3   OH217507   7.212   1.964   2.936
 5848TIP3    H117508   7.127   1.922   2.949
 5848TIP3    H217509   7.274   1.891   2.937
 5849TIP3   OH217510   6.922   5.772   1.798
 5849TIP3    H117511   7.006   5.738   1.767
 5849TIP3    H217512   6.903   5.845   1.739
 5850TIP3   OH217513   5.675   4.351   0.570
 5850TIP3    H117514   5.644   4.357   0.661
 5850TIP3    H217515   5.641   4.267   0.539
 5851TIP3   OH217516   3.735   3.386   1.585
 5851TIP3    H117517   3.702   3.476   1.588
 5851TIP3    H217518   3.690   3.342   1.657
 5852TIP3   OH217519   2.663   1.958   1.692
 5852TIP3    H117520   2.627   2.047   1.687
 5852TIP3    H217521   2.757   1.971   1.694
 5853TIP3   OH217522   1.820   5.260   0.914
 5853TIP3    H117523   1.887   5.233   0.977
 5853TIP3    H217524   1.870   5.293   0.839
 5854TIP3   OH217525   3.680   0.979   2.605
 5854TIP3    H117526   3.697   0.993   2.512
 5854TIP3    H217527   3.739   0.908   2.630
 5855TIP3   OH217528   2.849   1.621   5.220
 5855TIP3    H117529   2.844   1.715   5.205
 5855TIP3    H217530   2.768   1.599   5.265
 5856TIP3   OH217531   1.128   0.649   4.295
 5856TIP3    H117532   1.128   0.649   4.391
 5856TIP3    H217533   1.217   0.622   4.271
 5857TIP3   OH217534   3.543   2.213   2.521
 5857TIP3    H117535   3.500   2.279   2.468
 5857TIP3    H217536   3.625   2.254   2.550
 5858TIP3   OH217537   4.685   2.842   1.763
 5858TIP3    H117538   4.618   2.891   1.811
 5858TIP3    H217539   4.765   2.894   1.775
 5859TIP3   OH217540   5.157   4.503   5.749
 5859TIP3    H117541   5.252   4.511   5.735
 5859TIP3    H217542   5.119   4.528   5.665
 5860TIP3   OH217543   3.238   1.349   5.827
 5860TIP3    H117544   3.263   1.261   5.799
 5860TIP3    H217545   3.154   1.365   5.784
 5861TIP3   OH217546   3.599   6.223   0.246
 5861TIP3    H117547   3.650   6.188   0.173
 5861TIP3    H217548   3.627   6.314   0.254
 5862TIP3   OH217549   5.514   0.369   2.521
 5862TIP3    H117550   5.426   0.368   2.484
 5862TIP3    H217551   5.550   0.454   2.494
 5863TIP3   OH217552   2.070   4.341   4.087
 5863TIP3    H117553   2.043   4.256   4.053
 5863TIP3    H217554   2.166   4.337   4.088
 5864TIP3   OH217555   6.304   1.825   5.596
 5864TIP3    H117556   6.243   1.758   5.567
 5864TIP3    H217557   6.252   1.905   5.598
 5865TIP3   OH217558   6.999   1.163   1.193
 5865TIP3    H117559   7.045   1.116   1.124
 5865TIP3    H217560   6.990   1.252   1.160
 5866TIP3   OH217561   4.450   3.579   5.270
 5866TIP3    H117562   4.509   3.552   5.341
 5866TIP3    H217563   4.485   3.664   5.242
 5867TIP3   OH217564   6.308   0.708   4.109
 5867TIP3    H117565   6.303   0.803   4.110
 5867TIP3    H217566   6.309   0.684   4.017
 5868TIP3   OH217567   1.350   2.763   0.720
 5868TIP3    H117568   1.347   2.736   0.628
 5868TIP3    H217569   1.442   2.783   0.737
 5869TIP3   OH217570   4.484   2.601   0.880
 5869TIP3    H117571   4.447   2.672   0.933
 5869TIP3    H217572   4.579   2.614   0.884
 5870TIP3   OH217573   5.895   3.322   2.292
 5870TIP3    H117574   5.814   3.358   2.329
 5870TIP3    H217575   5.902   3.362   2.205
 5871TIP3   OH217576   1.779   0.941   2.063
 5871TIP3    H117577   1.824   0.917   1.982
 5871TIP3    H217578   1.843   0.925   2.133
 5872TIP3   OH217579   3.012   0.321   4.238
 5872TIP3    H117580   2.918   0.302   4.243
 5872TIP3    H217581   3.045   0.263   4.169
 5873TIP3   OH217582   6.829   3.430   4.669
 5873TIP3    H117583   6.809   3.523   4.677
 5873TIP3    H217584   6.756   3.387   4.713
 5874TIP3   OH217585   3.378   5.168   3.174
 5874TIP3    H117586   3.423   5.094   3.135
 5874TIP3    H217587   3.314   5.129   3.233
 5875TIP3   OH217588   2.765   4.789   1.050
 5875TIP3    H117589   2.847   4.752   1.017
 5875TIP3    H217590   2.755   4.751   1.138
 5876TIP3   OH217591   4.547   5.323   0.588
 5876TIP3    H117592   4.607   5.249   0.600
 5876TIP3    H217593   4.471   5.285   0.545
 5877TIP3   OH217594   5.652   4.304   4.599
 5877TIP3    H117595   5.618   4.280   4.513
 5877TIP3    H217596   5.616   4.238   4.659
 5878TIP3   OH217597   0.905   6.498   0.617
 5878TIP3    H117598   0.957   6.573   0.647
 5878TIP3    H217599   0.971   6.430   0.600
 5879TIP3   OH217600   0.400   1.976   3.734
 5879TIP3    H117601   0.408   2.067   3.760
 5879TIP3    H217602   0.426   1.926   3.811
 5880TIP3   OH217603   0.481   3.637   3.738
 5880TIP3    H117604   0.396   3.660   3.775
 5880TIP3    H217605   0.543   3.698   3.778
 5881TIP3   OH217606   0.169   2.941   0.318
 5881TIP3    H117607   0.111   2.986   0.379
 5881TIP3    H217608   0.145   2.849   0.325
 5882TIP3   OH217609   4.860   0.540   2.976
 5882TIP3    H117610   4.857   0.494   3.060
 5882TIP3    H217611   4.951   0.534   2.949
 5883TIP3   OH217612   3.907   4.712   1.532
 5883TIP3    H117613   3.837   4.706   1.598
 5883TIP3    H217614   3.984   4.740   1.582
 5884TIP3   OH217615   4.194   5.719   1.075
 5884TIP3    H117616   4.248   5.738   1.152
 5884TIP3    H217617   4.165   5.629   1.088
 5885TIP3   OH217618   2.204   1.043   2.211
 5885TIP3    H117619   2.192   1.054   2.116
 5885TIP3    H217620   2.274   0.979   2.219
 5886TIP3   OH217621   0.185   2.353   5.258
 5886TIP3    H117622   0.279   2.368   5.269
 5886TIP3    H217623   0.179   2.299   5.179
 5887TIP3   OH217624   1.012   3.763   3.803
 5887TIP3    H117625   0.976   3.844   3.768
 5887TIP3    H217626   0.993   3.697   3.736
 5888TIP3   OH217627   2.430   2.238   1.854
 5888TIP3    H117628   2.497   2.268   1.792
 5888TIP3    H217629   2.361   2.201   1.799
 5889TIP3   OH217630   1.062   4.290   3.390
 5889TIP3    H117631   1.129   4.242   3.440
 5889TIP3    H217632   0.979   4.262   3.428
 5890TIP3   OH217633   6.063   0.463   3.456
 5890TIP3    H117634   6.136   0.405   3.435
 5890TIP3    H217635   6.056   0.460   3.551
 5891TIP3   OH217636   5.855   0.558   3.252
 5891TIP3    H117637   5.887   0.496   3.187
 5891TIP3    H217638   5.914   0.548   3.326
 5892TIP3   OH217639   0.067   2.840   0.673
 5892TIP3    H117640   0.046   2.903   0.605
 5892TIP3    H217641   0.126   2.887   0.732
 5893TIP3   OH217642   2.960   4.754   5.775
 5893TIP3    H117643   3.043   4.756   5.727
 5893TIP3    H217644   2.963   4.672   5.824
 5894TIP3   OH217645   3.721   1.725   5.800
 5894TIP3    H117646   3.768   1.656   5.752
 5894TIP3    H217647   3.732   1.701   5.892
 5895TIP3   OH217648   6.930   5.597   0.519
 5895TIP3    H117649   6.998   5.531   0.513
 5895TIP3    H217650   6.904   5.598   0.611
 5896TIP3   OH217651   3.960   2.367   3.229
 5896TIP3    H117652   4.040   2.347   3.277
 5896TIP3    H217653   3.946   2.460   3.244
 5897TIP3   OH217654   4.484   0.620   3.203
 5897TIP3    H117655   4.478   0.525   3.206
 5897TIP3    H217656   4.457   0.644   3.114
 5898TIP3   OH217657   0.192   1.079   1.380
 5898TIP3    H117658   0.262   1.091   1.316
 5898TIP3    H217659   0.175   1.167   1.414
 5899TIP3   OH217660   3.381   1.574   0.908
 5899TIP3    H117661   3.371   1.668   0.927
 5899TIP3    H217662   3.367   1.531   0.992
 5900TIP3   OH217663   6.859   6.854   2.857
 5900TIP3    H117664   6.856   6.761   2.835
 5900TIP3    H217665   6.863   6.855   2.953
 5901TIP3   OH217666   0.515   4.077   1.447
 5901TIP3    H117667   0.602   4.041   1.435
 5901TIP3    H217668   0.456   4.014   1.406
 5902TIP3   OH217669   5.569   6.607   2.692
 5902TIP3    H117670   5.486   6.645   2.721
 5902TIP3    H217671   5.559   6.598   2.597
 5903TIP3   OH217672   4.091   0.614   5.085
 5903TIP3    H117673   4.145   0.662   5.022
 5903TIP3    H217674   4.138   0.623   5.168
 5904TIP3   OH217675   4.520   1.661   1.745
 5904TIP3    H117676   4.586   1.644   1.812
 5904TIP3    H217677   4.553   1.618   1.667
 5905TIP3   OH217678   0.089   6.074   0.707
 5905TIP3    H117679   0.129   6.129   0.774
 5905TIP3    H217680   0.122   5.986   0.725
 5906TIP3   OH217681   0.698   4.939   2.612
 5906TIP3    H117682   0.778   4.924   2.662
 5906TIP3    H217683   0.651   5.006   2.662
 5907TIP3   OH217684   5.287   0.056   1.339
 5907TIP3    H117685   5.345   0.023   1.270
 5907TIP3    H217686   5.200   0.053   1.299
 5908TIP3   OH217687   6.126   0.520   4.393
 5908TIP3    H117688   6.143   0.581   4.464
 5908TIP3    H217689   6.207   0.520   4.342
 5909TIP3   OH217690   1.002   0.346   0.104
 5909TIP3    H117691   0.944   0.402   0.155
 5909TIP3    H217692   0.957   0.261   0.101
 5910TIP3   OH217693   3.605   5.873   4.140
 5910TIP3    H117694   3.651   5.926   4.206
 5910TIP3    H217695   3.663   5.799   4.125
 5911TIP3   OH217696   6.521   6.323   1.498
 5911TIP3    H117697   6.537   6.281   1.413
 5911TIP3    H217698   6.609   6.336   1.534
 5912TIP3   OH217699   6.349   4.177   1.832
 5912TIP3    H117700   6.359   4.081   1.832
 5912TIP3    H217701   6.316   4.197   1.919
 5913TIP3   OH217702   6.133   0.260   2.960
 5913TIP3    H117703   6.145   0.292   2.870
 5913TIP3    H217704   6.063   0.195   2.953
 5914TIP3   OH217705   5.445   2.283   4.691
 5914TIP3    H117706   5.452   2.283   4.787
 5914TIP3    H217707   5.478   2.368   4.664
 5915TIP3   OH217708   0.472   6.733   4.411
 5915TIP3    H117709   0.413   6.775   4.349
 5915TIP3    H217710   0.529   6.678   4.357
 5916TIP3   OH217711   1.710   3.642   4.117
 5916TIP3    H117712   1.629   3.599   4.091
 5916TIP3    H217713   1.762   3.572   4.158
 5917TIP3   OH217714   0.457   0.572   4.481
 5917TIP3    H117715   0.399   0.498   4.500
 5917TIP3    H217716   0.399   0.648   4.480
 5918TIP3   OH217717   4.608   2.379   1.133
 5918TIP3    H117718   4.520   2.376   1.095
 5918TIP3    H217719   4.605   2.450   1.198
 5919TIP3   OH217720   5.460   2.952   2.342
 5919TIP3    H117721   5.416   2.894   2.404
 5919TIP3    H217722   5.443   3.040   2.375
 5920TIP3   OH217723   4.871   1.107   3.710
 5920TIP3    H117724   4.911   1.034   3.662
 5920TIP3    H217725   4.812   1.148   3.647
 5921TIP3   OH217726   6.006   0.072   5.093
 5921TIP3    H117727   5.980   0.143   5.035
 5921TIP3    H217728   6.080   0.030   5.049
 5922TIP3   OH217729   1.065   3.895   1.211
 5922TIP3    H117730   1.137   3.897   1.149
 5922TIP3    H217731   0.987   3.889   1.157
 5923TIP3   OH217732   4.501   4.489   4.614
 5923TIP3    H117733   4.504   4.536   4.531
 5923TIP3    H217734   4.590   4.496   4.649
 5924TIP3   OH217735   7.065   6.273   4.312
 5924TIP3    H117736   7.142   6.254   4.366
 5924TIP3    H217737   6.994   6.222   4.353
 5925TIP3   OH217738   4.181   1.557   5.405
 5925TIP3    H117739   4.136   1.496   5.463
 5925TIP3    H217740   4.120   1.570   5.332
 5926TIP3   OH217741   7.016   4.134   3.626
 5926TIP3    H117742   6.921   4.123   3.629
 5926TIP3    H217743   7.044   4.080   3.552
 5927TIP3   OH217744   4.769   5.409   3.719
 5927TIP3    H117745   4.793   5.434   3.809
 5927TIP3    H217746   4.824   5.333   3.700
 5928TIP3   OH217747   4.962   4.825   5.457
 5928TIP3    H117748   5.051   4.798   5.479
 5928TIP3    H217749   4.909   4.747   5.471
 5929TIP3   OH217750   0.147   3.782   0.645
 5929TIP3    H117751   0.192   3.698   0.650
 5929TIP3    H217752   0.218   3.847   0.646
 5930TIP3   OH217753   3.331   4.266   3.754
 5930TIP3    H117754   3.240   4.276   3.782
 5930TIP3    H217755   3.382   4.282   3.833
 5931TIP3   OH217756   4.787   4.603   3.119
 5931TIP3    H117757   4.808   4.696   3.110
 5931TIP3    H217758   4.871   4.559   3.110
 5932TIP3   OH217759   6.547   4.235   5.208
 5932TIP3    H117760   6.606   4.164   5.182
 5932TIP3    H217761   6.533   4.221   5.302
 5933TIP3   OH217762   1.688   0.449   0.270
 5933TIP3    H117763   1.649   0.495   0.344
 5933TIP3    H217764   1.667   0.357   0.285
 5934TIP3   OH217765   3.954   0.208   3.076
 5934TIP3    H117766   4.046   0.192   3.058
 5934TIP3    H217767   3.915   0.121   3.081
 5935TIP3   OH217768   4.813   3.278   4.594
 5935TIP3    H117769   4.886   3.252   4.538
 5935TIP3    H217770   4.850   3.345   4.652
 5936TIP3   OH217771   6.380   1.445   4.589
 5936TIP3    H117772   6.354   1.353   4.591
 5936TIP3    H217773   6.313   1.490   4.641
 5937TIP3   OH217774   3.241   2.040   1.431
 5937TIP3    H117775   3.296   2.094   1.375
 5937TIP3    H217776   3.220   1.963   1.378
 5938TIP3   OH217777   2.278   2.372   4.352
 5938TIP3    H117778   2.236   2.448   4.392
 5938TIP3    H217779   2.316   2.323   4.425
 5939TIP3   OH217780   1.268   1.013   3.243
 5939TIP3    H117781   1.284   1.067   3.320
 5939TIP3    H217782   1.286   1.072   3.169
 5940TIP3   OH217783   3.576   6.268   5.052
 5940TIP3    H117784   3.613   6.355   5.034
 5940TIP3    H217785   3.481   6.280   5.047
 5941TIP3   OH217786   5.069   1.363   0.156
 5941TIP3    H117787   5.143   1.420   0.175
 5941TIP3    H217788   5.025   1.352   0.241
 5942TIP3   OH217789   7.031   0.470   2.570
 5942TIP3    H117790   7.011   0.546   2.515
 5942TIP3    H217791   6.947   0.445   2.608
 5943TIP3   OH217792   3.018   1.694   3.925
 5943TIP3    H117793   3.046   1.671   4.013
 5943TIP3    H217794   3.029   1.790   3.921
 5944TIP3   OH217795   4.637   0.777   2.959
 5944TIP3    H117796   4.720   0.748   2.996
 5944TIP3    H217797   4.620   0.717   2.887
 5945TIP3   OH217798   5.674   0.647   2.146
 5945TIP3    H117799   5.639   0.560   2.128
 5945TIP3    H217800   5.766   0.632   2.168
 5946TIP3   OH217801   0.847   0.877   0.447
 5946TIP3    H117802   0.821   0.806   0.505
 5946TIP3    H217803   0.919   0.920   0.492
 5947TIP3   OH217804   3.568   3.592   4.257
 5947TIP3    H117805   3.627   3.616   4.328
 5947TIP3    H217806   3.603   3.511   4.222
 5948TIP3   OH217807   3.772   3.875   4.663
 5948TIP3    H117808   3.681   3.861   4.692
 5948TIP3    H217809   3.768   3.955   4.610
 5949TIP3   OH217810   1.976   5.798   3.419
 5949TIP3    H117811   2.024   5.720   3.393
 5949TIP3    H217812   2.023   5.871   3.378
 5950TIP3   OH217813   5.345   4.624   3.583
 5950TIP3    H117814   5.324   4.571   3.506
 5950TIP3    H217815   5.365   4.711   3.547
 5951TIP3   OH217816   3.584   4.962   5.172
 5951TIP3    H117817   3.566   4.905   5.097
 5951TIP3    H217818   3.660   5.013   5.145
 5952TIP3   OH217819   6.895   2.048   3.241
 5952TIP3    H117820   6.982   2.074   3.272
 5952TIP3    H217821   6.836   2.115   3.276
 5953TIP3   OH217822   4.503   2.693   0.247
 5953TIP3    H117823   4.595   2.693   0.221
 5953TIP3    H217824   4.502   2.652   0.334
 5954TIP3   OH217825   4.877   3.502   5.438
 5954TIP3    H117826   4.844   3.551   5.513
 5954TIP3    H217827   4.969   3.527   5.432
 5955TIP3   OH217828   6.254   2.425   5.839
 5955TIP3    H117829   6.197   2.364   5.793
 5955TIP3    H217830   6.332   2.432   5.783
 5956TIP3   OH217831   0.399   2.116   5.357
 5956TIP3    H117832   0.335   2.076   5.299
 5956TIP3    H217833   0.378   2.209   5.355
 5957TIP3   OH217834   6.024   3.871   4.924
 5957TIP3    H117835   5.931   3.858   4.910
 5957TIP3    H217836   6.060   3.782   4.926
 5958TIP3   OH217837   0.919   1.180   0.441
 5958TIP3    H117838   0.893   1.192   0.349
 5958TIP3    H217839   0.836   1.164   0.487
 5959TIP3   OH217840   3.560   3.484   5.674
 5959TIP3    H117841   3.507   3.552   5.632
 5959TIP3    H217842   3.521   3.402   5.644
 5960TIP3   OH217843   4.182   4.961   5.543
 5960TIP3    H117844   4.122   4.959   5.469
 5960TIP3    H217845   4.199   5.055   5.557
 5961TIP3   OH217846   6.943   0.745   0.427
 5961TIP3    H117847   6.932   0.840   0.427
 5961TIP3    H217848   6.928   0.719   0.336
 5962TIP3   OH217849   3.691   3.207   0.715
 5962TIP3    H117850   3.777   3.186   0.752
 5962TIP3    H217851   3.710   3.259   0.637
 5963TIP3   OH217852   2.035   4.038   0.397
 5963TIP3    H117853   2.012   4.021   0.306
 5963TIP3    H217854   2.130   4.029   0.400
 5964TIP3   OH217855   6.058   0.742   1.519
 5964TIP3    H117856   6.133   0.700   1.478
 5964TIP3    H217857   6.049   0.826   1.473
 5965TIP3   OH217858   3.380   6.131   0.653
 5965TIP3    H117859   3.439   6.116   0.579
 5965TIP3    H217860   3.308   6.069   0.640
 5966TIP3   OH217861   2.687   1.312   5.321
 5966TIP3    H117862   2.720   1.227   5.290
 5966TIP3    H217863   2.720   1.320   5.410
 5967TIP3   OH217864   5.509   2.860   3.947
 5967TIP3    H117865   5.587   2.916   3.951
 5967TIP3    H217866   5.543   2.771   3.956
 5968TIP3   OH217867   0.765   6.355   2.718
 5968TIP3    H117868   0.748   6.383   2.809
 5968TIP3    H217869   0.771   6.260   2.724
 5969TIP3   OH217870   6.149   6.541   3.411
 5969TIP3    H117871   6.233   6.580   3.387
 5969TIP3    H217872   6.103   6.527   3.328
 5970TIP3   OH217873   4.028   0.765   4.141
 5970TIP3    H117874   4.122   0.765   4.122
 5970TIP3    H217875   3.987   0.756   4.055
 5971TIP3   OH217876   0.783   1.704   0.071
 5971TIP3    H117877   0.701   1.683   0.027
 5971TIP3    H217878   0.846   1.719   0.000
 5972TIP3   OH217879   6.584   6.721   2.587
 5972TIP3    H117880   6.666   6.689   2.624
 5972TIP3    H217881   6.610   6.781   2.518
 5973TIP3   OH217882   0.766   0.446   4.218
 5973TIP3    H117883   0.777   0.478   4.308
 5973TIP3    H217884   0.844   0.477   4.172
 5974TIP3   OH217885   6.512   5.511   4.514
 5974TIP3    H117886   6.512   5.597   4.473
 5974TIP3    H217887   6.439   5.513   4.576
 5975TIP3   OH217888   2.231   1.652   5.585
 5975TIP3    H117889   2.155   1.596   5.570
 5975TIP3    H217890   2.234   1.663   5.680
 5976TIP3   OH217891   4.656   4.057   5.367
 5976TIP3    H117892   4.738   4.009   5.356
 5976TIP3    H217893   4.669   4.139   5.319
 5977TIP3   OH217894   1.493   0.105   5.916
 5977TIP3    H117895   1.507   0.058   5.835
 5977TIP3    H217896   1.401   0.131   5.914
 5978TIP3   OH217897   1.901   1.802   0.421
 5978TIP3    H117898   1.861   1.723   0.457
 5978TIP3    H217899   1.837   1.871   0.439
 5979TIP3   OH217900   6.374   0.064   4.087
 5979TIP3    H117901   6.381   0.128   4.158
 5979TIP3    H217902   6.357   0.117   4.009
 5980TIP3   OH217903   0.428   3.779   5.279
 5980TIP3    H117904   0.491   3.760   5.209
 5980TIP3    H217905   0.345   3.746   5.247
 5981TIP3   OH217906   3.089   6.648   4.962
 5981TIP3    H117907   3.132   6.691   5.037
 5981TIP3    H217908   3.161   6.610   4.912
 5982TIP3   OH217909   0.784   0.937   4.337
 5982TIP3    H117910   0.778   0.906   4.428
 5982TIP3    H217911   0.877   0.933   4.317
 5983TIP3   OH217912   5.706   1.957   2.343
 5983TIP3    H117913   5.680   1.949   2.434
 5983TIP3    H217914   5.715   1.867   2.313
 5984TIP3   OH217915   5.180   3.239   2.348
 5984TIP3    H117916   5.115   3.219   2.281
 5984TIP3    H217917   5.166   3.331   2.369
 5985TIP3   OH217918   5.202   3.615   1.238
 5985TIP3    H117919   5.248   3.605   1.321
 5985TIP3    H217920   5.205   3.709   1.220
 5986TIP3   OH217921   5.271   5.897   4.705
 5986TIP3    H117922   5.184   5.933   4.724
 5986TIP3    H217923   5.293   5.932   4.619
 5987TIP3   OH217924   6.303   5.920   0.396
 5987TIP3    H117925   6.347   5.836   0.386
 5987TIP3    H217926   6.212   5.902   0.373
 5988TIP3   OH217927   3.558   6.445   3.823
 5988TIP3    H117928   3.653   6.444   3.814
 5988TIP3    H217929   3.538   6.372   3.881
 5989TIP3   OH217930   0.202   3.216   5.475
 5989TIP3    H117931   0.117   3.172   5.471
 5989TIP3    H217932   0.256   3.157   5.528
 5990TIP3   OH217933   1.773   2.806   3.445
 5990TIP3    H117934   1.858   2.846   3.423
 5990TIP3    H217935   1.783   2.714   3.420
 5991TIP3   OH217936   0.414   0.676   0.883
 5991TIP3    H117937   0.365   0.757   0.867
 5991TIP3    H217938   0.502   0.705   0.903
 5992TIP3   OH217939   0.644   3.394   3.736
 5992TIP3    H117940   0.671   3.469   3.682
 5992TIP3    H217941   0.554   3.415   3.761
 5993TIP3   OH217942   6.377   0.087   2.057
 5993TIP3    H117943   6.464   0.123   2.042
 5993TIP3    H217944   6.329   0.103   1.976
 5994TIP3   OH217945   0.538   0.546   2.501
 5994TIP3    H117946   0.495   0.552   2.586
 5994TIP3    H217947   0.628   0.573   2.518
 5995TIP3   OH217948   6.761   2.831   5.177
 5995TIP3    H117949   6.822   2.761   5.151
 5995TIP3    H217950   6.682   2.785   5.204
 5996TIP3   OH217951   1.363   1.063   1.754
 5996TIP3    H117952   1.368   0.982   1.805
 5996TIP3    H217953   1.384   1.036   1.664
 5997TIP3   OH217954   5.470   3.862   0.726
 5997TIP3    H117955   5.543   3.817   0.683
 5997TIP3    H217956   5.404   3.793   0.739
 5998TIP3   OH217957   1.453  -0.003   2.359
 5998TIP3    H117958   1.376  -0.015   2.415
 5998TIP3    H217959   1.475   0.089   2.368
 5999TIP3   OH217960   4.576   6.380   2.929
 5999TIP3    H117961   4.614   6.294   2.911
 5999TIP3    H217962   4.489   6.377   2.889
 6000TIP3   OH217963   4.914   0.522   0.385
 6000TIP3    H117964   4.934   0.615   0.393
 6000TIP3    H217965   4.819   0.519   0.370
 6001TIP3   OH217966   7.060   4.400   3.528
 6001TIP3    H117967   7.100   4.317   3.553
 6001TIP3    H217968   7.098   4.463   3.589
 6002TIP3   OH217969   1.037   5.671   0.547
 6002TIP3    H117970   0.956   5.717   0.524
 6002TIP3    H217971   1.103   5.740   0.549
 6003TIP3   OH217972   3.896   2.162   3.865
 6003TIP3    H117973   3.916   2.214   3.943
 6003TIP3    H217974   3.936   2.210   3.793
 6004TIP3   OH217975   2.748   2.411   3.104
 6004TIP3    H117976   2.809   2.433   3.174
 6004TIP3    H217977   2.728   2.318   3.118
 6005TIP3   OH217978   0.623   2.495   2.708
 6005TIP3    H117979   0.528   2.489   2.712
 6005TIP3    H217980   0.640   2.573   2.656
 6006TIP3   OH217981   0.270   3.800   3.028
 6006TIP3    H117982   0.365   3.789   3.037
 6006TIP3    H217983   0.250   3.874   3.085
 6007TIP3   OH217984   3.777   2.338   1.364
 6007TIP3    H117985   3.774   2.326   1.459
 6007TIP3    H217986   3.804   2.429   1.352
 6008TIP3   OH217987   6.325   3.961   5.588
 6008TIP3    H117988   6.354   3.939   5.676
 6008TIP3    H217989   6.240   3.918   5.580
 6009TIP3   OH217990   4.905   1.625   5.486
 6009TIP3    H117991   4.856   1.631   5.567
 6009TIP3    H217992   4.867   1.550   5.440
 6010TIP3   OH217993   2.167   1.710   0.491
 6010TIP3    H117994   2.194   1.794   0.529
 6010TIP3    H217995   2.077   1.725   0.462
 6011TIP3   OH217996   1.060   4.819   4.013
 6011TIP3    H117997   1.038   4.893   3.956
 6011TIP3    H217998   1.039   4.742   3.961
 6012TIP3   OH217999   5.393   1.349   0.084
 6012TIP3    H118000   5.346   1.271   0.057
 6012TIP3    H218001   5.438   1.379   0.005
 6013TIP3   OH218002   3.832   6.704   1.830
 6013TIP3    H118003   3.906   6.758   1.855
 6013TIP3    H218004   3.870   6.630   1.783
 6014TIP3   OH218005   1.110   1.620   4.806
 6014TIP3    H118006   1.137   1.645   4.894
 6014TIP3    H218007   1.071   1.700   4.770
 6015TIP3   OH218008   2.671   4.367   5.706
 6015TIP3    H118009   2.666   4.452   5.661
 6015TIP3    H218010   2.665   4.390   5.799
 6016TIP3   OH218011   7.054   2.712   0.461
 6016TIP3    H118012   7.080   2.758   0.541
 6016TIP3    H218013   6.963   2.686   0.477
 6017TIP3   OH218014   6.883   4.824   3.619
 6017TIP3    H118015   6.864   4.896   3.558
 6017TIP3    H218016   6.978   4.828   3.631
 6018TIP3   OH218017   0.736   4.801   4.259
 6018TIP3    H118018   0.686   4.875   4.293
 6018TIP3    H218019   0.788   4.771   4.334
 6019TIP3   OH218020   0.520   3.394   5.030
 6019TIP3    H118021   0.477   3.478   5.012
 6019TIP3    H218022   0.475   3.361   5.107
 6020TIP3   OH218023   6.919   2.962   5.395
 6020TIP3    H118024   6.885   3.029   5.337
 6020TIP3    H218025   6.841   2.920   5.432
 6021TIP3   OH218026   1.665   6.685   5.272
 6021TIP3    H118027   1.732   6.731   5.221
 6021TIP3    H218028   1.691   6.593   5.269
 6022TIP3   OH218029   5.283   2.503   2.216
 6022TIP3    H118030   5.339   2.442   2.264
 6022TIP3    H218031   5.224   2.446   2.167
 6023TIP3   OH218032   1.817   1.372   1.412
 6023TIP3    H118033   1.771   1.308   1.467
 6023TIP3    H218034   1.856   1.320   1.342
 6024TIP3   OH218035   3.158   0.302   1.698
 6024TIP3    H118036   3.099   0.261   1.635
 6024TIP3    H218037   3.182   0.385   1.656
 6025TIP3   OH218038   5.343   3.067   1.383
 6025TIP3    H118039   5.426   3.062   1.335
 6025TIP3    H218040   5.364   3.037   1.471
 6026TIP3   OH218041   5.684   4.970   0.759
 6026TIP3    H118042   5.615   4.906   0.776
 6026TIP3    H218043   5.755   4.945   0.819
 6027TIP3   OH218044   5.487   4.191   4.403
 6027TIP3    H118045   5.536   4.197   4.320
 6027TIP3    H218046   5.477   4.097   4.418
 6028TIP3   OH218047   4.033   2.656   4.576
 6028TIP3    H118048   4.055   2.725   4.513
 6028TIP3    H218049   4.115   2.609   4.589
 6029TIP3   OH218050   1.426   1.902   3.667
 6029TIP3    H118051   1.345   1.861   3.696
 6029TIP3    H218052   1.493   1.835   3.682
 6030TIP3   OH218053   3.880   0.780   2.609
 6030TIP3    H118054   3.914   0.762   2.521
 6030TIP3    H218055   3.957   0.785   2.664
 6031TIP3   OH218056   3.408   2.496   5.094
 6031TIP3    H118057   3.463   2.446   5.155
 6031TIP3    H218058   3.325   2.448   5.093
 6032TIP3   OH218059   0.080   1.661   0.523
 6032TIP3    H118060   0.101   1.584   0.577
 6032TIP3    H218061   0.001   1.635   0.475
 6033TIP3   OH218062   5.900   4.069   2.367
 6033TIP3    H118063   5.827   4.125   2.394
 6033TIP3    H218064   5.978   4.117   2.394
 6034TIP3   OH218065   5.330   0.268   1.781
 6034TIP3    H118066   5.258   0.294   1.724
 6034TIP3    H218067   5.320   0.173   1.790
 6035TIP3   OH218068   5.981   5.449   2.059
 6035TIP3    H118069   6.041   5.400   2.115
 6035TIP3    H218070   5.944   5.383   2.000
 6036TIP3   OH218071   1.074   5.283   4.537
 6036TIP3    H118072   1.138   5.298   4.468
 6036TIP3    H218073   0.990   5.277   4.492
 6037TIP3   OH218074   4.731   3.765   0.177
 6037TIP3    H118075   4.824   3.787   0.187
 6037TIP3    H218076   4.727   3.670   0.192
 6038TIP3   OH218077   3.145   0.302   1.136
 6038TIP3    H118078   3.182   0.219   1.104
 6038TIP3    H218079   3.218   0.345   1.180
 6039TIP3   OH218080   5.238   1.230   0.515
 6039TIP3    H118081   5.154   1.197   0.547
 6039TIP3    H218082   5.252   1.311   0.565
 6040TIP3   OH218083   1.301   4.529   2.050
 6040TIP3    H118084   1.309   4.438   2.021
 6040TIP3    H218085   1.391   4.555   2.071
 6041TIP3   OH218086   1.077   3.416   4.791
 6041TIP3    H118087   1.074   3.419   4.695
 6041TIP3    H218088   0.992   3.379   4.816
 6042TIP3   OH218089   7.005   4.634   4.111
 6042TIP3    H118090   7.042   4.714   4.146
 6042TIP3    H218091   6.962   4.592   4.185
 6043TIP3   OH218092   3.943   1.985   0.595
 6043TIP3    H118093   4.018   1.988   0.536
 6043TIP3    H218094   3.969   2.039   0.670
 6044TIP3   OH218095   5.549   1.225   0.851
 6044TIP3    H118096   5.494   1.185   0.918
 6044TIP3    H218097   5.638   1.217   0.886
 6045TIP3   OH218098   7.116   1.450   4.838
 6045TIP3    H118099   7.169   1.379   4.876
 6045TIP3    H218100   7.075   1.492   4.914
 6046TIP3   OH218101   4.878   1.759   1.169
 6046TIP3    H118102   4.848   1.759   1.260
 6046TIP3    H218103   4.799   1.779   1.118
 6047TIP3   OH218104   3.877   5.090   0.567
 6047TIP3    H118105   3.886   5.158   0.500
 6047TIP3    H218106   3.809   5.123   0.625
 6048TIP3   OH218107   1.941   2.567   5.074
 6048TIP3    H118108   1.936   2.533   4.984
 6048TIP3    H218109   1.984   2.652   5.065
 6049TIP3   OH218110   2.000   5.120   2.396
 6049TIP3    H118111   2.056   5.042   2.398
 6049TIP3    H218112   1.962   5.119   2.308
 6050TIP3   OH218113   2.494   4.204   0.277
 6050TIP3    H118114   2.464   4.132   0.332
 6050TIP3    H218115   2.428   4.210   0.207
 6051TIP3   OH218116   2.511   0.426   1.938
 6051TIP3    H118117   2.560   0.447   1.859
 6051TIP3    H218118   2.546   0.341   1.965
 6052TIP3   OH218119   0.298   2.344   0.265
 6052TIP3    H118120   0.213   2.375   0.297
 6052TIP3    H218121   0.282   2.253   0.240
 6053TIP3   OH218122   6.886   6.731   3.608
 6053TIP3    H118123   6.953   6.662   3.610
 6053TIP3    H218124   6.891   6.772   3.694
 6054TIP3   OH218125   5.955   2.016   0.882
 6054TIP3    H118126   5.894   1.943   0.869
 6054TIP3    H218127   6.038   1.984   0.848
 6055TIP3   OH218128   4.631   1.587   1.251
 6055TIP3    H118129   4.655   1.677   1.273
 6055TIP3    H218130   4.630   1.542   1.336
 6056TIP3   OH218131   1.793   4.772   1.515
 6056TIP3    H118132   1.863   4.714   1.485
 6056TIP3    H218133   1.732   4.713   1.560
 6057TIP3   OH218134   2.183   3.509   3.470
 6057TIP3    H118135   2.215   3.564   3.399
 6057TIP3    H218136   2.121   3.564   3.517
 6058TIP3   OH218137   6.723   5.115   5.194
 6058TIP3    H118138   6.738   5.200   5.153
 6058TIP3    H218139   6.796   5.061   5.164
 6059TIP3   OH218140   4.589   1.865   4.116
 6059TIP3    H118141   4.603   1.954   4.148
 6059TIP3    H218142   4.673   1.839   4.078
 6060TIP3   OH218143   5.292   1.838   3.130
 6060TIP3    H118144   5.209   1.789   3.128
 6060TIP3    H218145   5.269   1.922   3.169
 6061TIP3   OH218146   4.234   1.122   0.705
 6061TIP3    H118147   4.179   1.177   0.649
 6061TIP3    H218148   4.297   1.082   0.644
 6062TIP3   OH218149   1.846   0.327   0.030
 6062TIP3    H118150   1.792   0.297  -0.043
 6062TIP3    H218151   1.794   0.308   0.108
 6063TIP3   OH218152   0.385   6.414   1.044
 6063TIP3    H118153   0.448   6.486   1.041
 6063TIP3    H218154   0.439   6.335   1.048
 6064TIP3   OH218155   3.326   3.177   1.783
 6064TIP3    H118156   3.344   3.084   1.766
 6064TIP3    H218157   3.411   3.212   1.811
 6065TIP3   OH218158   3.834   1.439   1.387
 6065TIP3    H118159   3.915   1.424   1.338
 6065TIP3    H218160   3.864   1.451   1.478
 6066TIP3   OH218161   3.661   2.709   1.822
 6066TIP3    H118162   3.655   2.652   1.898
 6066TIP3    H218163   3.749   2.747   1.828
 6067TIP3   OH218164   1.895   0.896   0.783
 6067TIP3    H118165   1.827   0.960   0.807
 6067TIP3    H218166   1.857   0.848   0.710
 6068TIP3   OH218167   1.870   6.409   1.326
 6068TIP3    H118168   1.902   6.421   1.237
 6068TIP3    H218169   1.931   6.346   1.365
 6069TIP3   OH218170   4.244   2.158   1.451
 6069TIP3    H118171   4.263   2.069   1.420
 6069TIP3    H218172   4.150   2.157   1.469
 6070TIP3   OH218173   1.459   5.581   0.408
 6070TIP3    H118174   1.436   5.633   0.331
 6070TIP3    H218175   1.419   5.495   0.392
 6071TIP3   OH218176   2.068   0.112   0.314
 6071TIP3    H118177   2.021   0.030   0.327
 6071TIP3    H218178   2.126   0.119   0.390
 6072TIP3   OH218179   5.977   0.101   3.414
 6072TIP3    H118180   6.027   0.041   3.469
 6072TIP3    H218181   6.019   0.186   3.425
 6073TIP3   OH218182   1.097   6.149   1.764
 6073TIP3    H118183   1.150   6.152   1.844
 6073TIP3    H218184   1.071   6.240   1.749
 6074TIP3   OH218185   5.486   5.285   5.789
 6074TIP3    H118186   5.404   5.325   5.817
 6074TIP3    H218187   5.532   5.354   5.741
 6075TIP3   OH218188   4.117   0.359   1.683
 6075TIP3    H118189   4.130   0.296   1.612
 6075TIP3    H218190   4.026   0.347   1.710
 6076TIP3   OH218191   2.900   2.161   4.925
 6076TIP3    H118192   2.974   2.211   4.891
 6076TIP3    H218193   2.887   2.089   4.862
 6077TIP3   OH218194   1.631   5.431   2.878
 6077TIP3    H118195   1.692   5.500   2.906
 6077TIP3    H218196   1.644   5.424   2.784
 6078TIP3   OH218197   5.017   5.008   0.716
 6078TIP3    H118198   5.096   5.061   0.715
 6078TIP3    H218199   5.029   4.948   0.790
 6079TIP3   OH218200   1.175   3.370   0.550
 6079TIP3    H118201   1.207   3.448   0.595
 6079TIP3    H218202   1.080   3.380   0.547
 6080TIP3   OH218203   0.099   2.599   2.950
 6080TIP3    H118204   0.158   2.674   2.956
 6080TIP3    H218205   0.049   2.601   3.032
 6081TIP3   OH218206   5.766   6.598   5.354
 6081TIP3    H118207   5.753   6.526   5.415
 6081TIP3    H218208   5.838   6.649   5.392
 6082TIP3   OH218209   4.525   6.045   0.558
 6082TIP3    H118210   4.611   6.051   0.517
 6082TIP3    H218211   4.525   5.960   0.600
 6083TIP3   OH218212   5.486   0.336   0.072
 6083TIP3    H118213   5.478   0.337  -0.023
 6083TIP3    H218214   5.543   0.411   0.091
 6084TIP3   OH218215   0.643   4.160   5.167
 6084TIP3    H118216   0.685   4.107   5.235
 6084TIP3    H218217   0.549   4.143   5.178
 6085TIP3   OH218218   4.575   2.931   4.935
 6085TIP3    H118219   4.517   2.855   4.941
 6085TIP3    H218220   4.531   2.988   4.872
 6086TIP3   OH218221   1.873   5.371   1.823
 6086TIP3    H118222   1.892   5.434   1.753
 6086TIP3    H218223   1.792   5.328   1.794
 6087TIP3   OH218224   5.182   6.216   0.397
 6087TIP3    H118225   5.183   6.164   0.477
 6087TIP3    H218226   5.099   6.263   0.400
 6088TIP3   OH218227   5.931   6.315   2.203
 6088TIP3    H118228   6.021   6.313   2.170
 6088TIP3    H218229   5.883   6.253   2.148
 6089TIP3   OH218230   0.012   1.446   0.693
 6089TIP3    H118231  -0.021   1.506   0.760
 6089TIP3    H218232   0.086   1.401   0.736
 6090TIP3   OH218233   6.973   5.411   2.755
 6090TIP3    H118234   6.974   5.466   2.677
 6090TIP3    H218235   7.022   5.333   2.730
 6091TIP3   OH218236   5.180   1.727   5.217
 6091TIP3    H118237   5.240   1.788   5.259
 6091TIP3    H218238   5.157   1.664   5.285
 6092TIP3   OH218239   5.448   2.539   1.463
 6092TIP3    H118240   5.455   2.447   1.439
 6092TIP3    H218241   5.399   2.579   1.390
 6093TIP3   OH218242   0.800   1.957   4.687
 6093TIP3    H118243   0.777   1.994   4.602
 6093TIP3    H218244   0.833   2.031   4.738
 6094TIP3   OH218245   2.466   4.699   2.711
 6094TIP3    H118246   2.440   4.748   2.633
 6094TIP3    H218247   2.562   4.703   2.711
 6095TIP3   OH218248   6.668   1.572   0.015
 6095TIP3    H118249   6.753   1.531  -0.001
 6095TIP3    H218250   6.678   1.661  -0.017
 6096TIP3   OH218251   1.907   5.087   5.302
 6096TIP3    H118252   1.834   5.059   5.247
 6096TIP3    H218253   1.869   5.152   5.362
 6097TIP3   OH218254   1.041   5.897   4.575
 6097TIP3    H118255   0.988   5.976   4.566
 6097TIP3    H218256   1.057   5.868   4.485
 6098TIP3   OH218257   2.953   5.760   2.632
 6098TIP3    H118258   2.969   5.843   2.677
 6098TIP3    H218259   2.972   5.778   2.540
 6099TIP3   OH218260   3.619   2.851   2.151
 6099TIP3    H118261   3.565   2.822   2.224
 6099TIP3    H218262   3.565   2.915   2.105
 6100TIP3   OH218263   2.321   4.886   2.527
 6100TIP3    H118264   2.226   4.876   2.521
 6100TIP3    H218265   2.337   4.908   2.619
 6101TIP3   OH218266   2.738   2.413   5.640
 6101TIP3    H118267   2.655   2.367   5.629
 6101TIP3    H218268   2.782   2.403   5.556
 6102TIP3   OH218269   7.209   3.594   4.649
 6102TIP3    H118270   7.173   3.505   4.659
 6102TIP3    H218271   7.141   3.643   4.604
 6103TIP3   OH218272   2.174   4.578   4.509
 6103TIP3    H118273   2.247   4.636   4.531
 6103TIP3    H218274   2.100   4.638   4.496
 6104TIP3   OH218275   5.936   2.544   1.360
 6104TIP3    H118276   6.000   2.497   1.307
 6104TIP3    H218277   5.946   2.507   1.448
 6105TIP3   OH218278   2.991   1.719   1.071
 6105TIP3    H118279   2.955   1.798   1.111
 6105TIP3    H218280   3.000   1.742   0.978
 6106TIP3   OH218281   1.810   0.634   2.939
 6106TIP3    H118282   1.887   0.612   2.888
 6106TIP3    H218283   1.755   0.685   2.879
 6107TIP3   OH218284   4.703   5.452   3.988
 6107TIP3    H118285   4.685   5.359   3.972
 6107TIP3    H218286   4.789   5.452   4.031
 6108TIP3   OH218287   7.204   6.682   1.249
 6108TIP3    H118288   7.279   6.732   1.216
 6108TIP3    H218289   7.199   6.703   1.342
 6109TIP3   OH218290   6.313   5.427   2.806
 6109TIP3    H118291   6.320   5.444   2.712
 6109TIP3    H218292   6.297   5.333   2.813
 6110TIP3   OH218293   6.347   0.948   3.811
 6110TIP3    H118294   6.356   0.888   3.737
 6110TIP3    H218295   6.252   0.964   3.817
 6111TIP3   OH218296   0.746   4.964   0.379
 6111TIP3    H118297   0.799   5.043   0.375
 6111TIP3    H218298   0.750   4.926   0.291
 6112TIP3   OH218299   2.639   6.473   2.905
 6112TIP3    H118300   2.679   6.514   2.828
 6112TIP3    H218301   2.546   6.494   2.897
 6113TIP3   OH218302   2.589   2.183   5.566
 6113TIP3    H118303   2.594   2.135   5.648
 6113TIP3    H218304   2.501   2.164   5.533
 6114TIP3   OH218305   3.415   4.281   4.021
 6114TIP3    H118306   3.478   4.349   4.043
 6114TIP3    H218307   3.329   4.324   4.027
 6115TIP3   OH218308   3.343   5.807   0.064
 6115TIP3    H118309   3.247   5.800   0.069
 6115TIP3    H218310   3.374   5.736   0.120
 6116TIP3   OH218311   0.251   0.751   4.521
 6116TIP3    H118312   0.195   0.756   4.599
 6116TIP3    H218313   0.273   0.841   4.501
 6117TIP3   OH218314   5.858   3.117   2.798
 6117TIP3    H118315   5.851   3.164   2.715
 6117TIP3    H218316   5.945   3.137   2.830
 6118TIP3   OH218317   6.297   5.661   0.212
 6118TIP3    H118318   6.222   5.720   0.203
 6118TIP3    H218319   6.261   5.574   0.198
 6119TIP3   OH218320   1.152   4.804   0.250
 6119TIP3    H118321   1.143   4.808   0.155
 6119TIP3    H218322   1.118   4.718   0.274
 6120TIP3   OH218323   2.130   0.440   1.057
 6120TIP3    H118324   2.069   0.377   1.019
 6120TIP3    H218325   2.079   0.485   1.125
 6121TIP3   OH218326   3.990   3.986   2.400
 6121TIP3    H118327   4.063   3.924   2.398
 6121TIP3    H218328   3.928   3.951   2.336
 6122TIP3   OH218329   3.294   0.123   3.085
 6122TIP3    H118330   3.206   0.105   3.052
 6122TIP3    H218331   3.313   0.212   3.054
 6123TIP3   OH218332   4.752   2.867   4.429
 6123TIP3    H118333   4.782   2.782   4.395
 6123TIP3    H218334   4.752   2.857   4.524
 6124TIP3   OH218335   5.979   3.341   0.211
 6124TIP3    H118336   6.008   3.259   0.250
 6124TIP3    H218337   5.884   3.340   0.221
 6125TIP3   OH218338   0.492   2.421   1.457
 6125TIP3    H118339   0.456   2.332   1.459
 6125TIP3    H218340   0.445   2.467   1.528
 6126TIP3   OH218341   6.221   0.451   1.157
 6126TIP3    H118342   6.219   0.358   1.134
 6126TIP3    H218343   6.284   0.489   1.096
 6127TIP3   OH218344   5.870   6.333   3.662
 6127TIP3    H118345   5.907   6.318   3.749
 6127TIP3    H218346   5.786   6.376   3.678
 6128TIP3   OH218347   3.228   3.005   2.861
 6128TIP3    H118348   3.235   2.923   2.812
 6128TIP3    H218349   3.255   2.981   2.950
 6129TIP3   OH218350   0.765   0.479   3.264
 6129TIP3    H118351   0.715   0.398   3.269
 6129TIP3    H218352   0.816   0.471   3.184
 6130TIP3   OH218353   0.617   6.333   4.890
 6130TIP3    H118354   0.689   6.392   4.867
 6130TIP3    H218355   0.577   6.372   4.968
 6131TIP3   OH218356   4.955   1.420   3.096
 6131TIP3    H118357   5.008   1.362   3.152
 6131TIP3    H218358   4.865   1.390   3.109
 6132TIP3   OH218359   4.840   6.258   4.555
 6132TIP3    H118360   4.866   6.350   4.550
 6132TIP3    H218361   4.785   6.244   4.479
 6133TIP3   OH218362   2.033   0.095   1.422
 6133TIP3    H118363   1.991   0.144   1.352
 6133TIP3    H218364   2.030   0.004   1.392
 6134TIP3   OH218365   3.378   0.448   2.144
 6134TIP3    H118366   3.311   0.501   2.101
 6134TIP3    H218367   3.375   0.476   2.235
 6135TIP3   OH218368   3.617   6.213   5.836
 6135TIP3    H118369   3.552   6.238   5.901
 6135TIP3    H218370   3.592   6.125   5.809
 6136TIP3   OH218371   5.773   4.984   2.882
 6136TIP3    H118372   5.732   4.903   2.911
 6136TIP3    H218373   5.749   5.048   2.949
 6137TIP3   OH218374   6.652   4.031   2.307
 6137TIP3    H118375   6.661   4.095   2.237
 6137TIP3    H218376   6.605   3.958   2.266
 6138TIP3   OH218377   6.795   2.614   1.714
 6138TIP3    H118378   6.834   2.611   1.801
 6138TIP3    H218379   6.853   2.561   1.659
 6139TIP3   OH218380   4.116   1.950   3.189
 6139TIP3    H118381   4.166   1.944   3.271
 6139TIP3    H218382   4.165   2.011   3.135
 6140TIP3   OH218383   6.739   0.500   1.163
 6140TIP3    H118384   6.723   0.408   1.187
 6140TIP3    H218385   6.825   0.519   1.199
 6141TIP3   OH218386   4.322   5.776   0.435
 6141TIP3    H118387   4.357   5.798   0.521
 6141TIP3    H218388   4.360   5.691   0.414
 6142TIP3   OH218389   3.517   3.048   3.995
 6142TIP3    H118390   3.483   3.002   3.918
 6142TIP3    H218391   3.571   3.119   3.959
 6143TIP3   OH218392   0.089   2.654   5.393
 6143TIP3    H118393   0.086   2.617   5.305
 6143TIP3    H218394  -0.003   2.664   5.419
 6144TIP3   OH218395   6.568   5.898   1.753
 6144TIP3    H118396   6.605   5.949   1.825
 6144TIP3    H218397   6.545   5.814   1.793
 6145TIP3   OH218398   0.391   5.251   0.631
 6145TIP3    H118399   0.454   5.323   0.635
 6145TIP3    H218400   0.431   5.187   0.571
 6146TIP3   OH218401   5.437   0.262   4.650
 6146TIP3    H118402   5.351   0.221   4.634
 6146TIP3    H218403   5.493   0.229   4.580
 6147TIP3   OH218404   0.592   2.156   5.028
 6147TIP3    H118405   0.527   2.182   4.963
 6147TIP3    H218406   0.618   2.067   5.002
 6148TIP3   OH218407   5.785   4.107   3.019
 6148TIP3    H118408   5.803   4.074   3.107
 6148TIP3    H218409   5.690   4.120   3.018
 6149TIP3   OH218410   1.953   2.399   4.864
 6149TIP3    H118411   1.955   2.377   4.771
 6149TIP3    H218412   2.038   2.370   4.898
 6150TIP3   OH218413   6.271   0.234   3.412
 6150TIP3    H118414   6.296   0.161   3.469
 6150TIP3    H218415   6.353   0.259   3.369
 6151TIP3   OH218416   6.968   4.820   4.629
 6151TIP3    H118417   6.965   4.866   4.713
 6151TIP3    H218418   6.968   4.890   4.564
 6152TIP3   OH218419   6.878   3.405   3.158
 6152TIP3    H118420   6.904   3.466   3.088
 6152TIP3    H218421   6.784   3.395   3.147
 6153TIP3   OH218422   6.899   0.223   5.652
 6153TIP3    H118423   6.989   0.223   5.684
 6153TIP3    H218424   6.906   0.247   5.559
 6154TIP3   OH218425   2.274   2.058   2.382
 6154TIP3    H118426   2.235   2.018   2.460
 6154TIP3    H218427   2.205   2.115   2.348
 6155TIP3   OH218428   2.985   5.841   3.962
 6155TIP3    H118429   2.997   5.848   3.867
 6155TIP3    H218430   2.890   5.849   3.975
 6156TIP3   OH218431   6.511   6.104   4.861
 6156TIP3    H118432   6.604   6.119   4.842
 6156TIP3    H218433   6.494   6.154   4.941
 6157TIP3   OH218434   4.612   3.981   1.929
 6157TIP3    H118435   4.597   3.910   1.867
 6157TIP3    H218436   4.580   3.948   2.013
 6158TIP3   OH218437   0.783   4.424   1.683
 6158TIP3    H118438   0.689   4.413   1.673
 6158TIP3    H218439   0.804   4.499   1.628
 6159TIP3   OH218440   2.035   0.720   0.949
 6159TIP3    H118441   2.013   0.793   0.891
 6159TIP3    H218442   1.960   0.660   0.941
 6160TIP3   OH218443   4.294   1.370   0.440
 6160TIP3    H118444   4.253   1.415   0.366
 6160TIP3    H218445   4.381   1.411   0.448
 6161TIP3   OH218446   0.984   6.217   4.143
 6161TIP3    H118447   0.980   6.219   4.047
 6161TIP3    H218448   1.044   6.145   4.163
 6162TIP3   OH218449   7.011   3.695   0.057
 6162TIP3    H118450   6.934   3.720   0.005
 6162TIP3    H218451   7.061   3.776   0.065
 6163TIP3   OH218452   3.959   3.337   5.827
 6163TIP3    H118453   3.931   3.300   5.910
 6163TIP3    H218454   3.915   3.423   5.823
 6164TIP3   OH218455   5.745   2.050   2.076
 6164TIP3    H118456   5.712   2.140   2.088
 6164TIP3    H218457   5.752   2.015   2.165
 6165TIP3   OH218458   5.572   5.393   0.520
 6165TIP3    H118459   5.542   5.479   0.549
 6165TIP3    H218460   5.502   5.334   0.547
 6166TIP3   OH218461   6.102   3.069   4.528
 6166TIP3    H118462   6.030   3.006   4.526
 6166TIP3    H218463   6.108   3.101   4.438
 6167TIP3   OH218464   2.878   3.876   3.672
 6167TIP3    H118465   2.889   3.794   3.624
 6167TIP3    H218466   2.928   3.863   3.752
 6168TIP3   OH218467   2.155   3.898   4.616
 6168TIP3    H118468   2.248   3.916   4.625
 6168TIP3    H218469   2.119   3.977   4.577
 6169TIP3   OH218470   1.048   0.503   3.714
 6169TIP3    H118471   1.025   0.522   3.623
 6169TIP3    H218472   1.102   0.577   3.742
 6170TIP3   OH218473   6.367   4.775   5.622
 6170TIP3    H118474   6.318   4.694   5.631
 6170TIP3    H218475   6.390   4.779   5.529
 6171TIP3   OH218476   5.423   5.325   2.102
 6171TIP3    H118477   5.338   5.363   2.081
 6171TIP3    H218478   5.430   5.249   2.044
 6172TIP3   OH218479   6.354   3.488   5.499
 6172TIP3    H118480   6.439   3.527   5.482
 6172TIP3    H218481   6.298   3.562   5.524
 6173TIP3   OH218482   3.284   6.135   4.221
 6173TIP3    H118483   3.330   6.090   4.292
 6173TIP3    H218484   3.263   6.065   4.159
 6174TIP3   OH218485   5.943   0.197   1.576
 6174TIP3    H118486   5.884   0.269   1.600
 6174TIP3    H218487   5.996   0.233   1.505
 6175TIP3   OH218488   1.098   6.689   1.788
 6175TIP3    H118489   1.059   6.775   1.776
 6175TIP3    H218490   1.192   6.705   1.788
 6176TIP3   OH218491   1.808   6.111   4.479
 6176TIP3    H118492   1.863   6.118   4.556
 6176TIP3    H218493   1.869   6.107   4.406
 6177TIP3   OH218494   5.319   3.198   2.580
 6177TIP3    H118495   5.268   3.215   2.501
 6177TIP3    H218496   5.373   3.276   2.592
 6178TIP3   OH218497   2.856   3.828   4.919
 6178TIP3    H118498   2.948   3.814   4.940
 6178TIP3    H218499   2.821   3.877   4.993
 6179TIP3   OH218500   6.308   0.908   2.354
 6179TIP3    H118501   6.224   0.954   2.349
 6179TIP3    H218502   6.335   0.917   2.445
 6180TIP3   OH218503   6.521   1.271   3.995
 6180TIP3    H118504   6.551   1.361   4.005
 6180TIP3    H218505   6.546   1.247   3.905
 6181TIP3   OH218506   0.058   0.110   3.552
 6181TIP3    H118507   0.061   0.202   3.526
 6181TIP3    H218508   0.140   0.073   3.520
 6182TIP3   OH218509   4.286   5.269   1.439
 6182TIP3    H118510   4.214   5.208   1.460
 6182TIP3    H218511   4.356   5.244   1.500
 6183TIP3   OH218512   2.276   2.703   0.501
 6183TIP3    H118513   2.232   2.619   0.487
 6183TIP3    H218514   2.347   2.703   0.436
 6184TIP3   OH218515   0.623   3.920   4.934
 6184TIP3    H118516   0.642   3.962   4.851
 6184TIP3    H218517   0.649   3.985   5.000
 6185TIP3   OH218518   1.859   1.596   2.084
 6185TIP3    H118519   1.802   1.670   2.066
 6185TIP3    H218520   1.852   1.582   2.179
 6186TIP3   OH218521   1.352   1.594   4.736
 6186TIP3    H118522   1.389   1.616   4.822
 6186TIP3    H218523   1.262   1.627   4.740
 6187TIP3   OH218524   3.597   2.874   2.880
 6187TIP3    H118525   3.524   2.919   2.922
 6187TIP3    H218526   3.599   2.788   2.922
 6188TIP3   OH218527   6.448   4.989   2.670
 6188TIP3    H118528   6.498   4.970   2.590
 6188TIP3    H218529   6.464   4.913   2.726
 6189TIP3   OH218530   2.836   5.020   5.573
 6189TIP3    H118531   2.924   5.004   5.540
 6189TIP3    H218532   2.839   5.110   5.607
 6190TIP3   OH218533   4.981   6.741   4.823
 6190TIP3    H118534   5.060   6.713   4.776
 6190TIP3    H218535   5.012   6.759   4.912
 6191TIP3   OH218536   1.611   2.633   2.823
 6191TIP3    H118537   1.609   2.554   2.878
 6191TIP3    H218538   1.661   2.697   2.874
 6192TIP3   OH218539   0.826   2.741   2.342
 6192TIP3    H118540   0.814   2.823   2.390
 6192TIP3    H218541   0.914   2.711   2.367
 6193TIP3   OH218542  -0.002   4.133   2.917
 6193TIP3    H118543   0.084   4.150   2.955
 6193TIP3    H218544  -0.021   4.211   2.864
 6194TIP3   OH218545   3.700   1.731   4.093
 6194TIP3    H118546   3.741   1.781   4.164
 6194TIP3    H218547   3.607   1.730   4.115
 6195TIP3   OH218548   1.632   4.067   4.515
 6195TIP3    H118549   1.680   4.004   4.569
 6195TIP3    H218550   1.564   4.016   4.472
 6196TIP3   OH218551   3.209   1.041   2.639
 6196TIP3    H118552   3.261   0.966   2.669
 6196TIP3    H218553   3.275   1.108   2.619
 6197TIP3   OH218554   0.422   6.639   4.673
 6197TIP3    H118555   0.423   6.694   4.594
 6197TIP3    H218556   0.512   6.640   4.704
 6198TIP3   OH218557   4.971   5.758   2.686
 6198TIP3    H118558   5.038   5.825   2.674
 6198TIP3    H218559   4.923   5.786   2.764
 6199TIP3   OH218560   0.372   3.516   1.522
 6199TIP3    H118561   0.341   3.441   1.472
 6199TIP3    H218562   0.461   3.532   1.489
 6200TIP3   OH218563   5.994   1.399   5.377
 6200TIP3    H118564   6.055   1.402   5.451
 6200TIP3    H218565   5.959   1.310   5.378
 6201TIP3   OH218566   6.413   6.768   5.712
 6201TIP3    H118567   6.390   6.743   5.622
 6201TIP3    H218568   6.466   6.695   5.744
 6202TIP3   OH218569   6.314   5.904   2.603
 6202TIP3    H118570   6.314   5.894   2.698
 6202TIP3    H218571   6.359   5.988   2.588
 6203TIP3   OH218572   1.040   0.307   3.489
 6203TIP3    H118573   0.994   0.390   3.476
 6203TIP3    H218574   1.131   0.326   3.467
 6204TIP3   OH218575   5.300   3.939   2.868
 6204TIP3    H118576   5.320   4.031   2.849
 6204TIP3    H218577   5.372   3.890   2.828
 6205TIP3   OH218578   4.164   5.623   4.837
 6205TIP3    H118579   4.182   5.678   4.913
 6205TIP3    H218580   4.068   5.620   4.831
 6206TIP3   OH218581   5.452   3.247   2.314
 6206TIP3    H118582   5.356   3.243   2.315
 6206TIP3    H218583   5.473   3.312   2.247
 6207TIP3   OH218584   2.850   5.659   0.033
 6207TIP3    H118585   2.906   5.736   0.038
 6207TIP3    H218586   2.761   5.693   0.044
 6208TIP3   OH218587   6.580   4.239   3.451
 6208TIP3    H118588   6.520   4.165   3.459
 6208TIP3    H218589   6.658   4.212   3.500
 6209TIP3   OH218590   7.035   5.399   0.962
 6209TIP3    H118591   7.056   5.359   1.046
 6209TIP3    H218592   7.120   5.414   0.920
 6210TIP3   OH218593   6.573   4.313   1.808
 6210TIP3    H118594   6.495   4.258   1.802
 6210TIP3    H218595   6.561   4.363   1.889
 6211TIP3   OH218596   4.654   6.769   3.483
 6211TIP3    H118597   4.747   6.772   3.506
 6211TIP3    H218598   4.651   6.720   3.401
 6212TIP3   OH218599   5.460   4.020   5.078
 6212TIP3    H118600   5.491   4.023   5.169
 6212TIP3    H218601   5.392   3.953   5.079
 6213TIP3   OH218602   5.353   0.389   4.886
 6213TIP3    H118603   5.405   0.466   4.910
 6213TIP3    H218604   5.390   0.360   4.802
 6214TIP3   OH218605   5.618   5.628   3.710
 6214TIP3    H118606   5.585   5.647   3.798
 6214TIP3    H218607   5.638   5.535   3.712
 6215TIP3   OH218608   0.861   3.176   4.493
 6215TIP3    H118609   0.837   3.221   4.574
 6215TIP3    H218610   0.846   3.242   4.424
 6216TIP3   OH218611   2.955   2.132   4.174
 6216TIP3    H118612   3.007   2.200   4.131
 6216TIP3    H218613   2.905   2.179   4.240
 6217TIP3   OH218614   0.999   4.393   4.060
 6217TIP3    H118615   0.960   4.437   3.984
 6217TIP3    H218616   1.011   4.463   4.124
 6218TIP3   OH218617   1.170   2.532   1.598
 6218TIP3    H118618   1.166   2.555   1.690
 6218TIP3    H218619   1.263   2.533   1.576
 6219TIP3   OH218620   4.960   6.142   1.368
 6219TIP3    H118621   4.932   6.120   1.279
 6219TIP3    H218622   4.899   6.210   1.396
 6220TIP3   OH218623   5.479   4.518   1.848
 6220TIP3    H118624   5.553   4.482   1.800
 6220TIP3    H218625   5.471   4.608   1.817
 6221TIP3   OH218626   5.849   5.755   0.068
 6221TIP3    H118627   5.791   5.822   0.032
 6221TIP3    H218628   5.820   5.674   0.026
 6222TIP3   OH218629   4.182   3.278   5.660
 6222TIP3    H118630   4.092   3.297   5.690
 6222TIP3    H218631   4.171   3.210   5.594
 6223TIP3   OH218632   5.849   1.486   3.818
 6223TIP3    H118633   5.913   1.415   3.822
 6223TIP3    H218634   5.775   1.448   3.769
 6224TIP3   OH218635   3.585   2.990   0.860
 6224TIP3    H118636   3.593   2.905   0.817
 6224TIP3    H218637   3.627   3.051   0.800
 6225TIP3   OH218638   5.078   0.449   5.712
 6225TIP3    H118639   5.083   0.360   5.676
 6225TIP3    H218640   5.136   0.446   5.789
 6226TIP3   OH218641   2.019   2.197   2.196
 6226TIP3    H118642   1.941   2.211   2.142
 6226TIP3    H218643   2.024   2.275   2.252
 6227TIP3   OH218644   0.296   0.291   5.627
 6227TIP3    H118645   0.300   0.386   5.640
 6227TIP3    H218646   0.375   0.271   5.577
 6228TIP3   OH218647   0.430   2.970   0.361
 6228TIP3    H118648   0.423   3.041   0.424
 6228TIP3    H218649   0.341   2.958   0.328
 6229TIP3   OH218650   4.510   4.367   0.587
 6229TIP3    H118651   4.603   4.357   0.567
 6229TIP3    H218652   4.506   4.370   0.682
 6230TIP3   OH218653   3.708   1.961   4.935
 6230TIP3    H118654   3.744   2.004   5.013
 6230TIP3    H218655   3.676   1.877   4.967
 6231TIP3   OH218656   4.215   3.255   4.532
 6231TIP3    H118657   4.129   3.214   4.539
 6231TIP3    H218658   4.227   3.300   4.616
 6232TIP3   OH218659   4.157   4.351   5.599
 6232TIP3    H118660   4.237   4.356   5.651
 6232TIP3    H218661   4.123   4.441   5.599
 6233TIP3   OH218662   2.191   3.966   5.244
 6233TIP3    H118663   2.137   3.891   5.219
 6233TIP3    H218664   2.138   4.043   5.220
 6234TIP3   OH218665   0.529   3.749   4.081
 6234TIP3    H118666   0.583   3.670   4.074
 6234TIP3    H218667   0.574   3.803   4.147
 6235TIP3   OH218668   1.739   0.374   2.044
 6235TIP3    H118669   1.735   0.458   1.999
 6235TIP3    H218670   1.829   0.368   2.076
 6236TIP3   OH218671   4.541   6.100   2.011
 6236TIP3    H118672   4.554   6.194   2.027
 6236TIP3    H218673   4.453   6.081   2.044
 6237TIP3   OH218674   4.456   0.876   3.982
 6237TIP3    H118675   4.544   0.911   3.969
 6237TIP3    H218676   4.469   0.781   3.990
 6238TIP3   OH218677   3.393   4.721   1.337
 6238TIP3    H118678   3.415   4.633   1.368
 6238TIP3    H218679   3.299   4.717   1.317
 6239TIP3   OH218680   2.467   6.122   1.499
 6239TIP3    H118681   2.438   6.207   1.467
 6239TIP3    H218682   2.393   6.064   1.482
 6240TIP3   OH218683   1.405   0.217   0.507
 6240TIP3    H118684   1.368   0.281   0.567
 6240TIP3    H218685   1.448   0.270   0.439
 6241TIP3   OH218686   1.501   5.146   2.098
 6241TIP3    H118687   1.528   5.137   2.006
 6241TIP3    H218688   1.421   5.094   2.105
 6242TIP3   OH218689   3.858   5.612   0.040
 6242TIP3    H118690   3.865   5.692   0.093
 6242TIP3    H218691   3.813   5.550   0.096
 6243TIP3   OH218692   2.542   1.439   2.074
 6243TIP3    H118693   2.531   1.432   2.169
 6243TIP3    H218694   2.471   1.497   2.046
 6244TIP3   OH218695   4.954   6.527   0.277
 6244TIP3    H118696   4.887   6.579   0.320
 6244TIP3    H218697   4.932   6.436   0.298
 6245TIP3   OH218698   6.675   6.803   0.007
 6245TIP3    H118699   6.611   6.778  -0.060
 6245TIP3    H218700   6.627   6.799   0.089
 6246TIP3   OH218701   3.960   1.695   2.445
 6246TIP3    H118702   3.877   1.741   2.436
 6246TIP3    H218703   4.010   1.719   2.367
 6247TIP3   OH218704   4.188   0.592   4.419
 6247TIP3    H118705   4.100   0.594   4.458
 6247TIP3    H218706   4.247   0.614   4.491
 6248TIP3   OH218707   0.979   1.368   5.502
 6248TIP3    H118708   1.035   1.351   5.426
 6248TIP3    H218709   0.981   1.464   5.511
 6249TIP3   OH218710   1.133   0.886   2.246
 6249TIP3    H118711   1.080   0.811   2.218
 6249TIP3    H218712   1.069   0.951   2.277
 6250TIP3   OH218713   4.776   1.404   5.387
 6250TIP3    H118714   4.686   1.398   5.421
 6250TIP3    H218715   4.809   1.315   5.391
 6251TIP3   OH218716   0.855   3.504   1.010
 6251TIP3    H118717   0.812   3.418   1.014
 6251TIP3    H218718   0.949   3.485   1.015
 6252TIP3   OH218719   1.333   4.851   4.026
 6252TIP3    H118720   1.246   4.852   4.066
 6252TIP3    H218721   1.371   4.936   4.050
 6253TIP3   OH218722   0.674   0.032   2.989
 6253TIP3    H118723   0.622  -0.029   2.936
 6253TIP3    H218724   0.621   0.112   2.991
 6254TIP3   OH218725   1.202   3.363   2.675
 6254TIP3    H118726   1.164   3.331   2.593
 6254TIP3    H218727   1.133   3.418   2.713
 6255TIP3   OH218728   2.919   0.709   0.403
 6255TIP3    H118729   2.904   0.617   0.425
 6255TIP3    H218730   2.877   0.720   0.318
 6256TIP3   OH218731   6.514   6.291   0.656
 6256TIP3    H118732   6.472   6.357   0.710
 6256TIP3    H218733   6.473   6.301   0.570
 6257TIP3   OH218734   4.735   1.181   2.169
 6257TIP3    H118735   4.713   1.265   2.129
 6257TIP3    H218736   4.807   1.200   2.228
 6258TIP3   OH218737   4.738   0.457   1.578
 6258TIP3    H118738   4.658   0.481   1.625
 6258TIP3    H218739   4.715   0.378   1.530
 6259TIP3   OH218740   6.970   2.157   0.930
 6259TIP3    H118741   6.910   2.199   0.868
 6259TIP3    H218742   6.976   2.067   0.899
 6260TIP3   OH218743   2.766   1.406   5.578
 6260TIP3    H118744   2.691   1.391   5.635
 6260TIP3    H218745   2.802   1.491   5.606
 6261TIP3   OH218746   1.226   5.045   2.188
 6261TIP3    H118747   1.217   5.098   2.267
 6261TIP3    H218748   1.149   5.067   2.135
 6262TIP3   OH218749   7.129   4.301   0.843
 6262TIP3    H118750   7.120   4.205   0.843
 6262TIP3    H218751   7.146   4.323   0.935
 6263TIP3   OH218752   0.843   5.905   2.700
 6263TIP3    H118753   0.860   5.945   2.785
 6263TIP3    H218754   0.919   5.848   2.684
 6264TIP3   OH218755   5.515   4.423   2.870
 6264TIP3    H118756   5.470   4.338   2.874
 6264TIP3    H218757   5.475   4.468   2.796
 6265TIP3   OH218758   1.888   5.902   1.509
 6265TIP3    H118759   1.823   5.861   1.451
 6265TIP3    H218760   1.853   5.990   1.525
 6266TIP3   OH218761   1.305   6.308   3.193
 6266TIP3    H118762   1.401   6.307   3.199
 6266TIP3    H218763   1.285   6.386   3.142
 6267TIP3   OH218764   5.581   1.966   0.606
 6267TIP3    H118765   5.587   1.936   0.515
 6267TIP3    H218766   5.597   2.061   0.600
 6268TIP3   OH218767   3.265   1.295   3.198
 6268TIP3    H118768   3.215   1.369   3.165
 6268TIP3    H218769   3.306   1.256   3.120
 6269TIP3   OH218770   1.459   3.519   0.811
 6269TIP3    H118771   1.389   3.533   0.747
 6269TIP3    H218772   1.540   3.531   0.762
 6270TIP3   OH218773   0.353   1.807   1.360
 6270TIP3    H118774   0.339   1.879   1.299
 6270TIP3    H218775   0.365   1.850   1.445
 6271TIP3   OH218776   0.068   3.535   0.088
 6271TIP3    H118777   0.121   3.477   0.033
 6271TIP3    H218778   0.008   3.577   0.027
 6272TIP3   OH218779   5.524   2.463   5.290
 6272TIP3    H118780   5.439   2.496   5.319
 6272TIP3    H218781   5.503   2.389   5.233
 6273TIP3   OH218782   1.268   5.835   0.432
 6273TIP3    H118783   1.223   5.915   0.406
 6273TIP3    H218784   1.249   5.773   0.362
 6274TIP3   OH218785   7.142   3.235   2.663
 6274TIP3    H118786   7.135   3.324   2.629
 6274TIP3    H218787   7.163   3.246   2.756
 6275TIP3   OH218788   6.868   1.006   2.761
 6275TIP3    H118789   6.855   0.944   2.833
 6275TIP3    H218790   6.779   1.026   2.731
 6276TIP3   OH218791   2.576   4.253   0.641
 6276TIP3    H118792   2.486   4.219   0.646
 6276TIP3    H218793   2.568   4.334   0.592
 6277TIP3   OH218794   1.553   2.868   3.642
 6277TIP3    H118795   1.567   2.951   3.688
 6277TIP3    H218796   1.624   2.863   3.579
 6278TIP3   OH218797   3.492   6.228   4.526
 6278TIP3    H118798   3.553   6.248   4.456
 6278TIP3    H218799   3.532   6.265   4.605
 6279TIP3   OH218800   5.214   3.808   2.555
 6279TIP3    H118801   5.157   3.763   2.493
 6279TIP3    H218802   5.296   3.757   2.553
 6280TIP3   OH218803   2.963   3.588   5.272
 6280TIP3    H118804   2.915   3.509   5.296
 6280TIP3    H218805   2.991   3.626   5.356
 6281TIP3   OH218806   5.164   5.807   0.205
 6281TIP3    H118807   5.111   5.748   0.258
 6281TIP3    H218808   5.241   5.755   0.181
 6282TIP3   OH218809   2.603   3.889   4.797
 6282TIP3    H118810   2.562   3.889   4.883
 6282TIP3    H218811   2.692   3.858   4.813
 6283TIP3   OH218812   1.483   3.719   1.777
 6283TIP3    H118813   1.455   3.771   1.852
 6283TIP3    H218814   1.406   3.714   1.721
 6284TIP3   OH218815   0.511   4.277   0.725
 6284TIP3    H118816   0.449   4.347   0.745
 6284TIP3    H218817   0.499   4.213   0.795
 6285TIP3   OH218818   3.819   1.413   0.198
 6285TIP3    H118819   3.823   1.463   0.117
 6285TIP3    H218820   3.780   1.474   0.261
 6286TIP3   OH218821   5.443   2.233   2.240
 6286TIP3    H118822   5.504   2.265   2.173
 6286TIP3    H218823   5.375   2.188   2.189
 6287TIP3   OH218824   6.200   4.531   5.640
 6287TIP3    H118825   6.263   4.526   5.713
 6287TIP3    H218826   6.182   4.440   5.618
 6288TIP3   OH218827   6.065   6.472   0.036
 6288TIP3    H118828   5.984   6.503   0.076
 6288TIP3    H218829   6.043   6.386   0.001
 6289TIP3   OH218830   6.285   3.374   3.347
 6289TIP3    H118831   6.371   3.338   3.369
 6289TIP3    H218832   6.264   3.433   3.420
 6290TIP3   OH218833   5.502   2.165   0.913
 6290TIP3    H118834   5.450   2.093   0.879
 6290TIP3    H218835   5.565   2.184   0.844
 6291TIP3   OH218836   6.362   2.561   4.885
 6291TIP3    H118837   6.358   2.504   4.961
 6291TIP3    H218838   6.273   2.596   4.877
 6292TIP3   OH218839   4.779   2.990   0.840
 6292TIP3    H118840   4.700   3.045   0.837
 6292TIP3    H218841   4.813   3.003   0.929
 6293TIP3   OH218842   4.115   4.981   2.825
 6293TIP3    H118843   4.176   4.925   2.874
 6293TIP3    H218844   4.054   4.920   2.784
 6294TIP3   OH218845   2.390   1.236   2.909
 6294TIP3    H118846   2.329   1.194   2.848
 6294TIP3    H218847   2.366   1.201   2.994
 6295TIP3   OH218848   1.889   4.261   1.195
 6295TIP3    H118849   1.909   4.169   1.211
 6295TIP3    H218850   1.829   4.285   1.265
 6296TIP3   OH218851   6.793   1.143   5.472
 6296TIP3    H118852   6.830   1.203   5.537
 6296TIP3    H218853   6.831   1.058   5.494
 6297TIP3   OH218854   5.768   0.700   2.844
 6297TIP3    H118855   5.857   0.698   2.808
 6297TIP3    H218856   5.715   0.735   2.772
 6298TIP3   OH218857   0.131   3.608   3.154
 6298TIP3    H118858   0.091   3.644   3.233
 6298TIP3    H218859   0.180   3.682   3.116
 6299TIP3   OH218860   5.161   1.115   2.753
 6299TIP3    H118861   5.070   1.143   2.750
 6299TIP3    H218862   5.208   1.180   2.700
 6300TIP3   OH218863   5.298   2.624   4.061
 6300TIP3    H118864   5.393   2.624   4.043
 6300TIP3    H218865   5.272   2.533   4.055
 6301TIP3   OH218866   6.570   4.852   0.777
 6301TIP3    H118867   6.490   4.805   0.799
 6301TIP3    H218868   6.542   4.943   0.765
 6302TIP3   OH218869   3.926   6.611   4.817
 6302TIP3    H118870   3.909   6.534   4.872
 6302TIP3    H218871   3.957   6.575   4.734
 6303TIP3   OH218872   5.290   1.752   2.589
 6303TIP3    H118873   5.311   1.800   2.669
 6303TIP3    H218874   5.307   1.661   2.610
 6304TIP3   OH218875   1.586   2.132   3.646
 6304TIP3    H118876   1.602   2.167   3.559
 6304TIP3    H218877   1.522   2.061   3.632
 6305TIP3   OH218878   3.371   5.136   5.750
 6305TIP3    H118879   3.458   5.166   5.778
 6305TIP3    H218880   3.388   5.062   5.693
 6306TIP3   OH218881  -0.005   5.422   3.647
 6306TIP3    H118882   0.063   5.471   3.601
 6306TIP3    H218883   0.032   5.404   3.733
 6307TIP3   OH218884   3.082   5.533   5.439
 6307TIP3    H118885   3.113   5.480   5.366
 6307TIP3    H218886   3.011   5.483   5.477
 6308TIP3   OH218887   3.573   5.813   3.151
 6308TIP3    H118888   3.500   5.751   3.149
 6308TIP3    H218889   3.651   5.758   3.157
 6309TIP3   OH218890   3.154   3.677   3.428
 6309TIP3    H118891   3.211   3.692   3.503
 6309TIP3    H218892   3.113   3.592   3.445
 6310TIP3   OH218893   0.060   3.897   5.698
 6310TIP3    H118894   0.138   3.857   5.737
 6310TIP3    H218895   0.064   3.872   5.606
 6311TIP3   OH218896   4.920   4.771   3.941
 6311TIP3    H118897   4.876   4.846   3.900
 6311TIP3    H218898   5.011   4.798   3.947
 6312TIP3   OH218899   3.244   2.601   4.834
 6312TIP3    H118900   3.165   2.655   4.821
 6312TIP3    H218901   3.317   2.663   4.825
 6313TIP3   OH218902   1.076   2.272   1.467
 6313TIP3    H118903   1.010   2.217   1.510
 6313TIP3    H218904   1.061   2.259   1.373
 6314TIP3   OH218905   0.700   3.533   3.453
 6314TIP3    H118906   0.653   3.614   3.432
 6314TIP3    H218907   0.673   3.471   3.384
 6315TIP3   OH218908   5.909   3.502   2.076
 6315TIP3    H118909   5.825   3.503   2.030
 6315TIP3    H218910   5.907   3.579   2.132
 6316TIP3   OH218911   5.926   2.277   0.718
 6316TIP3    H118912   5.912   2.345   0.783
 6316TIP3    H218913   5.944   2.198   0.769
 6317TIP3   OH218914   6.555   2.676   3.945
 6317TIP3    H118915   6.603   2.676   4.027
 6317TIP3    H218916   6.520   2.587   3.937
 6318TIP3   OH218917   4.779   5.617   5.625
 6318TIP3    H118918   4.785   5.704   5.585
 6318TIP3    H218919   4.686   5.599   5.629
 6319TIP3   OH218920   3.544   1.080   3.361
 6319TIP3    H118921   3.545   1.176   3.361
 6319TIP3    H218922   3.490   1.056   3.285
 6320TIP3   OH218923   4.824   2.390   0.140
 6320TIP3    H118924   4.892   2.345   0.189
 6320TIP3    H218925   4.847   2.374   0.048
 6321TIP3   OH218926   4.923   3.074   2.339
 6321TIP3    H118927   4.830   3.061   2.357
 6321TIP3    H218928   4.966   3.000   2.381
 6322TIP3   OH218929   2.002   1.518   5.133
 6322TIP3    H118930   2.057   1.588   5.167
 6322TIP3    H218931   2.050   1.438   5.153
 6323TIP3   OH218932   0.776   0.316   2.411
 6323TIP3    H118933   0.760   0.307   2.505
 6323TIP3    H218934   0.747   0.232   2.374
 6324TIP3   OH218935   4.807   2.872   3.727
 6324TIP3    H118936   4.801   2.965   3.751
 6324TIP3    H218937   4.834   2.829   3.808
 6325TIP3   OH218938   4.287   6.523   1.894
 6325TIP3    H118939   4.225   6.549   1.826
 6325TIP3    H218940   4.275   6.586   1.964
 6326TIP3   OH218941   2.285   5.931   0.893
 6326TIP3    H118942   2.356   5.970   0.842
 6326TIP3    H218943   2.240   6.007   0.932
 6327TIP3   OH218944   1.973   0.642   4.088
 6327TIP3    H118945   2.059   0.603   4.100
 6327TIP3    H218946   1.911   0.570   4.103
 6328TIP3   OH218947   6.922   2.950   1.859
 6328TIP3    H118948   6.837   2.981   1.825
 6328TIP3    H218949   6.929   2.991   1.945
 6329TIP3   OH218950   5.760   1.165   5.091
 6329TIP3    H118951   5.815   1.157   5.169
 6329TIP3    H218952   5.736   1.257   5.088
 6330TIP3   OH218953   6.691   6.518  -0.006
 6330TIP3    H118954   6.703   6.613  -0.002
 6330TIP3    H218955   6.620   6.500   0.056
 6331TIP3   OH218956   1.882   4.652   1.120
 6331TIP3    H118957   1.791   4.681   1.121
 6331TIP3    H218958   1.931   4.730   1.147
 6332TIP3   OH218959   1.879   2.073   0.628
 6332TIP3    H118960   1.818   2.105   0.694
 6332TIP3    H218961   1.824   2.046   0.554
 6333TIP3   OH218962   6.465   3.912   5.800
 6333TIP3    H118963   6.544   3.865   5.825
 6333TIP3    H218964   6.408   3.904   5.876
 6334TIP3   OH218965   4.612   5.332   1.931
 6334TIP3    H118966   4.648   5.396   1.869
 6334TIP3    H218967   4.543   5.380   1.977
 6335TIP3   OH218968   0.330   1.907   0.786
 6335TIP3    H118969   0.259   1.968   0.764
 6335TIP3    H218970   0.409   1.962   0.786
 6336TIP3   OH218971   0.926   2.060   1.302
 6336TIP3    H118972   0.940   2.004   1.226
 6336TIP3    H218973   0.831   2.073   1.305
 6337TIP3   OH218974   1.409   5.691   2.236
 6337TIP3    H118975   1.465   5.703   2.313
 6337TIP3    H218976   1.363   5.608   2.253
 6338TIP3   OH218977   3.362   5.262   2.341
 6338TIP3    H118978   3.371   5.310   2.424
 6338TIP3    H218979   3.269   5.239   2.337
 6339TIP3   OH218980   5.840   3.153   0.530
 6339TIP3    H118981   5.786   3.099   0.472
 6339TIP3    H218982   5.912   3.095   0.556
 6340TIP3   OH218983   2.352   1.197   0.975
 6340TIP3    H118984   2.268   1.239   0.955
 6340TIP3    H218985   2.418   1.259   0.943
 6341TIP3   OH218986   0.195   1.203   3.645
 6341TIP3    H118987   0.234   1.120   3.672
 6341TIP3    H218988   0.175   1.248   3.728
 6342TIP3   OH218989   6.098   5.561   1.831
 6342TIP3    H118990   6.035   5.612   1.779
 6342TIP3    H218991   6.044   5.517   1.897
 6343TIP3   OH218992   1.385   6.706   1.537
 6343TIP3    H118993   1.342   6.784   1.572
 6343TIP3    H218994   1.458   6.690   1.597
 6344TIP3   OH218995   3.424   6.079   3.189
 6344TIP3    H118996   3.480   6.029   3.131
 6344TIP3    H218997   3.460   6.064   3.276
 6345TIP3   OH218998   3.666   0.756   3.359
 6345TIP3    H118999   3.587   0.720   3.319
 6345TIP3    H219000   3.736   0.733   3.297
 6346TIP3   OH219001   6.957   2.109   1.570
 6346TIP3    H119002   6.863   2.124   1.558
 6346TIP3    H219003   6.986   2.067   1.489
 6347TIP3   OH219004   1.610   0.948   4.242
 6347TIP3    H119005   1.594   0.995   4.160
 6347TIP3    H219006   1.594   0.856   4.221
 6348TIP3   OH219007   0.164   3.542   2.724
 6348TIP3    H119008   0.094   3.511   2.782
 6348TIP3    H219009   0.117   3.584   2.651
 6349TIP3   OH219010   2.083   1.097   1.716
 6349TIP3    H119011   1.994   1.089   1.682
 6349TIP3    H219012   2.124   1.012   1.699
 6350TIP3   OH219013   6.574   1.798   1.255
 6350TIP3    H119014   6.583   1.892   1.268
 6350TIP3    H219015   6.549   1.764   1.341
 6351TIP3   OH219016   0.802   6.133   1.193
 6351TIP3    H119017   0.832   6.219   1.223
 6351TIP3    H219018   0.878   6.076   1.202
 6352TIP3   OH219019   0.900   2.337   2.781
 6352TIP3    H119020   0.853   2.368   2.859
 6352TIP3    H219021   0.988   2.375   2.789
 6353TIP3   OH219022   5.274   2.932   2.108
 6353TIP3    H119023   5.324   2.980   2.042
 6353TIP3    H219024   5.328   2.935   2.187
 6354TIP3   OH219025   6.973   0.095   1.229
 6354TIP3    H119026   7.043   0.040   1.266
 6354TIP3    H219027   6.969   0.171   1.288
 6355TIP3   OH219028   3.608   5.292   2.196
 6355TIP3    H119029   3.521   5.286   2.235
 6355TIP3    H219030   3.668   5.293   2.270
 6356TIP3   OH219031   4.821   2.300   2.898
 6356TIP3    H119032   4.880   2.281   2.826
 6356TIP3    H219033   4.811   2.216   2.943
 6357TIP3   OH219034   5.498   3.530   3.171
 6357TIP3    H119035   5.536   3.545   3.084
 6357TIP3    H219036   5.424   3.472   3.155
 6358TIP3   OH219037   0.376   3.846   4.730
 6358TIP3    H119038   0.312   3.790   4.686
 6358TIP3    H219039   0.461   3.809   4.705
 6359TIP3   OH219040   4.994   6.017   4.914
 6359TIP3    H119041   4.927   6.051   4.974
 6359TIP3    H219042   5.075   6.058   4.944
 6360TIP3   OH219043   6.993   4.104   2.056
 6360TIP3    H119044   7.069   4.048   2.069
 6360TIP3    H219045   7.025   4.178   2.004
 6361TIP3   OH219046   5.395   0.911   5.506
 6361TIP3    H119047   5.363   0.888   5.418
 6361TIP3    H219048   5.490   0.904   5.499
 6362TIP3   OH219049   6.426   0.421   3.750
 6362TIP3    H119050   6.467   0.337   3.772
 6362TIP3    H219051   6.499   0.478   3.725
 6363TIP3   OH219052   5.514   4.109   3.067
 6363TIP3    H119053   5.476   4.033   3.112
 6363TIP3    H219054   5.463   4.117   2.987
 6364TIP3   OH219055   0.763   3.522   0.296
 6364TIP3    H119056   0.720   3.546   0.378
 6364TIP3    H219057   0.848   3.566   0.299
 6365TIP3   OH219058   1.844   0.900   5.444
 6365TIP3    H119059   1.906   0.932   5.510
 6365TIP3    H219060   1.781   0.971   5.433
 6366TIP3   OH219061   4.219   6.248   0.934
 6366TIP3    H119062   4.263   6.282   1.012
 6366TIP3    H219063   4.227   6.318   0.870
 6367TIP3   OH219064   6.190   4.182   1.547
 6367TIP3    H119065   6.221   4.258   1.596
 6367TIP3    H219066   6.094   4.187   1.552
 6368TIP3   OH219067   1.778   2.296   4.374
 6368TIP3    H119068   1.780   2.256   4.287
 6368TIP3    H219069   1.735   2.380   4.361
 6369TIP3   OH219070   6.640   3.120   0.118
 6369TIP3    H119071   6.665   3.207   0.087
 6369TIP3    H219072   6.722   3.072   0.125
 6370TIP3   OH219073   1.622   5.642   2.059
 6370TIP3    H119074   1.541   5.622   2.105
 6370TIP3    H219075   1.690   5.634   2.126
 6371TIP3   OH219076   6.926   2.563   1.944
 6371TIP3    H119077   7.013   2.539   1.973
 6371TIP3    H219078   6.890   2.615   2.016
 6372TIP3   OH219079   6.933   5.015   4.861
 6372TIP3    H119080   6.959   5.019   4.953
 6372TIP3    H219081   6.872   5.088   4.850
 6373TIP3   OH219082   5.623   6.265   2.160
 6373TIP3    H119083   5.537   6.269   2.204
 6373TIP3    H219084   5.680   6.318   2.215
 6374TIP3   OH219085   1.283   6.391   5.558
 6374TIP3    H119086   1.227   6.336   5.615
 6374TIP3    H219087   1.273   6.479   5.593
 6375TIP3   OH219088   3.413   0.212   1.494
 6375TIP3    H119089   3.368   0.291   1.523
 6375TIP3    H219090   3.344   0.147   1.485
 6376TIP3   OH219091   6.928   2.105   2.363
 6376TIP3    H119092   7.002   2.050   2.390
 6376TIP3    H219093   6.884   2.128   2.445
 6377TIP3   OH219094   7.056   4.428   5.216
 6377TIP3    H119095   7.095   4.453   5.299
 6377TIP3    H219096   7.040   4.334   5.224
 6378TIP3   OH219097   3.800   1.632   2.105
 6378TIP3    H119098   3.841   1.578   2.037
 6378TIP3    H219099   3.873   1.662   2.159
 6379TIP3   OH219100   4.198   2.052   3.854
 6379TIP3    H119101   4.125   2.025   3.911
 6379TIP3    H219102   4.185   2.146   3.842
 6380TIP3   OH219103   0.104   2.212   5.474
 6380TIP3    H119104   0.123   2.273   5.403
 6380TIP3    H219105   0.009   2.218   5.485
 6381TIP3   OH219106   4.838   5.722   1.606
 6381TIP3    H119107   4.815   5.708   1.515
 6381TIP3    H219108   4.893   5.801   1.605
 6382TIP3   OH219109   4.902   3.305   1.630
 6382TIP3    H119110   4.931   3.352   1.707
 6382TIP3    H219111   4.955   3.341   1.558
 6383TIP3   OH219112   1.028   4.473   1.835
 6383TIP3    H119113   1.042   4.396   1.890
 6383TIP3    H219114   0.958   4.447   1.774
 6384TIP3   OH219115   3.245   0.943   1.559
 6384TIP3    H119116   3.234   0.965   1.651
 6384TIP3    H219117   3.163   0.899   1.535
 6385TIP3   OH219118   3.562   0.670   2.507
 6385TIP3    H119119   3.637   0.656   2.450
 6385TIP3    H219120   3.514   0.588   2.505
 6386TIP3   OH219121   4.522   3.298   5.737
 6386TIP3    H119122   4.439   3.251   5.748
 6386TIP3    H219123   4.509   3.380   5.784
 6387TIP3   OH219124   5.421   2.836   4.256
 6387TIP3    H119125   5.506   2.807   4.290
 6387TIP3    H219126   5.440   2.863   4.166
 6388TIP3   OH219127   0.486   0.051   5.573
 6388TIP3    H119128   0.496   0.129   5.519
 6388TIP3    H219129   0.401   0.014   5.546
 6389TIP3   OH219130   6.843   5.398   5.810
 6389TIP3    H119131   6.918   5.417   5.867
 6389TIP3    H219132   6.768   5.397   5.870
 6390TIP3   OH219133   0.211   6.793   4.782
 6390TIP3    H119134   0.285   6.732   4.774
 6390TIP3    H219135   0.134   6.736   4.786
 6391TIP3   OH219136   1.876   3.901   4.675
 6391TIP3    H119137   1.895   3.910   4.769
 6391TIP3    H219138   1.955   3.862   4.638
 6392TIP3   OH219139   3.796   0.933   5.226
 6392TIP3    H119140   3.708   0.957   5.254
 6392TIP3    H219141   3.829   1.010   5.180
 6393TIP3   OH219142   7.040   6.690   1.020
 6393TIP3    H119143   7.064   6.698   1.113
 6393TIP3    H219144   6.977   6.618   1.019
 6394TIP3   OH219145   1.939   6.559   3.693
 6394TIP3    H119146   1.975   6.470   3.702
 6394TIP3    H219147   2.002   6.615   3.739
 6395TIP3   OH219148   6.484   6.160   4.377
 6395TIP3    H119149   6.476   6.110   4.296
 6395TIP3    H219150   6.409   6.219   4.376
 6396TIP3   OH219151   4.141   4.999   0.653
 6396TIP3    H119152   4.231   4.982   0.625
 6396TIP3    H219153   4.087   4.958   0.586
 6397TIP3   OH219154   2.066   2.168   5.503
 6397TIP3    H119155   2.078   2.074   5.520
 6397TIP3    H219156   2.125   2.211   5.565
 6398TIP3   OH219157   5.253   4.051   0.754
 6398TIP3    H119158   5.175   3.999   0.735
 6398TIP3    H219159   5.326   3.990   0.746
 6399TIP3   OH219160   3.333   3.686   5.469
 6399TIP3    H119161   3.409   3.712   5.418
 6399TIP3    H219162   3.353   3.715   5.558
 6400TIP3   OH219163   2.709   4.670   1.301
 6400TIP3    H119164   2.722   4.580   1.271
 6400TIP3    H219165   2.622   4.671   1.339
 6401TIP3   OH219166   1.753   0.728   0.634
 6401TIP3    H119167   1.750   0.781   0.554
 6401TIP3    H219168   1.704   0.648   0.612
 6402TIP3   OH219169   1.302   0.673   1.421
 6402TIP3    H119170   1.229   0.613   1.408
 6402TIP3    H219171   1.277   0.726   1.497
 6403TIP3   OH219172   5.889   5.598   0.840
 6403TIP3    H119173   5.925   5.653   0.909
 6403TIP3    H219174   5.808   5.563   0.878
 6404TIP3   OH219175   5.573   1.021   1.557
 6404TIP3    H119176   5.493   1.033   1.506
 6404TIP3    H219177   5.624   1.100   1.540
 6405TIP3   OH219178   2.361   2.683   1.298
 6405TIP3    H119179   2.354   2.681   1.203
 6405TIP3    H219180   2.351   2.592   1.325
 6406TIP3   OH219181   0.579   3.725   4.609
 6406TIP3    H119182   0.584   3.638   4.649
 6406TIP3    H219183   0.666   3.762   4.621
 6407TIP3   OH219184   4.790   3.555   4.307
 6407TIP3    H119185   4.854   3.486   4.291
 6407TIP3    H219186   4.742   3.526   4.385
 6408TIP3   OH219187   1.269   2.496   0.397
 6408TIP3    H119188   1.337   2.434   0.422
 6408TIP3    H219189   1.315   2.568   0.355
 6409TIP3   OH219190   0.257   3.936   3.656
 6409TIP3    H119191   0.169   3.959   3.684
 6409TIP3    H219192   0.259   3.841   3.658
 6410TIP3   OH219193   6.127   0.416   3.729
 6410TIP3    H119194   6.222   0.407   3.736
 6410TIP3    H219195   6.092   0.346   3.783
 6411TIP3   OH219196   6.214   5.303   4.209
 6411TIP3    H119197   6.191   5.225   4.260
 6411TIP3    H219198   6.304   5.288   4.182
 6412TIP3   OH219199   2.859   1.337   2.256
 6412TIP3    H119200   2.780   1.283   2.250
 6412TIP3    H219201   2.847   1.403   2.188
 6413TIP3   OH219202   0.834   1.494   3.629
 6413TIP3    H119203   0.887   1.497   3.709
 6413TIP3    H219204   0.849   1.407   3.593
 6414TIP3   OH219205   1.344   4.285   4.229
 6414TIP3    H119206   1.255   4.255   4.248
 6414TIP3    H219207   1.343   4.379   4.250
 6415TIP3   OH219208   5.114   1.633   1.245
 6415TIP3    H119209   5.047   1.682   1.199
 6415TIP3    H219210   5.193   1.685   1.236
 6416TIP3   OH219211   2.746   0.286   5.427
 6416TIP3    H119212   2.805   0.352   5.463
 6416TIP3    H219213   2.775   0.204   5.467
 6417TIP3   OH219214   3.186   4.577   1.740
 6417TIP3    H119215   3.119   4.544   1.680
 6417TIP3    H219216   3.268   4.540   1.707
 6418TIP3   OH219217   6.578   1.393   2.949
 6418TIP3    H119218   6.577   1.298   2.957
 6418TIP3    H219219   6.580   1.410   2.855
 6419TIP3   OH219220   5.303   2.745   5.842
 6419TIP3    H119221   5.269   2.735   5.753
 6419TIP3    H219222   5.309   2.840   5.855
 6420TIP3   OH219223   5.592   1.181   4.217
 6420TIP3    H119224   5.638   1.257   4.181
 6420TIP3    H219225   5.573   1.205   4.308
 6421TIP3   OH219226   1.971   1.733   1.770
 6421TIP3    H119227   1.929   1.735   1.856
 6421TIP3    H219228   1.918   1.672   1.719
 6422TIP3   OH219229   1.111   5.719   5.454
 6422TIP3    H119230   1.179   5.705   5.520
 6422TIP3    H219231   1.099   5.633   5.414
 6423TIP3   OH219232   0.803   2.122   5.682
 6423TIP3    H119233   0.897   2.117   5.698
 6423TIP3    H219234   0.795   2.141   5.589
 6424TIP3   OH219235   6.460   2.094   3.040
 6424TIP3    H119236   6.413   2.070   2.960
 6424TIP3    H219237   6.392   2.096   3.108
 6425TIP3   OH219238   5.413   1.071   4.643
 6425TIP3    H119239   5.477   1.078   4.573
 6425TIP3    H219240   5.329   1.057   4.598
 6426TIP3   OH219241   3.099   5.101   5.430
 6426TIP3    H119242   3.122   5.142   5.346
 6426TIP3    H219243   3.101   5.173   5.493
 6427TIP3   OH219244   6.783   4.805   3.883
 6427TIP3    H119245   6.866   4.850   3.891
 6427TIP3    H219246   6.734   4.829   3.962
 6428TIP3   OH219247   2.458   4.655   3.154
 6428TIP3    H119248   2.402   4.727   3.124
 6428TIP3    H219249   2.483   4.609   3.075
 6429TIP3   OH219250   2.724   0.882   2.668
 6429TIP3    H119251   2.739   0.855   2.577
 6429TIP3    H219252   2.711   0.977   2.662
 6430TIP3   OH219253   1.655   6.008   4.078
 6430TIP3    H119254   1.677   6.096   4.048
 6430TIP3    H219255   1.618   6.021   4.166
 6431TIP3   OH219256   3.151   0.998   1.181
 6431TIP3    H119257   3.217   1.021   1.247
 6431TIP3    H219258   3.178   1.045   1.103
 6432TIP3   OH219259   4.414   4.235   0.354
 6432TIP3    H119260   4.443   4.250   0.444
 6432TIP3    H219261   4.447   4.147   0.332
 6433TIP3   OH219262   0.237   2.941   1.012
 6433TIP3    H119263   0.161   2.997   0.994
 6433TIP3    H219264   0.249   2.891   0.931
 6434TIP3   OH219265   5.666   3.500   0.054
 6434TIP3    H119266   5.627   3.534   0.135
 6434TIP3    H219267   5.748   3.549   0.045
 6435TIP3   OH219268   5.532   0.893   4.194
 6435TIP3    H119269   5.570   0.966   4.146
 6435TIP3    H219270   5.595   0.873   4.263
 6436TIP3   OH219271   0.086   2.339   1.651
 6436TIP3    H119272   0.039   2.256   1.656
 6436TIP3    H219273   0.089   2.371   1.742
 6437TIP3   OH219274   0.289   1.513   1.998
 6437TIP3    H119275   0.365   1.560   1.965
 6437TIP3    H219276   0.296   1.518   2.093
 6438TIP3   OH219277   3.520   2.303   3.681
 6438TIP3    H119278   3.485   2.382   3.723
 6438TIP3    H219279   3.533   2.328   3.589
 6439TIP3   OH219280   1.633   6.417   5.672
 6439TIP3    H119281   1.655   6.369   5.752
 6439TIP3    H219282   1.538   6.404   5.663
 6440TIP3   OH219283   2.851   0.582   2.013
 6440TIP3    H119284   2.881   0.602   1.924
 6440TIP3    H219285   2.904   0.639   2.070
 6441TIP3   OH219286   5.456   4.884   3.827
 6441TIP3    H119287   5.417   4.899   3.913
 6441TIP3    H219288   5.476   4.791   3.825
 6442TIP3   OH219289   1.294   4.832   4.635
 6442TIP3    H119290   1.218   4.885   4.661
 6442TIP3    H219291   1.369   4.875   4.677
 6443TIP3   OH219292   0.418   4.111   1.710
 6443TIP3    H119293   0.428   4.116   1.615
 6443TIP3    H219294   0.479   4.043   1.737
 6444TIP3   OH219295   3.225   5.957   1.964
 6444TIP3    H119296   3.302   6.012   1.950
 6444TIP3    H219297   3.174   6.003   2.030
 6445TIP3   OH219298   4.102   3.008   3.662
 6445TIP3    H119299   4.093   3.077   3.727
 6445TIP3    H219300   4.023   2.954   3.672
 6446TIP3   OH219301   0.666   3.232   1.506
 6446TIP3    H119302   0.588   3.182   1.530
 6446TIP3    H219303   0.717   3.173   1.451
 6447TIP3   OH219304   2.596   3.350   3.307
 6447TIP3    H119305   2.661   3.421   3.305
 6447TIP3    H219306   2.531   3.375   3.242
 6448TIP3   OH219307   5.547   3.591   0.283
 6448TIP3    H119308   5.548   3.612   0.376
 6448TIP3    H219309   5.463   3.624   0.251
 6449TIP3   OH219310   0.505   4.699   0.482
 6449TIP3    H119311   0.513   4.646   0.402
 6449TIP3    H219312   0.517   4.636   0.553
 6450TIP3   OH219313   1.146   3.067   5.009
 6450TIP3    H119314   1.182   3.115   5.083
 6450TIP3    H219315   1.217   3.068   4.944
 6451TIP3   OH219316   6.903   6.856   0.850
 6451TIP3    H119317   6.863   6.788   0.796
 6451TIP3    H219318   6.933   6.809   0.929
 6452TIP3   OH219319   5.470   5.936   4.901
 6452TIP3    H119320   5.543   5.947   4.840
 6452TIP3    H219321   5.396   5.909   4.846
 6453TIP3   OH219322   0.069   0.399   3.490
 6453TIP3    H119323   0.030   0.409   3.577
 6453TIP3    H219324   0.149   0.452   3.493
 6454TIP3   OH219325   3.960   3.598   1.939
 6454TIP3    H119326   4.051   3.602   1.966
 6454TIP3    H219327   3.927   3.516   1.978
 6455TIP3   OH219328   5.658   3.425   1.502
 6455TIP3    H119329   5.644   3.341   1.547
 6455TIP3    H219330   5.676   3.487   1.573
 6456TIP3   OH219331   2.516   0.196   3.054
 6456TIP3    H119332   2.429   0.155   3.051
 6456TIP3    H219333   2.500   0.286   3.082
 6457TIP3   OH219334   0.428   0.522   0.663
 6457TIP3    H119335   0.449   0.548   0.753
 6457TIP3    H219336   0.359   0.582   0.636
 6458TIP3   OH219337   5.072   2.532   1.430
 6458TIP3    H119338   4.983   2.517   1.462
 6458TIP3    H219339   5.096   2.450   1.387
 6459TIP3   OH219340   1.265   6.133   3.706
 6459TIP3    H119341   1.280   6.170   3.619
 6459TIP3    H219342   1.276   6.208   3.765
 6460TIP3   OH219343   4.641   6.387   3.354
 6460TIP3    H119344   4.635   6.398   3.449
 6460TIP3    H219345   4.580   6.452   3.318
 6461TIP3   OH219346   6.266   0.458   1.757
 6461TIP3    H119347   6.262   0.527   1.690
 6461TIP3    H219348   6.195   0.481   1.817
 6462TIP3   OH219349   2.699   3.112   2.300
 6462TIP3    H119350   2.651   3.178   2.250
 6462TIP3    H219351   2.722   3.045   2.236
 6463TIP3   OH219352   4.674   5.067   4.397
 6463TIP3    H119353   4.595   5.090   4.348
 6463TIP3    H219354   4.644   5.009   4.466
 6464TIP3   OH219355   3.566   2.837   0.354
 6464TIP3    H119356   3.624   2.761   0.348
 6464TIP3    H219357   3.534   2.836   0.445
 6465TIP3   OH219358   1.091   5.695   2.070
 6465TIP3    H119359   1.156   5.699   2.000
 6465TIP3    H219360   1.057   5.784   2.076
 6466TIP3   OH219361   2.809   3.417   2.155
 6466TIP3    H119362   2.798   3.512   2.165
 6466TIP3    H219363   2.899   3.407   2.125
 6467TIP3   OH219364   3.325   6.023   3.605
 6467TIP3    H119365   3.367   5.937   3.606
 6467TIP3    H219366   3.380   6.076   3.547
 6468TIP3   OH219367   5.949   0.494   0.047
 6468TIP3    H119368   6.011   0.431   0.010
 6468TIP3    H219369   5.989   0.523   0.129
 6469TIP3   OH219370   2.259   5.347   2.700
 6469TIP3    H119371   2.329   5.307   2.649
 6469TIP3    H219372   2.190   5.366   2.636
 6470TIP3   OH219373   1.084   3.068   3.198
 6470TIP3    H119374   1.153   3.009   3.228
 6470TIP3    H219375   1.121   3.111   3.122
 6471TIP3   OH219376   1.163   2.432   5.795
 6471TIP3    H119377   1.074   2.424   5.828
 6471TIP3    H219378   1.161   2.510   5.740
 6472TIP3   OH219379   5.165   0.966   5.657
 6472TIP3    H119380   5.248   0.962   5.610
 6472TIP3    H219381   5.153   1.059   5.678
 6473TIP3   OH219382   6.565   4.926   0.099
 6473TIP3    H119383   6.534   4.838   0.077
 6473TIP3    H219384   6.570   4.971   0.014
 6474TIP3   OH219385   5.671   3.742   1.497
 6474TIP3    H119386   5.614   3.780   1.565
 6474TIP3    H219387   5.758   3.776   1.518
 6475TIP3   OH219388   0.763   4.816   1.134
 6475TIP3    H119389   0.805   4.842   1.052
 6475TIP3    H219390   0.799   4.876   1.199
 6476TIP3   OH219391   2.660   5.317   4.088
 6476TIP3    H119392   2.720   5.248   4.118
 6476TIP3    H219393   2.620   5.281   4.009
 6477TIP3   OH219394   0.281   3.287   0.250
 6477TIP3    H119395   0.371   3.318   0.262
 6477TIP3    H219396   0.262   3.239   0.330
 6478TIP3   OH219397   2.812   5.919   5.688
 6478TIP3    H119398   2.821   5.964   5.772
 6478TIP3    H219399   2.856   5.976   5.625
 6479TIP3   OH219400   5.746   3.134   5.148
 6479TIP3    H119401   5.661   3.163   5.181
 6479TIP3    H219402   5.807   3.151   5.219
 6480TIP3   OH219403   2.228   4.604   5.656
 6480TIP3    H119404   2.221   4.652   5.573
 6480TIP3    H219405   2.230   4.512   5.629
 6481TIP3   OH219406   1.742   2.059   2.968
 6481TIP3    H119407   1.660   2.089   3.006
 6481TIP3    H219408   1.729   1.966   2.953
 6482TIP3   OH219409   3.580   4.189   1.479
 6482TIP3    H119410   3.587   4.094   1.473
 6482TIP3    H219411   3.556   4.206   1.570
 6483TIP3   OH219412   1.040   1.464   4.134
 6483TIP3    H119413   0.955   1.463   4.179
 6483TIP3    H219414   1.104   1.448   4.203
 6484TIP3   OH219415   2.014   5.264   3.375
 6484TIP3    H119416   2.040   5.177   3.345
 6484TIP3    H219417   1.930   5.280   3.332
 6485TIP3   OH219418   5.580   4.445   2.109
 6485TIP3    H119419   5.536   4.454   2.025
 6485TIP3    H219420   5.530   4.502   2.168
 6486TIP3   OH219421   0.387   4.562   3.376
 6486TIP3    H119422   0.340   4.504   3.317
 6486TIP3    H219423   0.477   4.561   3.344
 6487TIP3   OH219424   1.964   2.741   5.619
 6487TIP3    H119425   1.973   2.663   5.674
 6487TIP3    H219426   1.900   2.796   5.665
 6488TIP3   OH219427   6.548   4.702   0.410
 6488TIP3    H119428   6.555   4.649   0.331
 6488TIP3    H219429   6.575   4.790   0.383
 6489TIP3   OH219430   3.235   6.170   1.292
 6489TIP3    H119431   3.240   6.081   1.329
 6489TIP3    H219432   3.182   6.219   1.355
 6490TIP3   OH219433   0.361   1.236   4.166
 6490TIP3    H119434   0.453   1.232   4.195
 6490TIP3    H219435   0.329   1.318   4.203
 6491TIP3   OH219436   2.839   1.251   4.570
 6491TIP3    H119437   2.858   1.264   4.477
 6491TIP3    H219438   2.889   1.318   4.615
 6492TIP3   OH219439   2.180   1.591   3.574
 6492TIP3    H119440   2.138   1.509   3.548
 6492TIP3    H219441   2.273   1.571   3.575
 6493TIP3   OH219442   0.196   4.654   3.061
 6493TIP3    H119443   0.101   4.664   3.062
 6493TIP3    H219444   0.227   4.729   3.010
 6494TIP3   OH219445   2.818   0.758   0.140
 6494TIP3    H119446   2.765   0.774   0.062
 6494TIP3    H219447   2.858   0.673   0.125
 6495TIP3   OH219448   3.697   1.863   0.512
 6495TIP3    H119449   3.758   1.796   0.480
 6495TIP3    H219450   3.754   1.931   0.548
 6496TIP3   OH219451   7.217   3.941   3.741
 6496TIP3    H119452   7.136   3.908   3.701
 6496TIP3    H219453   7.187   4.005   3.805
 6497TIP3   OH219454   6.210   4.524   4.137
 6497TIP3    H119455   6.298   4.560   4.128
 6497TIP3    H219456   6.205   4.497   4.229
 6498TIP3   OH219457   2.243   4.465   3.861
 6498TIP3    H119458   2.319   4.430   3.907
 6498TIP3    H219459   2.191   4.388   3.837
 6499TIP3   OH219460   0.160   6.241   5.664
 6499TIP3    H119461   0.216   6.184   5.610
 6499TIP3    H219462   0.081   6.253   5.611
 6500TIP3   OH219463   0.480   4.857   3.388
 6500TIP3    H119464   0.470   4.913   3.310
 6500TIP3    H219465   0.480   4.768   3.353
 6501TIP3   OH219466   6.683   0.579   5.198
 6501TIP3    H119467   6.722   0.647   5.143
 6501TIP3    H219468   6.591   0.605   5.204
 6502TIP3   OH219469   3.643   6.691   3.591
 6502TIP3    H119470   3.672   6.633   3.520
 6502TIP3    H219471   3.628   6.632   3.665
 6503TIP3   OH219472   6.470   1.429   2.085
 6503TIP3    H119473   6.510   1.350   2.120
 6503TIP3    H219474   6.402   1.397   2.025
 6504TIP3   OH219475   0.198   6.445   2.535
 6504TIP3    H119476   0.102   6.443   2.540
 6504TIP3    H219477   0.217   6.513   2.471
 6505TIP3   OH219478   2.235   1.561   3.974
 6505TIP3    H119479   2.248   1.549   4.068
 6505TIP3    H219480   2.218   1.655   3.964
 6506TIP3   OH219481   0.871   4.832   3.731
 6506TIP3    H119482   0.823   4.899   3.779
 6506TIP3    H219483   0.861   4.753   3.783
 6507TIP3   OH219484   1.140   4.510   4.802
 6507TIP3    H119485   1.064   4.477   4.753
 6507TIP3    H219486   1.203   4.536   4.734
 6508TIP3   OH219487   3.882   4.732   4.876
 6508TIP3    H119488   3.933   4.773   4.806
 6508TIP3    H219489   3.868   4.643   4.846
 6509TIP3   OH219490   5.720   3.915   1.083
 6509TIP3    H119491   5.659   3.973   1.129
 6509TIP3    H219492   5.701   3.828   1.118
 6510TIP3   OH219493   6.042   1.238   4.973
 6510TIP3    H119494   6.058   1.151   4.937
 6510TIP3    H219495   6.089   1.239   5.056
 6511TIP3   OH219496   3.222   4.319   2.142
 6511TIP3    H119497   3.309   4.316   2.181
 6511TIP3    H219498   3.175   4.385   2.193
 6512TIP3   OH219499   3.462   2.792   4.722
 6512TIP3    H119500   3.510   2.737   4.784
 6512TIP3    H219501   3.527   2.856   4.692
 6513TIP3   OH219502   5.100   6.004   2.653
 6513TIP3    H119503   5.037   6.034   2.717
 6513TIP3    H219504   5.185   6.016   2.696
 6514TIP3   OH219505   3.193   1.997   0.222
 6514TIP3    H119506   3.123   2.048   0.263
 6514TIP3    H219507   3.184   1.910   0.260
 6515TIP3   OH219508   4.941   5.238   1.330
 6515TIP3    H119509   4.845   5.243   1.328
 6515TIP3    H219510   4.964   5.271   1.418
 6516TIP3   OH219511   5.932   6.279   5.363
 6516TIP3    H119512   5.932   6.184   5.348
 6516TIP3    H219513   5.893   6.290   5.450
 6517TIP3   OH219514   5.734   0.694   4.281
 6517TIP3    H119515   5.808   0.634   4.269
 6517TIP3    H219516   5.662   0.638   4.308
 6518TIP3   OH219517   2.983   4.368   0.311
 6518TIP3    H119518   3.025   4.389   0.394
 6518TIP3    H219519   2.893   4.401   0.321
 6519TIP3   OH219520   2.754   4.262   1.616
 6519TIP3    H119521   2.805   4.195   1.570
 6519TIP3    H219522   2.663   4.237   1.602
 6520TIP3   OH219523   2.268   0.528   4.047
 6520TIP3    H119524   2.294   0.567   3.964
 6520TIP3    H219525   2.298   0.591   4.113
 6521TIP3   OH219526   4.750   5.818   4.148
 6521TIP3    H119527   4.771   5.743   4.204
 6521TIP3    H219528   4.759   5.785   4.059
 6522TIP3   OH219529   4.216   2.035   0.737
 6522TIP3    H119530   4.245   2.039   0.646
 6522TIP3    H219531   4.187   2.125   0.756
 6523TIP3   OH219532   2.770   6.806   5.026
 6523TIP3    H119533   2.696   6.768   4.978
 6523TIP3    H219534   2.760   6.900   5.015
 6524TIP3   OH219535   1.045   0.598   3.445
 6524TIP3    H119536   1.056   0.584   3.351
 6524TIP3    H219537   0.961   0.644   3.453
 6525TIP3   OH219538   1.884   4.346   0.317
 6525TIP3    H119539   1.809   4.285   0.323
 6525TIP3    H219540   1.954   4.302   0.364
 6526TIP3   OH219541   1.471   5.426   1.821
 6526TIP3    H119542   1.505   5.514   1.838
 6526TIP3    H219543   1.463   5.422   1.725
 6527TIP3   OH219544   5.560   6.793   5.462
 6527TIP3    H119545   5.576   6.741   5.383
 6527TIP3    H219546   5.471   6.769   5.489
 6528TIP3   OH219547   0.455   0.760   5.796
 6528TIP3    H119548   0.539   0.752   5.841
 6528TIP3    H219549   0.404   0.820   5.851
 6529TIP3   OH219550   1.367   3.140   5.665
 6529TIP3    H119551   1.323   3.106   5.587
 6529TIP3    H219552   1.316   3.217   5.690
 6530TIP3   OH219553   1.912   1.525   3.235
 6530TIP3    H119554   1.857   1.590   3.190
 6530TIP3    H219555   2.001   1.544   3.204
 6531TIP3   OH219556   6.054   5.119   0.582
 6531TIP3    H119557   6.018   5.046   0.531
 6531TIP3    H219558   6.141   5.089   0.609
 6532TIP3   OH219559   1.043   2.916   2.133
 6532TIP3    H119560   1.125   2.939   2.176
 6532TIP3    H219561   1.028   2.825   2.158
 6533TIP3   OH219562   6.997   1.702   0.680
 6533TIP3    H119563   7.015   1.796   0.683
 6533TIP3    H219564   7.018   1.676   0.591
 6534TIP3   OH219565   1.697   3.420   4.312
 6534TIP3    H119566   1.692   3.494   4.373
 6534TIP3    H219567   1.710   3.344   4.368
 6535TIP3   OH219568   5.973   2.460   2.740
 6535TIP3    H119569   5.898   2.422   2.786
 6535TIP3    H219570   5.974   2.415   2.655
 6536TIP3   OH219571   5.876   1.480   5.860
 6536TIP3    H119572   5.794   1.479   5.811
 6536TIP3    H219573   5.908   1.569   5.853
 6537TIP3   OH219574   1.609   2.176   3.358
 6537TIP3    H119575   1.524   2.144   3.329
 6537TIP3    H219576   1.627   2.251   3.301
 6538TIP3   OH219577   1.343   3.687   0.080
 6538TIP3    H119578   1.419   3.730   0.042
 6538TIP3    H219579   1.376   3.602   0.110
 6539TIP3   OH219580   2.718   6.731   0.790
 6539TIP3    H119581   2.766   6.795   0.739
 6539TIP3    H219582   2.637   6.716   0.741
 6540TIP3   OH219583   0.666   1.133   2.246
 6540TIP3    H119584   0.691   1.196   2.314
 6540TIP3    H219585   0.594   1.083   2.285
 6541TIP3   OH219586   3.783   5.156   0.089
 6541TIP3    H119587   3.704   5.197   0.053
 6541TIP3    H219588   3.792   5.194   0.176
 6542TIP3   OH219589   6.630   5.127   0.905
 6542TIP3    H119590   6.624   5.039   0.941
 6542TIP3    H219591   6.566   5.129   0.834
 6543TIP3   OH219592   1.858   3.387   1.438
 6543TIP3    H119593   1.884   3.454   1.375
 6543TIP3    H219594   1.842   3.435   1.519
 6544TIP3   OH219595   5.963   2.629   3.543
 6544TIP3    H119596   6.003   2.588   3.620
 6544TIP3    H219597   6.038   2.658   3.490
 6545TIP3   OH219598   0.030   6.772   3.512
 6545TIP3    H119599   0.119   6.777   3.547
 6545TIP3    H219600  -0.021   6.729   3.581
 6546TIP3   OH219601   7.082   6.516   4.423
 6546TIP3    H119602   7.110   6.433   4.384
 6546TIP3    H219603   7.163   6.558   4.449
 6547TIP3   OH219604   5.044   6.680   0.904
 6547TIP3    H119605   5.101   6.702   0.978
 6547TIP3    H219606   4.989   6.757   0.893
 6548TIP3   OH219607   1.664   1.271   2.843
 6548TIP3    H119608   1.631   1.361   2.851
 6548TIP3    H219609   1.688   1.247   2.932
 6549TIP3   OH219610   4.888   6.348   4.137
 6549TIP3    H119611   4.937   6.323   4.059
 6549TIP3    H219612   4.955   6.375   4.200
 6550TIP3   OH219613   2.067   2.603   2.812
 6550TIP3    H119614   1.987   2.618   2.863
 6550TIP3    H219615   2.138   2.624   2.873
 6551TIP3   OH219616   4.073   2.194   5.583
 6551TIP3    H119617   4.105   2.150   5.504
 6551TIP3    H219618   3.978   2.191   5.575
 6552TIP3   OH219619   3.087   5.734   3.701
 6552TIP3    H119620   3.106   5.823   3.731
 6552TIP3    H219621   2.992   5.726   3.706
 6553TIP3   OH219622   6.230   6.641   0.157
 6553TIP3    H119623   6.182   6.574   0.108
 6553TIP3    H219624   6.193   6.636   0.245
 6554TIP3   OH219625   4.818   3.761   2.927
 6554TIP3    H119626   4.910   3.787   2.916
 6554TIP3    H219627   4.771   3.844   2.934
 6555TIP3   OH219628   6.371   2.568   2.788
 6555TIP3    H119629   6.308   2.610   2.730
 6555TIP3    H219630   6.420   2.509   2.731
 6556TIP3   OH219631   6.072   5.046   4.646
 6556TIP3    H119632   5.994   4.999   4.675
 6556TIP3    H219633   6.061   5.134   4.681
 6557TIP3   OH219634   2.796   2.092   5.432
 6557TIP3    H119635   2.801   2.155   5.360
 6557TIP3    H219636   2.717   2.118   5.480
 6558TIP3   OH219637   3.188   0.206   3.393
 6558TIP3    H119638   3.099   0.220   3.427
 6558TIP3    H219639   3.197   0.111   3.388
 6559TIP3   OH219640   5.305   1.649   4.006
 6559TIP3    H119641   5.383   1.694   4.038
 6559TIP3    H219642   5.232   1.692   4.050
 6560TIP3   OH219643   2.854   5.089   3.894
 6560TIP3    H119644   2.872   5.118   3.804
 6560TIP3    H219645   2.759   5.073   3.895
 6561TIP3   OH219646   1.044   6.695   3.853
 6561TIP3    H119647   0.992   6.735   3.783
 6561TIP3    H219648   0.984   6.689   3.927
 6562TIP3   OH219649   5.575   5.976   2.146
 6562TIP3    H119650   5.521   5.960   2.069
 6562TIP3    H219651   5.587   6.071   2.148
 6563TIP3   OH219652   3.115   4.506   0.099
 6563TIP3    H119653   3.148   4.583   0.145
 6563TIP3    H219654   3.072   4.454   0.167
 6564TIP3   OH219655   4.851   5.665   4.653
 6564TIP3    H119656   4.946   5.673   4.657
 6564TIP3    H219657   4.824   5.739   4.598
 6565TIP3   OH219658   5.270   2.840   2.568
 6565TIP3    H119659   5.344   2.779   2.574
 6565TIP3    H219660   5.265   2.879   2.656
 6566TIP3   OH219661   3.100   1.949   5.194
 6566TIP3    H119662   3.170   1.935   5.131
 6566TIP3    H219663   3.141   1.937   5.279
 6567TIP3   OH219664   2.414   4.548   2.338
 6567TIP3    H119665   2.460   4.591   2.266
 6567TIP3    H219666   2.478   4.546   2.409
 6568TIP3   OH219667   5.836   0.607   1.637
 6568TIP3    H119668   5.794   0.662   1.571
 6568TIP3    H219669   5.930   0.621   1.623
 6569TIP3   OH219670   5.717   5.943   2.381
 6569TIP3    H119671   5.707   6.000   2.457
 6569TIP3    H219672   5.651   5.973   2.319
 6570TIP3   OH219673   0.617   0.741   1.646
 6570TIP3    H119674   0.679   0.806   1.614
 6570TIP3    H219675   0.593   0.690   1.568
 6571TIP3   OH219676   4.370   4.925   4.951
 6571TIP3    H119677   4.330   5.012   4.959
 6571TIP3    H219678   4.459   4.936   4.985
 6572TIP3   OH219679   0.635   2.090   0.365
 6572TIP3    H119680   0.559   2.113   0.419
 6572TIP3    H219681   0.675   2.016   0.410
 6573TIP3   OH219682   5.787   2.697   3.199
 6573TIP3    H119683   5.765   2.607   3.174
 6573TIP3    H219684   5.869   2.715   3.154
 6574TIP3   OH219685   6.955   2.314   2.203
 6574TIP3    H119686   6.957   2.234   2.255
 6574TIP3    H219687   6.862   2.331   2.188
 6575TIP3   OH219688   1.557   5.779   3.654
 6575TIP3    H119689   1.646   5.791   3.689
 6575TIP3    H219690   1.524   5.703   3.700
 6576TIP3   OH219691   7.070   3.764   0.641
 6576TIP3    H119692   7.061   3.698   0.572
 6576TIP3    H219693   7.160   3.796   0.631
 6577TIP3   OH219694   3.455   1.863   4.850
 6577TIP3    H119695   3.456   1.916   4.770
 6577TIP3    H219696   3.476   1.925   4.920
 6578TIP3   OH219697   5.163   1.363   3.807
 6578TIP3    H119698   5.243   1.402   3.771
 6578TIP3    H219699   5.183   1.345   3.898
 6579TIP3   OH219700   6.055   6.425   5.833
 6579TIP3    H119701   6.076   6.417   5.926
 6579TIP3    H219702   6.134   6.398   5.787
 6580TIP3   OH219703   2.194   2.478   1.941
 6580TIP3    H119704   2.236   2.399   1.974
 6580TIP3    H219705   2.255   2.549   1.962
 6581TIP3   OH219706   3.335   6.079   2.764
 6581TIP3    H119707   3.412   6.102   2.815
 6581TIP3    H219708   3.300   6.001   2.807
 6582TIP3   OH219709   4.149   1.563   2.652
 6582TIP3    H119710   4.094   1.496   2.694
 6582TIP3    H219711   4.097   1.593   2.578
 6583TIP3   OH219712   1.851   3.882   4.966
 6583TIP3    H119713   1.769   3.867   5.013
 6583TIP3    H219714   1.919   3.854   5.028
 6584TIP3   OH219715   6.527   1.757   4.992
 6584TIP3    H119716   6.463   1.727   5.056
 6584TIP3    H219717   6.505   1.849   4.976
 6585TIP3   OH219718   4.059   4.909   0.928
 6585TIP3    H119719   4.094   4.964   0.858
 6585TIP3    H219720   4.001   4.847   0.884
 6586TIP3   OH219721   1.367   5.019   0.329
 6586TIP3    H119722   1.312   4.942   0.317
 6586TIP3    H219723   1.305   5.091   0.342
 6587TIP3   OH219724   2.390   4.164   3.890
 6587TIP3    H119725   2.472   4.212   3.882
 6587TIP3    H219726   2.405   4.082   3.842
 6588TIP3   OH219727   4.731   0.589   4.019
 6588TIP3    H119728   4.642   0.579   3.985
 6588TIP3    H219729   4.787   0.562   3.947
 6589TIP3   OH219730   1.863   3.694   3.199
 6589TIP3    H119731   1.844   3.656   3.285
 6589TIP3    H219732   1.780   3.687   3.152
 6590TIP3   OH219733   5.556   5.670   3.046
 6590TIP3    H119734   5.639   5.630   3.022
 6590TIP3    H219735   5.574   5.717   3.127
 6591TIP3   OH219736   5.748   6.090   2.932
 6591TIP3    H119737   5.781   6.033   3.002
 6591TIP3    H219738   5.773   6.178   2.960
 6592TIP3   OH219739   5.873   1.954   2.613
 6592TIP3    H119740   5.810   1.882   2.616
 6592TIP3    H219741   5.846   2.012   2.683
 6593TIP3   OH219742   3.263   2.962   5.417
 6593TIP3    H119743   3.227   2.874   5.428
 6593TIP3    H219744   3.209   3.002   5.349
 6594TIP3   OH219745   4.392   4.940   0.556
 6594TIP3    H119746   4.396   4.969   0.465
 6594TIP3    H219747   4.446   4.861   0.559
 6595TIP3   OH219748   3.165   6.475   3.518
 6595TIP3    H119749   3.149   6.382   3.502
 6595TIP3    H219750   3.081   6.517   3.501
 6596TIP3   OH219751   3.140   3.887   1.339
 6596TIP3    H119752   3.138   3.969   1.388
 6596TIP3    H219753   3.234   3.869   1.326
 6597TIP3   OH219754   2.320   2.154   1.299
 6597TIP3    H119755   2.312   2.155   1.204
 6597TIP3    H219756   2.371   2.075   1.319
 6598TIP3   OH219757   5.364   2.186   2.490
 6598TIP3    H119758   5.404   2.206   2.406
 6598TIP3    H219759   5.324   2.268   2.518
 6599TIP3   OH219760   3.597   3.777   5.060
 6599TIP3    H119761   3.508   3.776   5.094
 6599TIP3    H219762   3.621   3.685   5.052
 6600TIP3   OH219763   1.447   2.990   0.381
 6600TIP3    H119764   1.396   3.070   0.394
 6600TIP3    H219765   1.383   2.920   0.385
 6601TIP3   OH219766   2.400   6.392   1.392
 6601TIP3    H119767   2.345   6.455   1.345
 6601TIP3    H219768   2.421   6.435   1.475
 6602TIP3   OH219769   7.074   5.828   3.764
 6602TIP3    H119770   7.152   5.781   3.734
 6602TIP3    H219771   7.024   5.846   3.684
 6603TIP3   OH219772   5.791   3.223   4.530
 6603TIP3    H119773   5.801   3.303   4.582
 6603TIP3    H219774   5.731   3.247   4.460
 6604TIP3   OH219775   1.481   2.075   4.834
 6604TIP3    H119776   1.414   2.036   4.777
 6604TIP3    H219777   1.459   2.168   4.836
 6605TIP3   OH219778   4.929   3.920   5.616
 6605TIP3    H119779   4.867   3.921   5.543
 6605TIP3    H219780   4.899   3.849   5.672
 6606TIP3   OH219781   4.444   2.084   5.587
 6606TIP3    H119782   4.509   2.153   5.571
 6606TIP3    H219783   4.395   2.114   5.663
 6607TIP3   OH219784   1.314   4.461   5.011
 6607TIP3    H119785   1.268   4.489   4.932
 6607TIP3    H219786   1.360   4.381   4.985
 6608TIP3   OH219787   2.631   1.899   1.170
 6608TIP3    H119788   2.613   1.920   1.079
 6608TIP3    H219789   2.724   1.873   1.171
 6609TIP3   OH219790   2.626   0.612   2.546
 6609TIP3    H119791   2.707   0.630   2.594
 6609TIP3    H219792   2.618   0.684   2.484
 6610TIP3   OH219793   2.540   4.507   0.590
 6610TIP3    H119794   2.450   4.541   0.583
 6610TIP3    H219795   2.592   4.567   0.537
 6611TIP3   OH219796   1.886   0.659   0.260
 6611TIP3    H119797   1.819   0.591   0.265
 6611TIP3    H219798   1.846   0.735   0.302
 6612TIP3   OH219799   4.143   3.067   2.779
 6612TIP3    H119800   4.061   3.025   2.806
 6612TIP3    H219801   4.147   3.052   2.685
 6613TIP3   OH219802   1.359   4.500   0.210
 6613TIP3    H119803   1.286   4.554   0.180
 6613TIP3    H219804   1.383   4.448   0.133
 6614TIP3   OH219805   3.110   1.291   0.064
 6614TIP3    H119806   3.087   1.302   0.156
 6614TIP3    H219807   3.119   1.196   0.053
 6615TIP3   OH219808   2.872   4.340   4.498
 6615TIP3    H119809   2.888   4.434   4.507
 6615TIP3    H219810   2.893   4.320   4.407
 6616TIP3   OH219811   3.435   2.144   4.097
 6616TIP3    H119812   3.436   2.102   4.183
 6616TIP3    H219813   3.414   2.236   4.115
 6617TIP3   OH219814   0.616   5.181   1.654
 6617TIP3    H119815   0.652   5.270   1.653
 6617TIP3    H219816   0.539   5.187   1.711
 6618TIP3   OH219817   4.368   3.727   4.258
 6618TIP3    H119818   4.275   3.726   4.238
 6618TIP3    H219819   4.379   3.664   4.328
 6619TIP3   OH219820   6.372   1.539   3.077
 6619TIP3    H119821   6.336   1.581   2.999
 6619TIP3    H219822   6.448   1.490   3.045
 6620TIP3   OH219823   1.340   3.128   1.430
 6620TIP3    H119824   1.306   3.156   1.515
 6620TIP3    H219825   1.281   3.167   1.366
 6621TIP3   OH219826   5.784   4.407   2.903
 6621TIP3    H119827   5.692   4.388   2.921
 6621TIP3    H219828   5.784   4.497   2.870
 6622TIP3   OH219829   4.042   5.226   0.788
 6622TIP3    H119830   4.063   5.294   0.723
 6622TIP3    H219831   4.049   5.144   0.739
 6623TIP3   OH219832   2.425   3.834   4.056
 6623TIP3    H119833   2.440   3.766   3.990
 6623TIP3    H219834   2.505   3.835   4.108
 6624TIP3   OH219835   4.689   4.021   0.024
 6624TIP3    H119836   4.610   3.988  -0.020
 6624TIP3    H219837   4.732   3.943   0.059
 6625TIP3   OH219838   0.285   1.568   1.216
 6625TIP3    H119839   0.285   1.629   1.290
 6625TIP3    H219840   0.281   1.625   1.139
 6626TIP3   OH219841   5.590   1.955   4.393
 6626TIP3    H119842   5.599   2.049   4.406
 6626TIP3    H219843   5.650   1.916   4.457
 6627TIP3   OH219844   6.134   1.877   5.156
 6627TIP3    H119845   6.177   1.931   5.222
 6627TIP3    H219846   6.063   1.933   5.122
 6628TIP3   OH219847   3.782   3.784   2.039
 6628TIP3    H119848   3.700   3.761   1.995
 6628TIP3    H219849   3.848   3.730   1.995
 6629TIP3   OH219850   6.127   4.895   0.778
 6629TIP3    H119851   6.069   4.890   0.702
 6629TIP3    H219852   6.213   4.871   0.744
 6630TIP3   OH219853   6.980   1.618   5.013
 6630TIP3    H119854   6.916   1.678   4.974
 6630TIP3    H219855   7.036   1.674   5.067
 6631TIP3   OH219856   2.394   5.096   0.757
 6631TIP3    H119857   2.303   5.125   0.755
 6631TIP3    H219858   2.437   5.147   0.689
 6632TIP3   OH219859   4.559   0.241   2.679
 6632TIP3    H119860   4.584   0.318   2.731
 6632TIP3    H219861   4.572   0.268   2.588
 6633TIP3   OH219862   2.516   2.870   5.093
 6633TIP3    H119863   2.529   2.953   5.048
 6633TIP3    H219864   2.587   2.814   5.062
 6634TIP3   OH219865   1.831   4.503   2.622
 6634TIP3    H119866   1.872   4.522   2.707
 6634TIP3    H219867   1.809   4.589   2.587
 6635TIP3   OH219868   3.294   0.532   4.668
 6635TIP3    H119869   3.296   0.439   4.689
 6635TIP3    H219870   3.341   0.539   4.585
 6636TIP3   OH219871   1.847   1.128   5.857
 6636TIP3    H119872   1.934   1.121   5.817
 6636TIP3    H219873   1.856   1.086   5.942
 6637TIP3   OH219874   2.082   4.442   3.343
 6637TIP3    H119875   2.060   4.509   3.408
 6637TIP3    H219876   2.096   4.362   3.395
 6638TIP3   OH219877   3.400   1.634   3.412
 6638TIP3    H119878   3.393   1.636   3.317
 6638TIP3    H219879   3.406   1.726   3.438
 6639TIP3   OH219880   6.724   0.319   3.015
 6639TIP3    H119881   6.819   0.308   3.003
 6639TIP3    H219882   6.685   0.269   2.944
 6640TIP3   OH219883   4.988   1.779   3.441
 6640TIP3    H119884   5.062   1.759   3.498
 6640TIP3    H219885   5.005   1.868   3.409
 6641TIP3   OH219886   5.683   0.569   5.282
 6641TIP3    H119887   5.728   0.507   5.225
 6641TIP3    H219888   5.658   0.518   5.359
 6642TIP3   OH219889   4.619   4.157   4.149
 6642TIP3    H119890   4.686   4.095   4.121
 6642TIP3    H219891   4.569   4.109   4.216
 6643TIP3   OH219892   0.170   4.591   0.363
 6643TIP3    H119893   0.138   4.558   0.447
 6643TIP3    H219894   0.106   4.657   0.337
 6644TIP3   OH219895   3.188   0.403   2.603
 6644TIP3    H119896   3.175   0.498   2.608
 6644TIP3    H219897   3.112   0.366   2.648
 6645TIP3   OH219898   4.405   0.289   2.409
 6645TIP3    H119899   4.362   0.210   2.378
 6645TIP3    H219900   4.497   0.266   2.415
 6646TIP3   OH219901   6.753   5.725   4.677
 6646TIP3    H119902   6.725   5.715   4.768
 6646TIP3    H219903   6.800   5.808   4.676
 6647TIP3   OH219904   4.407   2.377   2.909
 6647TIP3    H119905   4.437   2.298   2.865
 6647TIP3    H219906   4.354   2.346   2.982
 6648TIP3   OH219907   5.352   2.941   4.760
 6648TIP3    H119908   5.341   2.846   4.769
 6648TIP3    H219909   5.348   2.957   4.666
 6649TIP3   OH219910   5.316   5.811   0.490
 6649TIP3    H119911   5.383   5.830   0.424
 6649TIP3    H219912   5.246   5.767   0.442
 6650TIP3   OH219913   4.018   4.178   3.080
 6650TIP3    H119914   3.949   4.190   3.145
 6650TIP3    H219915   4.060   4.096   3.105
 6651TIP3   OH219916   6.246   5.482   2.555
 6651TIP3    H119917   6.238   5.416   2.487
 6651TIP3    H219918   6.156   5.498   2.584
 6652TIP3   OH219919   5.956   0.179   2.208
 6652TIP3    H119920   5.959   0.109   2.142
 6652TIP3    H219921   6.048   0.203   2.222
 6653TIP3   OH219922   0.805   2.029   3.697
 6653TIP3    H119923   0.890   2.008   3.658
 6653TIP3    H219924   0.814   2.119   3.728
 6654TIP3   OH219925   6.849   2.326   0.693
 6654TIP3    H119926   6.796   2.389   0.741
 6654TIP3    H219927   6.813   2.328   0.604
 6655TIP3   OH219928   1.864   4.625   0.295
 6655TIP3    H119929   1.772   4.637   0.320
 6655TIP3    H219930   1.878   4.530   0.303
 6656TIP3   OH219931   3.515   2.142   5.123
 6656TIP3    H119932   3.533   2.179   5.037
 6656TIP3    H219933   3.527   2.215   5.184
 6657TIP3   OH219934   7.084   2.836   1.103
 6657TIP3    H119935   7.173   2.857   1.129
 6657TIP3    H219936   7.039   2.920   1.100
 6658TIP3   OH219937   2.729   6.526   3.178
 6658TIP3    H119938   2.707   6.480   3.097
 6658TIP3    H219939   2.649   6.525   3.229
 6659TIP3   OH219940   4.554   1.054   0.642
 6659TIP3    H119941   4.633   1.092   0.605
 6659TIP3    H219942   4.503   1.024   0.567
 6660TIP3   OH219943   2.309   6.043   2.489
 6660TIP3    H119944   2.330   5.979   2.422
 6660TIP3    H219945   2.377   6.031   2.556
 6661TIP3   OH219946   6.391   3.335   4.872
 6661TIP3    H119947   6.328   3.389   4.824
 6661TIP3    H219948   6.357   3.246   4.863
 6662TIP3   OH219949   5.921   5.904   4.996
 6662TIP3    H119950   5.839   5.856   4.988
 6662TIP3    H219951   5.907   5.965   5.068
 6663TIP3   OH219952   4.910   0.645   3.454
 6663TIP3    H119953   4.971   0.659   3.381
 6663TIP3    H219954   4.934   0.559   3.489
 6664TIP3   OH219955   2.115   1.014   0.354
 6664TIP3    H119956   2.054   1.076   0.393
 6664TIP3    H219957   2.197   1.029   0.400
 6665TIP3   OH219958   0.192   4.636   2.450
 6665TIP3    H119959   0.196   4.625   2.355
 6665TIP3    H219960   0.280   4.668   2.473
 6666TIP3   OH219961   1.770   3.857   1.704
 6666TIP3    H119962   1.681   3.831   1.728
 6666TIP3    H219963   1.815   3.867   1.788
 6667TIP3   OH219964   1.705   0.196   3.257
 6667TIP3    H119965   1.794   0.172   3.283
 6667TIP3    H219966   1.659   0.211   3.339
 6668TIP3   OH219967   6.513   5.198   2.886
 6668TIP3    H119968   6.518   5.213   2.791
 6668TIP3    H219969   6.515   5.102   2.894
 6669TIP3   OH219970   3.139   2.457   0.213
 6669TIP3    H119971   3.166   2.366   0.224
 6669TIP3    H219972   3.217   2.508   0.232
 6670TIP3   OH219973   0.447   2.145   1.449
 6670TIP3    H119974   0.386   2.136   1.375
 6670TIP3    H219975   0.410   2.088   1.516
 6671TIP3   OH219976   6.419   2.456   1.060
 6671TIP3    H119977   6.353   2.432   0.996
 6671TIP3    H219978   6.433   2.550   1.046
 6672TIP3   OH219979   7.125   5.022   5.876
 6672TIP3    H119980   7.053   5.029   5.813
 6672TIP3    H219981   7.086   4.979   5.952
 6673TIP3   OH219982   0.761   2.683   1.340
 6673TIP3    H119983   0.698   2.742   1.381
 6673TIP3    H219984   0.835   2.682   1.401
 6674TIP3   OH219985   5.530   3.818   2.769
 6674TIP3    H119986   5.596   3.886   2.766
 6674TIP3    H219987   5.572   3.745   2.813
 6675TIP3   OH219988   4.908   0.276   2.532
 6675TIP3    H119989   4.895   0.349   2.593
 6675TIP3    H219990   4.979   0.305   2.475
 6676TIP3   OH219991   3.132   2.170  -0.040
 6676TIP3    H119992   3.147   2.108   0.030
 6676TIP3    H219993   3.038   2.167  -0.056
 6677TIP3   OH219994   0.003   0.316   0.092
 6677TIP3    H119995   0.035   0.396   0.134
 6677TIP3    H219996   0.040   0.318   0.004
 6678TIP3   OH219997   0.044   6.787   0.594
 6678TIP3    H119998   0.027   6.696   0.570
 6678TIP3    H219999   0.063   6.784   0.688
 6679TIP3   OH220000   0.590   3.339   3.252
 6679TIP3    H120001   0.535   3.272   3.212
 6679TIP3    H220002   0.680   3.307   3.242
 6680TIP3   OH220003   5.605   4.564   3.539
 6680TIP3    H120004   5.656   4.603   3.611
 6680TIP3    H220005   5.516   4.595   3.554
 6681TIP3   OH220006   4.242   1.656   5.766
 6681TIP3    H120007   4.318   1.710   5.742
 6681TIP3    H220008   4.167   1.713   5.751
 6682TIP3   OH220009   4.413   5.742   1.253
 6682TIP3    H120010   4.481   5.688   1.214
 6682TIP3    H220011   4.382   5.691   1.328
 6683TIP3   OH220012   1.121   0.103   3.980
 6683TIP3    H120013   1.073   0.182   3.959
 6683TIP3    H220014   1.109   0.046   3.904
 6684TIP3   OH220015   4.630   5.263   5.480
 6684TIP3    H120016   4.601   5.269   5.389
 6684TIP3    H220017   4.672   5.178   5.486
 6685TIP3   OH220018   2.499   4.177   1.947
 6685TIP3    H120019   2.500   4.267   1.979
 6685TIP3    H220020   2.502   4.124   2.027
 6686TIP3   OH220021   0.877   2.376   5.659
 6686TIP3    H120022   0.830   2.301   5.695
 6686TIP3    H220023   0.874   2.442   5.728
 6687TIP3   OH220024   4.584   5.583   1.134
 6687TIP3    H120025   4.653   5.577   1.199
 6687TIP3    H220026   4.536   5.500   1.142
 6688TIP3   OH220027   0.645   4.535   3.257
 6688TIP3    H120028   0.616   4.605   3.199
 6688TIP3    H220029   0.738   4.523   3.236
 6689TIP3   OH220030   0.618   5.514   4.944
 6689TIP3    H120031   0.605   5.495   5.037
 6689TIP3    H220032   0.532   5.503   4.905
 6690TIP3   OH220033   3.468   0.433   5.324
 6690TIP3    H120034   3.545   0.478   5.357
 6690TIP3    H220035   3.443   0.373   5.394
 6691TIP3   OH220036   3.636   1.647   3.819
 6691TIP3    H120037   3.668   1.661   3.908
 6691TIP3    H220038   3.712   1.663   3.763
 6692TIP3   OH220039   3.308   0.749   3.473
 6692TIP3    H120040   3.371   0.705   3.530
 6692TIP3    H220041   3.222   0.718   3.503
 6693TIP3   OH220042   7.131   1.261   1.436
 6693TIP3    H120043   7.082   1.229   1.360
 6693TIP3    H220044   7.197   1.320   1.399
 6694TIP3   OH220045   1.721   1.609   5.255
 6694TIP3    H120046   1.667   1.670   5.206
 6694TIP3    H220047   1.785   1.578   5.191
 6695TIP3   OH220048   3.973   1.383   2.794
 6695TIP3    H120049   4.024   1.430   2.860
 6695TIP3    H220050   4.023   1.303   2.777
 6696TIP3   OH220051   1.901   6.499   1.755
 6696TIP3    H120052   1.890   6.513   1.661
 6696TIP3    H220053   1.952   6.574   1.785
 6697TIP3   OH220054   6.987   2.780   4.537
 6697TIP3    H120055   7.066   2.780   4.484
 6697TIP3    H220056   6.921   2.822   4.482
 6698TIP3   OH220057   5.502   6.562   1.955
 6698TIP3    H120058   5.567   6.499   1.924
 6698TIP3    H220059   5.423   6.541   1.905
 6699TIP3   OH220060   5.258   2.147   5.501
 6699TIP3    H120061   5.266   2.243   5.498
 6699TIP3    H220062   5.263   2.126   5.594
 6700TIP3   OH220063   3.613   0.513   1.588
 6700TIP3    H120064   3.681   0.575   1.562
 6700TIP3    H220065   3.650   0.466   1.663
 6701TIP3   OH220066   5.814   2.140   3.405
 6701TIP3    H120067   5.909   2.145   3.399
 6701TIP3    H220068   5.788   2.218   3.453
 6702TIP3   OH220069   2.484   4.450   2.034
 6702TIP3    H120070   2.491   4.531   2.083
 6702TIP3    H220071   2.543   4.462   1.960
 6703TIP3   OH220072   5.585   6.347   3.110
 6703TIP3    H120073   5.631   6.429   3.095
 6703TIP3    H220074   5.527   6.365   3.184
 6704TIP3   OH220075   2.252   2.856   3.794
 6704TIP3    H120076   2.291   2.939   3.823
 6704TIP3    H220077   2.179   2.883   3.738
 6705TIP3   OH220078   0.542   1.763   2.218
 6705TIP3    H120079   0.600   1.712   2.161
 6705TIP3    H220080   0.483   1.699   2.256
 6706TIP3   OH220081   5.089   0.581   4.907
 6706TIP3    H120082   5.147   0.527   4.961
 6706TIP3    H220083   5.133   0.588   4.823
 6707TIP3   OH220084   6.359   5.447   1.740
 6707TIP3    H120085   6.271   5.475   1.765
 6707TIP3    H220086   6.380   5.376   1.801
 6708TIP3   OH220087   4.646   0.173   1.823
 6708TIP3    H120088   4.565   0.219   1.845
 6708TIP3    H220089   4.621   0.116   1.750
 6709TIP3   OH220090   1.061   4.641   4.237
 6709TIP3    H120091   1.014   4.667   4.317
 6709TIP3    H220092   1.039   4.708   4.173
 6710TIP3   OH220093   0.341   3.537   4.307
 6710TIP3    H120094   0.270   3.558   4.246
 6710TIP3    H220095   0.417   3.582   4.271
 6711TIP3   OH220096   6.298   1.334   2.390
 6711TIP3    H120097   6.232   1.320   2.322
 6711TIP3    H220098   6.366   1.269   2.371
 6712TIP3   OH220099   5.829   3.578   4.635
 6712TIP3    H120100   5.773   3.623   4.698
 6712TIP3    H220101   5.898   3.538   4.688
 6713TIP3   OH220102   4.172   0.060   1.786
 6713TIP3    H120103   4.163  -0.001   1.859
 6713TIP3    H220104   4.159   0.006   1.708
 6714TIP3   OH220105   0.748   2.169   5.417
 6714TIP3    H120106   0.810   2.141   5.350
 6714TIP3    H220107   0.676   2.106   5.411
 6715TIP3   OH220108   6.719   5.230   4.824
 6715TIP3    H120109   6.690   5.254   4.912
 6715TIP3    H220110   6.724   5.313   4.777
 6716TIP3   OH220111   3.483   3.502   2.885
 6716TIP3    H120112   3.548   3.441   2.850
 6716TIP3    H220113   3.407   3.447   2.903
 6717TIP3   OH220114   0.667   2.253   2.553
 6717TIP3    H120115   0.587   2.204   2.531
 6717TIP3    H220116   0.644   2.344   2.538
 6718TIP3   OH220117   4.877   2.634   2.379
 6718TIP3    H120118   4.818   2.558   2.373
 6718TIP3    H220119   4.912   2.643   2.291
 6719TIP3   OH220120   5.063   4.817   0.874
 6719TIP3    H120121   4.987   4.787   0.923
 6719TIP3    H220122   5.132   4.826   0.940
 6720TIP3   OH220123   2.533   1.029   5.077
 6720TIP3    H120124   2.627   1.014   5.081
 6720TIP3    H220125   2.506   0.992   4.993
 6721TIP3   OH220126   0.517   4.250   3.289
 6721TIP3    H120127   0.513   4.309   3.364
 6721TIP3    H220128   0.446   4.280   3.232
 6722TIP3   OH220129   6.233   0.148   5.502
 6722TIP3    H120130   6.193   0.232   5.526
 6722TIP3    H220131   6.305   0.172   5.444
 6723TIP3   OH220132   0.620   3.892   0.405
 6723TIP3    H120133   0.687   3.884   0.337
 6723TIP3    H220134   0.650   3.966   0.459
 6724TIP3   OH220135   6.400   6.001   4.170
 6724TIP3    H120136   6.337   5.930   4.180
 6724TIP3    H220137   6.455   5.973   4.097
 6725TIP3   OH220138   5.755   6.520   0.222
 6725TIP3    H120139   5.701   6.442   0.212
 6725TIP3    H220140   5.713   6.570   0.292
 6726TIP3   OH220141   3.018   1.796   1.447
 6726TIP3    H120142   3.097   1.775   1.397
 6726TIP3    H220143   2.974   1.712   1.459
 6727TIP3   OH220144   1.201   5.203   2.397
 6727TIP3    H120145   1.252   5.255   2.459
 6727TIP3    H220146   1.140   5.153   2.451
 6728TIP3   OH220147   1.242   0.139   5.108
 6728TIP3    H120148   1.152   0.168   5.097
 6728TIP3    H220149   1.294   0.220   5.108
 6729TIP3   OH220150   0.354   3.853   2.290
 6729TIP3    H120151   0.405   3.772   2.287
 6729TIP3    H220152   0.340   3.877   2.199
 6730TIP3   OH220153   4.396   5.991   5.533
 6730TIP3    H120154   4.379   6.041   5.613
 6730TIP3    H220155   4.398   5.900   5.561
 6731TIP3   OH220156   5.874   1.017   2.980
 6731TIP3    H120157   5.853   1.091   3.036
 6731TIP3    H220158   5.794   1.000   2.931
 6732TIP3   OH220159   1.711   2.228   5.854
 6732TIP3    H120160   1.745   2.314   5.882
 6732TIP3    H220161   1.621   2.227   5.885
 6733TIP3   OH220162   1.976   3.267   3.505
 6733TIP3    H120163   2.071   3.281   3.511
 6733TIP3    H220164   1.943   3.289   3.592
 6734TIP3   OH220165   3.254   4.305   1.221
 6734TIP3    H120166   3.306   4.243   1.171
 6734TIP3    H220167   3.222   4.368   1.156
 6735TIP3   OH220168   3.609   1.854   2.846
 6735TIP3    H120169   3.652   1.830   2.928
 6735TIP3    H220170   3.661   1.811   2.778
 6736TIP3   OH220171   1.957   0.417   3.236
 6736TIP3    H120172   1.994   0.355   3.299
 6736TIP3    H220173   1.896   0.469   3.287
 6737TIP3   OH220174   6.252   1.566   4.994
 6737TIP3    H120175   6.276   1.605   5.078
 6737TIP3    H220176   6.217   1.480   5.017
 6738TIP3   OH220177   3.484   0.056   2.822
 6738TIP3    H120178   3.573   0.047   2.787
 6738TIP3    H220179   3.478  -0.012   2.889
 6739TIP3   OH220180   2.594   5.984   0.530
 6739TIP3    H120181   2.579   5.954   0.441
 6739TIP3    H220182   2.582   6.079   0.525
 6740TIP3   OH220183   0.075   2.671   1.625
 6740TIP3    H120184   0.108   2.614   1.695
 6740TIP3    H220185  -0.014   2.693   1.653
 6741TIP3   OH220186   3.306   4.886   3.529
 6741TIP3    H120187   3.227   4.834   3.512
 6741TIP3    H220188   3.278   4.955   3.589
 6742TIP3   OH220189   4.534   6.496   4.928
 6742TIP3    H120190   4.593   6.462   4.996
 6742TIP3    H220191   4.591   6.521   4.856
 6743TIP3   OH220192   6.439   2.144   2.317
 6743TIP3    H120193   6.464   2.215   2.376
 6743TIP3    H220194   6.522   2.110   2.284
 6744TIP3   OH220195   2.837   1.578   4.278
 6744TIP3    H120196   2.821   1.650   4.218
 6744TIP3    H220197   2.854   1.619   4.362
 6745TIP3   OH220198   4.410   3.349   3.820
 6745TIP3    H120199   4.369   3.376   3.902
 6745TIP3    H220200   4.394   3.255   3.813
 6746TIP3   OH220201   4.427   6.719   5.686
 6746TIP3    H120202   4.437   6.814   5.682
 6746TIP3    H220203   4.502   6.686   5.636
 6747TIP3   OH220204   0.331   6.306   4.301
 6747TIP3    H120205   0.315   6.269   4.214
 6747TIP3    H220206   0.424   6.330   4.300
 6748TIP3   OH220207   4.311   5.027   2.654
 6748TIP3    H120208   4.331   4.934   2.639
 6748TIP3    H220209   4.243   5.026   2.722
 6749TIP3   OH220210   1.413   2.200   4.319
 6749TIP3    H120211   1.405   2.214   4.414
 6749TIP3    H220212   1.472   2.125   4.312
 6750TIP3   OH220213   0.917   6.657   1.122
 6750TIP3    H120214   0.992   6.676   1.066
 6750TIP3    H220215   0.945   6.686   1.210
 6751TIP3   OH220216   4.623   3.514   0.237
 6751TIP3    H120217   4.539   3.557   0.256
 6751TIP3    H220218   4.654   3.484   0.322
 6752TIP3   OH220219   5.752   2.952   0.233
 6752TIP3    H120220   5.806   2.962   0.154
 6752TIP3    H220221   5.740   3.041   0.265
 6753TIP3   OH220222   4.341   4.273   5.055
 6753TIP3    H120223   4.274   4.232   5.000
 6753TIP3    H220224   4.343   4.219   5.134
 6754TIP3   OH220225   5.077   0.181   5.606
 6754TIP3    H120226   5.010   0.217   5.548
 6754TIP3    H220227   5.046   0.094   5.629
 6755TIP3   OH220228   4.924   2.627   2.878
 6755TIP3    H120229   4.842   2.579   2.886
 6755TIP3    H220230   4.897   2.714   2.847
 6756TIP3   OH220231   5.083   5.731   5.597
 6756TIP3    H120232   5.001   5.693   5.628
 6756TIP3    H220233   5.058   5.815   5.558
 6757TIP3   OH220234   1.536   1.586   1.163
 6757TIP3    H120235   1.565   1.594   1.254
 6757TIP3    H220236   1.449   1.626   1.162
 6758TIP3   OH220237   1.118   0.604   0.665
 6758TIP3    H120238   1.201   0.582   0.624
 6758TIP3    H220239   1.101   0.694   0.636
 6759TIP3   OH220240   1.259   5.403   4.356
 6759TIP3    H120241   1.350   5.376   4.361
 6759TIP3    H220242   1.257   5.490   4.398
 6760TIP3   OH220243   7.230   5.967   1.742
 6760TIP3    H120244   7.211   6.035   1.808
 6760TIP3    H220245   7.261   6.016   1.666
 6761TIP3   OH220246   3.011   1.411   4.713
 6761TIP3    H120247   3.011   1.400   4.808
 6761TIP3    H220248   3.101   1.394   4.687
 6762TIP3   OH220249   4.662   6.195   4.374
 6762TIP3    H120250   4.661   6.174   4.281
 6762TIP3    H220251   4.600   6.266   4.383
 6763TIP3   OH220252   3.143   2.512   4.214
 6763TIP3    H120253   3.190   2.577   4.267
 6763TIP3    H220254   3.201   2.436   4.212
 6764TIP3   OH220255   4.204   2.603   3.778
 6764TIP3    H120256   4.246   2.612   3.693
 6764TIP3    H220257   4.268   2.640   3.840
 6765TIP3   OH220258   4.464   1.201   2.262
 6765TIP3    H120259   4.553   1.165   2.255
 6765TIP3    H220260   4.412   1.146   2.204
 6766TIP3   OH220261   6.009   4.161   2.883
 6766TIP3    H120262   5.949   4.176   2.956
 6766TIP3    H220263   5.968   4.202   2.808
 6767TIP3   OH220264   4.313   2.997   0.457
 6767TIP3    H120265   4.229   2.954   0.473
 6767TIP3    H220266   4.292   3.091   0.462
 6768TIP3   OH220267   4.963   0.812   5.874
 6768TIP3    H120268   5.035   0.856   5.830
 6768TIP3    H220269   4.979   0.825   5.967
 6769TIP3   OH220270   6.331   0.160   1.779
 6769TIP3    H120271   6.293   0.245   1.757
 6769TIP3    H220272   6.424   0.169   1.757
 6770TIP3   OH220273   0.030   0.277   1.913
 6770TIP3    H120274   0.124   0.267   1.925
 6770TIP3    H220275   0.020   0.294   1.819
 6771TIP3   OH220276   2.989   3.887   3.372
 6771TIP3    H120277   3.045   3.810   3.384
 6771TIP3    H220278   3.013   3.945   3.444
 6772TIP3   OH220279   5.019   4.412   0.768
 6772TIP3    H120280   5.081   4.407   0.695
 6772TIP3    H220281   5.059   4.358   0.836
 6773TIP3   OH220282   1.607   6.627   4.904
 6773TIP3    H120283   1.552   6.613   4.828
 6773TIP3    H220284   1.549   6.615   4.979
 6774TIP3   OH220285   0.317   0.222   4.931
 6774TIP3    H120286   0.237   0.216   4.877
 6774TIP3    H220287   0.291   0.276   5.005
 6775TIP3   OH220288   6.157   3.606   5.011
 6775TIP3    H120289   6.115   3.532   5.054
 6775TIP3    H220290   6.250   3.595   5.030
 6776TIP3   OH220291   3.012   1.257   5.662
 6776TIP3    H120292   2.988   1.201   5.736
 6776TIP3    H220293   2.930   1.298   5.635
 6777TIP3   OH220294   5.139   3.767   4.559
 6777TIP3    H120295   5.104   3.798   4.475
 6777TIP3    H220296   5.062   3.751   4.613
 6778TIP3   OH220297   0.087   1.693   1.918
 6778TIP3    H120298   0.150   1.624   1.940
 6778TIP3    H220299   0.002   1.655   1.940
 6779TIP3   OH220300   0.905   4.425   4.685
 6779TIP3    H120301   0.828   4.413   4.630
 6779TIP3    H220302   0.875   4.477   4.759
 6780TIP3   OH220303   2.223   3.030   3.255
 6780TIP3    H120304   2.298   3.001   3.308
 6780TIP3    H220305   2.250   3.115   3.220
 6781TIP3   OH220306   2.170   3.352   0.192
 6781TIP3    H120307   2.171   3.448   0.182
 6781TIP3    H220308   2.089   3.325   0.148
 6782TIP3   OH220309   4.491   5.083   1.968
 6782TIP3    H120310   4.522   5.173   1.957
 6782TIP3    H220311   4.400   5.085   1.939
 6783TIP3   OH220312   4.833   0.684   4.813
 6783TIP3    H120313   4.888   0.637   4.876
 6783TIP3    H220314   4.823   0.623   4.740
 6784TIP3   OH220315   6.784   1.641   0.472
 6784TIP3    H120316   6.749   1.722   0.435
 6784TIP3    H220317   6.709   1.598   0.513
 6785TIP3   OH220318   2.016   3.651   1.706
 6785TIP3    H120319   2.028   3.598   1.784
 6785TIP3    H220320   1.922   3.670   1.704
 6786TIP3   OH220321   4.366   0.053   1.451
 6786TIP3    H120322   4.309  -0.012   1.493
 6786TIP3    H220323   4.389   0.013   1.367
 6787TIP3   OH220324   7.049   0.876   1.220
 6787TIP3    H120325   7.133   0.883   1.265
 6787TIP3    H220326   7.058   0.931   1.142
 6788TIP3   OH220327   4.172   6.455   0.783
 6788TIP3    H120328   4.193   6.516   0.853
 6788TIP3    H220329   4.233   6.477   0.712
 6789TIP3   OH220330   2.873   4.818   2.169
 6789TIP3    H120331   2.810   4.883   2.138
 6789TIP3    H220332   2.933   4.806   2.096
 6790TIP3   OH220333   0.172   6.202   3.622
 6790TIP3    H120334   0.114   6.161   3.558
 6790TIP3    H220335   0.248   6.144   3.625
 6791TIP3   OH220336   1.267   0.880   0.814
 6791TIP3    H120337   1.173   0.865   0.802
 6791TIP3    H220338   1.272   0.954   0.874
 6792TIP3   OH220339   1.132   5.655   2.342
 6792TIP3    H120340   1.182   5.574   2.335
 6792TIP3    H220341   1.127   5.688   2.252
 6793TIP3   OH220342   1.112   1.436   1.316
 6793TIP3    H120343   1.150   1.515   1.277
 6793TIP3    H220344   1.117   1.451   1.410
 6794TIP3   OH220345   3.546   6.110   3.454
 6794TIP3    H120346   3.626   6.059   3.469
 6794TIP3    H220347   3.577   6.199   3.438
 6795TIP3   OH220348   6.468   0.462   2.248
 6795TIP3    H120349   6.460   0.520   2.173
 6795TIP3    H220350   6.427   0.510   2.320
 6796TIP3   OH220351   0.576   5.989   1.677
 6796TIP3    H120352   0.552   6.049   1.607
 6796TIP3    H220353   0.583   6.045   1.755
 6797TIP3   OH220354   0.530   1.152   1.533
 6797TIP3    H120355   0.492   1.181   1.616
 6797TIP3    H220356   0.583   1.226   1.504
 6798TIP3   OH220357   3.296   1.636   4.756
 6798TIP3    H120358   3.214   1.684   4.756
 6798TIP3    H220359   3.352   1.684   4.817
 6799TIP3   OH220360   4.149   5.307   3.272
 6799TIP3    H120361   4.222   5.314   3.334
 6799TIP3    H220362   4.073   5.338   3.321
 6800TIP3   OH220363   2.629   0.944   3.134
 6800TIP3    H120364   2.702   0.909   3.185
 6800TIP3    H220365   2.670   1.005   3.073
 6801TIP3   OH220366   0.346   1.294   1.169
 6801TIP3    H120367   0.304   1.367   1.214
 6801TIP3    H220368   0.276   1.255   1.116
 6802TIP3   OH220369   2.187   5.262   1.551
 6802TIP3    H120370   2.210   5.264   1.644
 6802TIP3    H220371   2.130   5.185   1.542
 6803TIP3   OH220372   3.253   2.690   0.400
 6803TIP3    H120373   3.283   2.754   0.465
 6803TIP3    H220374   3.279   2.605   0.438
 6804TIP3   OH220375   1.698   3.664   0.308
 6804TIP3    H120376   1.718   3.578   0.270
 6804TIP3    H220377   1.776   3.686   0.360
 6805TIP3   OH220378   2.227   0.783   0.238
 6805TIP3    H120379   2.188   0.862   0.275
 6805TIP3    H220380   2.213   0.716   0.305
 6806TIP3   OH220381   5.485   5.612   3.940
 6806TIP3    H120382   5.516   5.585   4.027
 6806TIP3    H220383   5.391   5.623   3.951
 6807TIP3   OH220384   0.982   3.246   3.678
 6807TIP3    H120385   1.041   3.306   3.725
 6807TIP3    H220386   1.030   3.224   3.598
 6808TIP3   OH220387   5.630   4.321   5.779
 6808TIP3    H120388   5.725   4.317   5.794
 6808TIP3    H220389   5.622   4.321   5.683
 6809TIP3   OH220390   4.922   5.975   0.310
 6809TIP3    H120391   4.865   5.989   0.385
 6809TIP3    H220392   4.943   5.882   0.313
 6810TIP3   OH220393   1.535   4.313   2.329
 6810TIP3    H120394   1.600   4.247   2.353
 6810TIP3    H220395   1.453   4.265   2.320
 6811TIP3   OH220396   5.435   0.572   1.610
 6811TIP3    H120397   5.418   0.591   1.702
 6811TIP3    H220398   5.355   0.598   1.565
 6812TIP3   OH220399   0.537   0.814   5.257
 6812TIP3    H120400   0.475   0.760   5.307
 6812TIP3    H220401   0.591   0.856   5.324
 6813TIP3   OH220402   3.762   2.181   0.010
 6813TIP3    H120403   3.672   2.211   0.003
 6813TIP3    H220404   3.812   2.259   0.033
 6814TIP3   OH220405   2.422   3.879   0.213
 6814TIP3    H120406   2.423   3.783   0.213
 6814TIP3    H220407   2.381   3.903   0.296
 6815TIP3   OH220408   6.469   4.108   4.513
 6815TIP3    H120409   6.494   4.130   4.424
 6815TIP3    H220410   6.492   4.015   4.522
 6816TIP3   OH220411   3.818   6.717   3.874
 6816TIP3    H120412   3.806   6.622   3.881
 6816TIP3    H220413   3.762   6.753   3.943
 6817TIP3   OH220414   1.962   6.560   0.793
 6817TIP3    H120415   1.995   6.639   0.750
 6817TIP3    H220416   1.868   6.576   0.803
 6818TIP3   OH220417   2.933   1.880   4.272
 6818TIP3    H120418   2.841   1.858   4.286
 6818TIP3    H220419   2.931   1.967   4.231
 6819TIP3   OH220420   6.756   5.118   2.408
 6819TIP3    H120421   6.766   5.087   2.498
 6819TIP3    H220422   6.709   5.201   2.417
 6820TIP3   OH220423   6.988   1.630   3.911
 6820TIP3    H120424   7.028   1.652   3.995
 6820TIP3    H220425   6.931   1.555   3.930
 6821TIP3   OH220426   5.620   0.446   2.908
 6821TIP3    H120427   5.667   0.515   2.862
 6821TIP3    H220428   5.684   0.409   2.968
 6822TIP3   OH220429   6.411   2.578   4.623
 6822TIP3    H120430   6.376   2.513   4.563
 6822TIP3    H220431   6.383   2.549   4.710
 6823TIP3   OH220432   5.151   4.846   3.101
 6823TIP3    H120433   5.233   4.797   3.106
 6823TIP3    H220434   5.108   4.813   3.022
 6824TIP3   OH220435   0.713   1.144   0.616
 6824TIP3    H120436   0.667   1.206   0.673
 6824TIP3    H220437   0.646   1.080   0.590
 6825TIP3   OH220438   2.144   3.985   2.999
 6825TIP3    H120439   2.158   4.078   3.018
 6825TIP3    H220440   2.059   3.982   2.956
 6826TIP3   OH220441   1.616   3.447   2.885
 6826TIP3    H120442   1.559   3.386   2.838
 6826TIP3    H220443   1.704   3.426   2.854
 6827TIP3   OH220444   5.156   4.162   3.266
 6827TIP3    H120445   5.075   4.207   3.291
 6827TIP3    H220446   5.129   4.099   3.199
 6828TIP3   OH220447   1.470   5.774   0.929
 6828TIP3    H120448   1.434   5.858   0.898
 6828TIP3    H220449   1.432   5.763   1.017
 6829TIP3   OH220450   4.608   5.740   3.600
 6829TIP3    H120451   4.538   5.691   3.557
 6829TIP3    H220452   4.596   5.830   3.569
 6830TIP3   OH220453   7.122   2.891   2.879
 6830TIP3    H120454   7.072   2.883   2.960
 6830TIP3    H220455   7.060   2.929   2.816
 6831TIP3   OH220456   6.173   3.732   2.516
 6831TIP3    H120457   6.117   3.767   2.585
 6831TIP3    H220458   6.228   3.668   2.561
 6832TIP3   OH220459   4.775   5.277   0.982
 6832TIP3    H120460   4.690   5.309   0.951
 6832TIP3    H220461   4.795   5.203   0.926
 6833TIP3   OH220462   4.718   4.516   1.084
 6833TIP3    H120463   4.696   4.576   1.155
 6833TIP3    H220464   4.684   4.431   1.112
 6834TIP3   OH220465   0.454   4.522   0.263
 6834TIP3    H120466   0.464   4.430   0.241
 6834TIP3    H220467   0.361   4.534   0.280
 6835TIP3   OH220468   3.624   1.716   4.671
 6835TIP3    H120469   3.629   1.752   4.583
 6835TIP3    H220470   3.587   1.787   4.724
 6836TIP3   OH220471   2.084   1.132   4.541
 6836TIP3    H120472   2.000   1.164   4.576
 6836TIP3    H220473   2.094   1.045   4.579
 6837TIP3   OH220474   0.815   2.962   0.687
 6837TIP3    H120475   0.829   2.899   0.616
 6837TIP3    H220476   0.901   3.001   0.702
 6838TIP3   OH220477   6.473   0.063   2.357
 6838TIP3    H120478   6.449   0.066   2.264
 6838TIP3    H220479   6.482  -0.031   2.376
 6839TIP3   OH220480   5.593   0.984   3.847
 6839TIP3    H120481   5.551   1.037   3.779
 6839TIP3    H220482   5.525   0.925   3.878
 6840TIP3   OH220483   1.908   0.233   0.629
 6840TIP3    H120484   1.972   0.184   0.680
 6840TIP3    H220485   1.954   0.258   0.549
 6841TIP3   OH220486   1.525   5.036   1.541
 6841TIP3    H120487   1.460   5.029   1.611
 6841TIP3    H220488   1.525   4.951   1.499
 6842TIP3   OH220489   0.788   3.759   3.991
 6842TIP3    H120490   0.841   3.709   3.930
 6842TIP3    H220491   0.726   3.807   3.936
 6843TIP3   OH220492   7.014   3.424   1.369
 6843TIP3    H120493   6.956   3.348   1.379
 6843TIP3    H220494   7.055   3.434   1.454
 6844TIP3   OH220495   0.728   6.067   2.431
 6844TIP3    H120496   0.692   5.997   2.484
 6844TIP3    H220497   0.662   6.137   2.436
 6845TIP3   OH220498   4.325   2.622   5.439
 6845TIP3    H120499   4.249   2.566   5.421
 6845TIP3    H220500   4.385   2.565   5.487
 6846TIP3   OH220501   6.076   5.833   5.307
 6846TIP3    H120502   6.081   5.792   5.393
 6846TIP3    H220503   6.125   5.774   5.250
 6847TIP3   OH220504   5.124   5.329   3.287
 6847TIP3    H120505   5.046   5.274   3.285
 6847TIP3    H220506   5.093   5.415   3.257
 6848TIP3   OH220507   2.736   6.645   4.294
 6848TIP3    H120508   2.673   6.716   4.311
 6848TIP3    H220509   2.700   6.569   4.340
 6849TIP3   OH220510   5.194   5.341   5.493
 6849TIP3    H120511   5.215   5.250   5.473
 6849TIP3    H220512   5.108   5.355   5.453
 6850TIP3   OH220513   0.529   5.154   2.590
 6850TIP3    H120514   0.518   5.249   2.583
 6850TIP3    H220515   0.440   5.121   2.605
 6851TIP3   OH220516   5.618   2.118   4.883
 6851TIP3    H120517   5.666   2.037   4.898
 6851TIP3    H220518   5.530   2.090   4.857
 6852TIP3   OH220519   7.197   5.440   0.156
 6852TIP3    H120520   7.174   5.529   0.180
 6852TIP3    H220521   7.116   5.401   0.123
 6853TIP3   OH220522   0.389   4.531   5.464
 6853TIP3    H120523   0.445   4.491   5.397
 6853TIP3    H220524   0.386   4.467   5.534
 6854TIP3   OH220525   2.249   3.861   0.620
 6854TIP3    H120526   2.243   3.924   0.693
 6854TIP3    H220527   2.166   3.814   0.622
 6855TIP3   OH220528   3.346   4.050   1.614
 6855TIP3    H120529   3.293   4.064   1.693
 6855TIP3    H220530   3.289   4.078   1.543
 6856TIP3   OH220531   2.827   5.354   5.439
 6856TIP3    H120532   2.747   5.306   5.418
 6856TIP3    H220533   2.798   5.444   5.456
 6857TIP3   OH220534   0.830   2.630   5.778
 6857TIP3    H120535   0.858   2.712   5.738
 6857TIP3    H220536   0.848   2.640   5.871
 6858TIP3   OH220537   1.059   1.718   2.659
 6858TIP3    H120538   1.059   1.696   2.752
 6858TIP3    H220539   1.099   1.804   2.655
 6859TIP3   OH220540   1.106   1.470   2.230
 6859TIP3    H120541   1.094   1.464   2.325
 6859TIP3    H220542   1.148   1.387   2.206
 6860TIP3   OH220543   6.006   5.020   5.480
 6860TIP3    H120544   6.020   5.101   5.528
 6860TIP3    H220545   6.094   4.985   5.465
 6861TIP3   OH220546   4.956   0.733   3.876
 6861TIP3    H120547   4.958   0.766   3.966
 6861TIP3    H220548   4.870   0.761   3.843
 6862TIP3   OH220549   5.319   1.911   0.526
 6862TIP3    H120550   5.256   1.967   0.573
 6862TIP3    H220551   5.389   1.895   0.589
 6863TIP3   OH220552   5.504   6.429   3.369
 6863TIP3    H120553   5.597   6.407   3.374
 6863TIP3    H220554   5.465   6.386   3.445
 6864TIP3   OH220555   7.175   3.200   3.258
 6864TIP3    H120556   7.168   3.198   3.163
 6864TIP3    H220557   7.084   3.198   3.289
 6865TIP3   OH220558   2.539   4.443   4.010
 6865TIP3    H120559   2.560   4.528   4.048
 6865TIP3    H220560   2.615   4.422   3.955
 6866TIP3   OH220561   3.979   1.150   4.319
 6866TIP3    H120562   3.942   1.180   4.401
 6866TIP3    H220563   3.994   1.056   4.332
 6867TIP3   OH220564   0.440   3.036   5.552
 6867TIP3    H120565   0.410   2.962   5.499
 6867TIP3    H220566   0.521   3.005   5.592
 6868TIP3   OH220567   5.031   6.472   0.740
 6868TIP3    H120568   5.081   6.530   0.682
 6868TIP3    H220569   5.007   6.527   0.814
 6869TIP3   OH220570   2.177   2.546   0.826
 6869TIP3    H120571   2.209   2.523   0.739
 6869TIP3    H220572   2.103   2.487   0.841
 6870TIP3   OH220573   2.932   5.846   1.403
 6870TIP3    H120574   2.974   5.864   1.487
 6870TIP3    H220575   2.999   5.864   1.338
 6871TIP3   OH220576   4.963   1.802   2.131
 6871TIP3    H120577   5.041   1.857   2.124
 6871TIP3    H220578   4.996   1.716   2.155
 6872TIP3   OH220579   1.940   5.405   1.303
 6872TIP3    H120580   1.889   5.334   1.344
 6872TIP3    H220581   1.960   5.464   1.375
 6873TIP3   OH220582   3.728   1.463   4.938
 6873TIP3    H120583   3.684   1.419   4.865
 6873TIP3    H220584   3.800   1.511   4.898
 6874TIP3   OH220585   3.384   0.426   1.230
 6874TIP3    H120586   3.396   0.411   1.324
 6874TIP3    H220587   3.465   0.394   1.190
 6875TIP3   OH220588   6.548   2.263   2.723
 6875TIP3    H120589   6.459   2.233   2.740
 6875TIP3    H220590   6.538   2.336   2.662
 6876TIP3   OH220591   5.502   4.613   3.913
 6876TIP3    H120592   5.493   4.525   3.877
 6876TIP3    H220593   5.593   4.637   3.897
 6877TIP3   OH220594   3.570   6.316   4.267
 6877TIP3    H120595   3.627   6.296   4.193
 6877TIP3    H220596   3.481   6.306   4.233
 6878TIP3   OH220597   4.581   3.979   4.848
 6878TIP3    H120598   4.528   3.910   4.808
 6878TIP3    H220599   4.538   3.997   4.932
 6879TIP3   OH220600   2.732   1.447   3.678
 6879TIP3    H120601   2.757   1.540   3.677
 6879TIP3    H220602   2.680   1.438   3.757
 6880TIP3   OH220603   4.572   4.684   3.937
 6880TIP3    H120604   4.571   4.714   3.846
 6880TIP3    H220605   4.491   4.719   3.975
 6881TIP3   OH220606   2.666   0.765   5.548
 6881TIP3    H120607   2.636   0.732   5.464
 6881TIP3    H220608   2.643   0.857   5.548
 6882TIP3   OH220609   1.958   3.851   2.805
 6882TIP3    H120610   1.918   3.889   2.727
 6882TIP3    H220611   2.028   3.796   2.772
 6883TIP3   OH220612   5.831   4.325   3.838
 6883TIP3    H120613   5.824   4.380   3.916
 6883TIP3    H220614   5.750   4.340   3.790
 6884TIP3   OH220615   4.114   3.137   5.146
 6884TIP3    H120616   4.180   3.205   5.133
 6884TIP3    H220617   4.130   3.106   5.235
 6885TIP3   OH220618   5.531   1.580   0.484
 6885TIP3    H120619   5.557   1.514   0.420
 6885TIP3    H220620   5.612   1.605   0.528
 6886TIP3   OH220621   2.963   2.925   0.613
 6886TIP3    H120622   2.902   2.892   0.679
 6886TIP3    H220623   3.041   2.948   0.662
 6887TIP3   OH220624   6.501   1.365   5.873
 6887TIP3    H120625   6.440   1.392   5.941
 6887TIP3    H220626   6.487   1.428   5.802
 6888TIP3   OH220627   4.682   1.522   1.529
 6888TIP3    H120628   4.679   1.428   1.549
 6888TIP3    H220629   4.756   1.555   1.579
 6889TIP3   OH220630   0.554   3.364   4.408
 6889TIP3    H120631   0.485   3.418   4.370
 6889TIP3    H220632   0.513   3.279   4.421
 6890TIP3   OH220633   0.141   6.412   0.240
 6890TIP3    H120634   0.193   6.440   0.165
 6890TIP3    H220635   0.122   6.320   0.224
 6891TIP3   OH220636   1.294   3.220   0.363
 6891TIP3    H120637   1.209   3.203   0.323
 6891TIP3    H220638   1.275   3.271   0.442
 6892TIP3   OH220639   4.949   4.383   2.493
 6892TIP3    H120640   4.864   4.425   2.479
 6892TIP3    H220641   4.996   4.443   2.551
 6893TIP3   OH220642   1.461   6.182   5.803
 6893TIP3    H120643   1.456   6.091   5.772
 6893TIP3    H220644   1.549   6.191   5.838
 6894TIP3   OH220645   2.348   6.444   0.057
 6894TIP3    H120646   2.301   6.527   0.068
 6894TIP3    H220647   2.363   6.413   0.147
 6895TIP3   OH220648   0.136   0.424   1.353
 6895TIP3    H120649   0.045   0.406   1.378
 6895TIP3    H220650   0.148   0.377   1.271
 6896TIP3   OH220651   0.804   3.236   0.251
 6896TIP3    H120652   0.820   3.209   0.161
 6896TIP3    H220653   0.826   3.330   0.252
 6897TIP3   OH220654   6.523   3.630   3.316
 6897TIP3    H120655   6.435   3.615   3.283
 6897TIP3    H220656   6.579   3.624   3.239
 6898TIP3   OH220657   3.451   0.034   5.078
 6898TIP3    H120658   3.361   0.015   5.051
 6898TIP3    H220659   3.505   0.015   5.001
 6899TIP3   OH220660   1.841   5.862   2.751
 6899TIP3    H120661   1.933   5.839   2.765
 6899TIP3    H220662   1.838   5.894   2.661
 6900TIP3   OH220663   3.545   6.149   2.921
 6900TIP3    H120664   3.614   6.093   2.956
 6900TIP3    H220665   3.548   6.228   2.975
 6901TIP3   OH220666   0.569   5.402   5.221
 6901TIP3    H120667   0.631   5.338   5.254
 6901TIP3    H220668   0.483   5.363   5.234
 6902TIP3   OH220669   3.777   2.517   4.561
 6902TIP3    H120670   3.857   2.559   4.530
 6902TIP3    H220671   3.782   2.523   4.656
 6903TIP3   OH220672   5.016   3.242   4.416
 6903TIP3    H120673   5.010   3.328   4.375
 6903TIP3    H220674   5.014   3.181   4.342
 6904TIP3   OH220675   2.061   6.049   2.129
 6904TIP3    H120676   2.104   6.134   2.116
 6904TIP3    H220677   2.093   5.995   2.056
 6905TIP3   OH220678   6.142   3.670   5.532
 6905TIP3    H120679   6.090   3.629   5.462
 6905TIP3    H220680   6.091   3.748   5.556
 6906TIP3   OH220681   2.265   4.348   1.890
 6906TIP3    H120682   2.330   4.281   1.912
 6906TIP3    H220683   2.271   4.412   1.960
 6907TIP3   OH220684   2.144   6.775   1.627
 6907TIP3    H120685   2.148   6.693   1.579
 6907TIP3    H220686   2.085   6.830   1.575
 6908TIP3   OH220687   3.164   6.273   2.435
 6908TIP3    H120688   3.124   6.288   2.520
 6908TIP3    H220689   3.222   6.348   2.421
 6909TIP3   OH220690   6.387   6.475   2.715
 6909TIP3    H120691   6.303   6.445   2.749
 6909TIP3    H220692   6.363   6.536   2.644
 6910TIP3   OH220693   2.625   0.586   1.458
 6910TIP3    H120694   2.556   0.638   1.418
 6910TIP3    H220695   2.617   0.500   1.416
 6911TIP3   OH220696   2.415   4.246   3.342
 6911TIP3    H120697   2.363   4.167   3.326
 6911TIP3    H220698   2.434   4.281   3.255
 6912TIP3   OH220699   0.114   5.382   1.756
 6912TIP3    H120700   0.171   5.457   1.773
 6912TIP3    H220701   0.077   5.361   1.842
 6913TIP3   OH220702   4.106   2.756   5.537
 6913TIP3    H120703   4.187   2.708   5.519
 6913TIP3    H220704   4.130   2.819   5.605
 6914TIP3   OH220705   2.745   6.308   2.051
 6914TIP3    H120706   2.716   6.287   1.962
 6914TIP3    H220707   2.710   6.395   2.068
 6915TIP3   OH220708   0.073   3.648   1.588
 6915TIP3    H120709   0.032   3.695   1.515
 6915TIP3    H220710   0.103   3.717   1.647
 6916TIP3   OH220711   2.879   4.078   1.460
 6916TIP3    H120712   2.832   4.002   1.493
 6916TIP3    H220713   2.886   4.064   1.366
 6917TIP3   OH220714   0.172   6.462   3.007
 6917TIP3    H120715   0.132   6.380   2.978
 6917TIP3    H220716   0.208   6.501   2.927
 6918TIP3   OH220717   5.146   3.187   4.865
 6918TIP3    H120718   5.142   3.165   4.958
 6918TIP3    H220719   5.074   3.139   4.826
 6919TIP3   OH220720   6.680   2.523   4.203
 6919TIP3    H120721   6.591   2.519   4.237
 6919TIP3    H220722   6.706   2.431   4.193
 6920TIP3   OH220723   6.100   2.819   2.334
 6920TIP3    H120724   6.039   2.891   2.323
 6920TIP3    H220725   6.046   2.747   2.367
 6921TIP3   OH220726   4.270   5.555   1.410
 6921TIP3    H120727   4.219   5.567   1.490
 6921TIP3    H220728   4.289   5.461   1.408
 6922TIP3   OH220729   6.890   3.682   1.246
 6922TIP3    H120730   6.805   3.724   1.232
 6922TIP3    H220731   6.887   3.654   1.337
 6923TIP3   OH220732   1.995   6.073   0.179
 6923TIP3    H120733   1.907   6.092   0.148
 6923TIP3    H220734   2.024   6.154   0.222
 6924TIP3   OH220735   5.753   3.600   3.760
 6924TIP3    H120736   5.795   3.642   3.835
 6924TIP3    H220737   5.774   3.656   3.685
 6925TIP3   OH220738   1.889   0.379   3.608
 6925TIP3    H120739   1.828   0.309   3.632
 6925TIP3    H220740   1.838   0.438   3.553
 6926TIP3   OH220741   6.127   2.747   4.651
 6926TIP3    H120742   6.061   2.698   4.699
 6926TIP3    H220743   6.208   2.734   4.700
 6927TIP3   OH220744   1.592   6.618   1.752
 6927TIP3    H120745   1.532   6.548   1.776
 6927TIP3    H220746   1.679   6.576   1.752
 6928TIP3   OH220747   0.787   6.310   0.973
 6928TIP3    H120748   0.734   6.363   1.032
 6928TIP3    H220749   0.724   6.253   0.928
 6929TIP3   OH220750   1.716   6.214   2.138
 6929TIP3    H120751   1.779   6.284   2.123
 6929TIP3    H220752   1.762   6.134   2.113
 6930TIP3   OH220753   1.872   5.668   4.319
 6930TIP3    H120754   1.880   5.744   4.261
 6930TIP3    H220755   1.801   5.691   4.379
 6931TIP3   OH220756   5.613   3.073   2.585
 6931TIP3    H120757   5.640   2.994   2.537
 6931TIP3    H220758   5.518   3.066   2.590
 6932TIP3   OH220759   5.707   5.759   5.735
 6932TIP3    H120760   5.641   5.725   5.795
 6932TIP3    H220761   5.657   5.803   5.666
 6933TIP3   OH220762   0.392   2.712   0.546
 6933TIP3    H120763   0.416   2.626   0.511
 6933TIP3    H220764   0.409   2.773   0.474
 6934TIP3   OH220765   2.892   0.136   2.137
 6934TIP3    H120766   2.803   0.166   2.158
 6934TIP3    H220767   2.915   0.184   2.057
 6935TIP3   OH220768   0.293   0.588   0.161
 6935TIP3    H120769   0.226   0.654   0.174
 6935TIP3    H220770   0.262   0.535   0.087
 6936TIP3   OH220771   4.111   3.796   0.312
 6936TIP3    H120772   4.206   3.789   0.302
 6936TIP3    H220773   4.096   3.788   0.406
 6937TIP3   OH220774   1.176   2.267   0.717
 6937TIP3    H120775   1.170   2.205   0.644
 6937TIP3    H220776   1.087   2.271   0.753
 6938TIP3   OH220777   3.819   6.602   2.415
 6938TIP3    H120778   3.805   6.510   2.392
 6938TIP3    H220779   3.907   6.622   2.383
 6939TIP3   OH220780   5.237   3.739   5.683
 6939TIP3    H120781   5.156   3.723   5.732
 6939TIP3    H220782   5.214   3.717   5.592
 6940TIP3   OH220783   4.239   1.433   3.840
 6940TIP3    H120784   4.209   1.522   3.820
 6940TIP3    H220785   4.246   1.391   3.754
 6941TIP3   OH220786   4.925   0.899   5.394
 6941TIP3    H120787   4.892   0.926   5.479
 6941TIP3    H220788   5.000   0.842   5.413
 6942TIP3   OH220789   3.981   5.089   1.850
 6942TIP3    H120790   3.961   5.168   1.901
 6942TIP3    H220791   3.993   5.021   1.916
 6943TIP3   OH220792   3.795   4.443   1.404
 6943TIP3    H120793   3.764   4.467   1.491
 6943TIP3    H220794   3.768   4.351   1.394
 6944TIP3   OH220795   0.725   0.179   2.648
 6944TIP3    H120796   0.789   0.151   2.583
 6944TIP3    H220797   0.671   0.101   2.663
 6945TIP3   OH220798   3.836   0.398   1.799
 6945TIP3    H120799   3.756   0.396   1.851
 6945TIP3    H220800   3.850   0.306   1.773
 6946TIP3   OH220801   0.337   2.742   3.186
 6946TIP3    H120802   0.405   2.752   3.253
 6946TIP3    H220803   0.260   2.710   3.234
 6947TIP3   OH220804   6.100   2.234   2.849
 6947TIP3    H120805   6.087   2.328   2.837
 6947TIP3    H220806   6.042   2.211   2.922
 6948TIP3   OH220807   2.747   5.091   0.990
 6948TIP3    H120808   2.746   5.183   0.964
 6948TIP3    H220809   2.666   5.078   1.039
 6949TIP3   OH220810   5.745   0.285   5.245
 6949TIP3    H120811   5.733   0.266   5.338
 6949TIP3    H220812   5.660   0.265   5.205
 6950TIP3   OH220813   0.849   3.099   1.283
 6950TIP3    H120814   0.937   3.065   1.265
 6950TIP3    H220815   0.807   3.030   1.334
 6951TIP3   OH220816   2.031   3.747   5.111
 6951TIP3    H120817   1.999   3.695   5.185
 6951TIP3    H220818   2.075   3.683   5.055
 6952TIP3   OH220819   1.526   2.938   1.280
 6952TIP3    H120820   1.597   3.002   1.272
 6952TIP3    H220821   1.452   2.979   1.235
 6953TIP3   OH220822   3.654   5.914   2.309
 6953TIP3    H120823   3.568   5.956   2.301
 6953TIP3    H220824   3.644   5.852   2.380
 6954TIP3   OH220825   3.795   4.062   1.972
 6954TIP3    H120826   3.890   4.076   1.979
 6954TIP3    H220827   3.782   3.970   1.997
 6955TIP3   OH220828   4.018   3.095   0.474
 6955TIP3    H120829   3.983   3.179   0.442
 6955TIP3    H220830   3.989   3.090   0.565
 6956TIP3   OH220831   3.582   3.196   4.627
 6956TIP3    H120832   3.586   3.239   4.712
 6956TIP3    H220833   3.637   3.118   4.636
 6957TIP3   OH220834   6.805   4.756   3.288
 6957TIP3    H120835   6.812   4.698   3.364
 6957TIP3    H220836   6.777   4.840   3.323
 6958TIP3   OH220837   7.064   1.407   3.090
 6958TIP3    H120838   7.065   1.481   3.029
 6958TIP3    H220839   7.042   1.331   3.036
 6959TIP3   OH220840   0.432   4.229   1.215
 6959TIP3    H120841   0.491   4.303   1.229
 6959TIP3    H220842   0.446   4.173   1.292
 6960TIP3   OH220843   1.599   0.443   3.952
 6960TIP3    H120844   1.597   0.538   3.938
 6960TIP3    H220845   1.574   0.406   3.867
 6961TIP3   OH220846   7.077   2.720   4.783
 6961TIP3    H120847   7.008   2.744   4.721
 6961TIP3    H220848   7.140   2.670   4.731
 6962TIP3   OH220849   3.816   2.047   4.713
 6962TIP3    H120850   3.750   2.028   4.646
 6962TIP3    H220851   3.787   1.997   4.790
 6963TIP3   OH220852   0.559   3.114   0.049
 6963TIP3    H120853   0.487   3.136   0.108
 6963TIP3    H220854   0.571   3.191  -0.006
 6964TIP3   OH220855   6.227   4.134   2.081
 6964TIP3    H120856   6.241   4.066   2.146
 6964TIP3    H220857   6.148   4.107   2.034
 6965TIP3   OH220858   1.274   4.541   4.563
 6965TIP3    H120859   1.279   4.636   4.570
 6965TIP3    H220860   1.328   4.520   4.486
 6966TIP3   OH220861   5.674   1.394   3.456
 6966TIP3    H120862   5.650   1.448   3.532
 6966TIP3    H220863   5.699   1.310   3.493
 6967TIP3   OH220864   0.234   5.535   3.510
 6967TIP3    H120865   0.329   5.535   3.522
 6967TIP3    H220866   0.220   5.500   3.423
 6968TIP3   OH220867   4.914   3.773   4.721
 6968TIP3    H120868   4.944   3.856   4.757
 6968TIP3    H220869   4.838   3.750   4.774
 6969TIP3   OH220870   5.386   1.258   3.593
 6969TIP3    H120871   5.415   1.292   3.508
 6969TIP3    H220872   5.291   1.250   3.584
 6970TIP3   OH220873   6.715   2.195   2.953
 6970TIP3    H120874   6.674   2.237   2.877
 6970TIP3    H220875   6.644   2.145   2.994
 6971TIP3   OH220876   0.627   5.390   3.111
 6971TIP3    H120877   0.608   5.484   3.104
 6971TIP3    H220878   0.691   5.373   3.042
 6972TIP3   OH220879   4.481   1.273   3.455
 6972TIP3    H120880   4.385   1.279   3.449
 6972TIP3    H220881   4.508   1.359   3.487
 6973TIP3   OH220882   2.506   5.539   2.186
 6973TIP3    H120883   2.517   5.627   2.149
 6973TIP3    H220884   2.485   5.554   2.278
 6974TIP3   OH220885   2.345   3.439   3.677
 6974TIP3    H120886   2.434   3.464   3.653
 6974TIP3    H220887   2.291   3.477   3.607
 6975TIP3   OH220888   6.306   3.612   4.750
 6975TIP3    H120889   6.274   3.569   4.671
 6975TIP3    H220890   6.238   3.597   4.815
 6976TIP3   OH220891   0.612   4.991   2.355
 6976TIP3    H120892   0.613   5.048   2.431
 6976TIP3    H220893   0.704   4.985   2.328
 6977TIP3   OH220894   5.824   3.037   5.592
 6977TIP3    H120895   5.912   3.068   5.615
 6977TIP3    H220896   5.798   2.981   5.666
 6978TIP3   OH220897   7.228   6.524   0.467
 6978TIP3    H120898   7.253   6.472   0.390
 6978TIP3    H220899   7.209   6.459   0.535
 6979TIP3   OH220900   1.971   5.761   1.956
 6979TIP3    H120901   2.054   5.801   1.981
 6979TIP3    H220902   1.967   5.680   2.007
 6980TIP3   OH220903   1.377   3.731   2.623
 6980TIP3    H120904   1.471   3.715   2.630
 6980TIP3    H220905   1.355   3.777   2.704
 6981TIP3   OH220906   6.960   2.675   5.419
 6981TIP3    H120907   6.977   2.769   5.412
 6981TIP3    H220908   6.865   2.668   5.422
 6982TIP3   OH220909   0.053   3.800   2.836
 6982TIP3    H120910   0.022   3.811   2.925
 6982TIP3    H220911   0.148   3.791   2.844
 6983TIP3   OH220912   5.476   0.610   3.223
 6983TIP3    H120913   5.504   0.519   3.223
 6983TIP3    H220914   5.540   0.654   3.166
 6984TIP3   OH220915   2.692   6.510   2.611
 6984TIP3    H120916   2.649   6.567   2.547
 6984TIP3    H220917   2.783   6.505   2.580
 6985TIP3   OH220918   4.768   5.131   2.808
 6985TIP3    H120919   4.824   5.172   2.875
 6985TIP3    H220920   4.692   5.099   2.857
 6986TIP3   OH220921   1.139   4.962   3.753
 6986TIP3    H120922   1.049   4.935   3.772
 6986TIP3    H220923   1.188   4.880   3.747
 6987TIP3   OH220924   3.130   0.758   2.090
 6987TIP3    H120925   3.187   0.820   2.043
 6987TIP3    H220926   3.142   0.675   2.043
 6988TIP3   OH220927   6.785   5.427   0.298
 6988TIP3    H120928   6.800   5.403   0.390
 6988TIP3    H220929   6.723   5.500   0.303
 6989TIP3   OH220930   2.168   1.556   3.091
 6989TIP3    H120931   2.156   1.566   2.997
 6989TIP3    H220932   2.250   1.602   3.110
 6990TIP3   OH220933   2.113   5.830   1.629
 6990TIP3    H120934   2.028   5.849   1.590
 6990TIP3    H220935   2.177   5.858   1.563
 6991TIP3   OH220936   4.127   2.246   4.057
 6991TIP3    H120937   4.161   2.183   4.119
 6991TIP3    H220938   4.165   2.330   4.083
 6992TIP3   OH220939   0.199   4.671   3.582
 6992TIP3    H120940   0.267   4.685   3.648
 6992TIP3    H220941   0.246   4.637   3.506
 6993TIP3   OH220942   5.074   6.475   5.774
 6993TIP3    H120943   5.129   6.552   5.765
 6993TIP3    H220944   5.133   6.407   5.807
 6994TIP3   OH220945   7.070   6.393   0.098
 6994TIP3    H120946   7.004   6.402   0.166
 6994TIP3    H220947   7.116   6.476   0.098
 6995TIP3   OH220948   3.608   1.799   1.038
 6995TIP3    H120949   3.515   1.821   1.046
 6995TIP3    H220950   3.637   1.847   0.960
 6996TIP3   OH220951   1.199   2.071   4.240
 6996TIP3    H120952   1.168   2.028   4.319
 6996TIP3    H220953   1.283   2.110   4.264
 6997TIP3   OH220954   2.786   0.440   4.020
 6997TIP3    H120955   2.843   0.365   4.003
 6997TIP3    H220956   2.708   0.424   3.967
 6998TIP3   OH220957   6.688   5.628   2.660
 6998TIP3    H120958   6.706   5.654   2.570
 6998TIP3    H220959   6.754   5.675   2.712
 6999TIP3   OH220960   5.086   0.439   3.745
 6999TIP3    H120961   5.042   0.481   3.820
 6999TIP3    H220962   5.048   0.352   3.741
 7000TIP3   OH220963   6.587   2.911   2.148
 7000TIP3    H120964   6.600   2.912   2.053
 7000TIP3    H220965   6.492   2.917   2.159
 7001TIP3   OH220966   0.735   4.838   5.754
 7001TIP3    H120967   0.802   4.798   5.697
 7001TIP3    H220968   0.785   4.889   5.817
 7002TIP3   OH220969   0.445   6.504   2.220
 7002TIP3    H120970   0.369   6.504   2.163
 7002TIP3    H220971   0.429   6.575   2.282
 7003TIP3   OH220972   3.487   6.771   3.194
 7003TIP3    H120973   3.511   6.830   3.266
 7003TIP3    H220974   3.483   6.685   3.235
 7004TIP3   OH220975   6.617   0.137   1.722
 7004TIP3    H120976   6.688   0.088   1.764
 7004TIP3    H220977   6.631   0.228   1.749
 7005TIP3   OH220978   5.286   0.230   1.010
 7005TIP3    H120979   5.324   0.296   1.068
 7005TIP3    H220980   5.361   0.182   0.976
 7006TIP3   OH220981   6.724   2.261   0.423
 7006TIP3    H120982   6.729   2.167   0.407
 7006TIP3    H220983   6.632   2.283   0.409
 7007TIP3   OH220984   2.491   2.122   3.514
 7007TIP3    H120985   2.425   2.191   3.521
 7007TIP3    H220986   2.463   2.055   3.577
 7008TIP3   OH220987   0.621   0.864   3.793
 7008TIP3    H120988   0.553   0.928   3.771
 7008TIP3    H220989   0.607   0.792   3.731
 7009TIP3   OH220990   0.308   3.730   5.732
 7009TIP3    H120991   0.385   3.740   5.677
 7009TIP3    H220992   0.343   3.727   5.821
 7010TIP3   OH220993   2.548   1.692   4.038
 7010TIP3    H120994   2.488   1.691   4.112
 7010TIP3    H220995   2.613   1.624   4.058
 7011TIP3   OH220996   5.718   6.105   3.272
 7011TIP3    H120997   5.705   6.191   3.233
 7011TIP3    H220998   5.793   6.116   3.330
 7012TIP3   OH220999   5.764   2.748   0.634
 7012TIP3    H121000   5.701   2.790   0.576
 7012TIP3    H221001   5.842   2.803   0.630
 7013TIP3   OH221002   3.587   3.912   2.504
 7013TIP3    H121003   3.555   3.827   2.532
 7013TIP3    H221004   3.667   3.893   2.454
 7014TIP3   OH221005   4.022   1.684   3.230
 7014TIP3    H121006   3.929   1.669   3.213
 7014TIP3    H221007   4.040   1.769   3.189
 7015TIP3   OH221008   1.692   4.719   3.114
 7015TIP3    H121009   1.649   4.790   3.161
 7015TIP3    H221010   1.693   4.748   3.023
 7016TIP3   OH221011   5.828   4.040   4.431
 7016TIP3    H121012   5.861   4.110   4.487
 7016TIP3    H221013   5.760   3.997   4.484
 7017TIP3   OH221014   2.042   5.994   3.614
 7017TIP3    H121015   2.108   5.934   3.650
 7017TIP3    H221016   1.984   5.937   3.564
 7018TIP3   OH221017   0.369   4.698   0.965
 7018TIP3    H121018   0.328   4.730   1.046
 7018TIP3    H221019   0.354   4.768   0.902
 7019TIP3   OH221020   0.045   3.895   0.381
 7019TIP3    H121021   0.067   3.806   0.409
 7019TIP3    H221022   0.067   3.897   0.287
 7020TIP3   OH221023   5.779   6.825   4.186
 7020TIP3    H121024   5.858   6.872   4.156
 7020TIP3    H221025   5.787   6.824   4.281
 7021TIP3   OH221026   5.549   0.866   1.793
 7021TIP3    H121027   5.636   0.831   1.811
 7021TIP3    H221028   5.562   0.960   1.781
 7022TIP3   OH221029   3.941   5.839   1.089
 7022TIP3    H121030   4.016   5.798   1.132
 7022TIP3    H221031   3.971   5.927   1.067
 7023TIP3   OH221032   3.239   6.807   3.684
 7023TIP3    H121033   3.262   6.844   3.769
 7023TIP3    H221034   3.283   6.722   3.682
 7024TIP3   OH221035   2.881   1.628   2.270
 7024TIP3    H121036   2.943   1.651   2.200
 7024TIP3    H221037   2.933   1.631   2.350
 7025TIP3   OH221038   4.202   0.234   2.898
 7025TIP3    H121039   4.254   0.314   2.888
 7025TIP3    H221040   4.261   0.173   2.942
 7026TIP3   OH221041   5.455   1.054   2.603
 7026TIP3    H121042   5.383   1.089   2.654
 7026TIP3    H221043   5.432   0.962   2.588
 7027TIP3   OH221044   3.502   0.755   5.445
 7027TIP3    H121045   3.582   0.709   5.419
 7027TIP3    H221046   3.532   0.832   5.492
 7028TIP3   OH221047   0.293   1.607   4.987
 7028TIP3    H121048   0.281   1.603   5.081
 7028TIP3    H221049   0.214   1.566   4.951
 7029TIP3   OH221050   6.440   5.718   5.501
 7029TIP3    H121051   6.504   5.717   5.572
 7029TIP3    H221052   6.361   5.681   5.540
 7030TIP3   OH221053   6.722   4.384   1.576
 7030TIP3    H121054   6.690   4.354   1.661
 7030TIP3    H221055   6.699   4.313   1.516
 7031TIP3   OH221056   3.125   0.113   0.071
 7031TIP3    H121057   3.138   0.207   0.086
 7031TIP3    H221058   3.173   0.071   0.142
 7032TIP3   OH221059   4.862   6.323   2.251
 7032TIP3    H121060   4.948   6.365   2.239
 7032TIP3    H221061   4.878   6.255   2.317
 7033TIP3   OH221062   3.094   3.783   2.918
 7033TIP3    H121063   3.084   3.866   2.963
 7033TIP3    H221064   3.027   3.726   2.956
 7034TIP3   OH221065   6.336   0.359   4.001
 7034TIP3    H121066   6.298   0.444   4.022
 7034TIP3    H221067   6.383   0.373   3.919
 7035TIP3   OH221068   1.468   0.227   5.615
 7035TIP3    H121069   1.531   0.164   5.651
 7035TIP3    H221070   1.405   0.241   5.686
 7036TIP3   OH221071   5.062   3.337   1.179
 7036TIP3    H121072   5.117   3.291   1.115
 7036TIP3    H221073   5.080   3.430   1.163
 7037TIP3   OH221074   7.108   4.506   1.374
 7037TIP3    H121075   7.085   4.570   1.307
 7037TIP3    H221076   7.191   4.469   1.345
 7038TIP3   OH221077   0.434   4.263   0.114
 7038TIP3    H121078   0.473   4.200   0.053
 7038TIP3    H221079   0.399   4.209   0.185
 7039TIP3   OH221080   1.985   5.378   0.683
 7039TIP3    H121081   2.023   5.466   0.675
 7039TIP3    H221082   1.907   5.381   0.627
 7040TIP3   OH221083   3.974   2.905   4.719
 7040TIP3    H121084   4.008   2.909   4.808
 7040TIP3    H221085   4.053   2.900   4.664
 7041TIP3   OH221086   6.334   2.116   4.642
 7041TIP3    H121087   6.249   2.073   4.651
 7041TIP3    H221088   6.374   2.077   4.564
 7042TIP3   OH221089   6.058   0.201   0.576
 7042TIP3    H121090   6.000   0.134   0.539
 7042TIP3    H221091   6.077   0.169   0.664
 7043TIP3   OH221092   3.248   2.739   1.758
 7043TIP3    H121093   3.180   2.701   1.702
 7043TIP3    H221094   3.275   2.667   1.815
 7044TIP3   OH221095   6.998   4.600   3.831
 7044TIP3    H121096   6.982   4.593   3.925
 7044TIP3    H221097   7.072   4.661   3.823
 7045TIP3   OH221098   3.594   2.858   1.097
 7045TIP3    H121099   3.566   2.924   1.161
 7045TIP3    H221100   3.602   2.907   1.015
 7046TIP3   OH221101   4.196   0.447   3.723
 7046TIP3    H121102   4.260   0.416   3.787
 7046TIP3    H221103   4.215   0.396   3.644
 7047TIP3   OH221104   7.116   2.123   3.902
 7047TIP3    H121105   7.140   2.030   3.900
 7047TIP3    H221106   7.102   2.142   3.994
 7048TIP3   OH221107   6.625   1.547   3.876
 7048TIP3    H121108   6.628   1.552   3.780
 7048TIP3    H221109   6.700   1.491   3.898
 7049TIP3   OH221110   2.372   4.994   4.265
 7049TIP3    H121111   2.367   5.039   4.180
 7049TIP3    H221112   2.324   5.052   4.324
 7050TIP3   OH221113   0.741   1.790   3.310
 7050TIP3    H121114   0.773   1.703   3.289
 7050TIP3    H221115   0.748   1.796   3.405
 7051TIP3   OH221116   1.140   2.034   0.976
 7051TIP3    H121117   1.133   2.056   0.883
 7051TIP3    H221118   1.167   2.116   1.018
 7052TIP3   OH221119   4.383   0.731   3.588
 7052TIP3    H121120   4.468   0.758   3.552
 7052TIP3    H221121   4.386   0.635   3.584
 7053TIP3   OH221122   0.211   0.143   1.603
 7053TIP3    H121123   0.239   0.108   1.519
 7053TIP3    H221124   0.259   0.226   1.611
 7054TIP3   OH221125   5.450   6.430   5.407
 7054TIP3    H121126   5.529   6.426   5.461
 7054TIP3    H221127   5.474   6.484   5.332
 7055TIP3   OH221128   1.541   3.623   1.426
 7055TIP3    H121129   1.459   3.629   1.377
 7055TIP3    H221130   1.609   3.651   1.365
 7056TIP3   OH221131   3.628   4.580   4.678
 7056TIP3    H121132   3.719   4.553   4.665
 7056TIP3    H221133   3.628   4.673   4.658
 7057TIP3   OH221134   3.611   6.104   0.948
 7057TIP3    H121135   3.577   6.157   1.020
 7057TIP3    H221136   3.533   6.075   0.901
 7058TIP3   OH221137   3.267   5.706   2.061
 7058TIP3    H121138   3.352   5.677   2.093
 7058TIP3    H221139   3.282   5.797   2.034
 7059TIP3   OH221140   3.973   2.800   5.879
 7059TIP3    H121141   3.903   2.738   5.858
 7059TIP3    H221142   3.990   2.787   5.972
 7060TIP3   OH221143   0.233   0.337   0.483
 7060TIP3    H121144   0.199   0.419   0.447
 7060TIP3    H221145   0.216   0.272   0.415
 7061TIP3   OH221146   4.280   6.562   5.035
 7061TIP3    H121147   4.258   6.610   4.955
 7061TIP3    H221148   4.375   6.555   5.032
 7062TIP3   OH221149   6.158   0.733   0.728
 7062TIP3    H121150   6.227   0.798   0.715
 7062TIP3    H221151   6.205   0.650   0.738
 7063TIP3   OH221152   5.423   0.678   4.344
 7063TIP3    H121153   5.391   0.743   4.281
 7063TIP3    H221154   5.473   0.728   4.408
 7064TIP3   OH221155   4.265   6.020   1.790
 7064TIP3    H121156   4.268   6.116   1.798
 7064TIP3    H221157   4.184   6.003   1.742
 7065TIP3   OH221158   4.258   3.290   0.558
 7065TIP3    H121159   4.246   3.272   0.651
 7065TIP3    H221160   4.180   3.339   0.533
 7066TIP3   OH221161   4.897   5.438   5.785
 7066TIP3    H121162   4.860   5.505   5.728
 7066TIP3    H221163   4.845   5.444   5.866
 7067TIP3   OH221164   2.524   5.893   2.649
 7067TIP3    H121165   2.580   5.964   2.682
 7067TIP3    H221166   2.504   5.840   2.726
 7068TIP3   OH221167   6.613   3.122   1.068
 7068TIP3    H121168   6.659   3.149   0.989
 7068TIP3    H221169   6.533   3.174   1.069
 7069TIP3   OH221170   0.709   2.948   0.354
 7069TIP3    H121171   0.613   2.941   0.358
 7069TIP3    H221172   0.725   3.036   0.320
 7070TIP3   OH221173   5.728   0.085   3.935
 7070TIP3    H121174   5.748  -0.001   3.973
 7070TIP3    H221175   5.669   0.126   3.998
 7071TIP3   OH221176   2.953   5.127   0.280
 7071TIP3    H121177   2.922   5.180   0.207
 7071TIP3    H221178   3.002   5.188   0.335
 7072TIP3   OH221179   3.932   2.836   0.930
 7072TIP3    H121180   3.925   2.744   0.956
 7072TIP3    H221181   3.917   2.885   1.012
 7073TIP3   OH221182   6.809   1.010   4.430
 7073TIP3    H121183   6.836   0.923   4.402
 7073TIP3    H221184   6.753   1.042   4.359
 7074TIP3   OH221185   1.789   1.756   4.511
 7074TIP3    H121186   1.715   1.814   4.525
 7074TIP3    H221187   1.757   1.669   4.536
 7075TIP3   OH221188   2.217   4.246   3.071
 7075TIP3    H121189   2.233   4.302   2.996
 7075TIP3    H221190   2.159   4.297   3.128
 7076TIP3   OH221191   2.434   1.615   4.927
 7076TIP3    H121192   2.502   1.681   4.925
 7076TIP3    H221193   2.399   1.618   5.016
 7077TIP3   OH221194   2.469   4.943   5.684
 7077TIP3    H121195   2.506   5.030   5.672
 7077TIP3    H221196   2.519   4.905   5.756
 7078TIP3   OH221197   1.345   0.438   0.985
 7078TIP3    H121198   1.265   0.446   1.038
 7078TIP3    H221199   1.363   0.528   0.957
 7079TIP3   OH221200   3.386   3.994   5.529
 7079TIP3    H121201   3.428   3.908   5.519
 7079TIP3    H221202   3.450   4.056   5.493
 7080TIP3   OH221203   3.948   5.415   4.950
 7080TIP3    H121204   4.044   5.424   4.952
 7080TIP3    H221205   3.925   5.388   5.038
 7081TIP3   OH221206   5.001   1.712   0.311
 7081TIP3    H121207   5.093   1.697   0.293
 7081TIP3    H221208   4.966   1.625   0.332
 7082TIP3   OH221209   5.418   2.427   0.230
 7082TIP3    H121210   5.343   2.392   0.182
 7082TIP3    H221211   5.493   2.414   0.171
 7083TIP3   OH221212   4.997   3.429   4.201
 7083TIP3    H121213   5.061   3.483   4.154
 7083TIP3    H221214   4.961   3.371   4.134
 7084TIP3   OH221215   4.962   2.931   1.648
 7084TIP3    H121216   4.995   3.011   1.688
 7084TIP3    H221217   4.982   2.940   1.555
 7085TIP3   OH221218   4.399   2.456   3.280
 7085TIP3    H121219   4.487   2.478   3.312
 7085TIP3    H221220   4.370   2.536   3.236
 7086TIP3   OH221221   5.546   4.920   0.152
 7086TIP3    H121222   5.609   4.899   0.220
 7086TIP3    H221223   5.580   4.878   0.073
 7087TIP3   OH221224   4.696   4.534   2.450
 7087TIP3    H121225   4.742   4.614   2.475
 7087TIP3    H221226   4.608   4.563   2.425
 7088TIP3   OH221227   1.757   1.820   2.874
 7088TIP3    H121228   1.769   1.845   2.782
 7088TIP3    H221229   1.795   1.732   2.880
 7089TIP3   OH221230   1.634   4.218   3.326
 7089TIP3    H121231   1.630   4.309   3.295
 7089TIP3    H221232   1.581   4.218   3.406
 7090TIP3   OH221233   3.238   5.905   4.081
 7090TIP3    H121234   3.300   5.912   4.008
 7090TIP3    H221235   3.152   5.915   4.040
 7091TIP3   OH221236   2.675   1.397   1.393
 7091TIP3    H121237   2.669   1.330   1.325
 7091TIP3    H221238   2.721   1.353   1.465
 7092TIP3   OH221239   6.703   6.647   1.329
 7092TIP3    H121240   6.647   6.675   1.257
 7092TIP3    H221241   6.658   6.680   1.407
 7093TIP3   OH221242   4.553   4.428   0.206
 7093TIP3    H121243   4.505   4.351   0.236
 7093TIP3    H221244   4.599   4.460   0.283
 7094TIP3   OH221245   4.599   3.632   4.122
 7094TIP3    H121246   4.530   3.684   4.163
 7094TIP3    H221247   4.653   3.603   4.195
 7095TIP3   OH221248   3.489   6.074   2.531
 7095TIP3    H121249   3.419   6.104   2.589
 7095TIP3    H221250   3.453   5.996   2.489
 7096TIP3   OH221251   4.865   2.914   2.797
 7096TIP3    H121252   4.903   2.910   2.710
 7096TIP3    H221253   4.879   3.005   2.825
 7097TIP3   OH221254   4.972   5.451   4.847
 7097TIP3    H121255   4.995   5.518   4.783
 7097TIP3    H221256   5.015   5.478   4.928
 7098TIP3   OH221257   5.709   3.919   4.174
 7098TIP3    H121258   5.757   3.963   4.104
 7098TIP3    H221259   5.767   3.922   4.249
 7099TIP3   OH221260   2.181   1.579   2.321
 7099TIP3    H121261   2.148   1.492   2.296
 7099TIP3    H221262   2.251   1.597   2.258
 7100TIP3   OH221263   0.325   1.182   5.767
 7100TIP3    H121264   0.289   1.093   5.765
 7100TIP3    H221265   0.261   1.234   5.718
 7101TIP3   OH221266   2.183   0.835   1.664
 7101TIP3    H121267   2.276   0.819   1.680
 7101TIP3    H221268   2.157   0.767   1.601
 7102TIP3   OH221269   6.125   0.708   1.027
 7102TIP3    H121270   6.196   0.650   1.056
 7102TIP3    H221271   6.080   0.659   0.958
 7103TIP3   OH221272   6.150   6.342   4.326
 7103TIP3    H121273   6.228   6.396   4.327
 7103TIP3    H221274   6.082   6.398   4.363
 7104TIP3   OH221275   6.615   5.364   2.671
 7104TIP3    H121276   6.538   5.384   2.724
 7104TIP3    H221277   6.662   5.447   2.665
 7105TIP3   OH221278   3.573   2.121   1.391
 7105TIP3    H121279   3.550   2.079   1.474
 7105TIP3    H221280   3.522   2.202   1.391
 7106TIP3   OH221281   3.658   4.558   0.862
 7106TIP3    H121282   3.666   4.495   0.934
 7106TIP3    H221283   3.741   4.552   0.816
 7107TIP3   OH221284   0.133   4.399   2.971
 7107TIP3    H121285   0.173   4.484   2.992
 7107TIP3    H221286   0.135   4.394   2.875
 7108TIP3   OH221287   1.030   0.869   2.784
 7108TIP3    H121288   1.095   0.886   2.852
 7108TIP3    H221289   0.978   0.796   2.817
 7109TIP3   OH221290   6.613   6.422   5.304
 7109TIP3    H121291   6.616   6.517   5.313
 7109TIP3    H221292   6.705   6.395   5.306
 7110TIP3   OH221293   1.993   1.055   5.249
 7110TIP3    H121294   1.942   1.026   5.325
 7110TIP3    H221295   1.938   1.031   5.173
 7111TIP3   OH221296   3.468  -0.027   1.313
 7111TIP3    H121297   3.382   0.009   1.337
 7111TIP3    H221298   3.529   0.045   1.328
 7112TIP3   OH221299   5.287   5.550   2.484
 7112TIP3    H121300   5.242   5.500   2.552
 7112TIP3    H221301   5.239   5.529   2.404
 7113TIP3   OH221302   1.238   6.313   3.474
 7113TIP3    H121303   1.254   6.304   3.381
 7113TIP3    H221304   1.239   6.407   3.490
 7114TIP3   OH221305   1.054   4.227   0.800
 7114TIP3    H121306   1.111   4.176   0.741
 7114TIP3    H221307   1.024   4.301   0.747
 7115TIP3   OH221308   0.529   0.327   0.851
 7115TIP3    H121309   0.556   0.268   0.921
 7115TIP3    H221310   0.609   0.340   0.800
 7116TIP3   OH221311   1.925   5.247   5.871
 7116TIP3    H121312   1.911   5.340   5.852
 7116TIP3    H221313   2.018   5.241   5.893
 7117TIP3   OH221314   1.440   3.947   3.319
 7117TIP3    H121315   1.386   3.889   3.266
 7117TIP3    H221316   1.436   3.910   3.407
 7118TIP3   OH221317   5.189   1.672   4.963
 7118TIP3    H121318   5.189   1.672   5.058
 7118TIP3    H221319   5.204   1.763   4.938
 7119TIP3   OH221320   3.740   0.707   5.791
 7119TIP3    H121321   3.707   0.628   5.750
 7119TIP3    H221322   3.790   0.751   5.722
 7120TIP3   OH221323   2.717   3.806   1.164
 7120TIP3    H121324   2.760   3.888   1.187
 7120TIP3    H221325   2.744   3.789   1.074
 7121TIP3   OH221326   6.388   3.489   2.475
 7121TIP3    H121327   6.458   3.439   2.518
 7121TIP3    H221328   6.423   3.578   2.467
 7122TIP3   OH221329   6.450   4.472   2.869
 7122TIP3    H121330   6.410   4.397   2.912
 7122TIP3    H221331   6.482   4.437   2.785
 7123TIP3   OH221332   4.277   5.941   3.253
 7123TIP3    H121333   4.345   5.890   3.298
 7123TIP3    H221334   4.304   5.941   3.161
 7124TIP3   OH221335   1.515   5.742   4.856
 7124TIP3    H121336   1.474   5.807   4.913
 7124TIP3    H221337   1.495   5.658   4.897
 7125TIP3   OH221338   4.337   6.069   5.774
 7125TIP3    H121339   4.331   5.986   5.821
 7125TIP3    H221340   4.267   6.123   5.813
 7126TIP3   OH221341   6.357   2.300   1.672
 7126TIP3    H121342   6.344   2.377   1.727
 7126TIP3    H221343   6.448   2.306   1.642
 7127TIP3   OH221344   3.102   6.667   1.511
 7127TIP3    H121345   3.134   6.650   1.600
 7127TIP3    H221346   3.065   6.755   1.515
 7128TIP3   OH221347   0.352   3.594   0.182
 7128TIP3    H121348   0.332   3.676   0.228
 7128TIP3    H221349   0.332   3.526   0.246
 7129TIP3   OH221350   3.423   0.754   2.157
 7129TIP3    H121351   3.377   0.676   2.187
 7129TIP3    H221352   3.409   0.819   2.226
 7130TIP3   OH221353   2.908   4.015   1.182
 7130TIP3    H121354   2.998   3.981   1.181
 7130TIP3    H221355   2.901   4.065   1.101
 7131TIP3   OH221356   5.441   1.720   1.966
 7131TIP3    H121357   5.479   1.807   1.969
 7131TIP3    H221358   5.347   1.735   1.959
 7132TIP3   OH221359   2.991   6.174   2.024
 7132TIP3    H121360   2.929   6.247   2.031
 7132TIP3    H221361   3.018   6.174   1.932
 7133TIP3   OH221362   4.789   4.502   4.685
 7133TIP3    H121363   4.852   4.539   4.623
 7133TIP3    H221364   4.831   4.422   4.716
 7134TIP3   OH221365   2.153   2.075   0.390
 7134TIP3    H121366   2.247   2.092   0.389
 7134TIP3    H221367   2.139   2.019   0.466
 7135TIP3   OH221368   3.704   5.026   1.010
 7135TIP3    H121369   3.776   5.071   1.054
 7135TIP3    H221370   3.654   4.987   1.082
 7136TIP3   OH221371   1.345   1.695   1.569
 7136TIP3    H121372   1.433   1.661   1.551
 7136TIP3    H221373   1.315   1.647   1.646
 7137TIP3   OH221374   0.845   5.522   4.796
 7137TIP3    H121375   0.820   5.533   4.704
 7137TIP3    H221376   0.769   5.480   4.836
 7138TIP3   OH221377   3.463   2.041   1.092
 7138TIP3    H121378   3.525   2.034   1.019
 7138TIP3    H221379   3.504   2.102   1.153
 7139TIP3   OH221380   2.258   6.604   5.887
 7139TIP3    H121381   2.350   6.614   5.913
 7139TIP3    H221382   2.212   6.673   5.934
 7140TIP3   OH221383   6.048   0.665   2.688
 7140TIP3    H121384   6.094   0.658   2.604
 7140TIP3    H221385   6.119   0.678   2.752
 7141TIP3   OH221386   3.088   5.374   4.575
 7141TIP3    H121387   3.152   5.436   4.540
 7141TIP3    H221388   3.140   5.312   4.626
 7142TIP3   OH221389   0.694   4.341   4.537
 7142TIP3    H121390   0.742   4.331   4.455
 7142TIP3    H221391   0.606   4.311   4.517
 7143TIP3   OH221392   0.367   6.416   1.728
 7143TIP3    H121393   0.366   6.510   1.709
 7143TIP3    H221394   0.459   6.391   1.722
 7144TIP3   OH221395   2.208   3.195   4.515
 7144TIP3    H121396   2.215   3.283   4.552
 7144TIP3    H221397   2.264   3.141   4.570
 7145TIP3   OH221398   3.119   4.843   2.339
 7145TIP3    H121399   3.144   4.766   2.289
 7145TIP3    H221400   3.075   4.900   2.276
 7146TIP3   OH221401   4.044   1.885   5.769
 7146TIP3    H121402   3.955   1.909   5.794
 7146TIP3    H221403   4.058   1.929   5.685
 7147TIP3   OH221404   4.304   2.945   1.276
 7147TIP3    H121405   4.352   3.002   1.337
 7147TIP3    H221406   4.212   2.959   1.299
 7148TIP3   OH221407   6.983   0.550   0.804
 7148TIP3    H121408   7.055   0.503   0.762
 7148TIP3    H221409   6.931   0.482   0.847
 7149TIP3   OH221410   6.284   5.963   5.588
 7149TIP3    H121411   6.301   5.954   5.682
 7149TIP3    H221412   6.214   5.900   5.570
 7150TIP3   OH221413   0.911   5.973   1.835
 7150TIP3    H121414   0.991   6.004   1.794
 7150TIP3    H221415   0.888   6.041   1.898
 7151TIP3   OH221416   6.493   0.499   1.941
 7151TIP3    H121417   6.408   0.495   1.897
 7151TIP3    H221418   6.505   0.411   1.977
 7152TIP3   OH221419   3.421   5.051   0.369
 7152TIP3    H121420   3.440   4.976   0.426
 7152TIP3    H221421   3.359   5.018   0.305
 7153TIP3   OH221422   5.966   0.935   3.525
 7153TIP3    H121423   6.015   0.858   3.553
 7153TIP3    H221424   5.910   0.904   3.454
 7154TIP3   OH221425   5.060   1.989   3.707
 7154TIP3    H121426   5.073   1.896   3.725
 7154TIP3    H221427   5.099   2.002   3.620
 7155TIP3   OH221428   3.244   3.450   4.235
 7155TIP3    H121429   3.319   3.426   4.289
 7155TIP3    H221430   3.246   3.388   4.163
 7156TIP3   OH221431   2.670   1.814   4.298
 7156TIP3    H121432   2.624   1.892   4.327
 7156TIP3    H221433   2.604   1.762   4.252
 7157TIP3   OH221434   1.036   3.616   0.188
 7157TIP3    H121435   1.113   3.657   0.148
 7157TIP3    H221436   1.059   3.524   0.195
 7158TIP3   OH221437   6.603   5.574   1.835
 7158TIP3    H121438   6.612   5.507   1.903
 7158TIP3    H221439   6.532   5.542   1.780
 7159TIP3   OH221440   6.365   5.470   1.267
 7159TIP3    H121441   6.383   5.437   1.355
 7159TIP3    H221442   6.360   5.392   1.212
 7160TIP3   OH221443   6.356   5.287   1.981
 7160TIP3    H121444   6.291   5.240   2.033
 7160TIP3    H221445   6.396   5.349   2.043
 7161TIP3   OH221446   5.991   1.733   4.908
 7161TIP3    H121447   6.045   1.745   4.986
 7161TIP3    H221448   5.957   1.644   4.915
 7162TIP3   OH221449   5.907   6.768   4.908
 7162TIP3    H121450   5.852   6.725   4.973
 7162TIP3    H221451   5.983   6.800   4.958
 7163TIP3   OH221452   4.880   1.821   1.856
 7163TIP3    H121453   4.899   1.885   1.787
 7163TIP3    H221454   4.932   1.850   1.930
 7164TIP3   OH221455   7.075   2.723   1.762
 7164TIP3    H121456   7.034   2.683   1.839
 7164TIP3    H221457   7.026   2.804   1.748
 7165TIP3   OH221458   2.399   2.642   2.027
 7165TIP3    H121459   2.442   2.716   2.069
 7165TIP3    H221460   2.453   2.567   2.050
 7166TIP3   OH221461   2.029   3.898   3.297
 7166TIP3    H121462   1.998   3.834   3.233
 7166TIP3    H221463   1.953   3.915   3.353
 7167TIP3   OH221464   3.069   5.498   5.107
 7167TIP3    H121465   3.132   5.537   5.047
 7167TIP3    H221466   3.042   5.570   5.163
 7168TIP3   OH221467   3.782   3.558   5.797
 7168TIP3    H121468   3.749   3.630   5.851
 7168TIP3    H221469   3.703   3.523   5.755
 7169TIP3   OH221470   6.087   3.273   2.889
 7169TIP3    H121471   6.126   3.190   2.916
 7169TIP3    H221472   6.123   3.289   2.801
 7170TIP3   OH221473   5.761   2.731   0.993
 7170TIP3    H121474   5.787   2.779   1.071
 7170TIP3    H221475   5.829   2.751   0.928
 7171TIP3   OH221476   0.146   2.857   3.598
 7171TIP3    H121477   0.160   2.791   3.530
 7171TIP3    H221478   0.145   2.807   3.680
 7172TIP3   OH221479   0.033   2.331   2.886
 7172TIP3    H121480   0.028   2.319   2.980
 7172TIP3    H221481   0.067   2.420   2.874
 7173TIP3   OH221482   1.137   0.377   4.527
 7173TIP3    H121483   1.231   0.379   4.544
 7173TIP3    H221484   1.110   0.469   4.529
 7174TIP3   OH221485   4.142   2.422   5.370
 7174TIP3    H121486   4.084   2.439   5.295
 7174TIP3    H221487   4.127   2.329   5.390
 7175TIP3   OH221488   2.375   6.259   2.902
 7175TIP3    H121489   2.428   6.275   2.824
 7175TIP3    H221490   2.314   6.191   2.876
 7176TIP3   OH221491   1.074   5.371   3.853
 7176TIP3    H121492   1.086   5.463   3.875
 7176TIP3    H221493   1.077   5.368   3.757
 7177TIP3   OH221494   4.373   2.804   1.564
 7177TIP3    H121495   4.394   2.894   1.538
 7177TIP3    H221496   4.367   2.808   1.659
 7178TIP3   OH221497   3.712   5.824   2.822
 7178TIP3    H121498   3.715   5.879   2.900
 7178TIP3    H221499   3.630   5.775   2.830
 7179TIP3   OH221500   5.772   6.374   3.391
 7179TIP3    H121501   5.832   6.397   3.321
 7179TIP3    H221502   5.827   6.332   3.458
 7180TIP3   OH221503   4.030   5.138   4.714
 7180TIP3    H121504   4.111   5.167   4.672
 7180TIP3    H221505   4.050   5.138   4.808
 7181TIP3   OH221506   4.244   0.844   1.872
 7181TIP3    H121507   4.241   0.813   1.962
 7181TIP3    H221508   4.209   0.771   1.821
 7182TIP3   OH221509   6.587   2.177   0.156
 7182TIP3    H121510   6.529   2.106   0.185
 7182TIP3    H221511   6.532   2.230   0.098
 7183TIP3   OH221512   2.987   4.029   0.371
 7183TIP3    H121513   2.912   4.053   0.316
 7183TIP3    H221514   2.983   4.090   0.444
 7184TIP3   OH221515   7.078   1.128   2.369
 7184TIP3    H121516   7.116   1.130   2.281
 7184TIP3    H221517   7.152   1.152   2.426
 7185TIP3   OH221518   5.957   4.096   3.654
 7185TIP3    H121519   5.932   4.171   3.600
 7185TIP3    H221520   5.996   4.135   3.732
 7186TIP3   OH221521   1.269   6.354   2.456
 7186TIP3    H121522   1.340   6.392   2.404
 7186TIP3    H221523   1.209   6.427   2.472
 7187TIP3   OH221524   4.026   3.228   2.218
 7187TIP3    H121525   4.034   3.289   2.291
 7187TIP3    H221526   3.985   3.151   2.256
 7188TIP3   OH221527   0.019   4.146   1.130
 7188TIP3    H121528   0.055   4.069   1.174
 7188TIP3    H221529  -0.075   4.142   1.149
 7189TIP3   OH221530   5.349   6.129   1.077
 7189TIP3    H121531   5.366   6.137   1.171
 7189TIP3    H221532   5.283   6.060   1.071
 7190TIP3   OH221533   2.078   1.779   4.626
 7190TIP3    H121534   2.059   1.756   4.536
 7190TIP3    H221535   1.999   1.754   4.675
 7191TIP3   OH221536   2.795   0.674   5.266
 7191TIP3    H121537   2.710   0.671   5.311
 7191TIP3    H221538   2.774   0.650   5.176
 7192TIP3   OH221539   2.817   4.042   2.339
 7192TIP3    H121540   2.849   4.007   2.256
 7192TIP3    H221541   2.856   3.985   2.405
 7193TIP3   OH221542   0.352   4.419   2.093
 7193TIP3    H121543   0.426   4.409   2.033
 7193TIP3    H221544   0.339   4.514   2.097
 7194TIP3   OH221545   6.491   2.981   5.740
 7194TIP3    H121546   6.461   3.049   5.800
 7194TIP3    H221547   6.585   2.997   5.731
 7195TIP3   OH221548   5.925   3.204   1.726
 7195TIP3    H121549   5.982   3.133   1.698
 7195TIP3    H221550   5.843   3.188   1.681
 7196TIP3   OH221551   3.370   2.721   2.288
 7196TIP3    H121552   3.378   2.775   2.366
 7196TIP3    H221553   3.277   2.721   2.267
 7197TIP3   OH221554   5.722   6.517   0.959
 7197TIP3    H121555   5.724   6.427   0.927
 7197TIP3    H221556   5.631   6.532   0.984
 7198TIP3   OH221557   0.771   5.584   0.125
 7198TIP3    H121558   0.731   5.524   0.188
 7198TIP3    H221559   0.747   5.548   0.040
 7199TIP3   OH221560   6.281   1.284   2.714
 7199TIP3    H121561   6.273   1.219   2.644
 7199TIP3    H221562   6.267   1.368   2.670
 7200TIP3   OH221563   4.609   5.643   2.117
 7200TIP3    H121564   4.532   5.588   2.104
 7200TIP3    H221565   4.574   5.725   2.153
 7201TIP3   OH221566   1.025   3.985   5.699
 7201TIP3    H121567   1.086   3.951   5.634
 7201TIP3    H221568   1.052   3.944   5.781
 7202TIP3   OH221569   5.070   3.270   5.201
 7202TIP3    H121570   4.991   3.231   5.238
 7202TIP3    H221571   5.131   3.276   5.274
 7203TIP3   OH221572   2.698   0.872   2.402
 7203TIP3    H121573   2.626   0.912   2.354
 7203TIP3    H221574   2.774   0.880   2.343
 7204TIP3   OH221575   4.216   6.675   3.730
 7204TIP3    H121576   4.297   6.697   3.683
 7204TIP3    H221577   4.245   6.661   3.820
 7205TIP3   OH221578   4.154   1.489   1.721
 7205TIP3    H121579   4.224   1.546   1.692
 7205TIP3    H221580   4.197   1.407   1.744
 7206TIP3   OH221581   3.863   5.526   3.652
 7206TIP3    H121582   3.812   5.607   3.649
 7206TIP3    H221583   3.915   5.527   3.572
 7207TIP3   OH221584   3.008   4.657   0.426
 7207TIP3    H121585   3.075   4.680   0.361
 7207TIP3    H221586   3.029   4.712   0.502
 7208TIP3   OH221587   7.048   1.960   3.615
 7208TIP3    H121588   7.074   1.870   3.638
 7208TIP3    H221589   7.022   1.999   3.698
 7209TIP3   OH221590   3.113   3.942   5.462
 7209TIP3    H121591   3.193   3.901   5.429
 7209TIP3    H221592   3.105   4.023   5.412
 7210TIP3   OH221593   1.399   3.900   1.976
 7210TIP3    H121594   1.342   3.963   2.020
 7210TIP3    H221595   1.352   3.816   1.982
 7211TIP3   OH221596   6.958   1.821   0.196
 7211TIP3    H121597   6.973   1.783   0.282
 7211TIP3    H221598   7.046   1.838   0.162
 7212TIP3   OH221599   0.492   3.702   3.466
 7212TIP3    H121600   0.410   3.675   3.424
 7212TIP3    H221601   0.498   3.647   3.544
 7213TIP3   OH221602   2.538   2.011   1.402
 7213TIP3    H121603   2.597   2.086   1.398
 7213TIP3    H221604   2.569   1.953   1.333
 7214TIP3   OH221605   1.188   1.997   1.301
 7214TIP3    H121606   1.093   2.007   1.291
 7214TIP3    H221607   1.225   2.031   1.219
 7215TIP3   OH221608   1.620   4.117   3.065
 7215TIP3    H121609   1.530   4.084   3.061
 7215TIP3    H221610   1.624   4.165   3.148
 7216TIP3   OH221611   1.322   0.842   5.762
 7216TIP3    H121612   1.246   0.881   5.803
 7216TIP3    H221613   1.394   0.860   5.822
 7217TIP3   OH221614   0.913   6.303   4.564
 7217TIP3    H121615   0.918   6.225   4.509
 7217TIP3    H221616   0.975   6.287   4.635
 7218TIP3   OH221617   2.472   3.071   2.766
 7218TIP3    H121618   2.514   3.110   2.689
 7218TIP3    H221619   2.535   3.085   2.837
 7219TIP3   OH221620   2.720   4.515   3.395
 7219TIP3    H121621   2.729   4.552   3.307
 7219TIP3    H221622   2.626   4.523   3.414
 7220TIP3   OH221623   0.786   2.603   4.746
 7220TIP3    H121624   0.726   2.657   4.695
 7220TIP3    H221625   0.793   2.647   4.831
 7221TIP3   OH221626   2.658   0.066   3.741
 7221TIP3    H121627   2.587   0.037   3.798
 7221TIP3    H221628   2.699  -0.015   3.710
 7222TIP3   OH221629   2.016   3.926   2.278
 7222TIP3    H121630   1.972   3.851   2.239
 7222TIP3    H221631   2.075   3.957   2.209
 7223TIP3   OH221632   7.051   0.233   3.298
 7223TIP3    H121633   6.977   0.207   3.243
 7223TIP3    H221634   7.059   0.163   3.363
 7224TIP3   OH221635   0.231   0.974   3.139
 7224TIP3    H121636   0.213   0.905   3.075
 7224TIP3    H221637   0.187   0.946   3.218
 7225TIP3   OH221638   1.995   1.193   3.670
 7225TIP3    H121639   2.019   1.238   3.589
 7225TIP3    H221640   2.016   1.256   3.739
 7226TIP3   OH221641   5.830   3.282   5.358
 7226TIP3    H121642   5.912   3.312   5.320
 7226TIP3    H221643   5.856   3.234   5.436
 7227TIP3   OH221644   2.593   5.135   2.790
 7227TIP3    H121645   2.656   5.158   2.723
 7227TIP3    H221646   2.611   5.196   2.862
 7228TIP3   OH221647   0.763   3.701   4.255
 7228TIP3    H121648   0.791   3.689   4.165
 7228TIP3    H221649   0.811   3.634   4.304
 7229TIP3   OH221650   0.788   4.683   4.825
 7229TIP3    H121651   0.829   4.747   4.765
 7229TIP3    H221652   0.699   4.714   4.836
 7230TIP3   OH221653   5.578   2.952   2.854
 7230TIP3    H121654   5.620   3.014   2.794
 7230TIP3    H221655   5.584   2.994   2.940
 7231TIP3   OH221656   4.779   3.060   4.043
 7231TIP3    H121657   4.795   3.154   4.035
 7231TIP3    H221658   4.863   3.019   4.023
 7232TIP3   OH221659   4.898   5.172   5.689
 7232TIP3    H121660   4.895   5.259   5.730
 7232TIP3    H221661   4.965   5.180   5.622
 7233TIP3   OH221662   6.946   5.324   0.052
 7233TIP3    H121663   6.867   5.378   0.050
 7233TIP3    H221664   6.914   5.236   0.075
 7234TIP3   OH221665   0.489   3.262   4.770
 7234TIP3    H121666   0.507   3.287   4.861
 7234TIP3    H221667   0.404   3.302   4.751
 7235TIP3   OH221668   6.842   3.120   3.158
 7235TIP3    H121669   6.873   3.142   3.070
 7235TIP3    H221670   6.836   3.205   3.202
 7236TIP3   OH221671   6.016   3.892   1.037
 7236TIP3    H121672   5.926   3.878   1.068
 7236TIP3    H221673   6.071   3.867   1.111
 7237TIP3   OH221674   4.297   2.493   4.044
 7237TIP3    H121675   4.353   2.422   4.077
 7237TIP3    H221676   4.347   2.531   3.972
 7238TIP3   OH221677   3.712   1.304   2.333
 7238TIP3    H121678   3.753   1.286   2.417
 7238TIP3    H221679   3.697   1.217   2.294
 7239TIP3   OH221680   4.044   6.076   1.023
 7239TIP3    H121681   3.955   6.111   1.032
 7239TIP3    H221682   4.093   6.148   0.982
 7240TIP3   OH221683   5.977   4.836   5.763
 7240TIP3    H121684   6.062   4.825   5.806
 7240TIP3    H221685   5.981   4.923   5.724
 7241TIP3   OH221686   0.672   3.841   2.218
 7241TIP3    H121687   0.653   3.824   2.126
 7241TIP3    H221688   0.629   3.770   2.265
 7242TIP3   OH221689   2.845   0.093   1.046
 7242TIP3    H121690   2.833   0.039   0.968
 7242TIP3    H221691   2.763   0.085   1.094
 7243TIP3   OH221692   1.786   3.110   1.850
 7243TIP3    H121693   1.761   3.146   1.935
 7243TIP3    H221694   1.703   3.090   1.806
 7244TIP3   OH221695   4.996   6.198   0.678
 7244TIP3    H121696   5.088   6.170   0.676
 7244TIP3    H221697   5.000   6.290   0.705
 7245TIP3   OH221698   5.615   6.619   1.303
 7245TIP3    H121699   5.624   6.533   1.344
 7245TIP3    H221700   5.700   6.636   1.263
 7246TIP3   OH221701   1.233   3.395   5.406
 7246TIP3    H121702   1.175   3.389   5.482
 7246TIP3    H221703   1.287   3.472   5.422
 7247TIP3   OH221704   1.313   1.564   1.845
 7247TIP3    H121705   1.309   1.478   1.802
 7247TIP3    H221706   1.296   1.545   1.937
 7248TIP3   OH221707   1.093   3.088   0.200
 7248TIP3    H121708   1.078   3.014   0.141
 7248TIP3    H221709   1.046   3.065   0.281
 7249TIP3   OH221710   4.248   4.467   4.696
 7249TIP3    H121711   4.257   4.542   4.754
 7249TIP3    H221712   4.337   4.450   4.664
 7250TIP3   OH221713   1.127   4.739   4.956
 7250TIP3    H121714   1.104   4.674   4.889
 7250TIP3    H221715   1.056   4.734   5.019
 7251TIP3   OH221716   0.402   2.568   1.705
 7251TIP3    H121717   0.478   2.573   1.763
 7251TIP3    H221718   0.327   2.560   1.764
 7252TIP3   OH221719   1.610   1.172   4.421
 7252TIP3    H121720   1.615   1.224   4.341
 7252TIP3    H221721   1.639   1.085   4.395
 7253TIP3   OH221722   2.132   0.047   5.354
 7253TIP3    H121723   2.225   0.023   5.347
 7253TIP3    H221724   2.132   0.142   5.343
 7254TIP3   OH221725   1.661   4.790   1.177
 7254TIP3    H121726   1.682   4.866   1.231
 7254TIP3    H221727   1.596   4.822   1.114
 7255TIP3   OH221728   6.738   4.128   0.415
 7255TIP3    H121729   6.791   4.050   0.429
 7255TIP3    H221730   6.783   4.197   0.463
 7256TIP3   OH221731   6.115   1.872   0.673
 7256TIP3    H121732   6.112   1.823   0.591
 7256TIP3    H221733   6.116   1.964   0.646
 7257TIP3   OH221734   7.230   6.080   3.428
 7257TIP3    H121735   7.221   6.162   3.380
 7257TIP3    H221736   7.155   6.028   3.402
 7258TIP3   OH221737   5.798   5.276   4.865
 7258TIP3    H121738   5.775   5.333   4.938
 7258TIP3    H221739   5.736   5.298   4.796
 7259TIP3   OH221740   2.323   6.599   3.901
 7259TIP3    H121741   2.358   6.559   3.981
 7259TIP3    H221742   2.391   6.659   3.872
 7260TIP3   OH221743   2.866   1.373   0.889
 7260TIP3    H121744   2.935   1.351   0.825
 7260TIP3    H221745   2.818   1.444   0.848
 7261TIP3   OH221746   1.894   3.382   2.851
 7261TIP3    H121747   1.980   3.423   2.855
 7261TIP3    H221748   1.909   3.299   2.805
 7262TIP3   OH221749   1.993   5.598   3.877
 7262TIP3    H121750   1.999   5.503   3.877
 7262TIP3    H221751   2.022   5.624   3.964
 7263TIP3   OH221752   3.363   4.245   2.999
 7263TIP3    H121753   3.292   4.289   3.044
 7263TIP3    H221754   3.342   4.152   3.007
 7264TIP3   OH221755   1.826   4.240   4.469
 7264TIP3    H121756   1.750   4.181   4.467
 7264TIP3    H221757   1.901   4.182   4.479
 7265TIP3   OH221758   0.405   2.374   2.225
 7265TIP3    H121759   0.406   2.278   2.236
 7265TIP3    H221760   0.406   2.408   2.315
 7266TIP3   OH221761   0.480   5.949   0.763
 7266TIP3    H121762   0.505   6.042   0.759
 7266TIP3    H221763   0.394   5.946   0.721
 7267TIP3   OH221764   0.668   0.098   4.534
 7267TIP3    H121765   0.740   0.152   4.500
 7267TIP3    H221766   0.700   0.065   4.617
 7268TIP3   OH221767   3.392   0.886   4.910
 7268TIP3    H121768   3.358   0.810   4.958
 7268TIP3    H221769   3.314   0.928   4.873
 7269TIP3   OH221770   6.863   2.893   2.135
 7269TIP3    H121771   6.767   2.886   2.142
 7269TIP3    H221772   6.895   2.815   2.181
 7270TIP3   OH221773   3.239   3.008   2.181
 7270TIP3    H121774   3.190   2.929   2.158
 7270TIP3    H221775   3.300   2.980   2.249
 7271TIP3   OH221776   1.323   6.076   1.596
 7271TIP3    H121777   1.246   6.071   1.653
 7271TIP3    H221778   1.397   6.061   1.655
 7272TIP3   OH221779   3.827   0.130   4.808
 7272TIP3    H121780   3.890   0.171   4.867
 7272TIP3    H221781   3.764   0.200   4.788
 7273TIP3   OH221782   3.604   4.125   0.495
 7273TIP3    H121783   3.601   4.155   0.404
 7273TIP3    H221784   3.657   4.046   0.493
 7274TIP3   OH221785   2.524   5.618   5.454
 7274TIP3    H121786   2.528   5.640   5.361
 7274TIP3    H221787   2.615   5.619   5.483
 7275TIP3   OH221788   4.828   3.302   5.623
 7275TIP3    H121789   4.791   3.359   5.555
 7275TIP3    H221790   4.755   3.284   5.681
 7276TIP3   OH221791   0.749   1.868   0.470
 7276TIP3    H121792   0.737   1.798   0.405
 7276TIP3    H221793   0.830   1.845   0.515
 7277TIP3   OH221794   4.648   1.400   3.191
 7277TIP3    H121795   4.663   1.406   3.285
 7277TIP3    H221796   4.621   1.309   3.176
 7278TIP3   OH221797   6.197   3.278   1.735
 7278TIP3    H121798   6.173   3.320   1.653
 7278TIP3    H221799   6.116   3.236   1.764
 7279TIP3   OH221800   2.453   6.669   1.635
 7279TIP3    H121801   2.471   6.755   1.671
 7279TIP3    H221802   2.446   6.683   1.541
 7280TIP3   OH221803   0.837   0.846   1.135
 7280TIP3    H121804   0.920   0.840   1.088
 7280TIP3    H221805   0.803   0.933   1.113
 7281TIP3   OH221806   0.924   3.502   4.384
 7281TIP3    H121807   0.889   3.437   4.323
 7281TIP3    H221808   1.005   3.463   4.416
 7282TIP3   OH221809   1.674   3.043   5.358
 7282TIP3    H121810   1.639   3.007   5.439
 7282TIP3    H221811   1.616   3.117   5.338
 7283TIP3   OH221812   4.274   4.336   1.458
 7283TIP3    H121813   4.270   4.254   1.507
 7283TIP3    H221814   4.318   4.312   1.376
 7284TIP3   OH221815   2.386   3.123   2.150
 7284TIP3    H121816   2.467   3.144   2.104
 7284TIP3    H221817   2.342   3.060   2.094
 7285TIP3   OH221818   5.090   3.998   2.079
 7285TIP3    H121819   5.094   4.050   2.160
 7285TIP3    H221820   5.178   3.960   2.071
 7286TIP3   OH221821   4.609   6.219   0.318
 7286TIP3    H121822   4.586   6.272   0.241
 7286TIP3    H221823   4.544   6.148   0.319
 7287TIP3   OH221824   3.916   1.727   0.384
 7287TIP3    H121825   4.009   1.749   0.390
 7287TIP3    H221826   3.891   1.753   0.296
 7288TIP3   OH221827   5.318   3.438   2.008
 7288TIP3    H121828   5.245   3.399   1.959
 7288TIP3    H221829   5.285   3.447   2.097
 7289TIP3   OH221830   2.525   0.394   0.538
 7289TIP3    H121831   2.503   0.439   0.457
 7289TIP3    H221832   2.563   0.461   0.594
 7290TIP3   OH221833   1.128   0.364   1.416
 7290TIP3    H121834   1.172   0.290   1.373
 7290TIP3    H221835   1.092   0.415   1.343
 7291TIP3   OH221836   2.126   4.490   1.689
 7291TIP3    H121837   2.037   4.454   1.691
 7291TIP3    H221838   2.176   4.432   1.746
 7292TIP3   OH221839   0.983   0.128   0.857
 7292TIP3    H121840   0.918   0.185   0.900
 7292TIP3    H221841   1.008   0.176   0.778
 7293TIP3   OH221842   4.683   1.765   4.372
 7293TIP3    H121843   4.714   1.692   4.426
 7293TIP3    H221844   4.720   1.747   4.285
 7294TIP3   OH221845   1.322   4.535   4.303
 7294TIP3    H121846   1.247   4.593   4.294
 7294TIP3    H221847   1.392   4.579   4.255
 7295TIP3   OH221848   5.227   4.341   1.651
 7295TIP3    H121849   5.152   4.332   1.593
 7295TIP3    H221850   5.211   4.421   1.700
 7296TIP3   OH221851   2.852   1.146   1.514
 7296TIP3    H121852   2.933   1.195   1.499
 7296TIP3    H221853   2.849   1.083   1.442
 7297TIP3   OH221854   1.010   2.383   5.031
 7297TIP3    H121855   0.936   2.382   5.092
 7297TIP3    H221856   1.087   2.386   5.088
 7298TIP3   OH221857   3.127   5.477   2.327
 7298TIP3    H121858   3.117   5.397   2.380
 7298TIP3    H221859   3.153   5.444   2.240
 7299TIP3   OH221860   0.161   2.262   0.979
 7299TIP3    H121861   0.243   2.311   0.974
 7299TIP3    H221862   0.137   2.246   0.888
 7300TIP3   OH221863   5.643   3.797   3.111
 7300TIP3    H121864   5.600   3.715   3.137
 7300TIP3    H221865   5.580   3.865   3.133
 7301TIP3   OH221866   1.496   1.451   1.562
 7301TIP3    H121867   1.565   1.389   1.586
 7301TIP3    H221868   1.420   1.421   1.612
 7302TIP3   OH221869   6.190   3.192   4.741
 7302TIP3    H121870   6.149   3.149   4.666
 7302TIP3    H221871   6.218   3.120   4.798
 7303TIP3   OH221872   1.785   1.520   0.454
 7303TIP3    H121873   1.836   1.530   0.373
 7303TIP3    H221874   1.704   1.478   0.425
 7304TIP3   OH221875   1.705   2.637   2.275
 7304TIP3    H121876   1.703   2.604   2.365
 7304TIP3    H221877   1.782   2.695   2.272
 7305TIP3   OH221878   1.760   4.945   4.290
 7305TIP3    H121879   1.732   4.887   4.218
 7305TIP3    H221880   1.680   4.963   4.339
 7306TIP3   OH221881   2.167   2.904   2.234
 7306TIP3    H121882   2.219   2.909   2.153
 7306TIP3    H221883   2.233   2.900   2.303
 7307TIP3   OH221884   5.722   1.129   3.529
 7307TIP3    H121885   5.795   1.070   3.547
 7307TIP3    H221886   5.644   1.076   3.544
 7308TIP3   OH221887   6.900   3.009   3.547
 7308TIP3    H121888   6.901   2.914   3.543
 7308TIP3    H221889   6.979   3.031   3.598
 7309TIP3   OH221890   2.482   6.130   4.861
 7309TIP3    H121891   2.554   6.079   4.824
 7309TIP3    H221892   2.525   6.190   4.922
 7310TIP3   OH221893   4.547   0.547   2.232
 7310TIP3    H121894   4.489   0.517   2.163
 7310TIP3    H221895   4.565   0.639   2.210
 7311TIP3   OH221896   1.949   3.666   0.975
 7311TIP3    H121897   1.984   3.705   1.055
 7311TIP3    H221898   1.854   3.679   0.981
 7312TIP3   OH221899   1.083   2.167   4.670
 7312TIP3    H121900   1.017   2.163   4.740
 7312TIP3    H221901   1.039   2.213   4.599
 7313TIP3   OH221902   6.220   0.975   4.181
 7313TIP3    H121903   6.247   0.972   4.273
 7313TIP3    H221904   6.132   0.939   4.180
 7314TIP3   OH221905   3.065   2.960   5.742
 7314TIP3    H121906   3.135   3.010   5.785
 7314TIP3    H221907   3.033   3.017   5.673
 7315TIP3   OH221908   1.398   2.932   5.271
 7315TIP3    H121909   1.368   3.015   5.235
 7315TIP3    H221910   1.467   2.902   5.211
 7316TIP3   OH221911   6.527   6.562   4.909
 7316TIP3    H121912   6.482   6.645   4.898
 7316TIP3    H221913   6.620   6.585   4.913
 7317TIP3   OH221914   3.853   5.244   5.455
 7317TIP3    H121915   3.866   5.215   5.545
 7317TIP3    H221916   3.763   5.219   5.435
 7318TIP3   OH221917   5.889   3.696   1.217
 7318TIP3    H121918   5.797   3.702   1.244
 7318TIP3    H221919   5.936   3.752   1.278
 7319TIP3   OH221920   3.146   2.023   3.117
 7319TIP3    H121921   3.230   2.034   3.162
 7319TIP3    H221922   3.121   1.932   3.134
 7320TIP3   OH221923   5.124   3.447   0.529
 7320TIP3    H121924   5.094   3.360   0.504
 7320TIP3    H221925   5.130   3.443   0.625
 7321TIP3   OH221926   4.177   4.609   2.843
 7321TIP3    H121927   4.215   4.683   2.890
 7321TIP3    H221928   4.121   4.565   2.907
 7322TIP3   OH221929   6.913   2.062   5.506
 7322TIP3    H121930   6.917   2.044   5.600
 7322TIP3    H221931   7.001   2.043   5.474
 7323TIP3   OH221932   5.334   4.895   3.487
 7323TIP3    H121933   5.318   4.940   3.404
 7323TIP3    H221934   5.281   4.942   3.550
 7324TIP3   OH221935   4.701   5.838   4.494
 7324TIP3    H121936   4.708   5.888   4.413
 7324TIP3    H221937   4.640   5.889   4.548
 7325TIP3   OH221938   4.538   4.571   1.441
 7325TIP3    H121939   4.470   4.636   1.457
 7325TIP3    H221940   4.614   4.622   1.414
 7326TIP3   OH221941   0.675   3.586   0.532
 7326TIP3    H121942   0.667   3.664   0.588
 7326TIP3    H221943   0.612   3.524   0.569
 7327TIP3   OH221944   2.130   6.454   1.539
 7327TIP3    H121945   2.168   6.431   1.624
 7327TIP3    H221946   2.065   6.385   1.523
 7328TIP3   OH221947   2.193   0.188   2.436
 7328TIP3    H121948   2.211   0.173   2.343
 7328TIP3    H221949   2.111   0.238   2.436
 7329TIP3   OH221950   1.994   1.926   2.181
 7329TIP3    H121951   2.027   2.015   2.195
 7329TIP3    H221952   2.073   1.873   2.172
 7330TIP3   OH221953   7.006   1.654   3.378
 7330TIP3    H121954   6.938   1.713   3.345
 7330TIP3    H221955   6.997   1.659   3.473
 7331TIP3   OH221956   2.175   4.532   1.230
 7331TIP3    H121957   2.230   4.541   1.308
 7331TIP3    H221958   2.179   4.439   1.208
 7332TIP3   OH221959   0.154   2.513   1.864
 7332TIP3    H121960   0.220   2.449   1.889
 7332TIP3    H221961   0.129   2.555   1.946
 7333TIP3   OH221962   2.225   3.540   1.356
 7333TIP3    H121963   2.234   3.595   1.435
 7333TIP3    H221964   2.223   3.451   1.389
 7334TIP3   OH221965   3.802   1.943   2.209
 7334TIP3    H121966   3.754   1.885   2.267
 7334TIP3    H221967   3.811   2.025   2.258
 7335TIP3   OH221968   2.037   0.978   1.118
 7335TIP3    H121969   1.985   0.897   1.108
 7335TIP3    H221970   2.115   0.963   1.065
 7336TIP3   OH221971   3.186   6.146   3.070
 7336TIP3    H121972   3.139   6.227   3.054
 7336TIP3    H221973   3.268   6.173   3.111
 7337TIP3   OH221974   4.113   3.940   3.812
 7337TIP3    H121975   4.157   4.011   3.859
 7337TIP3    H221976   4.175   3.916   3.743
 7338TIP3   OH221977   3.897   6.657   0.720
 7338TIP3    H121978   3.944   6.591   0.669
 7338TIP3    H221979   3.807   6.652   0.688
 7339TIP3   OH221980   0.660   6.635   2.105
 7339TIP3    H121981   0.598   6.574   2.146
 7339TIP3    H221982   0.681   6.697   2.174
 7340TIP3   OH221983   1.559   2.946   5.039
 7340TIP3    H121984   1.583   3.038   5.027
 7340TIP3    H221985   1.637   2.897   5.014
 7341TIP3   OH221986   2.821   2.222   0.764
 7341TIP3    H121987   2.832   2.135   0.724
 7341TIP3    H221988   2.824   2.283   0.690
 7342TIP3   OH221989   6.099   1.056   0.181
 7342TIP3    H121990   6.059   0.977   0.146
 7342TIP3    H221991   6.043   1.081   0.255
 7343TIP3   OH221992   0.711   0.158   4.198
 7343TIP3    H121993   0.728   0.250   4.217
 7343TIP3    H221994   0.786   0.129   4.147
 7344TIP3   OH221995   0.337   1.697   0.590
 7344TIP3    H121996   0.255   1.700   0.541
 7344TIP3    H221997   0.330   1.768   0.654
 7345TIP3   OH221998   6.367   5.611   4.805
 7345TIP3    H121999   6.416   5.582   4.882
 7345TIP3    H222000   6.429   5.667   4.757
 7346TIP3   OH222001   2.559   4.079   2.204
 7346TIP3    H122002   2.546   3.992   2.166
 7346TIP3    H222003   2.653   4.085   2.220
 7347TIP3   OH222004   0.141   2.135   0.710
 7347TIP3    H122005   0.112   2.096   0.628
 7347TIP3    H222006   0.136   2.229   0.696
 7348TIP3   OH222007   5.824   4.994   3.344
 7348TIP3    H122008   5.728   4.986   3.337
 7348TIP3    H222009   5.840   5.088   3.336
 7349TIP3   OH222010   0.952   6.758   3.566
 7349TIP3    H122011   0.905   6.716   3.493
 7349TIP3    H222012   1.043   6.759   3.538
 7350TIP3   OH222013   1.243   3.302   1.680
 7350TIP3    H122014   1.283   3.255   1.753
 7350TIP3    H222015   1.168   3.347   1.719
 7351TIP3   OH222016   1.244   1.939   4.008
 7351TIP3    H122017   1.218   1.996   4.080
 7351TIP3    H222018   1.211   1.853   4.032
 7352TIP3   OH222019   3.106   0.800   2.373
 7352TIP3    H122020   3.095   0.789   2.278
 7352TIP3    H222021   3.070   0.887   2.390
 7353TIP3   OH222022   5.691   4.988   4.007
 7353TIP3    H122023   5.682   4.893   4.016
 7353TIP3    H222024   5.608   5.022   4.041
 7354TIP3   OH222025   5.194   0.134   4.551
 7354TIP3    H122026   5.146   0.079   4.612
 7354TIP3    H222027   5.134   0.147   4.477
 7355TIP3   OH222028   6.556   2.875   1.182
 7355TIP3    H122029   6.644   2.839   1.174
 7355TIP3    H222030   6.566   2.967   1.157
 7356TIP3   OH222031   5.024   0.425   2.140
 7356TIP3    H122032   5.118   0.419   2.127
 7356TIP3    H222033   4.986   0.397   2.056
 7357TIP3   OH222034   6.849   5.634   2.023
 7357TIP3    H122035   6.935   5.591   2.032
 7357TIP3    H222036   6.853   5.674   1.936
 7358TIP3   OH222037   0.808   1.517   2.307
 7358TIP3    H122038   0.899   1.509   2.281
 7358TIP3    H222039   0.759   1.525   2.225
 7359TIP3   OH222040   5.864   4.893   5.090
 7359TIP3    H122041   5.847   4.972   5.142
 7359TIP3    H222042   5.795   4.832   5.115
 7360TIP3   OH222043   5.554   5.326   3.346
 7360TIP3    H122044   5.587   5.243   3.313
 7360TIP3    H222045   5.598   5.338   3.430
 7361TIP3   OH222046   3.219   1.112   0.913
 7361TIP3    H122047   3.301   1.105   0.961
 7361TIP3    H222048   3.239   1.170   0.840
 7362TIP3   OH222049   2.858   6.481   5.439
 7362TIP3    H122050   2.827   6.439   5.519
 7362TIP3    H222051   2.812   6.565   5.437
 7363TIP3   OH222052   2.885   4.251   5.600
 7363TIP3    H122053   2.933   4.225   5.678
 7363TIP3    H222054   2.801   4.282   5.633
 7364TIP3   OH222055   4.710   6.778   5.287
 7364TIP3    H122056   4.622   6.746   5.268
 7364TIP3    H222057   4.769   6.713   5.248
 7365TIP3   OH222058   2.175   2.753   5.419
 7365TIP3    H122059   2.179   2.659   5.399
 7365TIP3    H222060   2.101   2.761   5.479
 7366TIP3   OH222061   1.469   1.122   1.496
 7366TIP3    H122062   1.551   1.153   1.535
 7366TIP3    H222063   1.461   1.172   1.415
 7367TIP3   OH222064   6.369   1.140   4.969
 7367TIP3    H122065   6.313   1.118   5.043
 7367TIP3    H222066   6.447   1.179   5.008
 7368TIP3   OH222067   6.972   6.700   1.803
 7368TIP3    H122068   7.021   6.779   1.826
 7368TIP3    H222069   6.880   6.729   1.801
 7369TIP3   OH222070   3.930   0.905   1.552
 7369TIP3    H122071   3.999   0.848   1.586
 7369TIP3    H222072   3.871   0.918   1.627
 7370TIP3   OH222073   1.138   5.835   2.861
 7370TIP3    H122074   1.131   5.836   2.766
 7370TIP3    H222075   1.188   5.914   2.882
 7371TIP3   OH222076   4.419   5.368   1.180
 7371TIP3    H122077   4.360   5.357   1.254
 7371TIP3    H222078   4.379   5.317   1.109
 7372TIP3   OH222079   5.238   3.242   0.702
 7372TIP3    H122080   5.174   3.170   0.700
 7372TIP3    H222081   5.318   3.204   0.665
 7373TIP3   OH222082   1.206   0.049   0.337
 7373TIP3    H122083   1.156   0.024   0.260
 7373TIP3    H222084   1.269   0.113   0.305
 7374TIP3   OH222085   2.481   2.002   0.894
 7374TIP3    H122086   2.517   1.959   0.816
 7374TIP3    H222087   2.539   2.077   0.909
 7375TIP3   OH222088   3.881   1.099   2.863
 7375TIP3    H122089   3.834   1.148   2.931
 7375TIP3    H222090   3.839   1.127   2.781
 7376TIP3   OH222091   4.094   4.040   5.270
 7376TIP3    H122092   4.048   4.124   5.264
 7376TIP3    H222093   4.186   4.064   5.279
 7377TIP3   OH222094   0.231   1.358   1.440
 7377TIP3    H122095   0.163   1.402   1.389
 7377TIP3    H222096   0.303   1.421   1.443
 7378TIP3   OH222097   6.046   4.653   5.414
 7378TIP3    H122098   6.126   4.698   5.385
 7378TIP3    H222099   6.068   4.621   5.502
 7379TIP3   OH222100   1.644   3.165   0.819
 7379TIP3    H122101   1.630   3.162   0.914
 7379TIP3    H222102   1.558   3.184   0.783
 7380TIP3   OH222103   6.053   4.639   0.327
 7380TIP3    H122104   5.989   4.626   0.257
 7380TIP3    H222105   6.130   4.589   0.299
 7381TIP3   OH222106   0.941   5.721   5.024
 7381TIP3    H122107   0.888   5.701   5.102
 7381TIP3    H222108   0.929   5.645   4.967
 7382TIP3   OH222109   2.063   5.353   2.499
 7382TIP3    H122110   2.018   5.282   2.455
 7382TIP3    H222111   1.994   5.417   2.519
 7383TIP3   OH222112   5.965   4.032   0.815
 7383TIP3    H122113   5.987   4.011   0.906
 7383TIP3    H222114   5.870   4.037   0.813
 7384TIP3   OH222115   2.000   3.452   1.923
 7384TIP3    H122116   1.943   3.485   1.992
 7384TIP3    H222117   2.083   3.434   1.967
 7385TIP3   OH222118   0.270   1.138   4.897
 7385TIP3    H122119   0.327   1.067   4.867
 7385TIP3    H222120   0.319   1.180   4.967
 7386TIP3   OH222121   7.109   1.291   0.288
 7386TIP3    H122122   7.198   1.270   0.316
 7386TIP3    H222123   7.118   1.377   0.245
 7387TIP3   OH222124   3.789   4.624   2.593
 7387TIP3    H122125   3.852   4.559   2.623
 7387TIP3    H222126   3.707   4.575   2.582
 7388TIP3   OH222127   6.617   0.272   2.022
 7388TIP3    H122128   6.644   0.270   2.114
 7388TIP3    H222129   6.694   0.241   1.974
 7389TIP3   OH222130   5.309   5.160   1.497
 7389TIP3    H122131   5.317   5.220   1.572
 7389TIP3    H222132   5.298   5.218   1.421
 7390TIP3   OH222133   3.669   2.344   0.751
 7390TIP3    H122134   3.651   2.394   0.672
 7390TIP3    H222135   3.753   2.377   0.783
 7391TIP3   OH222136   4.258   5.279   0.966
 7391TIP3    H122137   4.200   5.296   0.892
 7391TIP3    H222138   4.304   5.198   0.943
 7392TIP3   OH222139   2.690   2.696   2.673
 7392TIP3    H122140   2.776   2.657   2.687
 7392TIP3    H222141   2.636   2.624   2.639
 7393TIP3   OH222142   3.228   3.105   4.693
 7393TIP3    H122143   3.280   3.164   4.639
 7393TIP3    H222144   3.196   3.038   4.633
 7394TIP3   OH222145   1.385   0.495   2.613
 7394TIP3    H122146   1.391   0.401   2.596
 7394TIP3    H222147   1.316   0.502   2.679
 7395TIP3   OH222148   0.468   5.983   5.882
 7395TIP3    H122149   0.539   6.047   5.891
 7395TIP3    H222150   0.419   6.014   5.806
 7396TIP3   OH222151   6.768   2.319   3.792
 7396TIP3    H122152   6.747   2.394   3.736
 7396TIP3    H222153   6.695   2.259   3.780
 7397TIP3   OH222154   2.558   3.971   2.738
 7397TIP3    H122155   2.505   3.992   2.660
 7397TIP3    H222156   2.494   3.945   2.804
 7398TIP3   OH222157   6.171   6.270   2.058
 7398TIP3    H122158   6.232   6.340   2.082
 7398TIP3    H222159   6.199   6.195   2.111
 7399TIP3   OH222160   6.800   5.471   4.713
 7399TIP3    H122161   6.885   5.514   4.724
 7399TIP3    H222162   6.744   5.540   4.677
 7400TIP3   OH222163   2.258   2.415   0.522
 7400TIP3    H122164   2.343   2.442   0.558
 7400TIP3    H222165   2.255   2.320   0.537
 7401TIP3   OH222166   6.480   5.194   0.171
 7401TIP3    H122167   6.453   5.231   0.087
 7401TIP3    H222168   6.490   5.100   0.153
 7402TIP3   OH222169   3.183   1.945   4.370
 7402TIP3    H122170   3.248   1.926   4.303
 7402TIP3    H222171   3.103   1.902   4.339
 7403TIP3   OH222172   6.353   1.343   1.840
 7403TIP3    H122173   6.336   1.266   1.895
 7403TIP3    H222174   6.427   1.318   1.786
 7404TIP3   OH222175   1.038   0.604   4.873
 7404TIP3    H122176   1.079   0.631   4.955
 7404TIP3    H222177   1.041   0.682   4.818
 7405TIP3   OH222178   7.014   4.739   2.217
 7405TIP3    H122179   6.999   4.769   2.127
 7405TIP3    H222180   6.978   4.809   2.272
 7406TIP3   OH222181   3.624   1.363   3.665
 7406TIP3    H122182   3.639   1.422   3.739
 7406TIP3    H222183   3.583   1.285   3.704
 7407TIP3   OH222184   1.943   0.269   0.922
 7407TIP3    H122185   1.851   0.242   0.927
 7407TIP3    H222186   1.990   0.188   0.904
 7408TIP3   OH222187   6.640   5.803   2.051
 7408TIP3    H122188   6.574   5.735   2.035
 7408TIP3    H222189   6.723   5.762   2.026
 7409TIP3   OH222190   3.423   3.591   4.823
 7409TIP3    H122191   3.465   3.548   4.749
 7409TIP3    H222192   3.389   3.519   4.876
 7410TIP3   OH222193   3.590   2.282   4.889
 7410TIP3    H122194   3.655   2.238   4.832
 7410TIP3    H222195   3.518   2.304   4.830
 7411TIP3   OH222196   0.309   6.045   1.944
 7411TIP3    H122197   0.283   5.967   1.895
 7411TIP3    H222198   0.256   6.043   2.023
 7412TIP3   OH222199   2.830   1.960   2.363
 7412TIP3    H122200   2.867   1.875   2.383
 7412TIP3    H222201   2.901   2.007   2.318
 7413TIP3   OH222202   1.743   3.055   2.682
 7413TIP3    H122203   1.821   3.023   2.728
 7413TIP3    H222204   1.718   2.984   2.624
 7414TIP3   OH222205   5.273   0.955   0.623
 7414TIP3    H122206   5.308   0.974   0.535
 7414TIP3    H222207   5.312   1.022   0.679
 7415TIP3   OH222208   4.814   1.565   3.475
 7415TIP3    H122209   4.851   1.516   3.548
 7415TIP3    H222210   4.872   1.641   3.465
 7416TIP3   OH222211   6.967   4.536   2.782
 7416TIP3    H122212   7.033   4.535   2.713
 7416TIP3    H222213   6.901   4.598   2.750
 7417TIP3   OH222214   2.485   3.049   1.138
 7417TIP3    H122215   2.415   3.101   1.099
 7417TIP3    H222216   2.561   3.106   1.136
 7418TIP3   OH222217   5.706   0.191   3.479
 7418TIP3    H122218   5.789   0.159   3.445
 7418TIP3    H222219   5.676   0.122   3.538
 7419TIP3   OH222220   4.054   1.704   1.471
 7419TIP3    H122221   4.100   1.782   1.440
 7419TIP3    H222222   4.110   1.670   1.541
 7420TIP3   OH222223   7.173   6.688   4.697
 7420TIP3    H122224   7.107   6.755   4.679
 7420TIP3    H222225   7.137   6.638   4.770
 7421TIP3   OH222226   5.525   3.804   0.082
 7421TIP3    H122227   5.467   3.730   0.069
 7421TIP3    H222228   5.583   3.803   0.006
 7422TIP3   OH222229   3.958   6.271   0.788
 7422TIP3    H122230   3.931   6.330   0.859
 7422TIP3    H222231   4.045   6.302   0.763
 7423TIP3   OH222232   1.377   5.066   5.720
 7423TIP3    H122233   1.436   5.080   5.793
 7423TIP3    H222234   1.414   4.992   5.672
 7424TIP3   OH222235   4.850   5.905   3.609
 7424TIP3    H122236   4.931   5.876   3.567
 7424TIP3    H222237   4.781   5.877   3.549
 7425TIP3   OH222238   0.398   3.454   2.861
 7425TIP3    H122239   0.313   3.479   2.825
 7425TIP3    H222240   0.451   3.534   2.854
 7426TIP3   OH222241   4.928   0.652   2.254
 7426TIP3    H122242   4.947   0.571   2.206
 7426TIP3    H222243   5.014   0.687   2.277
 7427TIP3   OH222244   4.793   4.162   2.473
 7427TIP3    H122245   4.834   4.249   2.466
 7427TIP3    H222246   4.716   4.167   2.418
 7428TIP3   OH222247   0.781   5.649   1.162
 7428TIP3    H122248   0.829   5.706   1.221
 7428TIP3    H222249   0.716   5.606   1.218
 7429TIP3   OH222250   0.743   2.673   0.410
 7429TIP3    H122251   0.727   2.767   0.402
 7429TIP3    H222252   0.676   2.633   0.355
 7430TIP3   OH222253   7.178   3.722   4.977
 7430TIP3    H122254   7.117   3.648   4.970
 7430TIP3    H222255   7.165   3.756   5.065
 7431TIP3   OH222256   5.805   5.639   1.976
 7431TIP3    H122257   5.863   5.710   1.947
 7431TIP3    H222258   5.864   5.575   2.016
 7432TIP3   OH222259   3.653   0.491   2.219
 7432TIP3    H122260   3.592   0.475   2.291
 7432TIP3    H222261   3.701   0.409   2.209
 7433TIP3   OH222262   6.606   5.737   4.930
 7433TIP3    H122263   6.583   5.646   4.945
 7433TIP3    H222264   6.532   5.787   4.964
 7434TIP3   OH222265   5.332   2.703   0.317
 7434TIP3    H122266   5.339   2.608   0.312
 7434TIP3    H222267   5.346   2.733   0.228
 7435TIP3   OH222268   2.105   4.075   1.352
 7435TIP3    H122269   2.084   4.115   1.437
 7435TIP3    H222270   2.022   4.039   1.322
 7436TIP3   OH222271   5.905   5.599   2.634
 7436TIP3    H122272   5.937   5.601   2.544
 7436TIP3    H222273   5.816   5.636   2.628
 7437TIP3   OH222274   1.464   1.509   3.854
 7437TIP3    H122275   1.502   1.469   3.932
 7437TIP3    H222276   1.525   1.580   3.832
 7438TIP3   OH222277   1.167   4.697   1.856
 7438TIP3    H122278   1.106   4.624   1.847
 7438TIP3    H222279   1.228   4.670   1.924
 7439TIP3   OH222280   3.114   4.784   1.087
 7439TIP3    H122281   3.077   4.873   1.089
 7439TIP3    H222282   3.085   4.745   1.170
 7440TIP3   OH222283   6.325   2.895   2.186
 7440TIP3    H122284   6.257   2.840   2.224
 7440TIP3    H222285   6.282   2.979   2.169
 7441TIP3   OH222286   6.190   1.595   4.708
 7441TIP3    H122287   6.101   1.564   4.694
 7441TIP3    H222288   6.200   1.597   4.803
 7442TIP3   OH222289   3.189   5.897   5.802
 7442TIP3    H122290   3.178   5.827   5.738
 7442TIP3    H222291   3.264   5.947   5.770
 7443TIP3   OH222292   1.078   6.723   5.319
 7443TIP3    H122293   1.053   6.792   5.257
 7443TIP3    H222294   1.091   6.645   5.264
 7444TIP3   OH222295   3.572   5.351   3.198
 7444TIP3    H122296   3.625   5.303   3.262
 7444TIP3    H222297   3.493   5.298   3.187
 7445TIP3   OH222298   0.501   4.820   5.013
 7445TIP3    H122299   0.445   4.882   4.967
 7445TIP3    H222300   0.443   4.747   5.035
 7446TIP3   OH222301   5.758   2.339   2.841
 7446TIP3    H122302   5.707   2.418   2.856
 7446TIP3    H222303   5.712   2.294   2.769
 7447TIP3   OH222304   4.773   2.629   3.594
 7447TIP3    H122305   4.765   2.717   3.631
 7447TIP3    H222306   4.867   2.613   3.591
 7448TIP3   OH222307   7.066   6.633   1.543
 7448TIP3    H122308   7.150   6.677   1.551
 7448TIP3    H222309   7.026   6.640   1.630
 7449TIP3   OH222310   3.118   3.632   4.001
 7449TIP3    H122311   3.183   3.630   3.931
 7449TIP3    H222312   3.169   3.620   4.081
 7450TIP3   OH222313   3.116   2.294   3.601
 7450TIP3    H122314   3.170   2.246   3.539
 7450TIP3    H222315   3.049   2.231   3.629
 7451TIP3   OH222316   0.923   5.502   5.381
 7451TIP3    H122317   0.934   5.460   5.296
 7451TIP3    H222318   0.900   5.431   5.441
 7452TIP3   OH222319   5.604   6.662   0.370
 7452TIP3    H122320   5.521   6.707   0.358
 7452TIP3    H222321   5.665   6.732   0.394
 7453TIP3   OH222322   1.482   3.498   4.050
 7453TIP3    H122323   1.425   3.540   3.986
 7453TIP3    H222324   1.540   3.442   3.997
 7454TIP3   OH222325   4.730   4.960   5.755
 7454TIP3    H122326   4.778   5.035   5.721
 7454TIP3    H222327   4.798   4.895   5.774
 7455TIP3   OH222328   4.411   2.844   4.412
 7455TIP3    H122329   4.342   2.785   4.382
 7455TIP3    H222330   4.474   2.788   4.455
 7456TIP3   OH222331   4.726   0.801   2.175
 7456TIP3    H122332   4.761   0.863   2.111
 7456TIP3    H222333   4.803   0.758   2.211
 7457TIP3   OH222334   0.637   0.981   5.457
 7457TIP3    H122335   0.716   1.033   5.443
 7457TIP3    H222336   0.623   0.982   5.551
 7458TIP3   OH222337   5.179   1.562   2.023
 7458TIP3    H122338   5.134   1.480   2.045
 7458TIP3    H222339   5.163   1.574   1.930
 7459TIP3   OH222340   6.275   4.045   1.256
 7459TIP3    H122341   6.223   4.091   1.321
 7459TIP3    H222342   6.233   3.960   1.247
 7460TIP3   OH222343   1.396   4.966   0.881
 7460TIP3    H122344   1.461   5.023   0.923
 7460TIP3    H222345   1.447   4.893   0.847
 7461TIP3   OH222346   4.180   0.452   2.317
 7461TIP3    H122347   4.211   0.520   2.257
 7461TIP3    H222348   4.258   0.425   2.366
 7462TIP3   OH222349   7.137   6.297   3.294
 7462TIP3    H122350   7.082   6.299   3.215
 7462TIP3    H222351   7.170   6.386   3.303
 7463TIP3   OH222352   5.156   2.858   4.035
 7463TIP3    H122353   5.168   2.894   3.947
 7463TIP3    H222354   5.219   2.786   4.040
 7464TIP3   OH222355   5.302   3.697   3.880
 7464TIP3    H122356   5.340   3.784   3.891
 7464TIP3    H222357   5.345   3.662   3.802
 7465TIP3   OH222358   1.689   4.097   5.069
 7465TIP3    H122359   1.757   4.065   5.009
 7465TIP3    H222360   1.722   4.075   5.156
 7466TIP3   OH222361   6.082   4.848   4.142
 7466TIP3    H122362   6.058   4.772   4.195
 7466TIP3    H222363   6.171   4.869   4.168
 7467TIP3   OH222364   1.061   3.808   2.540
 7467TIP3    H122365   1.029   3.836   2.625
 7467TIP3    H222366   1.118   3.880   2.511
 7468TIP3   OH222367   2.322   5.018   2.773
 7468TIP3    H122368   2.409   5.059   2.765
 7468TIP3    H222369   2.265   5.089   2.803
 7469TIP3   OH222370   5.364   1.090   5.864
 7469TIP3    H122371   5.332   1.007   5.901
 7469TIP3    H222372   5.289   1.125   5.816
 7470TIP3   OH222373   5.912   3.727   3.986
 7470TIP3    H122374   5.941   3.809   3.946
 7470TIP3    H222375   5.935   3.735   4.078
 7471TIP3   OH222376   5.692   3.763   0.577
 7471TIP3    H122377   5.755   3.719   0.519
 7471TIP3    H222378   5.701   3.717   0.661
 7472TIP3   OH222379   6.560   2.783   3.561
 7472TIP3    H122380   6.520   2.766   3.476
 7472TIP3    H222381   6.490   2.764   3.624
 7473TIP3   OH222382   6.708   1.242   4.804
 7473TIP3    H122383   6.675   1.324   4.841
 7473TIP3    H222384   6.792   1.228   4.848
 7474TIP3   OH222385   3.719   5.128   3.805
 7474TIP3    H122386   3.635   5.135   3.758
 7474TIP3    H222387   3.785   5.142   3.737
 7475TIP3   OH222388   0.885   2.164   4.876
 7475TIP3    H122389   0.867   2.142   4.967
 7475TIP3    H222390   0.948   2.236   4.880
 7476TIP3   OH222391   3.745   2.587   4.134
 7476TIP3    H122392   3.753   2.493   4.118
 7476TIP3    H222393   3.787   2.628   4.058
 7477TIP3   OH222394   2.938   4.561   0.866
 7477TIP3    H122395   2.887   4.482   0.848
 7477TIP3    H222396   2.979   4.583   0.783
 7478TIP3   OH222397   5.776   4.556   4.798
 7478TIP3    H122398   5.863   4.516   4.806
 7478TIP3    H222399   5.742   4.558   4.887
 7479TIP3   OH222400   5.550   5.345   1.452
 7479TIP3    H122401   5.594   5.290   1.517
 7479TIP3    H222402   5.607   5.341   1.375
 7480TIP3   OH222403   0.727   2.647   5.032
 7480TIP3    H122404   0.774   2.564   5.032
 7480TIP3    H222405   0.635   2.622   5.019
 7481TIP3   OH222406   5.244   5.015   2.599
 7481TIP3    H122407   5.293   5.097   2.606
 7481TIP3    H222408   5.152   5.040   2.611
 7482TIP3   OH222409   7.130   4.709   2.967
 7482TIP3    H122410   7.070   4.651   2.920
 7482TIP3    H222411   7.075   4.781   2.997
 7483TIP3   OH222412   6.072   6.414   1.397
 7483TIP3    H122413   6.012   6.435   1.325
 7483TIP3    H222414   6.149   6.469   1.381
 7484TIP3   OH222415   2.123   6.189   1.711
 7484TIP3    H122416   2.031   6.212   1.710
 7484TIP3    H222417   2.126   6.101   1.674
 7485TIP3   OH222418   6.461   5.541   5.286
 7485TIP3    H122419   6.505   5.465   5.323
 7485TIP3    H222420   6.461   5.607   5.356
 7486TIP3   OH222421   3.831   4.954   5.581
 7486TIP3    H122422   3.899   5.012   5.614
 7486TIP3    H222423   3.862   4.866   5.602
 7487TIP3   OH222424   0.907   3.206   5.060
 7487TIP3    H122425   0.867   3.165   4.984
 7487TIP3    H222426   1.001   3.190   5.049
 7488TIP3   OH222427   2.468   3.665   0.651
 7488TIP3    H122428   2.441   3.575   0.636
 7488TIP3    H222429   2.390   3.717   0.631
 7489TIP3   OH222430   1.968   2.468   1.496
 7489TIP3    H122431   1.952   2.387   1.448
 7489TIP3    H222432   2.032   2.444   1.563
 7490TIP3   OH222433   0.487   4.088   5.535
 7490TIP3    H122434   0.540   4.069   5.457
 7490TIP3    H222435   0.397   4.074   5.506
 7491TIP3   OH222436   5.997   4.675   4.375
 7491TIP3    H122437   6.059   4.682   4.448
 7491TIP3    H222438   5.996   4.582   4.353
 7492TIP3   OH222439   1.867   5.180   2.746
 7492TIP3    H122440   1.891   5.189   2.838
 7492TIP3    H222441   1.922   5.108   2.714
 7493TIP3   OH222442   1.521   6.554   2.738
 7493TIP3    H122443   1.537   6.528   2.648
 7493TIP3    H222444   1.587   6.621   2.756
 7494TIP3   OH222445   3.305   4.163   3.388
 7494TIP3    H122446   3.344   4.076   3.375
 7494TIP3    H222447   3.379   4.219   3.413
 7495TIP3   OH222448   2.933   2.499   3.467
 7495TIP3    H122449   2.975   2.499   3.381
 7495TIP3    H222450   2.981   2.434   3.517
 7496TIP3   OH222451   4.959   4.894   1.755
 7496TIP3    H122452   4.955   4.990   1.759
 7496TIP3    H222453   4.959   4.866   1.846
 7497TIP3   OH222454   2.817   2.910   0.069
 7497TIP3    H122455   2.813   2.847   0.142
 7497TIP3    H222456   2.906   2.945   0.073
 7498TIP3   OH222457   5.291   2.600   1.216
 7498TIP3    H122458   5.361   2.659   1.188
 7498TIP3    H222459   5.306   2.520   1.165
 7499TIP3   OH222460   0.238   3.670   4.532
 7499TIP3    H122461   0.148   3.639   4.519
 7499TIP3    H222462   0.289   3.627   4.464
 7500TIP3   OH222463   5.520   4.111   1.215
 7500TIP3    H122464   5.484   4.058   1.286
 7500TIP3    H222465   5.460   4.098   1.141
 7501TIP3   OH222466   3.667   3.501   5.215
 7501TIP3    H122467   3.665   3.436   5.145
 7501TIP3    H222468   3.648   3.451   5.294
 7502TIP3   OH222469   0.011   2.910   3.257
 7502TIP3    H122470  -0.012   2.994   3.297
 7502TIP3    H222471   0.102   2.921   3.229
 7503TIP3   OH222472   3.622   4.873   4.653
 7503TIP3    H122473   3.688   4.941   4.648
 7503TIP3    H222474   3.539   4.917   4.633
 7504TIP3   OH222475   7.143   0.838   3.890
 7504TIP3    H122476   7.145   0.921   3.843
 7504TIP3    H222477   7.205   0.782   3.843
 7505TIP3   OH222478   5.595   4.019   0.558
 7505TIP3    H122479   5.659   3.950   0.578
 7505TIP3    H222480   5.529   4.010   0.627
 7506TIP3   OH222481   6.437   2.681   4.220
 7506TIP3    H122482   6.373   2.737   4.264
 7506TIP3    H222483   6.521   2.722   4.238
 7507TIP3   OH222484   5.196   4.197   3.644
 7507TIP3    H122485   5.107   4.210   3.612
 7507TIP3    H222486   5.248   4.183   3.566
 7508TIP3   OH222487   4.794   2.819   4.697
 7508TIP3    H122488   4.744   2.760   4.754
 7508TIP3    H222489   4.871   2.769   4.672
 7509TIP3   OH222490   2.869   0.973   1.292
 7509TIP3    H122491   2.950   0.971   1.241
 7509TIP3    H222492   2.823   0.892   1.267
 7510TIP3   OH222493   0.964   6.052   4.979
 7510TIP3    H122494   0.872   6.066   4.957
 7510TIP3    H222495   0.972   5.957   4.989
 7511TIP3   OH222496   6.329   3.485   1.823
 7511TIP3    H122497   6.277   3.406   1.813
 7511TIP3    H222498   6.413   3.455   1.857
 7512TIP3   OH222499   6.562   2.272   4.563
 7512TIP3    H122500   6.473   2.245   4.587
 7512TIP3    H222501   6.551   2.314   4.477
 7513TIP3   OH222502   4.146   5.738   3.992
 7513TIP3    H122503   4.170   5.763   4.081
 7513TIP3    H222504   4.195   5.658   3.974
 7514TIP3   OH222505   5.113   5.121   3.023
 7514TIP3    H122506   5.131   5.028   3.039
 7514TIP3    H222507   5.184   5.150   2.965
 7515TIP3   OH222508   3.975   5.340   1.946
 7515TIP3    H122509   3.976   5.378   1.857
 7515TIP3    H222510   4.020   5.405   1.999
 7516TIP3   OH222511   4.550   4.025   3.224
 7516TIP3    H122512   4.561   4.119   3.239
 7516TIP3    H222513   4.503   4.020   3.141
 7517TIP3   OH222514   1.678   1.112   5.352
 7517TIP3    H122515   1.642   1.125   5.439
 7517TIP3    H222516   1.734   1.188   5.337
 7518TIP3   OH222517   6.151   4.814   0.032
 7518TIP3    H122518   6.184   4.729   0.061
 7518TIP3    H222519   6.184   4.876   0.097
 7519TIP3   OH222520   2.671   1.248   1.854
 7519TIP3    H122521   2.618   1.298   1.915
 7519TIP3    H222522   2.714   1.314   1.800
 7520TIP3   OH222523   3.547   5.086   4.382
 7520TIP3    H122524   3.485   5.067   4.452
 7520TIP3    H222525   3.555   5.182   4.382
 7521TIP3   OH222526   1.079   4.648   2.665
 7521TIP3    H122527   1.036   4.565   2.686
 7521TIP3    H222528   1.172   4.630   2.677
 7522TIP3   OH222529   1.856   1.773   5.623
 7522TIP3    H122530   1.843   1.846   5.683
 7522TIP3    H222531   1.875   1.814   5.538
 7523TIP3   OH222532   2.872   4.139   0.944
 7523TIP3    H122533   2.829   4.064   0.904
 7523TIP3    H222534   2.816   4.213   0.921
 7524TIP3   OH222535   1.713   3.375   0.233
 7524TIP3    H122536   1.725   3.318   0.309
 7524TIP3    H222537   1.757   3.330   0.161
 7525TIP3   OH222538   6.237   4.046   2.928
 7525TIP3    H122539   6.146   4.071   2.914
 7525TIP3    H222540   6.280   4.127   2.958
 7526TIP3   OH222541   6.680   2.537   0.818
 7526TIP3    H122542   6.664   2.483   0.895
 7526TIP3    H222543   6.616   2.607   0.824
 7527TIP3   OH222544   5.939   0.831   0.606
 7527TIP3    H122545   6.025   0.815   0.645
 7527TIP3    H222546   5.920   0.922   0.626
 7528TIP3   OH222547   5.535   4.353   0.796
 7528TIP3    H122548   5.462   4.405   0.830
 7528TIP3    H222549   5.581   4.323   0.874
 7529TIP3   OH222550   0.406   0.634   1.780
 7529TIP3    H122551   0.485   0.683   1.755
 7529TIP3    H222552   0.355   0.630   1.699
 7530TIP3   OH222553   0.716   3.497   2.713
 7530TIP3    H122554   0.810   3.511   2.719
 7530TIP3    H222555   0.695   3.514   2.621
 7531TIP3   OH222556   6.699   0.767   1.077
 7531TIP3    H122557   6.707   0.675   1.100
 7531TIP3    H222558   6.787   0.793   1.050
 7532TIP3   OH222559   0.707   5.359   3.369
 7532TIP3    H122560   0.731   5.267   3.381
 7532TIP3    H222561   0.665   5.363   3.284
 7533TIP3   OH222562   4.779   4.989   3.883
 7533TIP3    H122563   4.703   4.972   3.827
 7533TIP3    H222564   4.742   5.022   3.965
 7534TIP3   OH222565   0.963   1.828   0.632
 7534TIP3    H122566   1.017   1.751   0.615
 7534TIP3    H222567   1.005   1.899   0.583
 7535TIP3   OH222568   3.734   5.499   2.070
 7535TIP3    H122569   3.793   5.466   2.002
 7535TIP3    H222570   3.701   5.420   2.113
 7536TIP3   OH222571   1.164   5.274   1.542
 7536TIP3    H122572   1.094   5.259   1.478
 7536TIP3    H222573   1.152   5.204   1.607
 7537TIP3   OH222574   4.359   6.407   5.303
 7537TIP3    H122575   4.422   6.345   5.265
 7537TIP3    H222576   4.315   6.356   5.371
 7538TIP3   OH222577   1.407   0.494   4.569
 7538TIP3    H122578   1.391   0.551   4.494
 7538TIP3    H222579   1.392   0.550   4.646
 7539TIP3   OH222580   3.645   4.034   4.974
 7539TIP3    H122581   3.640   3.939   4.963
 7539TIP3    H222582   3.624   4.069   4.887
 7540TIP3   OH222583   5.626   2.781   2.210
 7540TIP3    H122584   5.662   2.833   2.139
 7540TIP3    H222585   5.579   2.844   2.265
 7541TIP3   OH222586   0.089   5.465   0.977
 7541TIP3    H122587   0.164   5.460   1.036
 7541TIP3    H222588   0.126   5.463   0.889
 7542TIP3   OH222589   1.797   2.828   2.969
 7542TIP3    H122590   1.779   2.922   2.964
 7542TIP3    H222591   1.893   2.822   2.965
 7543TIP3   OH222592   5.337   5.282   2.582
 7543TIP3    H122593   5.418   5.319   2.617
 7543TIP3    H222594   5.366   5.229   2.508
 7544TIP3   OH222595   5.959   2.120   4.783
 7544TIP3    H122596   5.871   2.151   4.760
 7544TIP3    H222597   6.011   2.200   4.792
 7545TIP3   OH222598   5.124   1.228   3.566
 7545TIP3    H122599   5.112   1.134   3.575
 7545TIP3    H222600   5.093   1.265   3.649
 7546TIP3   OH222601   3.293   0.397   2.974
 7546TIP3    H122602   3.205   0.430   2.992
 7546TIP3    H222603   3.298   0.396   2.878
 7547TIP3   OH222604   1.379   0.301   2.960
 7547TIP3    H122605   1.435   0.377   2.945
 7547TIP3    H222606   1.424   0.228   2.918
 7548TIP3   OH222607   6.182   1.683   4.159
 7548TIP3    H122608   6.158   1.696   4.067
 7548TIP3    H222609   6.276   1.669   4.159
 7549TIP3   OH222610   0.833   3.266   4.755
 7549TIP3    H122611   0.767   3.334   4.744
 7549TIP3    H222612   0.784   3.189   4.785
 7550TIP3   OH222613   1.737   6.430   5.448
 7550TIP3    H122614   1.668   6.369   5.421
 7550TIP3    H222615   1.704   6.468   5.530
 7551TIP3   OH222616   4.423   2.224   0.746
 7551TIP3    H122617   4.409   2.140   0.701
 7551TIP3    H222618   4.506   2.211   0.792
 7552TIP3   OH222619   4.343   3.363   0.162
 7552TIP3    H122620   4.288   3.293   0.195
 7552TIP3    H222621   4.281   3.433   0.140
 7553TIP3   OH222622   2.947   6.739   2.943
 7553TIP3    H122623   3.007   6.775   3.008
 7553TIP3    H222624   2.874   6.704   2.994
 7554TIP3   OH222625   5.573   3.502   5.394
 7554TIP3    H122626   5.656   3.456   5.402
 7554TIP3    H222627   5.567   3.555   5.474
 7555TIP3   OH222628   2.791   0.244   5.170
 7555TIP3    H122629   2.758   0.255   5.259
 7555TIP3    H222630   2.886   0.255   5.177
 7556TIP3   OH222631   6.421   0.970   2.589
 7556TIP3    H122632   6.475   0.891   2.600
 7556TIP3    H222633   6.484   1.042   2.589
 7557TIP3   OH222634   2.065   2.100   4.480
 7557TIP3    H122635   2.159   2.107   4.468
 7557TIP3    H222636   2.054   2.089   4.575
 7558TIP3   OH222637   6.677   5.089   4.276
 7558TIP3    H122638   6.614   5.133   4.333
 7558TIP3    H222639   6.625   5.060   4.201
 7559TIP3   OH222640   0.994   0.338   3.907
 7559TIP3    H122641   1.011   0.379   3.822
 7559TIP3    H222642   0.983   0.411   3.968
 7560TIP3   OH222643   5.651   2.229   0.701
 7560TIP3    H122644   5.622   2.283   0.627
 7560TIP3    H222645   5.747   2.229   0.693
 7561TIP3   OH222646   2.939   1.960   3.954
 7561TIP3    H122647   2.925   2.028   4.019
 7561TIP3    H222648   2.851   1.925   3.937
 7562TIP3   OH222649   1.590   3.848   0.125
 7562TIP3    H122650   1.593   3.935   0.165
 7562TIP3    H222651   1.609   3.788   0.197
 7563TIP3   OH222652   2.168   5.747   2.738
 7563TIP3    H122653   2.176   5.708   2.651
 7563TIP3    H222654   2.206   5.682   2.797
 7564TIP3   OH222655   1.627   6.284   3.149
 7564TIP3    H122656   1.596   6.303   3.061
 7564TIP3    H222657   1.656   6.193   3.145
 7565TIP3   OH222658   3.297   1.059   5.217
 7565TIP3    H122659   3.253   1.066   5.132
 7565TIP3    H222660   3.240   1.106   5.278
 7566TIP3   OH222661   0.780   2.898   4.449
 7566TIP3    H122662   0.712   2.854   4.500
 7566TIP3    H222663   0.792   2.982   4.492
 7567TIP3   OH222664   6.155   6.011   1.757
 7567TIP3    H122665   6.208   6.019   1.677
 7567TIP3    H222666   6.201   5.946   1.809
 7568TIP3   OH222667   1.626   3.495   5.312
 7568TIP3    H122668   1.717   3.505   5.342
 7568TIP3    H222669   1.605   3.578   5.270
 7569TIP3   OH222670   6.747  -0.021   1.469
 7569TIP3    H122671   6.823   0.028   1.500
 7569TIP3    H222672   6.707   0.036   1.403
 7570TIP3   OH222673   1.489   1.310   1.063
 7570TIP3    H122674   1.479   1.331   1.156
 7570TIP3    H222675   1.524   1.390   1.024
 7571TIP3   OH222676   6.813   0.879   0.209
 7571TIP3    H122677   6.804   0.964   0.253
 7571TIP3    H222678   6.840   0.902   0.120
 7572TIP3   OH222679   4.615   6.075   4.136
 7572TIP3    H122680   4.665   6.081   4.054
 7572TIP3    H222681   4.589   5.984   4.142
 7573TIP3   OH222682   2.309   5.119   3.152
 7573TIP3    H122683   2.275   5.030   3.155
 7573TIP3    H222684   2.273   5.156   3.071
 7574TIP3   OH222685   6.447   3.235   4.131
 7574TIP3    H122686   6.368   3.240   4.077
 7574TIP3    H222687   6.428   3.167   4.196
 7575TIP3   OH222688   4.120   5.721   2.396
 7575TIP3    H122689   4.066   5.800   2.400
 7575TIP3    H222690   4.058   5.649   2.395
 7576TIP3   OH222691   2.521   0.362   4.556
 7576TIP3    H122692   2.464   0.338   4.483
 7576TIP3    H222693   2.572   0.283   4.573
 7577TIP3   OH222694   3.581   2.317   1.791
 7577TIP3    H122695   3.515   2.252   1.813
 7577TIP3    H222696   3.642   2.316   1.866
 7578TIP3   OH222697   4.234   5.858   0.076
 7578TIP3    H122698   4.260   5.892   0.161
 7578TIP3    H222699   4.144   5.889   0.064
 7579TIP3   OH222700   6.720   5.273   1.541
 7579TIP3    H122701   6.751   5.228   1.620
 7579TIP3    H222702   6.719   5.365   1.565
 7580TIP3   OH222703   3.027   1.183   2.013
 7580TIP3    H122704   3.088   1.114   1.986
 7580TIP3    H222705   3.039   1.191   2.107
 7581TIP3   OH222706   2.269   4.774   3.463
 7581TIP3    H122707   2.288   4.700   3.406
 7581TIP3    H222708   2.181   4.757   3.496
 7582TIP3   OH222709   0.431   4.151   0.957
 7582TIP3    H122710   0.346   4.110   0.970
 7582TIP3    H222711   0.440   4.211   1.031
 7583TIP3   OH222712   0.226   4.300   3.508
 7583TIP3    H122713   0.315   4.315   3.476
 7583TIP3    H222714   0.170   4.337   3.439
 7584TIP3   OH222715   4.709   5.034   2.108
 7584TIP3    H122716   4.637   5.059   2.051
 7584TIP3    H222717   4.684   5.067   2.194
 7585TIP3   OH222718   0.091   5.027   2.071
 7585TIP3    H122719   0.137   5.058   2.149
 7585TIP3    H222720   0.160   4.991   2.015
 7586TIP3   OH222721   6.146   1.010   1.041
 7586TIP3    H122722   6.221   1.049   0.995
 7586TIP3    H222723   6.154   0.916   1.024
 7587TIP3   OH222724   0.278   0.560   5.701
 7587TIP3    H122725   0.354   0.600   5.744
 7587TIP3    H222726   0.203   0.585   5.756
 7588TIP3   OH222727   6.113   1.849   0.085
 7588TIP3    H122728   6.156   1.770   0.052
 7588TIP3    H222729   6.047   1.870   0.019
 7589TIP3   OH222730   4.514   0.407   0.467
 7589TIP3    H122731   4.483   0.416   0.558
 7589TIP3    H222732   4.574   0.481   0.455
 7590TIP3   OH222733   1.507   1.437   3.497
 7590TIP3    H122734   1.547   1.454   3.582
 7590TIP3    H222735   1.414   1.427   3.516
 7591TIP3   OH222736   4.153   0.603   2.597
 7591TIP3    H122737   4.075   0.579   2.547
 7591TIP3    H222738   4.211   0.527   2.589
 7592TIP3   OH222739   2.661   4.402   5.263
 7592TIP3    H122740   2.650   4.322   5.313
 7592TIP3    H222741   2.577   4.416   5.220
 7593TIP3   OH222742   3.546   0.310   2.783
 7593TIP3    H122743   3.616   0.300   2.847
 7593TIP3    H222744   3.502   0.224   2.782
 7594TIP3   OH222745   3.965   6.684   5.778
 7594TIP3    H122746   3.986   6.638   5.859
 7594TIP3    H222747   4.037   6.663   5.719
 7595TIP3   OH222748   2.242   1.193   5.887
 7595TIP3    H122749   2.289   1.193   5.804
 7595TIP3    H222750   2.218   1.102   5.902
 7596TIP3   OH222751   0.307   6.156   4.939
 7596TIP3    H122752   0.258   6.083   4.902
 7596TIP3    H222753   0.361   6.116   5.007
 7597TIP3   OH222754   4.198   3.306   1.412
 7597TIP3    H122755   4.235   3.383   1.456
 7597TIP3    H222756   4.152   3.259   1.481
 7598TIP3   OH222757   1.109   1.424   4.585
 7598TIP3    H122758   1.096   1.512   4.621
 7598TIP3    H222759   1.160   1.437   4.505
 7599TIP3   OH222760   2.020   2.755   2.609
 7599TIP3    H122761   2.029   2.826   2.672
 7599TIP3    H222762   2.033   2.675   2.660
 7600TIP3   OH222763   4.984   2.175   4.261
 7600TIP3    H122764   5.073   2.187   4.294
 7600TIP3    H222765   4.993   2.112   4.190
 7601TIP3   OH222766   1.281   0.134   1.310
 7601TIP3    H122767   1.272   0.132   1.215
 7601TIP3    H222768   1.215   0.074   1.342
 7602TIP3   OH222769   0.109   6.442   4.623
 7602TIP3    H122770   0.199   6.458   4.652
 7602TIP3    H222771   0.055   6.495   4.681
 7603TIP3   OH222772   4.861   2.868   5.342
 7603TIP3    H122773   4.864   2.860   5.247
 7603TIP3    H222774   4.848   2.961   5.359
 7604TIP3   OH222775   0.128   1.422   0.988
 7604TIP3    H122776   0.064   1.488   0.961
 7604TIP3    H222777   0.212   1.456   0.958
 7605TIP3   OH222778   3.092   3.625   5.033
 7605TIP3    H122779   3.071   3.594   5.121
 7605TIP3    H222780   3.079   3.548   4.977
 7606TIP3   OH222781   2.992   6.218   0.992
 7606TIP3    H122782   2.943   6.226   1.074
 7606TIP3    H222783   3.030   6.305   0.978
 7607TIP3   OH222784   6.391   6.771   2.768
 7607TIP3    H122785   6.445   6.732   2.700
 7607TIP3    H222786   6.417   6.725   2.848
 7608TIP3   OH222787   4.395   4.765   2.697
 7608TIP3    H122788   4.482   4.732   2.722
 7608TIP3    H222789   4.335   4.696   2.723
 7609TIP3   OH222790   7.004   5.970   2.047
 7609TIP3    H122791   7.038   6.049   2.005
 7609TIP3    H222792   6.983   5.912   1.975
 7610TIP3   OH222793   7.033   2.528   2.807
 7610TIP3    H122794   7.107   2.562   2.858
 7610TIP3    H222795   7.017   2.441   2.843
 7611TIP3   OH222796   0.885   0.666   2.872
 7611TIP3    H122797   0.805   0.708   2.904
 7611TIP3    H222798   0.880   0.576   2.903
 7612TIP3   OH222799   4.718   4.994   3.182
 7612TIP3    H122800   4.651   4.960   3.241
 7612TIP3    H222801   4.691   4.963   3.095
 7613TIP3   OH222802   4.871   1.088   1.363
 7613TIP3    H122803   4.777   1.080   1.378
 7613TIP3    H222804   4.883   1.062   1.272
 7614TIP3   OH222805   3.074   6.129   1.764
 7614TIP3    H122806   3.169   6.135   1.753
 7614TIP3    H222807   3.040   6.210   1.725
 7615TIP3   OH222808   4.584   0.433   2.891
 7615TIP3    H122809   4.669   0.473   2.869
 7615TIP3    H222810   4.596   0.398   2.979
 7616TIP3   OH222811   4.602   0.906   3.267
 7616TIP3    H122812   4.607   0.815   3.238
 7616TIP3    H222813   4.562   0.901   3.354
 7617TIP3   OH222814   4.934   3.126   3.773
 7617TIP3    H122815   4.915   3.201   3.717
 7617TIP3    H222816   5.022   3.098   3.746
 7618TIP3   OH222817   4.834   2.515   0.843
 7618TIP3    H122818   4.927   2.536   0.846
 7618TIP3    H222819   4.794   2.572   0.908
 7619TIP3   OH222820   6.824   2.996   4.459
 7619TIP3    H122821   6.837   3.056   4.386
 7619TIP3    H222822   6.816   3.052   4.535
 7620TIP3   OH222823   2.942   6.754   5.488
 7620TIP3    H122824   2.992   6.683   5.448
 7620TIP3    H222825   2.866   6.766   5.431
 7621TIP3   OH222826   4.261   3.996   0.656
 7621TIP3    H122827   4.259   4.087   0.685
 7621TIP3    H222828   4.169   3.970   0.652
 7622TIP3   OH222829   2.700   3.695   2.329
 7622TIP3    H122830   2.766   3.672   2.393
 7622TIP3    H222831   2.750   3.723   2.252
 7623TIP3   OH222832   1.299   2.348   3.062
 7623TIP3    H122833   1.229   2.282   3.061
 7623TIP3    H222834   1.309   2.371   3.154
 7624TIP3   OH222835   4.394   2.201   1.928
 7624TIP3    H122836   4.428   2.130   1.874
 7624TIP3    H222837   4.299   2.199   1.914
 7625TIP3   OH222838   2.447   3.725   5.694
 7625TIP3    H122839   2.371   3.738   5.638
 7625TIP3    H222840   2.455   3.629   5.700
 7626TIP3   OH222841   5.260   5.081   3.310
 7626TIP3    H122842   5.261   5.176   3.319
 7626TIP3    H222843   5.192   5.064   3.245
 7627TIP3   OH222844   2.700   6.456   5.685
 7627TIP3    H122845   2.612   6.437   5.717
 7627TIP3    H222846   2.756   6.445   5.762
 7628TIP3   OH222847   4.098   0.157   2.529
 7628TIP3    H122848   4.012   0.185   2.561
 7628TIP3    H222849   4.154   0.234   2.538
 7629TIP3   OH222850   3.079   2.964   4.507
 7629TIP3    H122851   3.050   2.890   4.454
 7629TIP3    H222852   3.091   3.035   4.445
 7630TIP3   OH222853   4.171   3.619   3.779
 7630TIP3    H122854   4.116   3.621   3.857
 7630TIP3    H222855   4.202   3.709   3.769
 7631TIP3   OH222856   6.060   1.432   2.235
 7631TIP3    H122857   6.107   1.510   2.264
 7631TIP3    H222858   5.969   1.459   2.232
 7632TIP3   OH222859   4.966   0.775   1.413
 7632TIP3    H122860   4.890   0.721   1.433
 7632TIP3    H222861   4.935   0.837   1.346
 7633TIP3   OH222862   4.630   6.493   1.869
 7633TIP3    H122863   4.676   6.566   1.828
 7633TIP3    H222864   4.665   6.415   1.825
 7634TIP3   OH222865   3.989   4.386   0.859
 7634TIP3    H122866   4.034   4.416   0.938
 7634TIP3    H222867   3.962   4.467   0.815
 7635TIP3   OH222868   3.224   5.039   0.623
 7635TIP3    H122869   3.220   5.134   0.638
 7635TIP3    H222870   3.249   5.031   0.531
 7636TIP3   OH222871   6.660   1.753   0.958
 7636TIP3    H122872   6.645   1.827   1.017
 7636TIP3    H222873   6.690   1.793   0.877
 7637TIP3   OH222874   6.719   4.802   4.770
 7637TIP3    H122875   6.790   4.769   4.825
 7637TIP3    H222876   6.731   4.757   4.686
 7638TIP3   OH222877   4.903   4.004   1.030
 7638TIP3    H122878   4.975   3.968   0.978
 7638TIP3    H222879   4.825   3.985   0.979
 7639TIP3   OH222880   1.832   1.502   1.657
 7639TIP3    H122881   1.909   1.472   1.707
 7639TIP3    H222882   1.849   1.473   1.568
 7640TIP3   OH222883   1.662   6.522   2.473
 7640TIP3    H122884   1.712   6.508   2.392
 7640TIP3    H222885   1.729   6.538   2.539
 7641TIP3   OH222886   2.765   5.303   1.751
 7641TIP3    H122887   2.740   5.218   1.716
 7641TIP3    H222888   2.687   5.334   1.797
 7642TIP3   OH222889   4.919   1.925   0.497
 7642TIP3    H122890   4.960   1.871   0.428
 7642TIP3    H222891   4.993   1.960   0.547
 7643TIP3   OH222892   7.004   6.141   1.343
 7643TIP3    H122893   6.969   6.144   1.254
 7643TIP3    H222894   6.932   6.171   1.399
 7644TIP3   OH222895   4.085   6.788   5.113
 7644TIP3    H122896   4.116   6.835   5.190
 7644TIP3    H222897   4.140   6.709   5.111
 7645TIP3   OH222898   0.527   5.185   3.930
 7645TIP3    H122899   0.615   5.203   3.897
 7645TIP3    H222900   0.520   5.089   3.925
 7646TIP3   OH222901   0.003   5.828   4.489
 7646TIP3    H122902  -0.069   5.786   4.442
 7646TIP3    H222903   0.060   5.756   4.515
 7647TIP3   OH222904   1.670   3.750   5.202
 7647TIP3    H122905   1.719   3.763   5.283
 7647TIP3    H222906   1.599   3.815   5.206
 7648TIP3   OH222907   1.729   0.819   4.550
 7648TIP3    H122908   1.701   0.884   4.485
 7648TIP3    H222909   1.799   0.771   4.506
 7649TIP3   OH222910   5.393   6.387   3.629
 7649TIP3    H122911   5.338   6.460   3.657
 7649TIP3    H222912   5.468   6.389   3.689
 7650TIP3   OH222913   5.314   4.616   0.028
 7650TIP3    H122914   5.253   4.561   0.078
 7650TIP3    H222915   5.285   4.705   0.045
 7651TIP3   OH222916   3.722   4.327   5.196
 7651TIP3    H122917   3.760   4.265   5.134
 7651TIP3    H222918   3.661   4.380   5.143
 7652TIP3   OH222919   3.007   2.890   1.929
 7652TIP3    H122920   3.073   2.842   1.979
 7652TIP3    H222921   2.984   2.831   1.857
 7653TIP3   OH222922   5.328   2.114   3.629
 7653TIP3    H122923   5.261   2.067   3.580
 7653TIP3    H222924   5.293   2.203   3.638
 7654TIP3   OH222925   5.610   1.222   2.422
 7654TIP3    H122926   5.567   1.171   2.490
 7654TIP3    H222927   5.696   1.181   2.413
 7655TIP3   OH222928   4.716   6.368   0.512
 7655TIP3    H122929   4.804   6.332   0.516
 7655TIP3    H222930   4.667   6.308   0.457
 7656TIP3   OH222931   0.402   4.811   5.409
 7656TIP3    H122932   0.402   4.881   5.474
 7656TIP3    H222933   0.384   4.732   5.459
 7657TIP3   OH222934   2.950   0.695   1.739
 7657TIP3    H122935   2.965   0.686   1.645
 7657TIP3    H222936   2.911   0.782   1.748
 7658TIP3   OH222937   1.448   0.863   0.592
 7658TIP3    H122938   1.442   0.944   0.540
 7658TIP3    H222939   1.402   0.883   0.673
 7659TIP3   OH222940   4.822   0.347   3.168
 7659TIP3    H122941   4.905   0.334   3.214
 7659TIP3    H222942   4.823   0.284   3.097
 7660TIP3   OH222943   3.982   4.408   0.371
 7660TIP3    H122944   3.914   4.446   0.426
 7660TIP3    H222945   4.049   4.477   0.365
 7661TIP3   OH222946   7.019   1.394   0.979
 7661TIP3    H122947   6.941   1.406   0.925
 7661TIP3    H222948   7.082   1.458   0.946
 7662TIP3   OH222949   1.354   2.871   2.023
 7662TIP3    H122950   1.326   2.794   1.974
 7662TIP3    H222951   1.412   2.838   2.091
 7663TIP3   OH222952   2.673   0.240   1.637
 7663TIP3    H122953   2.670   0.295   1.559
 7663TIP3    H222954   2.582   0.229   1.663
 7664TIP3   OH222955   2.315   3.476   4.566
 7664TIP3    H122956   2.352   3.434   4.488
 7664TIP3    H222957   2.384   3.536   4.596
 7665TIP3   OH222958   2.546   2.727   0.733
 7665TIP3    H122959   2.623   2.727   0.790
 7665TIP3    H222960   2.536   2.818   0.705
 7666TIP3   OH222961   2.567   6.726   5.633
 7666TIP3    H122962   2.618   6.748   5.711
 7666TIP3    H222963   2.591   6.635   5.614
 7667TIP3   OH222964   4.454   3.067   1.494
 7667TIP3    H122965   4.542   3.100   1.514
 7667TIP3    H222966   4.397   3.118   1.552
 7668TIP3   OH222967   4.368   0.862   1.029
 7668TIP3    H122968   4.456   0.876   0.994
 7668TIP3    H222969   4.356   0.768   1.028
 7669TIP3   OH222970   5.723   6.428   5.545
 7669TIP3    H122971   5.721   6.453   5.637
 7669TIP3    H222972   5.727   6.332   5.546
 7670TIP3   OH222973   2.014   3.108   3.962
 7670TIP3    H122974   1.959   3.174   4.005
 7670TIP3    H222975   2.078   3.159   3.913
 7671TIP3   OH222976   1.530   1.966   0.211
 7671TIP3    H122977   1.550   1.894   0.151
 7671TIP3    H222978   1.519   2.043   0.155
 7672TIP3   OH222979   1.736   3.543   0.756
 7672TIP3    H122980   1.804   3.539   0.689
 7672TIP3    H222981   1.757   3.471   0.816
 7673TIP3   OH222982   4.322   3.416   2.221
 7673TIP3    H122983   4.332   3.321   2.217
 7673TIP3    H222984   4.258   3.430   2.291
 7674TIP3   OH222985   1.244   4.933   4.369
 7674TIP3    H122986   1.148   4.941   4.373
 7674TIP3    H222987   1.268   4.884   4.447
 7675TIP3   OH222988   6.991   3.500   4.089
 7675TIP3    H122989   7.028   3.413   4.105
 7675TIP3    H222990   6.909   3.483   4.043
 7676TIP3   OH222991   5.649   6.230   1.867
 7676TIP3    H122992   5.669   6.200   1.956
 7676TIP3    H222993   5.609   6.154   1.825
 7677TIP3   OH222994   3.478   0.314   5.068
 7677TIP3    H122995   3.499   0.339   5.158
 7677TIP3    H222996   3.477   0.219   5.069
 7678TIP3   OH222997   4.293   4.262   3.235
 7678TIP3    H122998   4.352   4.263   3.310
 7678TIP3    H222999   4.206   4.260   3.273
 7679TIP3   OH223000   5.406   2.393   1.038
 7679TIP3    H123001   5.424   2.302   1.014
 7679TIP3    H223002   5.464   2.445   0.981
 7680TIP3   OH223003   6.785   0.008   2.764
 7680TIP3    H123004   6.710   0.059   2.795
 7680TIP3    H223005   6.838   0.072   2.716
 7681TIP3   OH223006   3.339   2.596   2.971
 7681TIP3    H123007   3.249   2.563   2.975
 7681TIP3    H223008   3.384   2.550   3.042
 7682TIP3   OH223009   4.035   0.335   5.698
 7682TIP3    H123010   4.095   0.352   5.770
 7682TIP3    H223011   4.042   0.241   5.682
 7683TIP3   OH223012   4.935   0.283   1.421
 7683TIP3    H123013   4.872   0.242   1.363
 7683TIP3    H223014   4.942   0.373   1.390
 7684TIP3   OH223015   3.550   0.747   3.660
 7684TIP3    H123016   3.488   0.678   3.679
 7684TIP3    H223017   3.609   0.749   3.736
 7685TIP3   OH223018   3.949   6.127   3.447
 7685TIP3    H123019   4.043   6.120   3.428
 7685TIP3    H223020   3.910   6.053   3.400
 7686TIP3   OH223021   4.421   0.469   4.757
 7686TIP3    H123022   4.397   0.529   4.686
 7686TIP3    H223023   4.455   0.391   4.711
 7687TIP3   OH223024   3.164   1.263   5.390
 7687TIP3    H123025   3.212   1.277   5.472
 7687TIP3    H223026   3.118   1.345   5.375
 7688TIP3   OH223027   6.710   2.222   5.751
 7688TIP3    H123028   6.774   2.267   5.806
 7688TIP3    H223029   6.697   2.137   5.793
 7689TIP3   OH223030   1.018   1.675   1.805
 7689TIP3    H123031   1.012   1.771   1.808
 7689TIP3    H223032   1.027   1.649   1.897
 7690TIP3   OH223033   1.438   6.547   2.318
 7690TIP3    H123034   1.419   6.639   2.302
 7690TIP3    H223035   1.520   6.548   2.368
 7691TIP3   OH223036   3.457   3.330   2.634
 7691TIP3    H123037   3.541   3.319   2.677
 7691TIP3    H223038   3.479   3.353   2.544
 7692TIP3   OH223039   5.798   3.855   0.245
 7692TIP3    H123040   5.713   3.860   0.201
 7692TIP3    H223041   5.824   3.763   0.235
 7693TIP3   OH223042   0.831   1.263   1.255
 7693TIP3    H123043   0.771   1.337   1.261
 7693TIP3    H223044   0.843   1.234   1.345
 7694TIP3   OH223045   7.030   3.828   2.706
 7694TIP3    H123046   7.001   3.911   2.745
 7694TIP3    H223047   7.124   3.823   2.728
 7695TIP3   OH223048   3.781   1.979   1.933
 7695TIP3    H123049   3.827   2.063   1.927
 7695TIP3    H223050   3.760   1.970   2.025
 7696TIP3   OH223051   2.985   5.782   1.930
 7696TIP3    H123052   2.982   5.690   1.902
 7696TIP3    H223053   3.077   5.797   1.951
 7697TIP3   OH223054   6.345   1.981   0.263
 7697TIP3    H123055   6.269   1.924   0.252
 7697TIP3    H223056   6.336   2.046   0.194
 7698TIP3   OH223057   3.892   3.940   0.911
 7698TIP3    H123058   3.951   3.864   0.910
 7698TIP3    H223059   3.805   3.902   0.900
 7699TIP3   OH223060   4.686   4.005   2.880
 7699TIP3    H123061   4.603   3.975   2.842
 7699TIP3    H223062   4.663   4.086   2.927
 7700TIP3   OH223063   6.418   5.770   4.472
 7700TIP3    H123064   6.488   5.812   4.422
 7700TIP3    H223065   6.401   5.830   4.545
 7701TIP3   OH223066   4.388   3.605   3.374
 7701TIP3    H123067   4.358   3.536   3.433
 7701TIP3    H223068   4.333   3.681   3.396
 7702TIP3   OH223069   3.284   2.237   3.383
 7702TIP3    H123070   3.368   2.279   3.399
 7702TIP3    H223071   3.305   2.159   3.331
 7703TIP3   OH223072   4.304   3.491   0.948
 7703TIP3    H123073   4.238   3.486   1.017
 7703TIP3    H223074   4.387   3.497   0.994
 7704TIP3   OH223075   1.009   4.995   4.235
 7704TIP3    H123076   1.028   5.086   4.212
 7704TIP3    H223077   1.060   4.944   4.172
 7705TIP3   OH223078   1.185   4.870   1.444
 7705TIP3    H123079   1.200   4.928   1.369
 7705TIP3    H223080   1.157   4.787   1.405
 7706TIP3   OH223081   2.536   0.627   5.338
 7706TIP3    H123082   2.448   0.616   5.373
 7706TIP3    H223083   2.526   0.619   5.244
 7707TIP3   OH223084   6.652   2.730   2.438
 7707TIP3    H123085   6.607   2.716   2.355
 7707TIP3    H223086   6.683   2.820   2.435
 7708TIP3   OH223087   3.792   2.997   3.809
 7708TIP3    H123088   3.777   2.927   3.872
 7708TIP3    H223089   3.877   3.033   3.834
 7709TIP3   OH223090   4.555   1.892   2.528
 7709TIP3    H123091   4.631   1.950   2.523
 7709TIP3    H223092   4.571   1.826   2.460
 7710TIP3   OH223093   3.266   5.563   4.487
 7710TIP3    H123094   3.327   5.597   4.552
 7710TIP3    H223095   3.322   5.530   4.416
 7711TIP3   OH223096   5.198   3.039   1.836
 7711TIP3    H123097   5.182   3.130   1.861
 7711TIP3    H223098   5.155   2.987   1.904
 7712TIP3   OH223099   4.706   0.309   3.868
 7712TIP3    H123100   4.679   0.386   3.818
 7712TIP3    H223101   4.738   0.248   3.802
 7713TIP3   OH223102   5.636   3.964   4.599
 7713TIP3    H123103   5.674   3.953   4.686
 7713TIP3    H223104   5.542   3.956   4.613
 7714TIP3   OH223105   4.827   0.107   4.993
 7714TIP3    H123106   4.822   0.203   4.994
 7714TIP3    H223107   4.840   0.084   5.085
 7715TIP3   OH223108   3.760   4.588   0.086
 7715TIP3    H123109   3.745   4.677   0.055
 7715TIP3    H223110   3.749   4.593   0.181
 7716TIP3   OH223111   2.873   2.454   4.236
 7716TIP3    H123112   2.855   2.396   4.310
 7716TIP3    H223113   2.967   2.471   4.241
 7717TIP3   OH223114   7.040   5.671   0.945
 7717TIP3    H123115   7.016   5.579   0.951
 7717TIP3    H223116   7.001   5.711   1.023
 7718TIP3   OH223117   4.593   2.283   1.604
 7718TIP3    H123118   4.586   2.378   1.616
 7718TIP3    H223119   4.583   2.269   1.510
 7719TIP3   OH223120   2.878   3.182   1.425
 7719TIP3    H123121   2.820   3.257   1.414
 7719TIP3    H223122   2.958   3.219   1.462
 7720TIP3   OH223123   5.739   5.715   0.399
 7720TIP3    H123124   5.727   5.625   0.371
 7720TIP3    H223125   5.810   5.711   0.463
 7721TIP3   OH223126   3.919   3.252   4.968
 7721TIP3    H123127   4.010   3.226   4.986
 7721TIP3    H223128   3.866   3.198   5.027
 7722TIP3   OH223129   3.637   2.190   2.157
 7722TIP3    H123130   3.663   2.252   2.225
 7722TIP3    H223131   3.701   2.202   2.088
 7723TIP3   OH223132   0.450   3.077   1.571
 7723TIP3    H123133   0.402   2.995   1.567
 7723TIP3    H223134   0.422   3.117   1.654
 7724TIP3   OH223135   0.640   4.634   4.552
 7724TIP3    H123136   0.610   4.559   4.604
 7724TIP3    H223137   0.623   4.710   4.608
 7725TIP3   OH223138   5.088   0.625   3.188
 7725TIP3    H123139   5.154   0.624   3.257
 7725TIP3    H223140   5.133   0.587   3.112
 7726TIP3   OH223141   2.574   5.518   0.868
 7726TIP3    H123142   2.629   5.595   0.853
 7726TIP3    H223143   2.506   5.548   0.928
 7727TIP3   OH223144   5.604   0.372   3.261
 7727TIP3    H123145   5.599   0.278   3.280
 7727TIP3    H223146   5.691   0.398   3.293
 7728TIP3   OH223147   5.021   2.745   0.317
 7728TIP3    H123148   4.985   2.780   0.236
 7728TIP3    H223149   5.091   2.806   0.341
 7729TIP3   OH223150   2.407   6.299   4.656
 7729TIP3    H123151   2.418   6.232   4.590
 7729TIP3    H223152   2.447   6.262   4.735
 7730TIP3   OH223153   5.421   1.446   5.860
 7730TIP3    H123154   5.369   1.382   5.811
 7730TIP3    H223155   5.467   1.394   5.925
 7731TIP3   OH223156   5.463   4.853   1.157
 7731TIP3    H123157   5.436   4.861   1.249
 7731TIP3    H223158   5.531   4.786   1.157
 7732TIP3   OH223159   0.416   2.946   5.898
 7732TIP3    H123160   0.474   2.927   5.972
 7732TIP3    H223161   0.433   2.877   5.835
 7733TIP3   OH223162   4.913   4.124   2.744
 7733TIP3    H123163   4.838   4.133   2.803
 7733TIP3    H223164   4.878   4.147   2.658
 7734TIP3   OH223165   5.027   0.158   0.229
 7734TIP3    H123166   5.056   0.091   0.292
 7734TIP3    H223167   5.102   0.169   0.171
 7735TIP3   OH223168   3.423   3.359   1.039
 7735TIP3    H123169   3.357   3.396   1.097
 7735TIP3    H223170   3.424   3.266   1.058
 7736TIP3   OH223171   2.551   1.675   1.328
 7736TIP3    H123172   2.577   1.708   1.242
 7736TIP3    H223173   2.607   1.599   1.342
 7737TIP3   OH223174   3.620   2.159   5.480
 7737TIP3    H123175   3.595   2.069   5.458
 7737TIP3    H223176   3.712   2.152   5.506
 7738TIP3   OH223177   5.042   3.900   0.604
 7738TIP3    H123178   5.093   3.838   0.552
 7738TIP3    H223179   4.964   3.918   0.552
 7739TIP3   OH223180   2.698   0.280   3.590
 7739TIP3    H123181   2.627   0.342   3.576
 7739TIP3    H223182   2.660   0.211   3.644
 7740TIP3   OH223183   4.254   4.817   3.015
 7740TIP3    H123184   4.246   4.741   3.072
 7740TIP3    H223185   4.201   4.884   3.057
 7741TIP3   OH223186   1.830   1.217   4.616
 7741TIP3    H123187   1.765   1.209   4.547
 7741TIP3    H223188   1.785   1.186   4.695
 7742TIP3   OH223189   6.611   3.431   1.850
 7742TIP3    H123190   6.655   3.516   1.853
 7742TIP3    H223191   6.632   3.397   1.763
 7743TIP3   OH223192   4.641   1.376   1.791
 7743TIP3    H123193   4.728   1.416   1.792
 7743TIP3    H223194   4.657   1.282   1.779
 7744TIP3   OH223195   7.133   3.950   3.442
 7744TIP3    H123196   7.218   3.992   3.432
 7744TIP3    H223197   7.149   3.858   3.418
 7745TIP3   OH223198   2.594   4.175   4.911
 7745TIP3    H123199   2.585   4.235   4.837
 7745TIP3    H223200   2.505   4.164   4.943
 7746TIP3   OH223201   4.035   0.673   4.681
 7746TIP3    H123202   4.050   0.744   4.743
 7746TIP3    H223203   4.015   0.597   4.735
 7747TIP3   OH223204   1.284   5.442   2.265
 7747TIP3    H123205   1.219   5.384   2.225
 7747TIP3    H223206   1.325   5.390   2.333
 7748TIP3   OH223207   5.053   1.122   0.037
 7748TIP3    H123208   5.034   1.206   0.078
 7748TIP3    H223209   5.137   1.134  -0.007
 7749TIP3   OH223210   6.133   0.245   4.336
 7749TIP3    H123211   6.122   0.336   4.364
 7749TIP3    H223212   6.227   0.229   4.342
 7750TIP3   OH223213   2.943   5.248   1.313
 7750TIP3    H123214   2.982   5.330   1.284
 7750TIP3    H223215   3.003   5.215   1.380
 7751TIP3   OH223216   3.246   2.554   3.393
 7751TIP3    H123217   3.195   2.587   3.319
 7751TIP3    H223218   3.237   2.459   3.388
 7752TIP3   OH223219   5.831   2.746   4.620
 7752TIP3    H123220   5.849   2.697   4.539
 7752TIP3    H223221   5.867   2.833   4.604
 7753TIP3   OH223222   0.184   5.081   3.689
 7753TIP3    H123223   0.216   5.143   3.623
 7753TIP3    H223224   0.095   5.059   3.660
 7754TIP3   OH223225   5.794   5.130   5.752
 7754TIP3    H123226   5.831   5.189   5.686
 7754TIP3    H223227   5.793   5.183   5.832
 7755TIP3   OH223228   6.579   0.760   2.569
 7755TIP3    H123229   6.637   0.703   2.620
 7755TIP3    H223230   6.617   0.759   2.481
 7756TIP3   OH223231   4.351   0.023   2.619
 7756TIP3    H123232   4.356  -0.055   2.563
 7756TIP3    H223233   4.274   0.070   2.588
 7757TIP3   OH223234   3.166   0.537   3.253
 7757TIP3    H123235   3.134   0.490   3.176
 7757TIP3    H223236   3.090   0.547   3.309
 7758TIP3   OH223237   3.589   5.429   2.908
 7758TIP3    H123238   3.553   5.392   2.988
 7758TIP3    H223239   3.684   5.417   2.917
 7759TIP3   OH223240   0.079   1.779   3.409
 7759TIP3    H123241   0.009   1.839   3.382
 7759TIP3    H223242   0.132   1.767   3.330
 7760TIP3   OH223243   0.452   4.631   5.776
 7760TIP3    H123244   0.528   4.577   5.757
 7760TIP3    H223245   0.401   4.631   5.695
 7761TIP3   OH223246   1.327   4.931   4.919
 7761TIP3    H123247   1.416   4.899   4.906
 7761TIP3    H223248   1.274   4.852   4.928
 7762TIP3   OH223249   6.082   1.702   1.041
 7762TIP3    H123250   6.066   1.635   1.107
 7762TIP3    H223251   6.177   1.716   1.043
 7763TIP3   OH223252   4.855   5.273   4.405
 7763TIP3    H123253   4.783   5.210   4.398
 7763TIP3    H223254   4.929   5.230   4.361
 7764TIP3   OH223255   3.011   4.194   4.130
 7764TIP3    H123256   3.061   4.262   4.086
 7764TIP3    H223257   2.936   4.240   4.167
 7765TIP3   OH223258   3.587   3.294   1.790
 7765TIP3    H123259   3.575   3.361   1.857
 7765TIP3    H223260   3.619   3.218   1.837
 7766TIP3   OH223261   6.260   2.863   0.323
 7766TIP3    H123262   6.321   2.795   0.295
 7766TIP3    H223263   6.251   2.850   0.417
 7767TIP3   OH223264   6.063   4.881   3.252
 7767TIP3    H123265   5.985   4.929   3.280
 7767TIP3    H223266   6.030   4.794   3.228
 7768TIP3   OH223267   2.478   0.254   5.395
 7768TIP3    H123268   2.574   0.257   5.399
 7768TIP3    H223269   2.450   0.260   5.487
 7769TIP3   OH223270   4.572   4.661   3.618
 7769TIP3    H123271   4.505   4.692   3.557
 7769TIP3    H223272   4.655   4.678   3.575
 7770TIP3   OH223273   6.902   4.701   5.482
 7770TIP3    H123274   6.835   4.741   5.427
 7770TIP3    H223275   6.876   4.722   5.571
 7771TIP3   OH223276   3.882   4.413   1.799
 7771TIP3    H123277   3.857   4.336   1.748
 7771TIP3    H223278   3.860   4.390   1.889
 7772TIP3   OH223279   0.883   1.535   0.713
 7772TIP3    H123280   0.792   1.562   0.727
 7772TIP3    H223281   0.912   1.503   0.798
 7773TIP3   OH223282   6.080   0.907   4.988
 7773TIP3    H123283   6.097   0.906   4.894
 7773TIP3    H223284   6.055   0.817   5.009
 7774TIP3   OH223285   3.868   2.725   1.595
 7774TIP3    H123286   3.803   2.655   1.598
 7774TIP3    H223287   3.951   2.680   1.579
 7775TIP3   OH223288   2.093   0.384   2.909
 7775TIP3    H123289   2.014   0.394   2.963
 7775TIP3    H223290   2.062   0.356   2.824
 7776TIP3   OH223291   1.838   4.416   3.615
 7776TIP3    H123292   1.895   4.367   3.555
 7776TIP3    H223293   1.809   4.351   3.679
 7777TIP3   OH223294   4.819   0.247   5.755
 7777TIP3    H123295   4.740   0.234   5.702
 7777TIP3    H223296   4.839   0.340   5.747
 7778TIP3   OH223297   0.867   1.765   2.403
 7778TIP3    H123298   0.794   1.711   2.373
 7778TIP3    H223299   0.884   1.735   2.492
 7779TIP3   OH223300   5.196   0.144   0.639
 7779TIP3    H123301   5.126   0.203   0.611
 7779TIP3    H223302   5.256   0.200   0.688
 7780TIP3   OH223303   3.877   4.437   5.868
 7780TIP3    H123304   3.967   4.446   5.900
 7780TIP3    H223305   3.886   4.390   5.785
 7781TIP3   OH223306   1.130   0.174   0.611
 7781TIP3    H123307   1.172   0.135   0.535
 7781TIP3    H223308   1.199   0.180   0.677
 7782TIP3   OH223309   4.263   5.862   2.752
 7782TIP3    H123310   4.184   5.836   2.799
 7782TIP3    H223311   4.274   5.796   2.684
 7783TIP3   OH223312   3.235   3.540   2.476
 7783TIP3    H123313   3.229   3.615   2.416
 7783TIP3    H223314   3.168   3.558   2.542
 7784TIP3   OH223315   0.557   4.308   4.278
 7784TIP3    H123316   0.608   4.228   4.265
 7784TIP3    H223317   0.616   4.378   4.250
 7785TIP3   OH223318   1.695   4.200   0.480
 7785TIP3    H123319   1.701   4.287   0.520
 7785TIP3    H223320   1.747   4.143   0.538
 7786TIP3   OH223321   4.062   2.769   2.639
 7786TIP3    H123322   4.137   2.790   2.583
 7786TIP3    H223323   4.066   2.674   2.649
 7787TIP3   OH223324   0.867   3.470   3.910
 7787TIP3    H123325   0.790   3.448   3.857
 7787TIP3    H223326   0.909   3.386   3.927
 7788TIP3   OH223327   6.400   3.115   2.781
 7788TIP3    H123328   6.440   3.028   2.781
 7788TIP3    H223329   6.306   3.098   2.773
 7789TIP3   OH223330   4.242   4.836   2.324
 7789TIP3    H123331   4.185   4.909   2.347
 7789TIP3    H223332   4.286   4.864   2.243
 7790TIP3   OH223333   4.705   4.743   0.270
 7790TIP3    H123334   4.650   4.730   0.347
 7790TIP3    H223335   4.656   4.703   0.198
 7791TIP3   OH223336   3.739   4.433   2.044
 7791TIP3    H123337   3.762   4.525   2.035
 7791TIP3    H223338   3.735   4.418   2.139
 7792TIP3   OH223339   2.805   2.806   0.807
 7792TIP3    H123340   2.887   2.758   0.806
 7792TIP3    H223341   2.817   2.873   0.875
 7793TIP3   OH223342   1.292   1.583   0.412
 7793TIP3    H123343   1.313   1.664   0.459
 7793TIP3    H223344   1.214   1.605   0.361
 7794TIP3   OH223345   6.058   6.133   1.040
 7794TIP3    H123346   6.132   6.102   0.989
 7794TIP3    H223347   6.040   6.063   1.103
 7795TIP3   OH223348   0.151   6.707   5.770
 7795TIP3    H123349   0.139   6.738   5.680
 7795TIP3    H223350   0.077   6.743   5.818
 7796TIP3   OH223351   6.706   0.151   2.490
 7796TIP3    H123352   6.776   0.088   2.473
 7796TIP3    H223353   6.635   0.124   2.432
 7797TIP3   OH223354   3.972   0.467   4.866
 7797TIP3    H123355   4.027   0.469   4.945
 7797TIP3    H223356   3.896   0.415   4.892
 7798TIP3   OH223357   1.810   5.770   3.748
 7798TIP3    H123358   1.869   5.718   3.803
 7798TIP3    H223359   1.823   5.860   3.777
 7799TIP3   OH223360   0.436   0.771   5.510
 7799TIP3    H123361   0.451   0.758   5.603
 7799TIP3    H223362   0.349   0.811   5.506
 7800TIP3   OH223363   0.358   1.439   0.492
 7800TIP3    H123364   0.444   1.424   0.451
 7800TIP3    H223365   0.372   1.511   0.553
 7801TIP3   OH223366   2.969   2.288   5.183
 7801TIP3    H123367   3.062   2.273   5.166
 7801TIP3    H223368   2.925   2.257   5.103
 7802TIP3   OH223369   3.873   6.341   3.284
 7802TIP3    H123370   3.910   6.260   3.319
 7802TIP3    H223371   3.874   6.329   3.189
 7803TIP3   OH223372   6.839   1.371   5.064
 7803TIP3    H123373   6.881   1.300   5.015
 7803TIP3    H223374   6.850   1.448   5.009
 7804TIP3   OH223375   4.283   0.330   4.959
 7804TIP3    H123376   4.308   0.404   4.903
 7804TIP3    H223377   4.333   0.256   4.925
 7805TIP3   OH223378   2.541   2.242   2.807
 7805TIP3    H123379   2.458   2.275   2.774
 7805TIP3    H223380   2.590   2.321   2.830
 7806TIP3   OH223381   4.875   1.868   2.796
 7806TIP3    H123382   4.803   1.807   2.784
 7806TIP3    H223383   4.927   1.860   2.716
 7807TIP3   OH223384   4.662   6.730   3.134
 7807TIP3    H123385   4.656   6.687   3.049
 7807TIP3    H223386   4.717   6.673   3.187
 7808TIP3   OH223387   3.471   1.927   4.296
 7808TIP3    H123388   3.557   1.925   4.339
 7808TIP3    H223389   3.462   1.840   4.257
 7809TIP3   OH223390   4.628   3.046   4.260
 7809TIP3    H123391   4.675   3.004   4.332
 7809TIP3    H223392   4.694   3.058   4.191
 7810TIP3   OH223393   6.844   4.167   4.165
 7810TIP3    H123394   6.907   4.198   4.099
 7810TIP3    H223395   6.867   4.075   4.178
 7811TIP3   OH223396   0.595   0.969   2.575
 7811TIP3    H123397   0.525   1.000   2.519
 7811TIP3    H223398   0.551   0.914   2.640
 7812TIP3   OH223399   3.223   6.060   1.021
 7812TIP3    H123400   3.138   6.087   0.987
 7812TIP3    H223401   3.244   6.125   1.089
 7813TIP3   OH223402   0.153   0.253   1.093
 7813TIP3    H123403   0.183   0.206   1.015
 7813TIP3    H223404   0.127   0.339   1.061
 7814TIP3   OH223405   1.593   6.165   2.686
 7814TIP3    H123406   1.597   6.192   2.594
 7814TIP3    H223407   1.563   6.075   2.683
 7815TIP3   OH223408   2.175   1.448   1.375
 7815TIP3    H123409   2.262   1.442   1.415
 7815TIP3    H223410   2.192   1.455   1.281
 7816TIP3   OH223411   0.663   4.134   2.270
 7816TIP3    H123412   0.677   4.169   2.182
 7816TIP3    H223413   0.657   4.040   2.257
 7817TIP3   OH223414   0.948   1.419   0.046
 7817TIP3    H123415   1.029   1.393   0.089
 7817TIP3    H223416   0.930   1.507   0.079
 7818TIP3   OH223417   0.300   4.930   4.840
 7818TIP3    H123418   0.231   4.876   4.880
 7818TIP3    H223419   0.253   5.003   4.801
 7819TIP3   OH223420   0.938   4.984   5.007
 7819TIP3    H123421   0.995   4.959   4.934
 7819TIP3    H223422   0.895   5.065   4.977
 7820TIP3   OH223423   0.481   6.633   4.027
 7820TIP3    H123424   0.431   6.557   3.997
 7820TIP3    H223425   0.416   6.691   4.066
 7821TIP3   OH223426   4.172   4.078   4.911
 7821TIP3    H123427   4.212   4.010   4.966
 7821TIP3    H223428   4.153   4.034   4.829
 7822TIP3   OH223429   1.150   1.152   4.024
 7822TIP3    H123430   1.056   1.147   4.043
 7822TIP3    H223431   1.191   1.158   4.111
 7823TIP3   OH223432   1.272   2.576   3.971
 7823TIP3    H123433   1.250   2.658   4.016
 7823TIP3    H223434   1.298   2.603   3.883
 7824TIP3   OH223435   0.652   5.952   4.608
 7824TIP3    H123436   0.634   5.858   4.601
 7824TIP3    H223437   0.669   5.966   4.701
 7825TIP3   OH223438   3.765   5.669   0.478
 7825TIP3    H123439   3.849   5.710   0.455
 7825TIP3    H223440   3.777   5.642   0.569
 7826TIP3   OH223441   0.994   1.480   5.153
 7826TIP3    H123442   1.078   1.438   5.170
 7826TIP3    H223443   1.008   1.572   5.175
 7827TIP3   OH223444   6.030   3.432   4.758
 7827TIP3    H123445   5.969   3.409   4.827
 7827TIP3    H223446   6.080   3.351   4.743
 7828TIP3   OH223447   6.430   5.331   1.509
 7828TIP3    H123448   6.388   5.377   1.582
 7828TIP3    H223449   6.523   5.327   1.534
 7829TIP3   OH223450   7.071   1.682   3.650
 7829TIP3    H123451   7.039   1.645   3.732
 7829TIP3    H223452   7.160   1.647   3.641
 7830TIP3   OH223453   6.956   4.403   0.267
 7830TIP3    H123454   6.989   4.314   0.276
 7830TIP3    H223455   6.896   4.399   0.193
 7831TIP3   OH223456   6.580   0.329   0.262
 7831TIP3    H123457   6.610   0.273   0.191
 7831TIP3    H223458   6.486   0.337   0.249
 7832TIP3   OH223459   5.552   5.046   5.909
 7832TIP3    H123460   5.619   5.036   5.842
 7832TIP3    H223461   5.520   5.136   5.898
 7833TIP3   OH223462   0.193   2.768   3.869
 7833TIP3    H123463   0.167   2.762   3.961
 7833TIP3    H223464   0.147   2.695   3.827
 7834TIP3   OH223465   6.817   6.441   4.779
 7834TIP3    H123466   6.858   6.459   4.863
 7834TIP3    H223467   6.879   6.474   4.714
 7835TIP3   OH223468   3.563   5.263   0.305
 7835TIP3    H123469   3.544   5.171   0.323
 7835TIP3    H223470   3.508   5.311   0.367
 7836TIP3   OH223471   5.029   6.330   3.199
 7836TIP3    H123472   5.111   6.324   3.151
 7836TIP3    H223473   5.039   6.266   3.270
 7837TIP3   OH223474   4.999   5.686   0.376
 7837TIP3    H123475   5.017   5.685   0.470
 7837TIP3    H223476   4.913   5.647   0.367
 7838TIP3   OH223477   6.024   0.972   4.445
 7838TIP3    H123478   6.001   0.929   4.362
 7838TIP3    H223479   6.000   1.064   4.431
 7839TIP3   OH223480   3.549   2.971   5.286
 7839TIP3    H123481   3.477   2.989   5.346
 7839TIP3    H223482   3.527   3.021   5.207
 7840TIP3   OH223483   0.329   5.911   2.301
 7840TIP3    H123484   0.250   5.927   2.249
 7840TIP3    H223485   0.310   5.952   2.386
 7841TIP3   OH223486   1.791   2.140   3.802
 7841TIP3    H123487   1.708   2.125   3.757
 7841TIP3    H223488   1.798   2.069   3.865
 7842TIP3   OH223489   2.705   1.177   2.554
 7842TIP3    H123490   2.687   1.201   2.463
 7842TIP3    H223491   2.705   1.260   2.601
 7843TIP3   OH223492   0.834   3.257   4.203
 7843TIP3    H123493   0.861   3.243   4.113
 7843TIP3    H223494   0.792   3.175   4.229
 7844TIP3   OH223495   0.959   6.547   4.891
 7844TIP3    H123496   1.022   6.542   4.819
 7844TIP3    H223497   0.922   6.635   4.884
 7845TIP3   OH223498   1.856   4.517   3.949
 7845TIP3    H123499   1.942   4.477   3.947
 7845TIP3    H223500   1.846   4.556   3.862
 7846TIP3   OH223501   2.938   5.175   2.007
 7846TIP3    H123502   2.902   5.099   1.962
 7846TIP3    H223503   2.879   5.247   1.984
 7847TIP3   OH223504   3.546   1.441   5.748
 7847TIP3    H123505   3.617   1.407   5.802
 7847TIP3    H223506   3.529   1.529   5.782
 7848TIP3   OH223507   4.359   4.270   2.572
 7848TIP3    H123508   4.360   4.177   2.548
 7848TIP3    H223509   4.368   4.315   2.488
 7849TIP3   OH223510   3.429   5.323   0.943
 7849TIP3    H123511   3.498   5.384   0.970
 7849TIP3    H223512   3.416   5.342   0.850
 7850TIP3   OH223513   6.553   4.745   5.005
 7850TIP3    H123514   6.633   4.770   4.960
 7850TIP3    H223515   6.495   4.712   4.937
 7851TIP3   OH223516   4.323   0.542   0.097
 7851TIP3    H123517   4.398   0.484   0.110
 7851TIP3    H223518   4.259   0.513   0.163
 7852TIP3   OH223519   4.643   3.009   2.391
 7852TIP3    H123520   4.593   2.927   2.392
 7852TIP3    H223521   4.627   3.049   2.476
 7853TIP3   OH223522   2.541   4.490   4.951
 7853TIP3    H123523   2.546   4.422   4.885
 7853TIP3    H223524   2.594   4.457   5.024
 7854TIP3   OH223525   4.682   5.958   1.838
 7854TIP3    H123526   4.629   5.993   1.910
 7854TIP3    H223527   4.772   5.985   1.859
 7855TIP3   OH223528   0.351   1.235   1.727
 7855TIP3    H123529   0.294   1.296   1.680
 7855TIP3    H223530   0.292   1.165   1.756
 7856TIP3   OH223531   2.621   4.612   5.605
 7856TIP3    H123532   2.668   4.656   5.534
 7856TIP3    H223533   2.547   4.670   5.623
 7857TIP3   OH223534   0.809   6.313   5.674
 7857TIP3    H123535   0.775   6.322   5.763
 7857TIP3    H223536   0.798   6.220   5.654
 7858TIP3   OH223537   3.422   2.664   3.567
 7858TIP3    H123538   3.503   2.674   3.517
 7858TIP3    H223539   3.363   2.618   3.508
 7859TIP3   OH223540   5.044   6.667   5.540
 7859TIP3    H123541   4.968   6.638   5.590
 7859TIP3    H223542   5.079   6.588   5.499
 7860TIP3   OH223543   0.064   5.767   0.864
 7860TIP3    H123544   0.034   5.691   0.914
 7860TIP3    H223545  -0.016   5.817   0.845
 7861TIP3   OH223546   6.078   0.718   2.159
 7861TIP3    H123547   6.071   0.689   2.250
 7861TIP3    H223548   6.036   0.803   2.157
 7862TIP3   OH223549   5.909   1.459   1.554
 7862TIP3    H123550   5.863   1.539   1.529
 7862TIP3    H223551   5.996   1.488   1.580
 7863TIP3   OH223552   4.000   1.185   5.580
 7863TIP3    H123553   4.006   1.150   5.492
 7863TIP3    H223554   4.020   1.111   5.637
 7864TIP3   OH223555   6.174   1.949   4.829
 7864TIP3    H123556   6.094   2.001   4.821
 7864TIP3    H223557   6.143   1.859   4.836
 7865TIP3   OH223558   1.089   0.300   1.665
 7865TIP3    H123559   0.997   0.327   1.673
 7865TIP3    H223560   1.108   0.310   1.572
 7866TIP3   OH223561   5.634   0.641   4.012
 7866TIP3    H123562   5.657   0.681   4.096
 7866TIP3    H223563   5.671   0.700   3.946
 7867TIP3   OH223564   3.945   0.647   1.791
 7867TIP3    H123565   3.882   0.576   1.779
 7867TIP3    H223566   3.892   0.726   1.799
 7868TIP3   OH223567   4.394   1.171   4.759
 7868TIP3    H123568   4.331   1.128   4.700
 7868TIP3    H223569   4.349   1.249   4.789
 7869TIP3   OH223570   5.986   5.765   5.801
 7869TIP3    H123571   6.003   5.858   5.786
 7869TIP3    H223572   5.891   5.757   5.799
 7870TIP3   OH223573   0.853   5.160   1.124
 7870TIP3    H123574   0.823   5.126   1.040
 7870TIP3    H223575   0.905   5.237   1.101
 7871TIP3   OH223576   3.365   5.885   2.366
 7871TIP3    H123577   3.347   5.814   2.427
 7871TIP3    H223578   3.286   5.890   2.312
 7872TIP3   OH223579   4.259   5.476   2.935
 7872TIP3    H123580   4.332   5.446   2.881
 7872TIP3    H223581   4.212   5.538   2.879
 7873TIP3   OH223582   1.806   4.050   5.306
 7873TIP3    H123583   1.894   4.084   5.288
 7873TIP3    H223584   1.779   4.095   5.386
 7874TIP3   OH223585   2.287   1.228   2.592
 7874TIP3    H123586   2.295   1.146   2.641
 7874TIP3    H223587   2.214   1.274   2.633
 7875TIP3   OH223588   0.050   4.245   2.393
 7875TIP3    H123589   0.100   4.253   2.311
 7875TIP3    H223590   0.116   4.252   2.462
 7876TIP3   OH223591   5.961   6.519   4.397
 7876TIP3    H123592   5.981   6.568   4.317
 7876TIP3    H223593   5.924   6.584   4.456
 7877TIP3   OH223594   6.762   5.146   5.481
 7877TIP3    H123595   6.794   5.228   5.443
 7877TIP3    H223596   6.751   5.087   5.406
 7878TIP3   OH223597   6.007   0.937   2.613
 7878TIP3    H123598   6.003   0.843   2.627
 7878TIP3    H223599   6.038   0.973   2.696
 7879TIP3   OH223600   6.102   2.880   3.307
 7879TIP3    H123601   6.178   2.910   3.257
 7879TIP3    H223602   6.066   2.808   3.256
 7880TIP3   OH223603   2.231   1.841   4.908
 7880TIP3    H123604   2.254   1.894   4.832
 7880TIP3    H223605   2.172   1.774   4.875
 7881TIP3   OH223606   1.946   3.849   1.447
 7881TIP3    H123607   1.898   3.887   1.521
 7881TIP3    H223608   2.037   3.850   1.475
 7882TIP3   OH223609   0.069   5.068   3.154
 7882TIP3    H123610  -0.011   5.088   3.203
 7882TIP3    H223611   0.093   4.980   3.183
 7883TIP3   OH223612   0.988   2.021   5.360
 7883TIP3    H123613   0.936   1.990   5.434
 7883TIP3    H223614   1.073   2.043   5.398
 7884TIP3   OH223615   5.992   3.053   1.202
 7884TIP3    H123616   5.935   2.979   1.227
 7884TIP3    H223617   5.936   3.130   1.210
 7885TIP3   OH223618   1.607   4.661   1.678
 7885TIP3    H123619   1.613   4.595   1.747
 7885TIP3    H223620   1.521   4.648   1.639
 7886TIP3   OH223621   0.866   5.016   2.310
 7886TIP3    H123622   0.926   4.949   2.342
 7886TIP3    H223623   0.910   5.052   2.233
 7887TIP3   OH223624   2.247   1.711   1.837
 7887TIP3    H123625   2.154   1.733   1.831
 7887TIP3    H223626   2.287   1.790   1.873
 7888TIP3   OH223627   1.308   0.235   0.820
 7888TIP3    H123628   1.399   0.250   0.793
 7888TIP3    H223629   1.296   0.294   0.894
 7889TIP3   OH223630   2.088   6.812   0.377
 7889TIP3    H123631   2.028   6.741   0.398
 7889TIP3    H223632   2.083   6.871   0.452
 7890TIP3   OH223633   4.692   5.342   2.626
 7890TIP3    H123634   4.741   5.274   2.672
 7890TIP3    H223635   4.731   5.424   2.655
 7891TIP3   OH223636   1.759   3.498   2.605
 7891TIP3    H123637   1.749   3.407   2.577
 7891TIP3    H223638   1.763   3.494   2.701
 7892TIP3   OH223639   2.344   0.425   2.780
 7892TIP3    H123640   2.372   0.338   2.750
 7892TIP3    H223641   2.262   0.407   2.827
 7893TIP3   OH223642   2.861   6.535   0.339
 7893TIP3    H123643   2.773   6.501   0.360
 7893TIP3    H223644   2.858   6.627   0.364
 7894TIP3   OH223645   4.809   3.079   1.893
 7894TIP3    H123646   4.767   3.055   1.976
 7894TIP3    H223647   4.777   3.167   1.875
 7895TIP3   OH223648   3.382   3.800   2.850
 7895TIP3    H123649   3.302   3.751   2.872
 7895TIP3    H223650   3.441   3.734   2.814
 7896TIP3   OH223651   2.559   0.789   3.564
 7896TIP3    H123652   2.544   0.868   3.616
 7896TIP3    H223653   2.478   0.739   3.573
 7897TIP3   OH223654   0.714   4.551   4.108
 7897TIP3    H123655   0.766   4.556   4.028
 7897TIP3    H223656   0.716   4.640   4.143
 7898TIP3   OH223657   3.410   5.028   4.636
 7898TIP3    H123658   3.325   4.984   4.638
 7898TIP3    H223659   3.404   5.096   4.703
 7899TIP3   OH223660   4.404   0.077   5.331
 7899TIP3    H123661   4.364   0.135   5.266
 7899TIP3    H223662   4.336   0.013   5.351
 7900TIP3   OH223663   2.530   1.200   0.292
 7900TIP3    H123664   2.490   1.141   0.357
 7900TIP3    H223665   2.600   1.148   0.253
 7901TIP3   OH223666   0.758   3.209   3.529
 7901TIP3    H123667   0.842   3.186   3.570
 7901TIP3    H223668   0.728   3.285   3.578
 7902TIP3   OH223669   0.550   0.131   0.150
 7902TIP3    H123670   0.559   0.151   0.243
 7902TIP3    H223671   0.459   0.103   0.139
 7903TIP3   OH223672   4.184   6.286   5.859
 7903TIP3    H123673   4.173   6.303   5.952
 7903TIP3    H223674   4.110   6.330   5.817
 7904TIP3   OH223675   6.035   6.588   4.743
 7904TIP3    H123676   5.970   6.632   4.797
 7904TIP3    H223677   6.070   6.657   4.687
 7905TIP3   OH223678   0.833   0.654   2.602
 7905TIP3    H123679   0.912   0.603   2.584
 7905TIP3    H223680   0.832   0.662   2.698
 7906TIP3   OH223681   4.179   0.985   3.490
 7906TIP3    H123682   4.088   1.012   3.492
 7906TIP3    H223683   4.203   0.985   3.398
 7907TIP3   OH223684   7.170   4.793   1.508
 7907TIP3    H123685   7.196   4.868   1.454
 7907TIP3    H223686   7.137   4.729   1.446
 7908TIP3   OH223687   5.584   1.363   3.744
 7908TIP3    H123688   5.552   1.379   3.833
 7908TIP3    H223689   5.511   1.320   3.699
 7909TIP3   OH223690   1.044   0.506   2.604
 7909TIP3    H123691   1.088   0.421   2.608
 7909TIP3    H223692   1.084   0.557   2.674
 7910TIP3   OH223693   4.483   1.391   2.521
 7910TIP3    H123694   4.523   1.449   2.456
 7910TIP3    H223695   4.504   1.432   2.605
 7911TIP3   OH223696   0.282   6.585   2.798
 7911TIP3    H123697   0.264   6.542   2.714
 7911TIP3    H223698   0.233   6.667   2.794
 7912TIP3   OH223699   2.145   1.632   4.284
 7912TIP3    H123700   2.057   1.602   4.305
 7912TIP3    H223701   2.198   1.604   4.358
 7913TIP3   OH223702   0.168   3.344   2.065
 7913TIP3    H123703   0.111   3.400   2.014
 7913TIP3    H223704   0.202   3.401   2.134
 7914TIP3   OH223705   4.035   1.552   5.179
 7914TIP3    H123706   4.095   1.487   5.143
 7914TIP3    H223707   3.948   1.513   5.170
 7915TIP3   OH223708   2.850   4.711   3.162
 7915TIP3    H123709   2.811   4.780   3.109
 7915TIP3    H223710   2.911   4.757   3.220
 7916TIP3   OH223711   1.644   1.479   5.469
 7916TIP3    H123712   1.692   1.405   5.433
 7916TIP3    H223713   1.692   1.556   5.437
 7917TIP3   OH223714   5.990   2.755   1.550
 7917TIP3    H123715   5.946   2.693   1.608
 7917TIP3    H223716   6.044   2.701   1.493
 7918TIP3   OH223717   3.520   3.907   1.479
 7918TIP3    H123718   3.472   3.871   1.405
 7918TIP3    H223719   3.453   3.939   1.539
 7919TIP3   OH223720   3.887   2.983   2.588
 7919TIP3    H123721   3.941   2.905   2.599
 7919TIP3    H223722   3.846   2.997   2.674
 7920TIP3   OH223723   5.818   1.790   0.720
 7920TIP3    H123724   5.810   1.733   0.643
 7920TIP3    H223725   5.781   1.873   0.693
 7921TIP3   OH223726   1.468   0.211   1.787
 7921TIP3    H123727   1.383   0.169   1.779
 7921TIP3    H223728   1.458   0.295   1.741
 7922TIP3   OH223729   1.715   3.229   3.396
 7922TIP3    H123730   1.762   3.219   3.479
 7922TIP3    H223731   1.783   3.251   3.333
 7923TIP3   OH223732   5.236   0.770   5.322
 7923TIP3    H123733   5.167   0.788   5.258
 7923TIP3    H223734   5.191   0.722   5.392
 7924TIP3   OH223735   5.665   3.499   1.946
 7924TIP3    H123736   5.621   3.425   1.987
 7924TIP3    H223737   5.629   3.576   1.990
 7925TIP3   OH223738   0.743   6.715   1.858
 7925TIP3    H123739   0.682   6.673   1.918
 7925TIP3    H223740   0.818   6.738   1.912
 7926TIP3   OH223741   3.788   6.013   3.014
 7926TIP3    H123742   3.860   6.064   2.976
 7926TIP3    H223743   3.821   5.983   3.099
 7927TIP3   OH223744   6.841   3.697   4.724
 7927TIP3    H123745   6.893   3.739   4.655
 7927TIP3    H223746   6.750   3.721   4.704
 7928TIP3   OH223747   7.185   1.015   2.956
 7928TIP3    H123748   7.174   0.924   2.985
 7928TIP3    H223749   7.157   1.068   3.031
 7929TIP3   OH223750   3.252   2.193   5.765
 7929TIP3    H123751   3.332   2.237   5.737
 7929TIP3    H223752   3.185   2.226   5.706
 7930TIP3   OH223753   4.446   5.736   5.650
 7930TIP3    H123754   4.468   5.643   5.653
 7930TIP3    H223755   4.440   5.763   5.741
 7931TIP3   OH223756   2.061   4.233   3.509
 7931TIP3    H123757   2.084   4.206   3.597
 7931TIP3    H223758   2.106   4.170   3.452
 7932TIP3   OH223759   5.292   2.658   1.902
 7932TIP3    H123760   5.231   2.704   1.844
 7932TIP3    H223761   5.271   2.690   1.990
 7933TIP3   OH223762   6.586   5.083   3.232
 7933TIP3    H123763   6.523   5.143   3.194
 7933TIP3    H223764   6.650   5.139   3.276
 7934TIP3   OH223765   2.435   6.619   4.169
 7934TIP3    H123766   2.519   6.574   4.161
 7934TIP3    H223767   2.457   6.709   4.192
 7935TIP3   OH223768   6.020   4.764   3.891
 7935TIP3    H123769   5.996   4.676   3.919
 7935TIP3    H223770   6.038   4.811   3.973
 7936TIP3   OH223771   0.532   6.494   4.259
 7936TIP3    H123772   0.526   6.528   4.170
 7936TIP3    H223773   0.618   6.452   4.263
 7937TIP3   OH223774   4.135   0.913   5.619
 7937TIP3    H123775   4.227   0.891   5.602
 7937TIP3    H223776   4.096   0.918   5.532
 7938TIP3   OH223777   5.660   4.871   2.639
 7938TIP3    H123778   5.710   4.943   2.679
 7938TIP3    H223779   5.694   4.792   2.681
 7939TIP3   OH223780   6.049   1.167   0.741
 7939TIP3    H123781   6.123   1.119   0.707
 7939TIP3    H223782   5.974   1.135   0.691
 7940TIP3   OH223783   3.282   6.385   1.035
 7940TIP3    H123784   3.297   6.462   0.980
 7940TIP3    H223785   3.233   6.418   1.111
 7941TIP3   OH223786   5.627   5.884   4.161
 7941TIP3    H123787   5.615   5.977   4.142
 7941TIP3    H223788   5.539   5.848   4.162
 7942TIP3   OH223789   1.162   5.243   5.186
 7942TIP3    H123790   1.067   5.247   5.173
 7942TIP3    H223791   1.188   5.334   5.202
 7943TIP3   OH223792   4.277   6.146   3.724
 7943TIP3    H123793   4.361   6.100   3.715
 7943TIP3    H223794   4.267   6.160   3.818
 7944TIP3   OH223795   1.621   3.341   3.871
 7944TIP3    H123796   1.603   3.247   3.872
 7944TIP3    H223797   1.578   3.373   3.791
 7945TIP3   OH223798   3.382   4.871   2.861
 7945TIP3    H123799   3.457   4.829   2.818
 7945TIP3    H223800   3.306   4.824   2.829
 7946TIP3   OH223801   0.140   6.541   4.278
 7946TIP3    H123802   0.155   6.447   4.281
 7946TIP3    H223803   0.218   6.579   4.319
 7947TIP3   OH223804   2.049   4.979   3.357
 7947TIP3    H123805   1.989   4.917   3.398
 7947TIP3    H223806   2.092   4.929   3.287
 7948TIP3   OH223807   1.460   4.386   3.802
 7948TIP3    H123808   1.495   4.433   3.878
 7948TIP3    H223809   1.462   4.451   3.731
 7949TIP3   OH223810   5.708   6.089   0.755
 7949TIP3    H123811   5.787   6.048   0.720
 7949TIP3    H223812   5.684   6.154   0.689
 7950TIP3   OH223813   0.922   3.236   1.681
 7950TIP3    H123814   0.995   3.177   1.661
 7950TIP3    H223815   0.872   3.190   1.749
 7951TIP3   OH223816   5.223   1.483   5.638
 7951TIP3    H123817   5.310   1.503   5.602
 7951TIP3    H223818   5.167   1.473   5.561
 7952TIP3   OH223819   6.282   4.931   1.618
 7952TIP3    H123820   6.343   4.984   1.670
 7952TIP3    H223821   6.266   4.982   1.539
 7953TIP3   OH223822   7.060   4.742   1.230
 7953TIP3    H123823   7.086   4.828   1.199
 7953TIP3    H223824   6.990   4.715   1.170
 7954TIP3   OH223825   6.696   6.307   4.447
 7954TIP3    H123826   6.618   6.252   4.438
 7954TIP3    H223827   6.686   6.350   4.532
 7955TIP3   OH223828   6.268   0.360   0.857
 7955TIP3    H123829   6.305   0.281   0.820
 7955TIP3    H223830   6.179   0.335   0.882
 7956TIP3   OH223831   5.360   2.927   1.626
 7956TIP3    H123832   5.333   2.840   1.595
 7956TIP3    H223833   5.291   2.953   1.687
 7957TIP3   OH223834   3.734   2.045   1.205
 7957TIP3    H123835   3.723   1.952   1.225
 7957TIP3    H223836   3.708   2.090   1.286
 7958TIP3   OH223837   0.384   5.319   1.421
 7958TIP3    H123838   0.352   5.252   1.480
 7958TIP3    H223839   0.339   5.399   1.449
 7959TIP3   OH223840   4.468   6.656   5.268
 7959TIP3    H123841   4.393   6.716   5.273
 7959TIP3    H223842   4.429   6.569   5.274
 7960TIP3   OH223843   2.985   2.659   5.159
 7960TIP3    H123844   2.936   2.582   5.130
 7960TIP3    H223845   2.919   2.727   5.171
 7961TIP3   OH223846   5.363   1.480   3.362
 7961TIP3    H123847   5.375   1.428   3.282
 7961TIP3    H223848   5.315   1.557   3.333
 7962TIP3   OH223849   5.840   6.250   0.959
 7962TIP3    H123850   5.797   6.195   0.893
 7962TIP3    H223851   5.912   6.197   0.991
 7963TIP3   OH223852   5.892   1.580   3.386
 7963TIP3    H123853   5.820   1.519   3.401
 7963TIP3    H223854   5.970   1.525   3.383
 7964TIP3   OH223855   1.012   2.887   5.767
 7964TIP3    H123856   1.040   2.972   5.802
 7964TIP3    H223857   0.970   2.909   5.683
 7965TIP3   OH223858   1.960   5.486   5.344
 7965TIP3    H123859   2.040   5.436   5.328
 7965TIP3    H223860   1.974   5.569   5.298
 7966TIP3   OH223861   1.932   5.281   3.640
 7966TIP3    H123862   1.847   5.314   3.610
 7966TIP3    H223863   1.991   5.298   3.567
 7967TIP3   OH223864   1.575   3.003   4.037
 7967TIP3    H123865   1.584   3.084   4.087
 7967TIP3    H223866   1.488   3.010   3.998
 7968TIP3   OH223867   3.501   4.829   4.933
 7968TIP3    H123868   3.564   4.822   4.861
 7968TIP3    H223869   3.420   4.792   4.897
 7969TIP3   OH223870   1.139   1.002   5.181
 7969TIP3    H123871   1.138   1.097   5.191
 7969TIP3    H223872   1.221   0.974   5.221
 7970TIP3   OH223873   5.241   4.902   2.010
 7970TIP3    H123874   5.154   4.918   1.974
 7970TIP3    H223875   5.284   4.846   1.946
 7971TIP3   OH223876   2.074   5.543   3.395
 7971TIP3    H123877   2.157   5.578   3.427
 7971TIP3    H223878   2.099   5.465   3.345
 7972TIP3   OH223879   5.003   3.774   0.163
 7972TIP3    H123880   4.995   3.703   0.226
 7972TIP3    H223881   5.078   3.825   0.194
 7973TIP3   OH223882   6.477   1.397   0.795
 7973TIP3    H123883   6.392   1.412   0.836
 7973TIP3    H223884   6.541   1.414   0.864
 7974TIP3   OH223885   5.195   2.291   0.861
 7974TIP3    H123886   5.260   2.305   0.791
 7974TIP3    H223887   5.226   2.346   0.933
 7975TIP3   OH223888   6.550   5.191   3.503
 7975TIP3    H123889   6.529   5.215   3.594
 7975TIP3    H223890   6.498   5.113   3.486
 7976TIP3   OH223891   5.986   3.383   4.445
 7976TIP3    H123892   5.938   3.456   4.483
 7976TIP3    H223893   5.925   3.309   4.448
 7977TIP3   OH223894   6.818   2.122   0.009
 7977TIP3    H123895   6.745   2.151   0.063
 7977TIP3    H223896   6.786   2.132  -0.081
 7978TIP3   OH223897   0.041   5.969   2.191
 7978TIP3    H123898  -0.049   5.957   2.159
 7978TIP3    H223899   0.032   6.031   2.263
 7979TIP3   OH223900   4.736   4.896   2.414
 7979TIP3    H123901   4.712   4.988   2.425
 7979TIP3    H223902   4.654   4.851   2.392
 7980TIP3   OH223903   2.551   1.183   1.204
 7980TIP3    H123904   2.510   1.157   1.287
 7980TIP3    H223905   2.479   1.188   1.142
 7981TIP3   OH223906   3.825   2.012   0.214
 7981TIP3    H123907   3.764   1.939   0.206
 7981TIP3    H223908   3.815   2.061   0.133
 7982TIP3   OH223909   6.920   5.313   2.198
 7982TIP3    H123910   6.913   5.310   2.293
 7982TIP3    H223911   6.959   5.228   2.175
 7983TIP3   OH223912   4.296   4.169   4.568
 7983TIP3    H123913   4.361   4.213   4.624
 7983TIP3    H223914   4.326   4.078   4.564
 7984TIP3   OH223915   7.053   3.156   0.759
 7984TIP3    H123916   7.012   3.230   0.714
 7984TIP3    H223917   6.981   3.093   0.770
 7985TIP3   OH223918   2.038   6.276   3.783
 7985TIP3    H123919   1.977   6.255   3.713
 7985TIP3    H223920   2.122   6.239   3.755
 7986TIP3   OH223921   4.841   2.610   2.099
 7986TIP3    H123922   4.756   2.577   2.129
 7986TIP3    H223923   4.833   2.706   2.106
 7987TIP3   OH223924   2.505   0.383   2.449
 7987TIP3    H123925   2.534   0.456   2.505
 7987TIP3    H223926   2.452   0.329   2.507
 7988TIP3   OH223927   1.402   5.203   3.122
 7988TIP3    H123928   1.422   5.296   3.113
 7988TIP3    H223929   1.412   5.168   3.033
 7989TIP3   OH223930   7.162   1.736   2.476
 7989TIP3    H123931   7.154   1.830   2.493
 7989TIP3    H223932   7.193   1.700   2.559
 7990TIP3   OH223933   2.147   0.354   4.292
 7990TIP3    H123934   2.125   0.284   4.353
 7990TIP3    H223935   2.118   0.322   4.207
 7991TIP3   OH223936   2.189   0.621   2.466
 7991TIP3    H123937   2.270   0.642   2.420
 7991TIP3    H223938   2.125   0.685   2.434
 7992TIP3   OH223939   3.107   5.373   4.189
 7992TIP3    H123940   3.158   5.340   4.114
 7992TIP3    H223941   3.079   5.460   4.162
 7993TIP3   OH223942   4.713   4.728   1.299
 7993TIP3    H123943   4.632   4.772   1.271
 7993TIP3    H223944   4.777   4.798   1.305
 7994TIP3   OH223945   2.078   0.989   0.069
 7994TIP3    H123946   2.096   1.034   0.152
 7994TIP3    H223947   2.150   1.015   0.012
 7995TIP3   OH223948   7.137   4.097   3.975
 7995TIP3    H123949   7.201   4.130   4.037
 7995TIP3    H223950   7.090   4.175   3.945
 7996TIP3   OH223951   5.655   2.404   4.172
 7996TIP3    H123952   5.718   2.334   4.161
 7996TIP3    H223953   5.578   2.362   4.211
 7997TIP3   OH223954   2.007   6.125   4.298
 7997TIP3    H123955   1.986   6.185   4.227
 7997TIP3    H223956   2.103   6.125   4.302
 7998TIP3   OH223957   2.691   6.762   3.536
 7998TIP3    H123958   2.733   6.748   3.621
 7998TIP3    H223959   2.762   6.750   3.472
 7999TIP3   OH223960   1.270   1.336   3.673
 7999TIP3    H123961   1.183   1.351   3.709
 7999TIP3    H223962   1.329   1.379   3.735
 8000TIP3   OH223963   2.724   1.969   0.378
 8000TIP3    H123964   2.681   1.905   0.435
 8000TIP3    H223965   2.659   2.038   0.367
 8001TIP3   OH223966   1.931   5.071   4.514
 8001TIP3    H123967   1.906   5.005   4.449
 8001TIP3    H223968   1.971   5.021   4.585
 8002TIP3   OH223969   5.200   6.074   4.091
 8002TIP3    H123970   5.123   6.085   4.146
 8002TIP3    H223971   5.211   6.159   4.048
 8003TIP3   OH223972   3.909   3.485   1.383
 8003TIP3    H123973   3.829   3.478   1.332
 8003TIP3    H223974   3.887   3.449   1.469
 8004TIP3   OH223975   1.777   4.208   3.803
 8004TIP3    H123976   1.836   4.211   3.879
 8004TIP3    H223977   1.690   4.190   3.841
 8005TIP3   OH223978   1.411   2.257   5.245
 8005TIP3    H123979   1.333   2.306   5.272
 8005TIP3    H223980   1.484   2.303   5.285
 8006TIP3   OH223981   2.567   4.853   2.407
 8006TIP3    H123982   2.484   4.848   2.455
 8006TIP3    H223983   2.568   4.941   2.370
 8007TIP3   OH223984   5.449   6.492   1.045
 8007TIP3    H123985   5.411   6.533   1.123
 8007TIP3    H223986   5.375   6.452   1.000
 8008TIP3   OH223987   3.758   2.448   5.071
 8008TIP3    H123988   3.777   2.500   4.993
 8008TIP3    H223989   3.685   2.392   5.044
 8009TIP3   OH223990   2.444   1.888   1.903
 8009TIP3    H123991   2.504   1.959   1.879
 8009TIP3    H223992   2.501   1.813   1.921
 8010TIP3   OH223993   0.417   4.935   4.443
 8010TIP3    H123994   0.407   4.857   4.388
 8010TIP3    H223995   0.337   4.986   4.428
 8011TIP3   OH223996   1.226   2.366   2.477
 8011TIP3    H123997   1.252   2.430   2.412
 8011TIP3    H223998   1.307   2.320   2.500
 8012TIP3   OH223999   2.828   2.938   5.168
 8012TIP3    H124000   2.774   2.964   5.243
 8012TIP3    H224001   2.780   2.971   5.092
 8013TIP3   OH224002   0.483   6.031   5.111
 8013TIP3    H124003   0.546   6.056   5.179
 8013TIP3    H224004   0.526   5.960   5.064
 8014TIP3   OH224005   5.809   2.491   0.405
 8014TIP3    H124006   5.834   2.525   0.491
 8014TIP3    H224007   5.888   2.502   0.351
 8015TIP3   OH224008   0.971   1.441   0.967
 8015TIP3    H124009   0.943   1.380   1.034
 8015TIP3    H224010   0.995   1.520   1.016
 8016TIP3   OH224011   1.350   6.786   0.198
 8016TIP3    H124012   1.419   6.735   0.156
 8016TIP3    H224013   1.369   6.876   0.173
 8017TIP3   OH224014   6.133   3.543   0.318
 8017TIP3    H124015   6.225   3.521   0.306
 8017TIP3    H224016   6.085   3.473   0.273
 8018TIP3   OH224017   5.039   5.039   0.398
 8018TIP3    H124018   5.037   4.951   0.359
 8018TIP3    H224019   5.016   5.098   0.327
 8019TIP3   OH224020   3.274   2.232   5.429
 8019TIP3    H124021   3.191   2.221   5.475
 8019TIP3    H224022   3.310   2.143   5.422
 8020TIP3   OH224023   0.012   4.731   3.776
 8020TIP3    H124024   0.006   4.823   3.751
 8020TIP3    H224025   0.066   4.691   3.707
 8021TIP3   OH224026   5.404   5.529   4.836
 8021TIP3    H124027   5.482   5.542   4.781
 8021TIP3    H224028   5.437   5.490   4.916
 8022TIP3   OH224029   4.158   2.260   4.491
 8022TIP3    H124030   4.226   2.194   4.486
 8022TIP3    H224031   4.177   2.308   4.572
 8023TIP3   OH224032   4.579   2.991   0.377
 8023TIP3    H124033   4.611   2.998   0.467
 8023TIP3    H224034   4.484   2.976   0.387
 8024TIP3   OH224035   6.469   2.045   1.916
 8024TIP3    H124036   6.400   2.101   1.951
 8024TIP3    H224037   6.437   2.020   1.829
 8025TIP3   OH224038   7.157   2.186   1.136
 8025TIP3    H124039   7.240   2.218   1.101
 8025TIP3    H224040   7.095   2.196   1.064
 8026TIP3   OH224041   3.410   2.411   4.071
 8026TIP3    H124042   3.472   2.473   4.109
 8026TIP3    H224043   3.405   2.436   3.979
 8027TIP3   OH224044   0.964   0.187   4.796
 8027TIP3    H124045   1.008   0.103   4.812
 8027TIP3    H224046   0.887   0.185   4.853
 8028TIP3   OH224047   4.718   3.414   0.716
 8028TIP3    H124048   4.694   3.352   0.785
 8028TIP3    H224049   4.649   3.480   0.717
 8029TIP3   OH224050   4.318   3.864   5.024
 8029TIP3    H124051   4.298   3.773   5.005
 8029TIP3    H224052   4.340   3.865   5.117
 8030TIP3   OH224053   6.054   0.693   5.568
 8030TIP3    H124054   6.079   0.602   5.553
 8030TIP3    H224055   6.135   0.742   5.558
 8031TIP3   OH224056   4.128   0.501   0.351
 8031TIP3    H124057   4.177   0.579   0.380
 8031TIP3    H224058   4.130   0.443   0.427
 8032TIP3   OH224059   6.837   4.798   2.697
 8032TIP3    H124060   6.788   4.880   2.693
 8032TIP3    H224061   6.846   4.771   2.605
 8033TIP3   OH224062   0.418   2.195   2.520
 8033TIP3    H124063   0.324   2.206   2.537
 8033TIP3    H224064   0.423   2.170   2.428
 8034TIP3   OH224065   6.455   0.849   5.006
 8034TIP3    H124066   6.548   0.851   4.986
 8034TIP3    H224067   6.424   0.937   4.986
 8035TIP3   OH224068   2.583   6.462   4.429
 8035TIP3    H124069   2.507   6.518   4.445
 8035TIP3    H224070   2.629   6.460   4.513
 8036TIP3   OH224071   1.118   4.965   5.723
 8036TIP3    H124072   1.201   4.998   5.758
 8036TIP3    H224073   1.133   4.871   5.710
 8037TIP3   OH224074   0.357   5.376   0.975
 8037TIP3    H124075   0.334   5.287   0.950
 8037TIP3    H224076   0.448   5.386   0.945
 8038TIP3   OH224077   0.425   6.791   5.404
 8038TIP3    H124078   0.355   6.735   5.369
 8038TIP3    H224079   0.489   6.796   5.333
 8039TIP3   OH224080   2.793   5.636   5.504
 8039TIP3    H124081   2.859   5.608   5.567
 8039TIP3    H224082   2.827   5.719   5.470
 8040TIP3   OH224083   4.320   5.372   5.339
 8040TIP3    H124084   4.355   5.296   5.293
 8040TIP3    H224085   4.396   5.426   5.359
 8041TIP3   OH224086   3.041   2.651   0.871
 8041TIP3    H124087   3.025   2.579   0.932
 8041TIP3    H224088   3.137   2.660   0.870
 8042TIP3   OH224089   4.129   3.547   2.771
 8042TIP3    H124090   4.140   3.633   2.731
 8042TIP3    H224091   4.108   3.566   2.863
 8043TIP3   OH224092   3.400   3.085   1.072
 8043TIP3    H124093   3.371   3.069   0.982
 8043TIP3    H224094   3.343   3.030   1.125
 8044TIP3   OH224095   2.186   1.846   2.556
 8044TIP3    H124096   2.199   1.760   2.516
 8044TIP3    H224097   2.222   1.837   2.644
 8045TIP3   OH224098   2.126   4.567   2.092
 8045TIP3    H124099   2.131   4.618   2.011
 8045TIP3    H224100   2.175   4.619   2.156
 8046TIP3   OH224101   4.530   1.308   5.370
 8046TIP3    H124102   4.521   1.308   5.274
 8046TIP3    H224103   4.507   1.219   5.396
 8047TIP3   OH224104   6.758   6.382   1.196
 8047TIP3    H124105   6.677   6.427   1.217
 8047TIP3    H224106   6.821   6.414   1.261
 8048TIP3   OH224107   4.961   4.040   4.770
 8048TIP3    H124108   5.034   4.087   4.730
 8048TIP3    H224109   4.911   4.107   4.816
 8049TIP3   OH224110   2.237   2.931   0.314
 8049TIP3    H124111   2.206   2.906   0.401
 8049TIP3    H224112   2.308   2.869   0.296
 8050TIP3   OH224113   6.337   0.668   4.814
 8050TIP3    H124114   6.347   0.589   4.867
 8050TIP3    H224115   6.376   0.738   4.866
 8051TIP3   OH224116   1.514   0.337   4.211
 8051TIP3    H124117   1.524   0.358   4.118
 8051TIP3    H224118   1.581   0.270   4.227
 8052TIP3   OH224119   4.662   4.374   4.346
 8052TIP3    H124120   4.659   4.306   4.279
 8052TIP3    H224121   4.674   4.455   4.297
 8053TIP3   OH224122   4.859   1.269   1.579
 8053TIP3    H124123   4.855   1.196   1.518
 8053TIP3    H224124   4.924   1.329   1.541
 8054TIP3   OH224125   5.596   2.098   3.648
 8054TIP3    H124126   5.501   2.114   3.648
 8054TIP3    H224127   5.609   2.034   3.579
 8055TIP3   OH224128   2.435   1.278   5.197
 8055TIP3    H124129   2.514   1.299   5.248
 8055TIP3    H224130   2.461   1.204   5.143
 8056TIP3   OH224131   3.388   5.595   5.180
 8056TIP3    H124132   3.360   5.560   5.096
 8056TIP3    H224133   3.358   5.686   5.179
 8057TIP3   OH224134   1.875   0.543   5.310
 8057TIP3    H124135   1.943   0.571   5.372
 8057TIP3    H224136   1.813   0.494   5.364
 8058TIP3   OH224137   4.140   2.867   4.049
 8058TIP3    H124138   4.140   2.785   4.099
 8058TIP3    H224139   4.217   2.861   3.993
 8059TIP3   OH224140   6.060   6.674   1.617
 8059TIP3    H124141   5.994   6.604   1.619
 8059TIP3    H224142   6.039   6.724   1.538
 8060TIP3   OH224143   0.737   2.994   4.174
 8060TIP3    H124144   0.738   2.963   4.265
 8060TIP3    H224145   0.780   2.924   4.125
 8061TIP3   OH224146   1.489   1.061   4.033
 8061TIP3    H124147   1.539   1.135   3.998
 8061TIP3    H224148   1.434   1.034   3.960
 8062TIP3   OH224149   4.647   2.050   0.093
 8062TIP3    H124150   4.671   1.988   0.161
 8062TIP3    H224151   4.703   2.027   0.018
 8063TIP3   OH224152   0.674   0.797   4.590
 8063TIP3    H124153   0.693   0.711   4.552
 8063TIP3    H224154   0.593   0.784   4.639
 8064TIP3   OH224155   3.771   5.402   2.673
 8064TIP3    H124156   3.678   5.426   2.678
 8064TIP3    H224157   3.780   5.331   2.737
 8065TIP3   OH224158   0.241   5.173   2.641
 8065TIP3    H124159   0.172   5.234   2.615
 8065TIP3    H224160   0.207   5.087   2.616
 8066TIP3   OH224161   1.752   5.970   5.673
 8066TIP3    H124162   1.804   5.919   5.611
 8066TIP3    H224163   1.779   6.061   5.657
 8067TIP3   OH224164   0.671   5.486   1.620
 8067TIP3    H124165   0.671   5.480   1.524
 8067TIP3    H224166   0.762   5.468   1.645
 8068TIP3   OH224167   2.805   4.051   4.373
 8068TIP3    H124168   2.816   3.961   4.402
 8068TIP3    H224169   2.895   4.084   4.364
 8069TIP3   OH224170   0.599   0.294   2.898
 8069TIP3    H124171   0.510   0.329   2.893
 8069TIP3    H224172   0.616   0.258   2.811
 8070TIP3   OH224173   1.486   4.547   4.779
 8070TIP3    H124174   1.449   4.471   4.735
 8070TIP3    H224175   1.473   4.619   4.718
 8071TIP3   OH224176   0.422   2.250   2.807
 8071TIP3    H124177   0.446   2.244   2.714
 8071TIP3    H224178   0.361   2.323   2.811
 8072TIP3   OH224179   3.876   1.893   4.224
 8072TIP3    H124180   3.949   1.876   4.164
 8072TIP3    H224181   3.862   1.987   4.220
 8073TIP3   OH224182   2.394   4.739   4.248
 8073TIP3    H124183   2.304   4.719   4.224
 8073TIP3    H224184   2.398   4.835   4.250
 8074TIP3   OH224185   2.408   2.939   1.401
 8074TIP3    H124186   2.452   2.969   1.322
 8074TIP3    H224187   2.363   2.859   1.375
 8075TIP3   OH224188   6.082   1.910   4.294
 8075TIP3    H124189   6.156   1.969   4.288
 8075TIP3    H224190   6.105   1.836   4.237
 8076TIP3   OH224191   4.067   3.655   0.528
 8076TIP3    H124192   4.112   3.658   0.612
 8076TIP3    H224193   3.975   3.644   0.550
 8077TIP3   OH224194   0.934   4.438   2.763
 8077TIP3    H124195   0.861   4.478   2.717
 8077TIP3    H224196   0.923   4.344   2.749
 8078TIP3   OH224197   6.094   6.652   3.662
 8078TIP3    H124198   6.064   6.604   3.585
 8078TIP3    H224199   6.151   6.721   3.627
 8079TIP3   OH224200   1.487   3.598   4.565
 8079TIP3    H124201   1.567   3.626   4.611
 8079TIP3    H224202   1.416   3.620   4.625
 8080TIP3   OH224203   1.847   2.056   3.318
 8080TIP3    H124204   1.866   2.134   3.266
 8080TIP3    H224205   1.753   2.061   3.335
 8081TIP3   OH224206   0.780   0.889   1.476
 8081TIP3    H124207   0.836   0.967   1.476
 8081TIP3    H224208   0.710   0.909   1.414
 8082TIP3   OH224209   0.395   3.715   1.861
 8082TIP3    H124210   0.381   3.768   1.782
 8082TIP3    H224211   0.322   3.739   1.919
 8083TIP3   OH224212   0.527   1.289   2.071
 8083TIP3    H124213   0.594   1.243   2.121
 8083TIP3    H224214   0.457   1.225   2.058
 8084TIP3   OH224215   7.019   2.554   5.664
 8084TIP3    H124216   7.052   2.637   5.699
 8084TIP3    H224217   6.984   2.576   5.578
 8085TIP3   OH224218   2.067   4.954   4.735
 8085TIP3    H124219   2.062   5.016   4.807
 8085TIP3    H224220   1.982   4.910   4.734
 8086TIP3   OH224221   1.868   3.912   5.766
 8086TIP3    H124222   1.780   3.946   5.785
 8086TIP3    H224223   1.914   3.918   5.850
 8087TIP3   OH224224   5.001   2.832   0.771
 8087TIP3    H124225   4.979   2.744   0.742
 8087TIP3    H224226   4.919   2.881   0.763
 8088TIP3   OH224227   5.401   5.795   2.562
 8088TIP3    H124228   5.492   5.768   2.571
 8088TIP3    H224229   5.360   5.723   2.514
 8089TIP3   OH224230   5.627   4.486   2.485
 8089TIP3    H124231   5.708   4.537   2.487
 8089TIP3    H224232   5.596   4.495   2.395
 8090TIP3   OH224233   0.923   1.149   2.766
 8090TIP3    H124234   0.949   1.240   2.780
 8090TIP3    H224235   0.830   1.146   2.788
 8091TIP3   OH224236   0.063   6.091   1.515
 8091TIP3    H124237   0.030   6.175   1.483
 8091TIP3    H224238   0.149   6.082   1.474
 8092TIP3   OH224239   6.099   6.151   0.204
 8092TIP3    H124240   6.084   6.167   0.111
 8092TIP3    H224241   6.195   6.152   0.214
 8093TIP3   OH224242   0.000   1.781   0.159
 8093TIP3    H124243  -0.010   1.814   0.070
 8093TIP3    H224244   0.077   1.827   0.193
 8094TIP3   OH224245   2.955   2.707   2.747
 8094TIP3    H124246   2.995   2.677   2.666
 8094TIP3    H224247   2.949   2.802   2.737
 8095TIP3   OH224248   5.426   2.977   5.929
 8095TIP3    H124249   5.499   2.956   5.871
 8095TIP3    H224250   5.465   2.976   6.017
 8096TIP3   OH224251   1.616   0.800   2.808
 8096TIP3    H124252   1.524   0.801   2.779
 8096TIP3    H224253   1.656   0.873   2.762
 8097TIP3   OH224254   3.047   2.248   3.016
 8097TIP3    H124255   3.110   2.265   2.946
 8097TIP3    H224256   3.065   2.159   3.043
 8098TIP3   OH224257   1.930   1.286   0.745
 8098TIP3    H124258   1.953   1.351   0.811
 8098TIP3    H224259   1.856   1.238   0.782
 8099TIP3   OH224260   2.144   4.786   1.120
 8099TIP3    H124261   2.163   4.700   1.158
 8099TIP3    H224262   2.164   4.848   1.191
 8100TIP3   OH224263   4.890   3.810   1.973
 8100TIP3    H124264   4.956   3.871   2.005
 8100TIP3    H224265   4.816   3.821   2.033
 8101TIP3   OH224266   3.598   2.304   0.359
 8101TIP3    H124267   3.623   2.385   0.402
 8101TIP3    H224268   3.673   2.282   0.303
 8102TIP3   OH224269   4.105   6.051   0.650
 8102TIP3    H124270   4.176   6.086   0.596
 8102TIP3    H224271   4.149   5.998   0.716
 8103TIP3   OH224272   2.717   4.734   1.725
 8103TIP3    H124273   2.699   4.685   1.805
 8103TIP3    H224274   2.637   4.784   1.709
 8104TIP3   OH224275   2.690   6.239   3.422
 8104TIP3    H124276   2.642   6.255   3.340
 8104TIP3    H224277   2.746   6.164   3.402
 8105TIP3   OH224278   6.856   5.569   5.235
 8105TIP3    H124279   6.948   5.551   5.218
 8105TIP3    H224280   6.852   5.595   5.327
 8106TIP3   OH224281   4.705   3.914   4.581
 8106TIP3    H124282   4.738   4.003   4.574
 8106TIP3    H224283   4.779   3.863   4.612
 8107TIP3   OH224284   2.526   5.439   3.030
 8107TIP3    H124285   2.525   5.464   3.122
 8107TIP3    H224286   2.586   5.366   3.025
 8108TIP3   OH224287   1.262   3.595   4.882
 8108TIP3    H124288   1.212   3.538   4.823
 8108TIP3    H224289   1.250   3.556   4.968
 8109TIP3   OH224290   4.616   4.231   2.241
 8109TIP3    H124291   4.680   4.184   2.188
 8109TIP3    H224292   4.625   4.323   2.216
 8110TIP3   OH224293   4.162   5.662   4.541
 8110TIP3    H124294   4.144   5.568   4.536
 8110TIP3    H224295   4.156   5.682   4.634
 8111TIP3   OH224296   4.709   0.049   3.736
 8111TIP3    H124297   4.782  -0.012   3.746
 8111TIP3    H224298   4.717   0.082   3.647
 8112TIP3   OH224299   3.901   3.668   5.251
 8112TIP3    H124300   3.878   3.742   5.195
 8112TIP3    H224301   3.828   3.607   5.241
 8113TIP3   OH224302   1.588   4.470   3.212
 8113TIP3    H124303   1.630   4.545   3.171
 8113TIP3    H224304   1.507   4.457   3.163
 8114TIP3   OH224305   2.705   5.078   4.942
 8114TIP3    H124306   2.638   5.143   4.959
 8114TIP3    H224307   2.750   5.066   5.026
 8115TIP3   OH224308   2.164   0.870   4.633
 8115TIP3    H124309   2.099   0.817   4.678
 8115TIP3    H224310   2.247   0.826   4.651
 8116TIP3   OH224311   4.055   4.424   4.450
 8116TIP3    H124312   4.029   4.457   4.363
 8116TIP3    H224313   4.136   4.375   4.433
 8117TIP3   OH224314   0.118   5.070   5.443
 8117TIP3    H124315   0.164   5.044   5.362
 8117TIP3    H224316   0.056   5.137   5.414
 8118TIP3   OH224317   6.873   3.789   3.628
 8118TIP3    H124318   6.789   3.789   3.581
 8118TIP3    H224319   6.935   3.753   3.564
 8119TIP3   OH224320   6.566   4.337   0.478
 8119TIP3    H124321   6.602   4.254   0.446
 8119TIP3    H224322   6.633   4.401   0.456
 8120TIP3   OH224323   1.265   1.679   3.751
 8120TIP3    H124324   1.322   1.648   3.822
 8120TIP3    H224325   1.244   1.599   3.702
 8121TIP3   OH224326   1.237   4.665   1.140
 8121TIP3    H124327   1.212   4.749   1.101
 8121TIP3    H224328   1.181   4.657   1.218
 8122TIP3   OH224329   3.699   0.641   1.164
 8122TIP3    H124330   3.630   0.609   1.223
 8122TIP3    H224331   3.755   0.695   1.220
 8123TIP3   OH224332   1.175   0.301   5.504
 8123TIP3    H124333   1.099   0.247   5.482
 8123TIP3    H224334   1.183   0.293   5.599
 8124TIP3   OH224335   4.076   0.675   1.051
 8124TIP3    H124336   4.015   0.609   1.085
 8124TIP3    H224337   4.162   0.635   1.062
 8125TIP3   OH224338   0.563   0.292   0.456
 8125TIP3    H124339   0.509   0.320   0.529
 8125TIP3    H224340   0.521   0.330   0.379
 8126TIP3   OH224341   1.293   5.692   3.012
 8126TIP3    H124342   1.246   5.685   3.095
 8126TIP3    H224343   1.227   5.722   2.950
 8127TIP3   OH224344   6.292   3.915   3.254
 8127TIP3    H124345   6.268   3.824   3.234
 8127TIP3    H224346   6.234   3.967   3.198
 8128TIP3   OH224347   1.069   4.348   4.460
 8128TIP3    H124348   1.021   4.330   4.541
 8128TIP3    H224349   1.131   4.416   4.483
 8129TIP3   OH224350   4.804   6.036   0.540
 8129TIP3    H124351   4.868   6.092   0.583
 8129TIP3    H224352   4.781   5.971   0.608
 8130TIP3   OH224353   4.042   5.733   0.452
 8130TIP3    H124354   4.080   5.663   0.400
 8130TIP3    H224355   4.102   5.807   0.441
 8131TIP3   OH224356   4.670   5.811   2.926
 8131TIP3    H124357   4.649   5.875   2.994
 8131TIP3    H224358   4.692   5.864   2.849
 8132TIP3   OH224359   7.215   6.348   1.436
 8132TIP3    H124360   7.131   6.327   1.396
 8132TIP3    H224361   7.268   6.382   1.363
 8133TIP3   OH224362   2.425   2.806   2.747
 8133TIP3    H124363   2.419   2.901   2.759
 8133TIP3    H224364   2.517   2.785   2.765
 8134TIP3   OH224365   3.641   2.936   2.447
 8134TIP3    H124366   3.656   2.865   2.509
 8134TIP3    H224367   3.714   2.996   2.460
 8135TIP3   OH224368   3.677   5.885   1.130
 8135TIP3    H124369   3.669   5.961   1.072
 8135TIP3    H224370   3.769   5.859   1.123
 8136TIP3   OH224371   5.500   1.198   1.130
 8136TIP3    H124372   5.543   1.122   1.168
 8136TIP3    H224373   5.468   1.249   1.205
 8137TIP3   OH224374   3.319   6.518   2.442
 8137TIP3    H124375   3.388   6.571   2.400
 8137TIP3    H224376   3.362   6.476   2.516
 8138TIP3   OH224377   5.381   3.253   1.753
 8138TIP3    H124378   5.321   3.296   1.692
 8138TIP3    H224379   5.328   3.188   1.797
 8139TIP3   OH224380   4.581   4.340   1.639
 8139TIP3    H124381   4.490   4.356   1.664
 8139TIP3    H224382   4.606   4.417   1.588
 8140TIP3   OH224383   4.804   1.845   5.717
 8140TIP3    H124384   4.761   1.889   5.644
 8140TIP3    H224385   4.780   1.753   5.709
 8141TIP3   OH224386   3.046   1.073   4.340
 8141TIP3    H124387   3.003   1.007   4.394
 8141TIP3    H224388   2.976   1.133   4.316
 8142TIP3   OH224389   3.457   2.696   5.405
 8142TIP3    H124390   3.518   2.770   5.396
 8142TIP3    H224391   3.371   2.734   5.386
 8143TIP3   OH224392   5.936   3.273   2.577
 8143TIP3    H124393   5.945   3.267   2.482
 8143TIP3    H224394   6.026   3.279   2.609
 8144TIP3   OH224395   2.428   1.117   1.438
 8144TIP3    H124396   2.479   1.099   1.517
 8144TIP3    H224397   2.345   1.153   1.469
 8145TIP3   OH224398   6.962   0.801   4.387
 8145TIP3    H124399   7.030   0.735   4.401
 8145TIP3    H224400   6.945   0.798   4.293
 8146TIP3   OH224401   6.218   3.216   1.219
 8146TIP3    H124402   6.169   3.284   1.266
 8146TIP3    H224403   6.150   3.157   1.186
 8147TIP3   OH224404   1.566   0.719   1.714
 8147TIP3    H124405   1.483   0.672   1.705
 8147TIP3    H224406   1.564   0.756   1.802
 8148TIP3   OH224407   3.173   1.194   4.127
 8148TIP3    H124408   3.139   1.131   4.190
 8148TIP3    H224409   3.244   1.149   4.082
 8149TIP3   OH224410   5.208   5.288   2.825
 8149TIP3    H124411   5.177   5.377   2.844
 8149TIP3    H224412   5.264   5.299   2.748
 8150TIP3   OH224413   6.110   2.369   0.496
 8150TIP3    H124414   6.177   2.423   0.454
 8150TIP3    H224415   6.060   2.431   0.549
 8151TIP3   OH224416   5.744   0.895   3.344
 8151TIP3    H124417   5.681   0.932   3.282
 8151TIP3    H224418   5.707   0.810   3.368
 8152TIP3   OH224419   6.639   5.687   5.695
 8152TIP3    H124420   6.638   5.714   5.786
 8152TIP3    H224421   6.598   5.601   5.694
 8153TIP3   OH224422   0.934   4.971   5.943
 8153TIP3    H124423   0.995   4.986   5.871
 8153TIP3    H224424   0.921   5.058   5.981
 8154TIP3   OH224425   1.933   1.844   3.439
 8154TIP3    H124426   1.893   1.923   3.403
 8154TIP3    H224427   1.929   1.781   3.367
 8155TIP3   OH224428   5.816   5.568   3.047
 8155TIP3    H124429   5.817   5.525   3.133
 8155TIP3    H224430   5.852   5.503   2.987
 8156TIP3   OH224431   4.698   6.212   1.475
 8156TIP3    H124432   4.642   6.241   1.548
 8156TIP3    H224433   4.647   6.144   1.432
 8157TIP3   OH224434   1.422   5.391   1.557
 8157TIP3    H124435   1.454   5.403   1.468
 8157TIP3    H224436   1.348   5.331   1.549
 8158TIP3   OH224437   0.586   6.484   5.133
 8158TIP3    H124438   0.524   6.416   5.160
 8158TIP3    H224439   0.667   6.461   5.178
 8159TIP3   OH224440   5.407   5.169   2.356
 8159TIP3    H124441   5.314   5.146   2.345
 8159TIP3    H224442   5.450   5.135   2.278
 8160TIP3   OH224443   4.033   4.649   3.963
 8160TIP3    H124444   4.111   4.625   3.912
 8160TIP3    H224445   3.960   4.639   3.902
 8161TIP3   OH224446   4.798   6.680   0.511
 8161TIP3    H124447   4.717   6.682   0.562
 8161TIP3    H224448   4.840   6.764   0.529
 8162TIP3   OH224449   2.729   5.371   4.396
 8162TIP3    H124450   2.697   5.311   4.329
 8162TIP3    H224451   2.796   5.321   4.443
 8163TIP3   OH224452   2.667   0.634   0.685
 8163TIP3    H124453   2.715   0.711   0.657
 8163TIP3    H224454   2.712   0.604   0.763
 8164TIP3   OH224455   3.565   3.520   1.313
 8164TIP3    H124456   3.575   3.570   1.394
 8164TIP3    H224457   3.477   3.483   1.317
 8165TIP3   OH224458   6.114   1.180   1.548
 8165TIP3    H124459   6.186   1.234   1.515
 8165TIP3    H224460   6.100   1.210   1.638
 8166TIP3   OH224461   5.045   2.463   1.978
 8166TIP3    H124462   4.970   2.507   2.016
 8166TIP3    H224463   5.080   2.525   1.914
 8167TIP3   OH224464   3.128   5.233   1.508
 8167TIP3    H124465   3.178   5.314   1.518
 8167TIP3    H224466   3.129   5.194   1.596
 8168TIP3   OH224467   6.193   1.188   4.591
 8168TIP3    H124468   6.221   1.106   4.632
 8168TIP3    H224469   6.191   1.168   4.497
 8169TIP3   OH224470   3.563   0.474   1.894
 8169TIP3    H124471   3.524   0.560   1.908
 8169TIP3    H224472   3.576   0.438   1.982
 8170TIP3   OH224473   2.611   3.467   3.583
 8170TIP3    H124474   2.616   3.450   3.488
 8170TIP3    H224475   2.684   3.417   3.620
 8171TIP3   OH224476   4.946   3.168   2.851
 8171TIP3    H124477   5.029   3.212   2.833
 8171TIP3    H224478   4.881   3.220   2.803
 8172TIP3   OH224479   2.347   0.696   3.848
 8172TIP3    H124480   2.302   0.773   3.883
 8172TIP3    H224481   2.440   0.719   3.849
 8173TIP3   OH224482   1.884   4.373   1.737
 8173TIP3    H124483   1.933   4.320   1.801
 8173TIP3    H224484   1.793   4.369   1.767
 8174TIP3   OH224485   4.831   6.540   5.663
 8174TIP3    H124486   4.761   6.516   5.724
 8174TIP3    H224487   4.911   6.505   5.704
 8175TIP3   OH224488   4.942   4.304   4.106
 8175TIP3    H124489   5.020   4.297   4.051
 8175TIP3    H224490   4.894   4.379   4.070
 8176TIP3   OH224491   2.620   2.180   2.200
 8176TIP3    H124492   2.682   2.180   2.273
 8176TIP3    H224493   2.655   2.116   2.138
 8177TIP3   OH224494   0.289   4.583   2.730
 8177TIP3    H124495   0.196   4.578   2.705
 8177TIP3    H224496   0.325   4.653   2.675
 8178TIP3   OH224497   0.354   5.702   2.974
 8178TIP3    H124498   0.431   5.685   2.920
 8178TIP3    H224499   0.386   5.697   3.064
 8179TIP3   OH224500   5.655   2.051   3.183
 8179TIP3    H124501   5.719   2.052   3.255
 8179TIP3    H224502   5.578   2.095   3.219
 8180TIP3   OH224503   6.685   1.112   2.430
 8180TIP3    H124504   6.752   1.168   2.470
 8180TIP3    H224505   6.735   1.047   2.381
 8181TIP3   OH224506   7.142   5.391   4.628
 8181TIP3    H124507   7.068   5.337   4.600
 8181TIP3    H224508   7.116   5.481   4.606
 8182TIP3   OH224509   6.016   4.420   5.184
 8182TIP3    H124510   5.947   4.474   5.222
 8182TIP3    H224511   6.045   4.364   5.256
 8183TIP3   OH224512   6.912   5.963   4.657
 8183TIP3    H124513   6.892   5.987   4.566
 8183TIP3    H224514   6.857   6.020   4.709
 8184TIP3   OH224515   0.571   1.476   3.678
 8184TIP3    H124516   0.578   1.440   3.766
 8184TIP3    H224517   0.653   1.454   3.635
 8185TIP3   OH224518   1.892   0.492   4.373
 8185TIP3    H124519   1.951   0.481   4.299
 8185TIP3    H224520   1.936   0.555   4.430
 8186TIP3   OH224521   6.420   3.480   0.321
 8186TIP3    H124522   6.380   3.427   0.390
 8186TIP3    H224523   6.506   3.505   0.356
 8187TIP3   OH224524   0.642   5.305   0.967
 8187TIP3    H124525   0.596   5.232   0.926
 8187TIP3    H224526   0.639   5.286   1.061
 8188TIP3   OH224527   1.927   1.936   3.974
 8188TIP3    H124528   2.011   1.964   4.010
 8188TIP3    H224529   1.951   1.878   3.901
 8189TIP3   OH224530   0.856   2.424   0.593
 8189TIP3    H124531   0.888   2.430   0.684
 8189TIP3    H224532   0.827   2.513   0.573
 8190TIP3   OH224533   5.184   1.942   2.043
 8190TIP3    H124534   5.155   1.965   1.955
 8190TIP3    H224535   5.279   1.951   2.041
 8191TIP3   OH224536   2.340   6.367   5.060
 8191TIP3    H124537   2.417   6.362   5.004
 8191TIP3    H224538   2.291   6.287   5.040
 8192TIP3   OH224539   2.943   4.761   4.538
 8192TIP3    H124540   2.855   4.723   4.536
 8192TIP3    H224541   2.935   4.833   4.600
 8193TIP3   OH224542   7.186   1.593   1.584
 8193TIP3    H124543   7.149   1.587   1.496
 8193TIP3    H224544   7.143   1.668   1.624
 8194TIP3   OH224545   4.730   2.693   1.068
 8194TIP3    H124546   4.680   2.751   1.125
 8194TIP3    H224547   4.807   2.670   1.119
 8195TIP3   OH224548   1.809   6.131   4.971
 8195TIP3    H124549   1.866   6.203   4.945
 8195TIP3    H224550   1.789   6.086   4.888
 8196TIP3   OH224551   6.563   4.727   1.982
 8196TIP3    H124552   6.608   4.765   1.907
 8196TIP3    H224553   6.508   4.658   1.943
 8197TIP3   OH224554   2.176   3.502   5.041
 8197TIP3    H124555   2.183   3.447   5.119
 8197TIP3    H224556   2.261   3.492   4.997
 8198TIP3   OH224557   2.062   2.261   5.233
 8198TIP3    H124558   2.071   2.203   5.308
 8198TIP3    H224559   2.142   2.247   5.182
 8199TIP3   OH224560   4.899   4.304   4.905
 8199TIP3    H124561   4.960   4.282   4.976
 8199TIP3    H224562   4.813   4.308   4.947
 8200TIP3   OH224563   7.064   0.446   4.227
 8200TIP3    H124564   7.094   0.533   4.254
 8200TIP3    H224565   7.138   0.408   4.179
 8201TIP3   OH224566   5.041   4.490   3.032
 8201TIP3    H124567   5.070   4.415   2.981
 8201TIP3    H224568   5.101   4.561   3.006
 8202TIP3   OH224569   2.531   5.155   1.642
 8202TIP3    H124570   2.537   5.071   1.596
 8202TIP3    H224571   2.572   5.218   1.583
 8203TIP3   OH224572   3.063   4.830   4.287
 8203TIP3    H124573   3.008   4.844   4.210
 8203TIP3    H224574   3.001   4.823   4.359
 8204TIP3   OH224575   6.467   5.571   2.395
 8204TIP3    H124576   6.552   5.598   2.430
 8204TIP3    H224577   6.419   5.538   2.470
 8205TIP3   OH224578   3.571   0.528   0.927
 8205TIP3    H124579   3.604   0.561   1.011
 8205TIP3    H224580   3.501   0.467   0.951
 8206TIP3   OH224581   2.816   0.898   3.577
 8206TIP3    H124582   2.833   0.874   3.668
 8206TIP3    H224583   2.722   0.915   3.575
 8207TIP3   OH224584   0.807   4.264   1.066
 8207TIP3    H124585   0.899   4.261   1.092
 8207TIP3    H224586   0.800   4.340   1.009
 8208TIP3   OH224587   4.921   1.394   0.817
 8208TIP3    H124588   4.966   1.428   0.894
 8208TIP3    H224589   4.855   1.334   0.853
 8209TIP3   OH224590   5.501   3.661   5.727
 8209TIP3    H124591   5.506   3.615   5.811
 8209TIP3    H224592   5.408   3.671   5.711
 8210TIP3   OH224593   0.941   2.275   0.883
 8210TIP3    H124594   0.850   2.288   0.909
 8210TIP3    H224595   0.989   2.344   0.929
 8211TIP3   OH224596   2.933   3.052   0.379
 8211TIP3    H124597   2.964   3.001   0.454
 8211TIP3    H224598   3.007   3.056   0.320
 8212TIP3   OH224599   3.018   5.885   1.663
 8212TIP3    H124600   3.036   5.819   1.730
 8212TIP3    H224601   3.041   5.969   1.705
 8213TIP3   OH224602   1.532   0.052   2.049
 8213TIP3    H124603   1.442   0.040   2.079
 8213TIP3    H224604   1.525   0.102   1.967
 8214TIP3   OH224605   2.903   0.831   4.416
 8214TIP3    H124606   2.979   0.788   4.377
 8214TIP3    H224607   2.908   0.809   4.509
 8215TIP3   OH224608   5.130   3.086   3.547
 8215TIP3    H124609   5.134   3.049   3.459
 8215TIP3    H224610   5.196   3.156   3.547
 8216TIP3   OH224611   5.347   5.999   2.753
 8216TIP3    H124612   5.371   5.921   2.702
 8216TIP3    H224613   5.339   5.967   2.843
 8217TIP3   OH224614   4.344   2.353   1.037
 8217TIP3    H124615   4.300   2.277   1.075
 8217TIP3    H224616   4.310   2.359   0.948
 8218TIP3   OH224617   2.112   6.491   5.171
 8218TIP3    H124618   2.173   6.467   5.102
 8218TIP3    H224619   2.168   6.526   5.241
 8219TIP3   OH224620   0.141   4.259   2.135
 8219TIP3    H124621   0.218   4.311   2.109
 8219TIP3    H224622   0.068   4.321   2.132
 8220TIP3   OH224623   6.595   2.492   5.862
 8220TIP3    H124624   6.669   2.484   5.922
 8220TIP3    H224625   6.598   2.411   5.810
 8221TIP3   OH224626   5.373   1.767   1.667
 8221TIP3    H124627   5.404   1.716   1.742
 8221TIP3    H224628   5.432   1.843   1.663
 8222TIP3   OH224629   6.182   2.265   0.988
 8222TIP3    H124630   6.128   2.209   1.045
 8222TIP3    H224631   6.243   2.204   0.946
 8223TIP3   OH224632   5.171   0.571   3.996
 8223TIP3    H124633   5.101   0.551   4.057
 8223TIP3    H224634   5.213   0.487   3.978
 8224TIP3   OH224635   4.521   6.703   3.714
 8224TIP3    H124636   4.580   6.725   3.786
 8224TIP3    H224637   4.570   6.723   3.635
 8225TIP3   OH224638   2.318   2.590   5.129
 8225TIP3    H124639   2.328   2.525   5.198
 8225TIP3    H224640   2.407   2.614   5.104
 8226TIP3   OH224641   6.512   0.173   4.922
 8226TIP3    H124642   6.421   0.190   4.899
 8226TIP3    H224643   6.508   0.113   4.996
 8227TIP3   OH224644   1.351   6.106   4.027
 8227TIP3    H124645   1.422   6.144   3.975
 8227TIP3    H224646   1.348   6.161   4.106
 8228TIP3   OH224647   3.248   4.751   3.219
 8228TIP3    H124648   3.174   4.811   3.212
 8228TIP3    H224649   3.322   4.801   3.184
 8229TIP3   OH224650   2.872   0.487   0.068
 8229TIP3    H124651   2.874   0.448  -0.019
 8229TIP3    H224652   2.813   0.430   0.118
 8230TIP3   OH224653   1.083   4.632   1.369
 8230TIP3    H124654   1.060   4.550   1.326
 8230TIP3    H224655   1.008   4.651   1.426
 8231TIP3   OH224656   1.554   2.415   3.023
 8231TIP3    H124657   1.581   2.493   3.070
 8231TIP3    H224658   1.462   2.429   3.002
 8232TIP3   OH224659   1.134   6.271   4.735
 8232TIP3    H124660   1.214   6.306   4.772
 8232TIP3    H224661   1.153   6.179   4.719
 8233TIP3   OH224662   2.962   3.973   3.962
 8233TIP3    H124663   2.961   4.036   4.034
 8233TIP3    H224664   3.054   3.970   3.934
 8234TIP3   OH224665   7.184   2.649   2.100
 8234TIP3    H124666   7.246   2.719   2.079
 8234TIP3    H224667   7.121   2.689   2.159
 8235TIP3   OH224668   3.802   3.234   5.483
 8235TIP3    H124669   3.727   3.255   5.539
 8235TIP3    H224670   3.873   3.288   5.516
 8236TIP3   OH224671   2.119   2.828   4.610
 8236TIP3    H124672   2.154   2.749   4.651
 8236TIP3    H224673   2.084   2.879   4.683
 8237TIP3   OH224674   4.878   3.519   2.629
 8237TIP3    H124675   4.879   3.614   2.617
 8237TIP3    H224676   4.953   3.502   2.685
 8238TIP3   OH224677   4.781   2.040   0.767
 8238TIP3    H124678   4.737   2.112   0.812
 8238TIP3    H224679   4.831   1.996   0.836
 8239TIP3   OH224680   6.531   0.641   4.621
 8239TIP3    H124681   6.500   0.551   4.608
 8239TIP3    H224682   6.456   0.687   4.659
 8240TIP3   OH224683   4.974   5.649   5.203
 8240TIP3    H124684   5.029   5.728   5.207
 8240TIP3    H224685   4.932   5.653   5.117
 8241TIP3   OH224686   4.512   3.784   1.101
 8241TIP3    H124687   4.531   3.827   1.017
 8241TIP3    H224688   4.502   3.857   1.163
 8242TIP3   OH224689   2.678   5.020   2.138
 8242TIP3    H124690   2.693   5.114   2.150
 8242TIP3    H224691   2.614   5.015   2.067
 8243TIP3   OH224692   2.702   5.786   4.895
 8243TIP3    H124693   2.668   5.697   4.904
 8243TIP3    H224694   2.790   5.782   4.930
 8244TIP3   OH224695   4.881   1.758   5.160
 8244TIP3    H124696   4.939   1.682   5.161
 8244TIP3    H224697   4.918   1.816   5.227
 8245TIP3   OH224698   2.459   6.675   0.988
 8245TIP3    H124699   2.490   6.757   1.027
 8245TIP3    H224700   2.515   6.663   0.911
 8246TIP3   OH224701   3.897   0.857   0.037
 8246TIP3    H124702   3.880   0.784   0.097
 8246TIP3    H224703   3.990   0.852   0.018
 8247TIP3   OH224704   0.620   3.641   2.914
 8247TIP3    H124705   0.638   3.596   2.831
 8247TIP3    H224706   0.674   3.595   2.978
 8248TIP3   OH224707   2.251   5.045   2.184
 8248TIP3    H124708   2.296   5.053   2.268
 8248TIP3    H224709   2.293   5.110   2.128
 8249TIP3   OH224710   1.463   1.709   3.366
 8249TIP3    H124711   1.476   1.737   3.457
 8249TIP3    H224712   1.459   1.613   3.371
 8250TIP3   OH224713   1.677   6.689   3.300
 8250TIP3    H124714   1.632   6.718   3.379
 8250TIP3    H224715   1.755   6.643   3.332
 8251TIP3   OH224716   6.033   0.612   2.397
 8251TIP3    H124717   5.954   0.613   2.451
 8251TIP3    H224718   6.037   0.522   2.363
 8252TIP3   OH224719   0.240   5.864   0.660
 8252TIP3    H124720   0.192   5.840   0.581
 8252TIP3    H224721   0.197   5.816   0.730
 8253TIP3   OH224722   6.904   1.833   1.123
 8253TIP3    H124723   6.861   1.782   1.054
 8253TIP3    H224724   6.959   1.769   1.169
 8254TIP3   OH224725   2.646   3.040   3.991
 8254TIP3    H124726   2.556   3.021   3.962
 8254TIP3    H224727   2.653   3.135   3.987
 8255TIP3   OH224728   3.052   0.192   2.729
 8255TIP3    H124729   3.073   0.119   2.671
 8255TIP3    H224730   3.040   0.152   2.815
 8256TIP3   OH224731   0.215   1.725   4.559
 8256TIP3    H124732   0.177   1.695   4.476
 8256TIP3    H224733   0.197   1.654   4.620
 8257TIP3   OH224734   3.074   1.511   5.336
 8257TIP3    H124735   2.984   1.530   5.311
 8257TIP3    H224736   3.127   1.547   5.265
 8258TIP3   OH224737   5.564   0.838   4.815
 8258TIP3    H124738   5.645   0.876   4.848
 8258TIP3    H224739   5.496   0.901   4.838
 8259TIP3   OH224740   6.351   4.289   3.033
 8259TIP3    H124741   6.404   4.273   3.111
 8259TIP3    H224742   6.291   4.358   3.058
 8260TIP3   OH224743   1.560   1.022   1.051
 8260TIP3    H124744   1.527   0.969   1.124
 8260TIP3    H224745   1.521   1.108   1.065
 8261TIP3   OH224746   1.001   2.062   0.298
 8261TIP3    H124747   1.082   2.049   0.250
 8261TIP3    H224748   0.932   2.057   0.231
 8262TIP3   OH224749   2.199   6.615   1.861
 8262TIP3    H124750   2.137   6.633   1.931
 8262TIP3    H224751   2.199   6.694   1.807
 8263TIP3   OH224752   3.684   0.647   4.584
 8263TIP3    H124753   3.682   0.662   4.679
 8263TIP3    H224754   3.685   0.552   4.574
 8264TIP3   OH224755   3.462   4.728   0.255
 8264TIP3    H124756   3.475   4.748   0.348
 8264TIP3    H224757   3.547   4.694   0.227
 8265TIP3   OH224758   4.107   0.938   2.398
 8265TIP3    H124759   4.050   0.985   2.337
 8265TIP3    H224760   4.101   0.846   2.370
 8266TIP3   OH224761   3.891   0.503   1.508
 8266TIP3    H124762   3.907   0.547   1.425
 8266TIP3    H224763   3.940   0.553   1.572
 8267TIP3   OH224764   6.931   6.249   0.792
 8267TIP3    H124765   6.866   6.231   0.724
 8267TIP3    H224766   7.014   6.251   0.745
 8268TIP3   OH224767   3.760   1.580   3.220
 8268TIP3    H124768   3.714   1.543   3.144
 8268TIP3    H224769   3.745   1.517   3.290
 8269TIP3   OH224770   7.078   5.932   3.266
 8269TIP3    H124771   6.990   5.947   3.232
 8269TIP3    H224772   7.111   5.858   3.216
 8270TIP3   OH224773   6.654   0.801   3.344
 8270TIP3    H124774   6.573   0.800   3.292
 8270TIP3    H224775   6.648   0.723   3.399
 8271TIP3   OH224776   2.526   3.494   2.653
 8271TIP3    H124777   2.462   3.528   2.715
 8271TIP3    H224778   2.515   3.548   2.574
 8272TIP3   OH224779   2.821   0.836   3.312
 8272TIP3    H124780   2.814   0.841   3.407
 8272TIP3    H224781   2.787   0.749   3.290
 8273TIP3   OH224782   4.359   0.374   5.558
 8273TIP3    H124783   4.435   0.364   5.502
 8273TIP3    H224784   4.343   0.287   5.594
 8274TIP3   OH224785   5.051   2.960   1.382
 8274TIP3    H124786   5.099   3.043   1.391
 8274TIP3    H224787   5.117   2.897   1.354
 8275TIP3   OH224788   4.765   5.149   1.777
 8275TIP3    H124789   4.713   5.107   1.708
 8275TIP3    H224790   4.703   5.207   1.821
 8276TIP3   OH224791   2.432   1.053   3.303
 8276TIP3    H124792   2.517   1.028   3.268
 8276TIP3    H224793   2.391   0.970   3.328
 8277TIP3   OH224794   6.569   6.704   0.303
 8277TIP3    H124795   6.644   6.663   0.348
 8277TIP3    H224796   6.497   6.697   0.366
 8278TIP3   OH224797   5.123   2.980   2.993
 8278TIP3    H124798   5.045   3.031   2.970
 8278TIP3    H224799   5.190   3.011   2.933
 8279TIP3   OH224800   6.839   4.366   2.955
 8279TIP3    H124801   6.801   4.443   2.998
 8279TIP3    H224802   6.903   4.402   2.894
 8280TIP3   OH224803   6.506   6.325   5.026
 8280TIP3    H124804   6.504   6.411   4.985
 8280TIP3    H224805   6.553   6.339   5.108
 8281TIP3   OH224806   2.052   4.654   0.044
 8281TIP3    H124807   2.087   4.665   0.132
 8281TIP3    H224808   1.957   4.655   0.056
 8282TIP3   OH224809   5.634   3.345   3.488
 8282TIP3    H124810   5.715   3.389   3.516
 8282TIP3    H224811   5.652   3.252   3.502
 8283TIP3   OH224812   3.537   0.814   2.990
 8283TIP3    H124813   3.608   0.773   2.940
 8283TIP3    H224814   3.510   0.746   3.052
 8284TIP3   OH224815   2.935   2.656   0.464
 8284TIP3    H124816   3.004   2.704   0.510
 8284TIP3    H224817   2.976   2.628   0.383
 8285TIP3   OH224818   2.631   2.205   0.968
 8285TIP3    H124819   2.699   2.212   0.901
 8285TIP3    H224820   2.632   2.291   1.011
 8286TIP3   OH224821   2.147   5.039   5.424
 8286TIP3    H124822   2.069   5.041   5.368
 8286TIP3    H224823   2.157   4.947   5.447
 8287TIP3   OH224824   4.266   4.408   1.777
 8287TIP3    H124825   4.281   4.409   1.871
 8287TIP3    H224826   4.269   4.315   1.753
 8288TIP3   OH224827   4.418   1.487   5.638
 8288TIP3    H124828   4.361   1.422   5.598
 8288TIP3    H224829   4.364   1.529   5.705
 8289TIP3   OH224830   4.247   5.190   1.871
 8289TIP3    H124831   4.205   5.276   1.872
 8289TIP3    H224832   4.193   5.137   1.813
 8290TIP3   OH224833   5.734   2.914   4.962
 8290TIP3    H124834   5.785   2.986   4.997
 8290TIP3    H224835   5.649   2.920   5.006
 8291TIP3   OH224836   1.763   2.875   0.306
 8291TIP3    H124837   1.790   2.785   0.322
 8291TIP3    H224838   1.672   2.868   0.274
 8292TIP3   OH224839   2.396   0.898   2.484
 8292TIP3    H124840   2.464   0.963   2.497
 8292TIP3    H224841   2.406   0.837   2.558
 8293TIP3   OH224842   2.455   5.740   4.277
 8293TIP3    H124843   2.461   5.660   4.225
 8293TIP3    H224844   2.374   5.781   4.249
 8294TIP3   OH224845   5.454   6.016   3.086
 8294TIP3    H124846   5.491   5.940   3.132
 8294TIP3    H224847   5.530   6.060   3.047
 8295TIP3   OH224848   2.648   2.258   0.290
 8295TIP3    H124849   2.696   2.305   0.357
 8295TIP3    H224850   2.655   2.314   0.212
 8296TIP3   OH224851   5.229   3.282   3.951
 8296TIP3    H124852   5.298   3.326   3.901
 8296TIP3    H224853   5.155   3.342   3.948
 8297TIP3   OH224854   3.702   4.590   2.968
 8297TIP3    H124855   3.654   4.529   2.912
 8297TIP3    H224856   3.727   4.537   3.044
 8298TIP3   OH224857   3.034   3.135   1.209
 8298TIP3    H124858   3.045   3.223   1.173
 8298TIP3    H224859   2.966   3.144   1.276
 8299TIP3   OH224860   7.208   5.453   5.748
 8299TIP3    H124861   7.228   5.361   5.731
 8299TIP3    H224862   7.184   5.489   5.662
 8300TIP3   OH224863   5.219   0.655   1.785
 8300TIP3    H124864   5.148   0.591   1.777
 8300TIP3    H224865   5.175   0.737   1.807
 8301TIP3   OH224866   5.699   0.068   1.671
 8301TIP3    H124867   5.773   0.011   1.649
 8301TIP3    H224868   5.718   0.151   1.628
 8302TIP3   OH224869   1.438   0.403   1.318
 8302TIP3    H124870   1.397   0.317   1.306
 8302TIP3    H224871   1.367   0.458   1.351
 8303TIP3   OH224872   3.557   4.836   3.664
 8303TIP3    H124873   3.554   4.928   3.690
 8303TIP3    H224874   3.482   4.825   3.605
 8304TIP3   OH224875   4.260   0.600   1.644
 8304TIP3    H124876   4.201   0.526   1.659
 8304TIP3    H224877   4.214   0.655   1.580
 8305TIP3   OH224878   1.932   1.638   1.395
 8305TIP3    H124879   1.911   1.546   1.379
 8305TIP3    H224880   2.022   1.637   1.426
 8306TIP3   OH224881   3.831   2.599   1.018
 8306TIP3    H124882   3.916   2.559   1.001
 8306TIP3    H224883   3.784   2.591   0.936
 8307TIP3   OH224884   0.118   0.260   5.399
 8307TIP3    H124885   0.107   0.233   5.490
 8307TIP3    H224886   0.127   0.355   5.402
 8308TIP3   OH224887   4.150   4.626   5.656
 8308TIP3    H124888   4.115   4.631   5.745
 8308TIP3    H224889   4.228   4.681   5.658
 8309TIP3   OH224890   6.964   3.873   5.646
 8309TIP3    H124891   7.050   3.838   5.666
 8309TIP3    H224892   6.960   3.956   5.694
 8310TIP3   OH224893   1.374   1.307   1.315
 8310TIP3    H124894   1.280   1.321   1.299
 8310TIP3    H224895   1.396   1.371   1.382
 8311TIP3   OH224896   3.521   0.879  -0.045
 8311TIP3    H124897   3.478   0.847   0.034
 8311TIP3    H224898   3.578   0.949  -0.015
 8312TIP3   OH224899   2.550   5.232   5.360
 8312TIP3    H124900   2.567   5.278   5.278
 8312TIP3    H224901   2.508   5.150   5.334
 8313TIP3   OH224902   5.668   4.943   5.604
 8313TIP3    H124903   5.683   4.952   5.510
 8313TIP3    H224904   5.729   5.004   5.645
 8314TIP3   OH224905   1.972   4.816   2.182
 8314TIP3    H124906   1.880   4.790   2.170
 8314TIP3    H224907   1.987   4.882   2.114
 8315TIP3   OH224908   1.964   5.138   4.970
 8315TIP3    H124909   1.973   5.233   4.958
 8315TIP3    H224910   1.871   5.126   4.990
 8316TIP3   OH224911   2.610   5.314   1.412
 8316TIP3    H124912   2.615   5.401   1.373
 8316TIP3    H224913   2.701   5.286   1.419
 8317TIP3   OH224914   2.083   4.545   0.479
 8317TIP3    H124915   2.136   4.523   0.403
 8317TIP3    H224916   2.010   4.596   0.443
 8318TIP3   OH224917   6.489   5.495   5.031
 8318TIP3    H124918   6.437   5.422   4.999
 8318TIP3    H224919   6.455   5.511   5.119
 8319TIP3   OH224920   6.043   6.561   4.060
 8319TIP3    H124921   6.083   6.474   4.065
 8319TIP3    H224922   6.113   6.622   4.082
 8320TIP3   OH224923   1.016   0.975   1.796
 8320TIP3    H124924   0.958   1.047   1.823
 8320TIP3    H224925   0.969   0.896   1.821
 8321TIP3   OH224926   7.058   4.868   4.235
 8321TIP3    H124927   7.109   4.936   4.191
 8321TIP3    H224928   7.017   4.913   4.309
 8322TIP3   OH224929   3.938   1.765   1.123
 8322TIP3    H124930   3.857   1.770   1.174
 8322TIP3    H224931   3.946   1.672   1.100
 8323TIP3   OH224932   0.078   6.791   5.515
 8323TIP3    H124933   0.085   6.810   5.422
 8323TIP3    H224934  -0.012   6.818   5.538
 8324TIP3   OH224935   0.088   1.522   4.398
 8324TIP3    H124936   0.024   1.571   4.449
 8324TIP3    H224937   0.060   1.431   4.406
 8325TIP3   OH224938   3.689   5.985   4.384
 8325TIP3    H124939   3.771   5.936   4.390
 8325TIP3    H224940   3.711   6.073   4.414
 8326TIP3   OH224941   2.834   0.899   4.166
 8326TIP3    H124942   2.792   0.815   4.152
 8326TIP3    H224943   2.878   0.891   4.250
 8327TIP3   OH224944   3.694   4.611   1.730
 8327TIP3    H124945   3.768   4.550   1.738
 8327TIP3    H224946   3.694   4.659   1.813
 8328TIP3   OH224947   6.747   4.493   5.115
 8328TIP3    H124948   6.678   4.553   5.089
 8328TIP3    H224949   6.703   4.410   5.131
 8329TIP3   OH224950   3.955   6.450   1.594
 8329TIP3    H124951   4.018   6.521   1.605
 8329TIP3    H224952   3.906   6.472   1.515
 8330TIP3   OH224953   2.889   4.741   1.507
 8330TIP3    H124954   2.827   4.698   1.448
 8330TIP3    H224955   2.860   4.717   1.595
 8331TIP3   OH224956   6.427   0.888   2.099
 8331TIP3    H124957   6.375   0.832   2.041
 8331TIP3    H224958   6.378   0.888   2.181
 8332TIP3   OH224959   3.568   1.188   0.691
 8332TIP3    H124960   3.536   1.098   0.692
 8332TIP3    H224961   3.606   1.201   0.777
 8333TIP3   OH224962   5.704   3.217   0.254
 8333TIP3    H124963   5.635   3.220   0.187
 8333TIP3    H224964   5.690   3.297   0.305
 8334TIP3   OH224965   2.635   3.207   2.050
 8334TIP3    H124966   2.703   3.272   2.035
 8334TIP3    H224967   2.619   3.169   1.963
 8335TIP3   OH224968   1.335   6.694   1.180
 8335TIP3    H124969   1.244   6.667   1.164
 8335TIP3    H224970   1.379   6.679   1.097
 8336TIP3   OH224971   5.682   0.535   4.509
 8336TIP3    H124972   5.754   0.535   4.571
 8336TIP3    H224973   5.633   0.615   4.529
 8337TIP3   OH224974   6.301   3.996   5.261
 8337TIP3    H124975   6.359   3.920   5.265
 8337TIP3    H224976   6.302   4.022   5.169
 8338TIP3   OH224977   6.054   0.604   0.244
 8338TIP3    H124978   6.005   0.671   0.292
 8338TIP3    H224979   6.087   0.545   0.311
 8339TIP3   OH224980   6.423   4.928   4.582
 8339TIP3    H124981   6.460   4.976   4.657
 8339TIP3    H224982   6.500   4.897   4.534
 8340TIP3   OH224983   1.618   3.536   3.188
 8340TIP3    H124984   1.602   3.489   3.107
 8340TIP3    H224985   1.635   3.468   3.253
 8341TIP3   OH224986   3.743   3.377   3.152
 8341TIP3    H124987   3.750   3.450   3.090
 8341TIP3    H224988   3.800   3.403   3.225
 8342TIP3   OH224989   5.882   5.383   5.284
 8342TIP3    H124990   5.962   5.408   5.238
 8342TIP3    H224991   5.812   5.396   5.219
 8343TIP3   OH224992   5.110   3.375   5.633
 8343TIP3    H124993   5.033   3.320   5.648
 8343TIP3    H224994   5.137   3.403   5.720
 8344TIP3   OH224995   1.423   1.574   5.286
 8344TIP3    H124996   1.497   1.545   5.339
 8344TIP3    H224997   1.410   1.666   5.310
 8345TIP3   OH224998   0.359   1.258   0.138
 8345TIP3    H124999   0.283   1.316   0.150
 8345TIP3    H225000   0.403   1.259   0.223
 8346TIP3   OH225001   1.175   3.506   4.087
 8346TIP3    H125002   1.133   3.589   4.063
 8346TIP3    H225003   1.201   3.518   4.178
 8347TIP3   OH225004   5.378   6.565   1.459
 8347TIP3    H125005   5.396   6.478   1.424
 8347TIP3    H225006   5.464   6.605   1.468
 8348TIP3   OH225007   4.973   6.227   5.349
 8348TIP3    H125008   5.040   6.291   5.375
 8348TIP3    H225009   4.897   6.250   5.402
 8349TIP3   OH225010   4.383   1.996   0.505
 8349TIP3    H125011   4.422   1.917   0.468
 8349TIP3    H225012   4.406   2.065   0.443
 8350TIP3   OH225013   0.092   3.857   4.033
 8350TIP3    H125014   0.024   3.896   3.979
 8350TIP3    H225015   0.096   3.913   4.111
 8351TIP3   OH225016   5.627   0.358   0.535
 8351TIP3    H125017   5.721   0.356   0.514
 8351TIP3    H225018   5.607   0.451   0.548
 8352TIP3   OH225019   2.435   0.486   3.096
 8352TIP3    H125020   2.363   0.457   3.040
 8352TIP3    H225021   2.458   0.573   3.062
 8353TIP3   OH225022   4.635   2.831   4.077
 8353TIP3    H125023   4.643   2.899   4.144
 8353TIP3    H225024   4.692   2.861   4.006
 8354TIP3   OH225025   5.237   4.374   2.389
 8354TIP3    H125026   5.163   4.378   2.449
 8354TIP3    H225027   5.214   4.435   2.319
 8355TIP3   OH225028   5.506   0.973   3.592
 8355TIP3    H125029   5.507   0.877   3.585
 8355TIP3    H225030   5.415   0.995   3.609
 8356TIP3   OH225031   4.696   4.754   1.754
 8356TIP3    H125032   4.676   4.816   1.684
 8356TIP3    H225033   4.771   4.793   1.800
 8357TIP3   OH225034   4.299   4.151   1.695
 8357TIP3    H125035   4.386   4.145   1.657
 8357TIP3    H225036   4.294   4.076   1.755
 8358TIP3   OH225037   1.236   4.454   1.575
 8358TIP3    H125038   1.213   4.457   1.668
 8358TIP3    H225039   1.165   4.404   1.534
 8359TIP3   OH225040   4.898   0.758   2.632
 8359TIP3    H125041   4.917   0.812   2.555
 8359TIP3    H225042   4.823   0.800   2.673
 8360TIP3   OH225043   5.942   5.917   4.212
 8360TIP3    H125044   5.932   6.008   4.240
 8360TIP3    H225045   5.852   5.885   4.202
 8361TIP3   OH225046  -0.064   1.511   0.136
 8361TIP3    H125047   0.025   1.478   0.122
 8361TIP3    H225048  -0.053   1.605   0.147
 8362TIP3   OH225049   3.095   1.356   3.453
 8362TIP3    H125050   3.121   1.326   3.366
 8362TIP3    H225051   3.003   1.381   3.444
 8363TIP3   OH225052   4.881   4.163   0.682
 8363TIP3    H125053   4.942   4.215   0.733
 8363TIP3    H225054   4.828   4.117   0.747
 8364TIP3   OH225055   1.429   0.902   1.289
 8364TIP3    H125056   1.353   0.846   1.305
 8364TIP3    H225057   1.413   0.980   1.343
 8365TIP3   OH225058   5.392   0.767   2.607
 8365TIP3    H125059   5.330   0.704   2.571
 8365TIP3    H225060   5.374   0.767   2.701
 8366TIP3   OH225061   0.270  -0.013   3.049
 8366TIP3    H125062   0.337  -0.005   3.117
 8366TIP3    H225063   0.193   0.030   3.086
 8367TIP3   OH225064   4.103   4.673   5.269
 8367TIP3    H125065   4.039   4.627   5.323
 8367TIP3    H225066   4.090   4.637   5.181
 8368TIP3   OH225067   5.147   5.684   4.304
 8368TIP3    H125068   5.133   5.755   4.366
 8368TIP3    H225069   5.126   5.605   4.354
 8369TIP3   OH225070   3.687   5.152   4.828
 8369TIP3    H125071   3.721   5.118   4.746
 8369TIP3    H225072   3.594   5.165   4.812
 8370TIP3   OH225073   2.868   5.759   0.646
 8370TIP3    H125074   2.836   5.808   0.570
 8370TIP3    H225075   2.963   5.760   0.637
 8371TIP3   OH225076   4.294   3.990   3.038
 8371TIP3    H125077   4.374   3.937   3.040
 8371TIP3    H225078   4.321   4.076   3.070
 8372TIP3   OH225079   6.884   6.110   2.450
 8372TIP3    H125080   6.881   6.069   2.536
 8372TIP3    H225081   6.977   6.113   2.428
 8373TIP3   OH225082   7.199   4.059   0.578
 8373TIP3    H125083   7.244   4.013   0.507
 8373TIP3    H225084   7.176   4.144   0.541
 8374TIP3   OH225085   5.934   2.889   2.635
 8374TIP3    H125086   6.026   2.898   2.611
 8374TIP3    H225087   5.909   2.976   2.666
 8375TIP3   OH225088   4.648   2.200   4.999
 8375TIP3    H125089   4.594   2.121   4.993
 8375TIP3    H225090   4.733   2.174   4.966
 8376TIP3   OH225091   7.171   4.154   5.429
 8376TIP3    H125092   7.230   4.191   5.363
 8376TIP3    H225093   7.106   4.106   5.379
 8377TIP3   OH225094   2.301   4.651   0.597
 8377TIP3    H125095   2.279   4.734   0.555
 8377TIP3    H225096   2.218   4.602   0.599
 8378TIP3   OH225097   7.161   6.707   2.025
 8378TIP3    H125098   7.075   6.689   1.989
 8378TIP3    H225099   7.219   6.712   1.949
 8379TIP3   OH225100   1.520   4.930   1.850
 8379TIP3    H125101   1.481   4.864   1.792
 8379TIP3    H225102   1.492   5.014   1.814
 8380TIP3   OH225103   4.906   5.727   4.952
 8380TIP3    H125104   4.826   5.702   4.905
 8380TIP3    H225105   4.927   5.814   4.918
 8381TIP3   OH225106   2.531   4.329   4.681
 8381TIP3    H125107   2.553   4.261   4.616
 8381TIP3    H225108   2.528   4.410   4.631
 8382TIP3   OH225109   4.549   2.942   0.096
 8382TIP3    H125110   4.493   2.865   0.103
 8382TIP3    H225111   4.574   2.962   0.186
 8383TIP3   OH225112   4.420   5.829   4.667
 8383TIP3    H125113   4.340   5.825   4.616
 8383TIP3    H225114   4.458   5.914   4.645
 8384TIP3   OH225115   0.023   1.947   0.478
 8384TIP3    H125116   0.059   1.859   0.485
 8384TIP3    H225117   0.049   1.977   0.391
 8385TIP3   OH225118   2.084   3.613   4.563
 8385TIP3    H125119   2.174   3.584   4.579
 8385TIP3    H225120   2.087   3.708   4.574
 8386TIP3   OH225121   6.243   3.045   3.791
 8386TIP3    H125122   6.322   3.054   3.845
 8386TIP3    H225123   6.251   2.959   3.752
 8387TIP3   OH225124   3.432   4.413   1.382
 8387TIP3    H125125   3.469   4.329   1.410
 8387TIP3    H225126   3.357   4.389   1.328
 8388TIP3   OH225127   2.275   1.451   4.794
 8388TIP3    H125128   2.323   1.512   4.851
 8388TIP3    H225129   2.329   1.372   4.793
 8389TIP3   OH225130   0.709   1.534   5.772
 8389TIP3    H125131   0.626   1.574   5.745
 8389TIP3    H225132   0.683   1.456   5.822
 8390TIP3   OH225133   4.693   3.170   3.202
 8390TIP3    H125134   4.755   3.106   3.167
 8390TIP3    H225135   4.734   3.201   3.283
 8391TIP3   OH225136   2.199   0.466   4.665
 8391TIP3    H125137   2.240   0.383   4.689
 8391TIP3    H225138   2.105   0.452   4.679
 8392TIP3   OH225139   6.963   5.354   5.525
 8392TIP3    H125140   7.014   5.434   5.514
 8392TIP3    H225141   6.952   5.344   5.620
 8393TIP3   OH225142   5.007   1.674   2.591
 8393TIP3    H125143   4.997   1.631   2.677
 8393TIP3    H225144   5.096   1.708   2.592
 8394TIP3   OH225145   2.928   6.227   4.125
 8394TIP3    H125146   2.968   6.176   4.054
 8394TIP3    H225147   2.944   6.318   4.101
 8395TIP3   OH225148   4.673   6.221   4.816
 8395TIP3    H125149   4.728   6.299   4.812
 8395TIP3    H225150   4.717   6.158   4.759
 8396TIP3   OH225151   2.653   4.118   3.435
 8396TIP3    H125152   2.566   4.156   3.427
 8396TIP3    H225153   2.679   4.138   3.525
 8397TIP3   OH225154   2.208   3.148   2.820
 8397TIP3    H125155   2.285   3.093   2.837
 8397TIP3    H225156   2.214   3.217   2.885
 8398TIP3   OH225157   3.707   5.417   3.873
 8398TIP3    H125158   3.701   5.323   3.851
 8398TIP3    H225159   3.756   5.455   3.801
 8399TIP3   OH225160   1.120   4.406   5.184
 8399TIP3    H125161   1.211   4.424   5.160
 8399TIP3    H225162   1.100   4.470   5.252
 8400TIP3   OH225163   6.036   4.481   3.588
 8400TIP3    H125164   6.052   4.521   3.674
 8400TIP3    H225165   6.031   4.554   3.527
 8401TIP3   OH225166   6.252   0.284   4.806
 8401TIP3    H125167   6.189   0.307   4.738
 8401TIP3    H225168   6.205   0.297   4.889
 8402TIP3   OH225169   6.598   4.789   4.415
 8402TIP3    H125170   6.693   4.788   4.417
 8402TIP3    H225171   6.571   4.708   4.459
 8403TIP3   OH225172   5.478   4.990   1.672
 8403TIP3    H125173   5.415   5.050   1.631
 8403TIP3    H225174   5.556   5.044   1.687
 8404TIP3   OH225175   3.630   1.113   0.083
 8404TIP3    H125176   3.574   1.186   0.109
 8404TIP3    H225177   3.702   1.153   0.034
 8405TIP3   OH225178   0.368   1.276   2.393
 8405TIP3    H125179   0.359   1.181   2.399
 8405TIP3    H225180   0.389   1.303   2.482
 8406TIP3   OH225181   7.100   6.419   5.616
 8406TIP3    H125182   7.078   6.326   5.608
 8406TIP3    H225183   7.017   6.462   5.634
 8407TIP3   OH225184   6.360   1.874   3.939
 8407TIP3    H125185   6.384   1.807   4.004
 8407TIP3    H225186   6.406   1.848   3.859
 8408TIP3   OH225187   3.276   0.056   4.363
 8408TIP3    H125188   3.216   0.091   4.428
 8408TIP3    H225189   3.287   0.127   4.299
 8409TIP3   OH225190   3.792   1.551   4.334
 8409TIP3    H125191   3.747   1.539   4.250
 8409TIP3    H225192   3.884   1.565   4.311
 8410TIP3   OH225193   5.197   3.005   0.066
 8410TIP3    H125194   5.175   3.034  -0.023
 8410TIP3    H225195   5.264   2.938   0.053
 8411TIP3   OH225196   0.573   1.320   3.100
 8411TIP3    H125197   0.575   1.279   3.187
 8411TIP3    H225198   0.481   1.334   3.082
 8412TIP3   OH225199   0.213   3.172   2.403
 8412TIP3    H125200   0.286   3.129   2.448
 8412TIP3    H225201   0.151   3.101   2.385
 8413TIP3   OH225202   5.705   0.434   4.928
 8413TIP3    H125203   5.634   0.497   4.917
 8413TIP3    H225204   5.661   0.350   4.938
 8414TIP3   OH225205   1.969   6.384   2.998
 8414TIP3    H125206   1.927   6.466   2.974
 8414TIP3    H225207   1.910   6.316   2.967
 8415TIP3   OH225208   4.335   4.771   4.026
 8415TIP3    H125209   4.267   4.815   4.077
 8415TIP3    H225210   4.300   4.684   4.007
 8416TIP3   OH225211   1.839   4.431   5.710
 8416TIP3    H125212   1.798   4.392   5.787
 8416TIP3    H225213   1.815   4.523   5.713
 8417TIP3   OH225214   4.882   2.459   5.543
 8417TIP3    H125215   4.818   2.525   5.517
 8417TIP3    H225216   4.833   2.399   5.599
 8418TIP3   OH225217   5.071   5.988   5.471
 8418TIP3    H125218   5.157   5.995   5.428
 8418TIP3    H225219   5.020   6.059   5.433
 8419TIP3   OH225220   4.703   3.322   1.868
 8419TIP3    H125221   4.631   3.362   1.916
 8419TIP3    H225222   4.771   3.390   1.865
 8420TIP3   OH225223   2.397   1.768   3.228
 8420TIP3    H125224   2.403   1.846   3.174
 8420TIP3    H225225   2.460   1.707   3.189
 8421TIP3   OH225226   3.140   5.131   1.811
 8421TIP3    H125227   3.093   5.179   1.879
 8421TIP3    H225228   3.087   5.053   1.795
 8422TIP3   OH225229   3.030   0.958   0.090
 8422TIP3    H125230   3.106   0.930   0.040
 8422TIP3    H225231   2.965   0.889   0.076
 8423TIP3   OH225232   6.946   0.761   0.950
 8423TIP3    H125233   6.952   0.676   0.907
 8423TIP3    H225234   6.980   0.823   0.886
 8424TIP3   OH225235   5.386   0.109   4.275
 8424TIP3    H125236   5.462   0.142   4.323
 8424TIP3    H225237   5.316   0.105   4.340
 8425TIP3   OH225238   4.752   1.963   2.299
 8425TIP3    H125239   4.805   1.885   2.314
 8425TIP3    H225240   4.803   2.015   2.237
 8426TIP3   OH225241   4.498   0.708   1.567
 8426TIP3    H125242   4.515   0.750   1.652
 8426TIP3    H225243   4.407   0.679   1.572
 8427TIP3   OH225244   1.953   3.866   5.504
 8427TIP3    H125245   1.894   3.872   5.579
 8427TIP3    H225246   1.918   3.794   5.451
 8428TIP3   OH225247   5.182   2.098   1.515
 8428TIP3    H125248   5.164   2.124   1.424
 8428TIP3    H225249   5.109   2.136   1.565
 8429TIP3   OH225250   3.321   5.483   5.909
 8429TIP3    H125251   3.337   5.498   5.816
 8429TIP3    H225252   3.388   5.420   5.935
 8430TIP3   OH225253   5.063   1.319   2.050
 8430TIP3    H125254   5.035   1.271   1.973
 8430TIP3    H225255   5.098   1.253   2.109
 8431TIP3   OH225256   4.699   3.605   5.697
 8431TIP3    H125257   4.646   3.582   5.773
 8431TIP3    H225258   4.644   3.665   5.647
 8432TIP3   OH225259   7.146   0.495   5.532
 8432TIP3    H125260   7.057   0.474   5.503
 8432TIP3    H225261   7.189   0.532   5.454
 8433TIP3   OH225262   4.550   6.697   0.133
 8433TIP3    H125263   4.520   6.667   0.219
 8433TIP3    H225264   4.600   6.776   0.151
 8434TIP3   OH225265   5.393   0.791   2.881
 8434TIP3    H125266   5.299   0.810   2.883
 8434TIP3    H225267   5.428   0.832   2.960
 8435TIP3   OH225268   5.430   1.936   2.220
 8435TIP3    H125269   5.462   1.946   2.130
 8435TIP3    H225270   5.493   1.986   2.272
 8436TIP3   OH225271   0.420   0.320   2.420
 8436TIP3    H125272   0.433   0.295   2.328
 8436TIP3    H225273   0.475   0.397   2.432
 8437TIP3   OH225274   5.060   4.241   1.007
 8437TIP3    H125275   5.077   4.297   1.083
 8437TIP3    H225276   4.995   4.179   1.037
 8438TIP3   OH225277   4.851   4.329   0.044
 8438TIP3    H125278   4.763   4.291   0.035
 8438TIP3    H225279   4.854   4.362   0.134
 8439TIP3   OH225280   3.629   2.979   3.261
 8439TIP3    H125281   3.679   3.021   3.331
 8439TIP3    H225282   3.677   3.002   3.181
 8440TIP3   OH225283   3.784  -0.030   5.046
 8440TIP3    H125284   3.729  -0.014   4.970
 8440TIP3    H225285   3.867   0.013   5.025
 8441TIP3   OH225286   0.244   1.867   0.307
 8441TIP3    H125287   0.281   1.953   0.290
 8441TIP3    H225288   0.318   1.807   0.298
 8442TIP3   OH225289   4.163   4.518   3.744
 8442TIP3    H125290   4.239   4.473   3.707
 8442TIP3    H225291   4.104   4.447   3.771
 8443TIP3   OH225292   3.883   0.799   0.363
 8443TIP3    H125293   3.808   0.854   0.338
 8443TIP3    H225294   3.940   0.858   0.412
 8444TIP3   OH225295   5.226   5.860   3.055
 8444TIP3    H125296   5.297   5.922   3.074
 8444TIP3    H225297   5.244   5.785   3.111
 8445TIP3   OH225298   6.775   6.162   4.823
 8445TIP3    H125299   6.790   6.255   4.805
 8445TIP3    H225300   6.783   6.155   4.918
 8446TIP3   OH225301   0.698   5.818   3.883
 8446TIP3    H125302   0.625   5.854   3.833
 8446TIP3    H225303   0.770   5.813   3.820
 8447TIP3   OH225304   4.085   1.492   3.015
 8447TIP3    H125305   4.179   1.479   3.030
 8447TIP3    H225306   4.060   1.561   3.077
 8448TIP3   OH225307   3.815   1.584   2.905
 8448TIP3    H125308   3.884   1.521   2.882
 8448TIP3    H225309   3.820   1.591   3.000
 8449TIP3   OH225310   2.534   1.863   5.246
 8449TIP3    H125311   2.472   1.840   5.315
 8449TIP3    H225312   2.585   1.784   5.231
 8450TIP3   OH225313   6.181   4.836   3.694
 8450TIP3    H125314   6.125   4.807   3.766
 8450TIP3    H225315   6.217   4.919   3.724
 8451TIP3   OH225316   6.029   2.172   1.372
 8451TIP3    H125317   5.979   2.178   1.291
 8451TIP3    H225318   6.021   2.259   1.411
 8452TIP3   OH225319   2.286   6.160   3.644
 8452TIP3    H125320   2.371   6.116   3.640
 8452TIP3    H225321   2.232   6.113   3.581
 8453TIP3   OH225322   2.463   3.789   1.276
 8453TIP3    H125323   2.542   3.799   1.223
 8453TIP3    H225324   2.484   3.720   1.339
 8454TIP3   OH225325   3.224   5.207   4.773
 8454TIP3    H125326   3.165   5.156   4.828
 8454TIP3    H225327   3.270   5.265   4.834
 8455TIP3   OH225328   5.287   4.340   0.315
 8455TIP3    H125329   5.234   4.303   0.386
 8455TIP3    H225330   5.351   4.272   0.295
 8456TIP3   OH225331   0.753   6.757   5.000
 8456TIP3    H125332   0.685   6.825   4.999
 8456TIP3    H225333   0.739   6.711   5.083
 8457TIP3   OH225334   6.687   3.183   4.022
 8457TIP3    H125335   6.610   3.204   4.074
 8457TIP3    H225336   6.668   3.097   3.984
 8458TIP3   OH225337   6.951   3.686   1.833
 8458TIP3    H125338   6.926   3.656   1.745
 8458TIP3    H225339   6.879   3.743   1.860
 8459TIP3   OH225340   6.382   3.235   0.993
 8459TIP3    H125341   6.316   3.213   0.927
 8459TIP3    H225342   6.331   3.260   1.070
 8460TIP3   OH225343   3.621   0.325   0.718
 8460TIP3    H125344   3.530   0.341   0.693
 8460TIP3    H225345   3.641   0.393   0.783
 8461TIP3   OH225346   1.816   1.073   3.470
 8461TIP3    H125347   1.788   1.106   3.556
 8461TIP3    H225348   1.905   1.040   3.485
 8462TIP3   OH225349   0.910   4.179   0.386
 8462TIP3    H125350   0.919   4.265   0.427
 8462TIP3    H225351   0.983   4.173   0.325
 8463TIP3   OH225352   7.098   1.317   2.683
 8463TIP3    H125353   7.127   1.263   2.757
 8463TIP3    H225354   7.139   1.275   2.607
 8464TIP3   OH225355   1.604   0.667   1.305
 8464TIP3    H125356   1.552   0.595   1.268
 8464TIP3    H225357   1.544   0.741   1.309
 8465TIP3   OH225358   5.561   2.685   0.803
 8465TIP3    H125359   5.593   2.649   0.885
 8465TIP3    H225360   5.627   2.662   0.738
 8466TIP3   OH225361   2.814   3.343   3.698
 8466TIP3    H125362   2.782   3.269   3.647
 8466TIP3    H225363   2.897   3.312   3.736
 8467TIP3   OH225364   0.727   2.445   2.951
 8467TIP3    H125365   0.685   2.364   2.980
 8467TIP3    H225366   0.696   2.457   2.861
 8468TIP3   OH225367   6.128   4.111   4.888
 8468TIP3    H125368   6.103   4.019   4.898
 8468TIP3    H225369   6.212   4.118   4.934
 8469TIP3   OH225370   1.200   1.735   2.124
 8469TIP3    H125371   1.136   1.665   2.120
 8469TIP3    H225372   1.178   1.784   2.203
 8470TIP3   OH225373   2.130   3.756   2.563
 8470TIP3    H125374   2.055   3.812   2.544
 8470TIP3    H225375   2.099   3.667   2.548
 8471TIP3   OH225376   4.925   3.239   3.382
 8471TIP3    H125377   4.958   3.261   3.295
 8471TIP3    H225378   4.998   3.193   3.424
 8472TIP3   OH225379   4.375   4.665   1.775
 8472TIP3    H125380   4.382   4.570   1.765
 8472TIP3    H225381   4.327   4.694   1.698
 8473TIP3   OH225382   1.046   5.736   4.197
 8473TIP3    H125383   1.056   5.831   4.197
 8473TIP3    H225384   1.117   5.704   4.252
 8474TIP3   OH225385   7.166   3.653   1.342
 8474TIP3    H125386   7.146   3.560   1.334
 8474TIP3    H225387   7.084   3.698   1.319
 8475TIP3   OH225388   6.645   2.464   3.545
 8475TIP3    H125389   6.565   2.452   3.495
 8475TIP3    H225390   6.713   2.477   3.480
 8476TIP3   OH225391   3.880   5.973   5.221
 8476TIP3    H125392   3.851   6.061   5.248
 8476TIP3    H225393   3.913   5.933   5.302
 8477TIP3   OH225394   3.229   1.817   1.281
 8477TIP3    H125395   3.301   1.754   1.289
 8477TIP3    H225396   3.213   1.823   1.187
 8478TIP3   OH225397   3.868   0.784   1.318
 8478TIP3    H125398   3.888   0.853   1.381
 8478TIP3    H225399   3.943   0.783   1.258
 8479TIP3   OH225400   0.417   6.628   4.966
 8479TIP3    H125401   0.469   6.609   5.044
 8479TIP3    H225402   0.473   6.601   4.893
 8480TIP3   OH225403   5.435   0.614   5.518
 8480TIP3    H125404   5.391   0.637   5.600
 8480TIP3    H225405   5.470   0.527   5.534
 8481TIP3   OH225406   3.703   2.944   4.632
 8481TIP3    H125407   3.718   2.963   4.540
 8481TIP3    H225408   3.789   2.920   4.666
 8482TIP3   OH225409   2.907   5.520   1.849
 8482TIP3    H125410   2.844   5.456   1.816
 8482TIP3    H225411   2.913   5.501   1.942
 8483TIP3   OH225412   6.040   5.462   1.521
 8483TIP3    H125413   5.961   5.479   1.573
 8483TIP3    H225414   6.062   5.547   1.483
 8484TIP3   OH225415   0.569   4.732   3.088
 8484TIP3    H125416   0.590   4.745   2.995
 8484TIP3    H225417   0.489   4.782   3.102
 8485TIP3   OH225418   2.215   4.728   0.256
 8485TIP3    H125419   2.159   4.792   0.300
 8485TIP3    H225420   2.304   4.751   0.283
 8486TIP3   OH225421   6.598   3.615   2.862
 8486TIP3    H125422   6.691   3.635   2.847
 8486TIP3    H225423   6.570   3.679   2.927
 8487TIP3   OH225424   0.706   5.093   3.426
 8487TIP3    H125425   0.716   5.050   3.341
 8487TIP3    H225426   0.621   5.063   3.458
 8488TIP3   OH225427   2.113   4.401   0.736
 8488TIP3    H125428   2.079   4.458   0.668
 8488TIP3    H225429   2.056   4.417   0.812
 8489TIP3   OH225430   2.331   1.469   1.783
 8489TIP3    H125431   2.366   1.461   1.694
 8489TIP3    H225432   2.317   1.563   1.795
 8490TIP3   OH225433   5.996   5.806   2.275
 8490TIP3    H125434   6.089   5.829   2.278
 8490TIP3    H225435   5.951   5.890   2.277
 8491TIP3   OH225436   6.475   3.770   3.685
 8491TIP3    H125437   6.521   3.819   3.617
 8491TIP3    H225438   6.384   3.766   3.655
 8492TIP3   OH225439   5.584   1.625   4.956
 8492TIP3    H125440   5.541   1.678   5.023
 8492TIP3    H225441   5.573   1.676   4.875
 8493TIP3   OH225442   4.501   1.832   5.677
 8493TIP3    H125443   4.526   1.848   5.769
 8493TIP3    H225444   4.501   1.919   5.637
 8494TIP3   OH225445   6.510   2.642   1.613
 8494TIP3    H125446   6.604   2.640   1.634
 8494TIP3    H225447   6.467   2.602   1.688
 8495TIP3   OH225448   3.043   1.551   3.697
 8495TIP3    H125449   3.065   1.622   3.758
 8495TIP3    H225450   2.955   1.573   3.666
 8496TIP3   OH225451   3.594   3.792   3.763
 8496TIP3    H125452   3.530   3.863   3.774
 8496TIP3    H225453   3.581   3.736   3.840
 8497TIP3   OH225454   1.972   1.287   2.488
 8497TIP3    H125455   1.880   1.264   2.478
 8497TIP3    H225456   1.972   1.378   2.516
 8498TIP3   OH225457   5.503   4.665   1.488
 8498TIP3    H125458   5.598   4.680   1.485
 8498TIP3    H225459   5.466   4.752   1.496
 8499TIP3   OH225460   1.196   1.362   5.301
 8499TIP3    H125461   1.248   1.441   5.319
 8499TIP3    H225462   1.261   1.292   5.293
 8500TIP3   OH225463   4.092   3.887   3.183
 8500TIP3    H125464   4.134   3.872   3.267
 8500TIP3    H225465   4.164   3.913   3.125
 8501TIP3   OH225466   0.489   4.693   4.016
 8501TIP3    H125467   0.540   4.612   4.021
 8501TIP3    H225468   0.438   4.693   4.098
 8502TIP3   OH225469   3.496   1.722   1.616
 8502TIP3    H125470   3.456   1.639   1.641
 8502TIP3    H225471   3.576   1.728   1.669
 8503TIP3   OH225472   3.487   2.087   0.499
 8503TIP3    H125473   3.548   2.021   0.468
 8503TIP3    H225474   3.519   2.169   0.462
 8504TIP3   OH225475   3.914   2.632   4.858
 8504TIP3    H125476   3.940   2.675   4.777
 8504TIP3    H225477   3.877   2.702   4.911
 8505TIP3   OH225478   3.164   3.532   0.412
 8505TIP3    H125479   3.123   3.619   0.407
 8505TIP3    H225480   3.097   3.477   0.452
 8506TIP3   OH225481   3.767   3.074   3.503
 8506TIP3    H125482   3.739   3.073   3.595
 8506TIP3    H225483   3.819   3.153   3.494
 8507TIP3   OH225484   3.834   6.453   3.900
 8507TIP3    H125485   3.836   6.384   3.966
 8507TIP3    H225486   3.921   6.451   3.860
 8508TIP3   OH225487   1.494   1.900   1.252
 8508TIP3    H125488   1.533   1.907   1.339
 8508TIP3    H225489   1.506   1.986   1.212
 8509TIP3   OH225490   4.517   1.239   0.861
 8509TIP3    H125491   4.490   1.183   0.788
 8509TIP3    H225492   4.604   1.207   0.885
 8510TIP3   OH225493   6.619   3.635   5.851
 8510TIP3    H125494   6.539   3.598   5.889
 8510TIP3    H225495   6.685   3.567   5.864
 8511TIP3   OH225496   6.440   3.776   1.642
 8511TIP3    H125497   6.454   3.844   1.576
 8511TIP3    H225498   6.394   3.820   1.713
 8512TIP3   OH225499   6.728   1.902   4.670
 8512TIP3    H125500   6.780   1.852   4.607
 8512TIP3    H225501   6.637   1.879   4.650
 8513TIP3   OH225502   0.259   3.440   4.720
 8513TIP3    H125503   0.183   3.454   4.776
 8513TIP3    H225504   0.267   3.521   4.669
 8514TIP3   OH225505   0.867   4.092   2.446
 8514TIP3    H125506   0.812   4.091   2.525
 8514TIP3    H225507   0.805   4.091   2.373
 8515TIP3   OH225508   0.117   1.244   0.473
 8515TIP3    H125509   0.084   1.300   0.543
 8515TIP3    H225510   0.212   1.252   0.477
 8516TIP3   OH225511   6.116   5.677   3.238
 8516TIP3    H125512   6.115   5.672   3.142
 8516TIP3    H225513   6.187   5.618   3.264
 8517TIP3   OH225514   1.381   0.572   5.706
 8517TIP3    H125515   1.410   0.563   5.796
 8517TIP3    H225516   1.412   0.658   5.678
 8518TIP3   OH225517   0.297   2.758   2.595
 8518TIP3    H125518   0.283   2.753   2.501
 8518TIP3    H225519   0.209   2.766   2.632
 8519TIP3   OH225520   5.557   5.030   3.289
 8519TIP3    H125521   5.578   5.071   3.205
 8519TIP3    H225522   5.464   5.047   3.301
 8520TIP3   OH225523   1.512   6.519   4.679
 8520TIP3    H125524   1.560   6.440   4.654
 8520TIP3    H225525   1.447   6.530   4.610
 8521TIP3   OH225526   0.225   5.956   1.021
 8521TIP3    H125527   0.318   5.936   1.011
 8521TIP3    H225528   0.180   5.888   0.971
 8522TIP3   OH225529   3.066   1.658   2.063
 8522TIP3    H125530   3.021   1.725   2.012
 8522TIP3    H225531   3.043   1.575   2.021
 8523TIP3   OH225532   0.177   3.501   4.029
 8523TIP3    H125533   0.137   3.442   4.093
 8523TIP3    H225534   0.197   3.446   3.954
 8524TIP3   OH225535   1.951   0.546   1.213
 8524TIP3    H125536   1.879   0.609   1.206
 8524TIP3    H225537   1.999   0.573   1.291
 8525TIP3   OH225538   1.634   2.018   4.265
 8525TIP3    H125539   1.596   1.973   4.190
 8525TIP3    H225540   1.718   2.052   4.233
 8526TIP3   OH225541   0.208   3.590   3.578
 8526TIP3    H125542   0.278   3.525   3.580
 8526TIP3    H225543   0.199   3.618   3.669
 8527TIP3   OH225544   3.413   1.670   2.472
 8527TIP3    H125545   3.366   1.652   2.553
 8527TIP3    H225546   3.470   1.744   2.493
 8528TIP3   OH225547   6.077   5.306   4.747
 8528TIP3    H125548   6.108   5.394   4.768
 8528TIP3    H225549   5.986   5.305   4.777
 8529TIP3   OH225550   4.634   0.515   3.724
 8529TIP3    H125551   4.633   0.488   3.632
 8529TIP3    H225552   4.636   0.610   3.722
 8530TIP3   OH225553   1.075   1.946   5.049
 8530TIP3    H125554   1.057   1.973   5.139
 8530TIP3    H225555   1.163   1.979   5.031
 8531TIP3   OH225556   1.330   0.044   2.762
 8531TIP3    H125557   1.411  -0.005   2.774
 8531TIP3    H225558   1.264  -0.022   2.739
 8532TIP3   OH225559   1.060   3.021   2.854
 8532TIP3    H125560   1.088   3.005   2.763
 8532TIP3    H225561   0.971   2.985   2.858
 8533TIP3   OH225562   4.037   5.876   5.411
 8533TIP3    H125563   3.989   5.861   5.492
 8533TIP3    H225564   4.119   5.827   5.422
 8534TIP3   OH225565   2.423   4.806   1.741
 8534TIP3    H125566   2.423   4.717   1.706
 8534TIP3    H225567   2.338   4.842   1.716
 8535TIP3   OH225568   1.940   3.187   4.874
 8535TIP3    H125569   1.926   3.277   4.845
 8535TIP3    H225570   1.961   3.140   4.793
 8536TIP3   OH225571   6.499   0.848   1.285
 8536TIP3    H125572   6.591   0.846   1.257
 8536TIP3    H225573   6.476   0.755   1.294
 8537TIP3   OH225574   4.019   2.126   2.798
 8537TIP3    H125575   4.084   2.136   2.728
 8537TIP3    H225576   4.070   2.134   2.879
 8538TIP3   OH225577   1.932   5.755   0.190
 8538TIP3    H125578   1.927   5.812   0.267
 8538TIP3    H225579   2.025   5.739   0.178
 8539TIP3   OH225580   0.705   4.718   2.435
 8539TIP3    H125581   0.662   4.802   2.421
 8539TIP3    H225582   0.798   4.740   2.445
 8540TIP3   OH225583   0.372   0.895   4.996
 8540TIP3    H125584   0.424   0.873   5.073
 8540TIP3    H225585   0.281   0.893   5.027
 8541TIP3   OH225586   5.210   3.293  -0.011
 8541TIP3    H125587   5.118   3.310  -0.033
 8541TIP3    H225588   5.209   3.268   0.081
 8542TIP3   OH225589   2.274   5.610   3.171
 8542TIP3    H125590   2.323   5.545   3.221
 8542TIP3    H225591   2.271   5.575   3.082
 8543TIP3   OH225592   4.939   1.266   2.356
 8543TIP3    H125593   4.970   1.355   2.336
 8543TIP3    H225594   4.899   1.275   2.443
 8544TIP3   OH225595   5.807   0.828   5.148
 8544TIP3    H125596   5.878   0.826   5.212
 8544TIP3    H225597   5.773   0.739   5.147
 8545TIP3   OH225598   5.927   2.253   3.066
 8545TIP3    H125599   5.892   2.180   3.117
 8545TIP3    H225600   5.859   2.271   3.001
 8546TIP3   OH225601   1.543   3.966   2.769
 8546TIP3    H125602   1.599   3.891   2.748
 8546TIP3    H225603   1.518   3.952   2.860
 8547TIP3   OH225604   6.303   0.029   3.229
 8547TIP3    H125605   6.271   0.095   3.290
 8547TIP3    H225606   6.394   0.055   3.211
 8548TIP3   OH225607   6.039   3.040   5.347
 8548TIP3    H125608   6.045   3.048   5.443
 8548TIP3    H225609   6.003   2.953   5.332
 8549TIP3   OH225610   6.378   4.381   3.725
 8549TIP3    H125611   6.379   4.473   3.696
 8549TIP3    H225612   6.440   4.337   3.666
 8550TIP3   OH225613   4.734   4.977   5.405
 8550TIP3    H125614   4.817   4.950   5.444
 8550TIP3    H225615   4.744   4.959   5.312
 8551TIP3   OH225616   4.524   1.616   3.075
 8551TIP3    H125617   4.475   1.651   3.149
 8551TIP3    H225618   4.588   1.557   3.114
 8552TIP3   OH225619   0.728   5.886   2.206
 8552TIP3    H125620   0.639   5.883   2.172
 8552TIP3    H225621   0.718   5.907   2.299
 8553TIP3   OH225622   5.832   1.268   0.206
 8553TIP3    H125623   5.762   1.320   0.244
 8553TIP3    H225624   5.843   1.195   0.267
 8554TIP3   OH225625   6.713   1.126   3.089
 8554TIP3    H125626   6.774   1.057   3.062
 8554TIP3    H225627   6.768   1.190   3.135
 8555TIP3   OH225628   4.953   6.008   2.132
 8555TIP3    H125629   5.035   5.960   2.120
 8555TIP3    H225630   4.887   5.940   2.145
 8556TIP3   OH225631   4.668   2.733   3.131
 8556TIP3    H125632   4.667   2.709   3.223
 8556TIP3    H225633   4.674   2.650   3.084
 8557TIP3   OH225634   4.380   4.313   5.403
 8557TIP3    H125635   4.379   4.320   5.499
 8557TIP3    H225636   4.289   4.327   5.378
 8558TIP3   OH225637   7.029   1.164   2.002
 8558TIP3    H125638   7.090   1.106   2.048
 8558TIP3    H225639   7.045   1.145   1.909
 8559TIP3   OH225640   4.987   5.637   3.794
 8559TIP3    H125641   5.053   5.579   3.756
 8559TIP3    H225642   4.943   5.677   3.719
 8560TIP3   OH225643   4.876   4.227   5.320
 8560TIP3    H125644   4.937   4.252   5.390
 8560TIP3    H225645   4.807   4.294   5.324
 8561TIP3   OH225646   4.075   5.131   1.589
 8561TIP3    H125647   4.033   5.094   1.667
 8561TIP3    H225648   4.047   5.223   1.589
 8562TIP3   OH225649   2.477   5.641   2.483
 8562TIP3    H125650   2.502   5.715   2.539
 8562TIP3    H225651   2.543   5.574   2.502
 8563TIP3   OH225652   2.359   0.690   4.671
 8563TIP3    H125653   2.322   0.602   4.673
 8563TIP3    H225654   2.436   0.684   4.728
 8564TIP3   OH225655   3.022   2.865   3.491
 8564TIP3    H125656   2.928   2.861   3.473
 8564TIP3    H225657   3.051   2.774   3.486
 8565TIP3   OH225658   4.521   4.935   4.645
 8565TIP3    H125659   4.493   4.855   4.601
 8565TIP3    H225660   4.445   4.963   4.696
 8566TIP3   OH225661   3.418   3.908   2.018
 8566TIP3    H125662   3.416   4.004   2.023
 8566TIP3    H225663   3.425   3.880   2.109
 8567TIP3   OH225664   0.823   1.062   3.603
 8567TIP3    H125665   0.850   1.110   3.682
 8567TIP3    H225666   0.736   1.028   3.624
 8568TIP3   OH225667   1.451   3.699   2.347
 8568TIP3    H125668   1.456   3.746   2.430
 8568TIP3    H225669   1.363   3.718   2.315
 8569TIP3   OH225670   7.111   3.330   5.210
 8569TIP3    H125671   7.018   3.310   5.220
 8569TIP3    H225672   7.129   3.395   5.278
 8570TIP3   OH225673   4.491   5.230   1.675
 8570TIP3    H125674   4.468   5.138   1.664
 8570TIP3    H225675   4.427   5.264   1.738
 8571TIP3   OH225676   0.928   5.079   0.690
 8571TIP3    H125677   0.995   5.037   0.635
 8571TIP3    H225678   0.888   5.145   0.633
 8572TIP3   OH225679   4.604   3.455   4.472
 8572TIP3    H125680   4.618   3.364   4.498
 8572TIP3    H225681   4.565   3.497   4.549
 8573TIP3   OH225682   0.942   0.546   0.875
 8573TIP3    H125683   0.987   0.522   0.957
 8573TIP3    H225684   1.013   0.569   0.815
 8574TIP3   OH225685   2.507   2.015   5.803
 8574TIP3    H125686   2.435   1.996   5.862
 8574TIP3    H225687   2.556   2.085   5.847
 8575TIP3   OH225688   1.524   1.765   4.182
 8575TIP3    H125689   1.534   1.700   4.251
 8575TIP3    H225690   1.432   1.759   4.157
 8576TIP3   OH225691   1.959   2.997   3.344
 8576TIP3    H125692   2.050   2.984   3.318
 8576TIP3    H225693   1.960   3.081   3.390
 8577TIP3   OH225694   6.796   2.637   0.585
 8577TIP3    H125695   6.793   2.553   0.632
 8577TIP3    H225696   6.740   2.695   0.637
 8578TIP3   OH225697   6.636   5.118   2.139
 8578TIP3    H125698   6.673   5.143   2.224
 8578TIP3    H225699   6.548   5.086   2.160
 8579TIP3   OH225700   0.676   4.710   2.820
 8579TIP3    H125701   0.690   4.660   2.740
 8579TIP3    H225702   0.713   4.796   2.801
 8580TIP3   OH225703   3.354   1.792   2.975
 8580TIP3    H125704   3.291   1.856   2.943
 8580TIP3    H225705   3.439   1.834   2.963
 8581TIP3   OH225706   4.839   5.881   5.532
 8581TIP3    H125707   4.819   5.937   5.607
 8581TIP3    H225708   4.924   5.912   5.501
 8582TIP3   OH225709   0.086   5.392   3.947
 8582TIP3    H125710   0.126   5.306   3.932
 8582TIP3    H225711   0.149   5.454   3.909
 8583TIP3   OH225712   3.567   5.928   5.809
 8583TIP3    H125713   3.524   5.872   5.873
 8583TIP3    H225714   3.574   5.874   5.730
 8584TIP3   OH225715   0.116   5.625   2.594
 8584TIP3    H125716   0.185   5.641   2.531
 8584TIP3    H225717   0.055   5.566   2.549
 8585TIP3   OH225718   4.136   3.227   3.424
 8585TIP3    H125719   4.188   3.270   3.492
 8585TIP3    H225720   4.054   3.276   3.421
 8586TIP3   OH225721   2.831   3.897   0.070
 8586TIP3    H125722   2.799   3.975   0.115
 8586TIP3    H225723   2.758   3.835   0.073
 8587TIP3   OH225724   1.202   2.879   3.386
 8587TIP3    H125725   1.214   2.801   3.332
 8587TIP3    H225726   1.164   2.845   3.468
 8588TIP3   OH225727   3.013   3.082   2.404
 8588TIP3    H125728   3.089   3.087   2.346
 8588TIP3    H225729   2.973   2.998   2.385
 8589TIP3   OH225730   1.968   6.058   5.456
 8589TIP3    H125731   1.926   6.112   5.389
 8589TIP3    H225732   1.943   6.100   5.539
 8590TIP3   OH225733   5.236   2.525   3.143
 8590TIP3    H125734   5.170   2.499   3.078
 8590TIP3    H225735   5.283   2.598   3.101
 8591TIP3   OH225736   1.927   2.591   0.317
 8591TIP3    H125737   1.846   2.576   0.270
 8591TIP3    H225738   1.907   2.568   0.408
 8592TIP3   OH225739   6.124   3.839   0.283
 8592TIP3    H125740   6.142   3.745   0.284
 8592TIP3    H225741   6.159   3.869   0.199
 8593TIP3   OH225742   4.365   1.765   4.014
 8593TIP3    H125743   4.375   1.672   4.031
 8593TIP3    H225744   4.438   1.806   4.062
 8594TIP3   OH225745   5.590   0.713   5.919
 8594TIP3    H125746   5.678   0.679   5.898
 8594TIP3    H225747   5.603   0.807   5.927
 8595TIP3   OH225748   6.035   5.043   3.515
 8595TIP3    H125749   5.958   5.012   3.468
 8595TIP3    H225750   6.046   5.134   3.487
 8596TIP3   OH225751   6.636   5.170   5.738
 8596TIP3    H125752   6.642   5.149   5.645
 8596TIP3    H225753   6.718   5.136   5.775
 8597TIP3   OH225754   0.495   3.763   5.548
 8597TIP3    H125755   0.589   3.779   5.555
 8597TIP3    H225756   0.477   3.766   5.454
 8598TIP3   OH225757   3.704   6.431   2.899
 8598TIP3    H125758   3.714   6.519   2.936
 8598TIP3    H225759   3.688   6.376   2.975
 8599TIP3   OH225760   2.292   5.248   1.827
 8599TIP3    H125761   2.367   5.226   1.772
 8599TIP3    H225762   2.328   5.257   1.915
 8600TIP3   OH225763   7.145   3.760   5.238
 8600TIP3    H125764   7.139   3.683   5.295
 8600TIP3    H225765   7.057   3.798   5.240
 8601TIP3   OH225766   3.448   1.738   0.445
 8601TIP3    H125767   3.527   1.784   0.474
 8601TIP3    H225768   3.425   1.681   0.518
 8602TIP3   OH225769   5.296   2.684   4.854
 8602TIP3    H125770   5.260   2.596   4.862
 8602TIP3    H225771   5.379   2.681   4.901
 8603TIP3   OH225772   2.371   5.886   5.817
 8603TIP3    H125773   2.408   5.798   5.821
 8603TIP3    H225774   2.434   5.936   5.766
 8604TIP3   OH225775   1.766   1.573   2.334
 8604TIP3    H125776   1.739   1.665   2.337
 8604TIP3    H225777   1.696   1.526   2.378
 8605TIP3   OH225778   3.446   2.559   1.084
 8605TIP3    H125779   3.513   2.627   1.091
 8605TIP3    H225780   3.496   2.477   1.090
 8606TIP3   OH225781   6.997   6.627   3.906
 8606TIP3    H125782   6.997   6.547   3.958
 8606TIP3    H225783   7.027   6.599   3.819
 8607TIP3   OH225784   5.267   0.333   3.954
 8607TIP3    H125785   5.243   0.242   3.972
 8607TIP3    H225786   5.342   0.349   4.012
 8608TIP3   OH225787   2.843   1.766   3.346
 8608TIP3    H125788   2.902   1.824   3.393
 8608TIP3    H225789   2.760   1.773   3.393
 8609TIP3   OH225790   5.173   6.738   1.146
 8609TIP3    H125791   5.147   6.646   1.150
 8609TIP3    H225792   5.123   6.780   1.216
 8610TIP3   OH225793   1.011   6.001   1.299
 8610TIP3    H125794   0.993   6.065   1.368
 8610TIP3    H225795   1.106   6.004   1.287
 8611TIP3   OH225796   3.764   6.248   4.443
 8611TIP3    H125797   3.803   6.300   4.513
 8611TIP3    H225798   3.735   6.312   4.378
 8612TIP3   OH225799   6.906   5.228   4.612
 8612TIP3    H125800   6.871   5.312   4.641
 8612TIP3    H225801   6.939   5.187   4.692
 8613TIP3   OH225802   3.344   3.692   3.617
 8613TIP3    H125803   3.298   3.753   3.675
 8613TIP3    H225804   3.381   3.626   3.675
 8614TIP3   OH225805   6.262   2.121   3.771
 8614TIP3    H125806   6.315   2.047   3.802
 8614TIP3    H225807   6.214   2.150   3.848
 8615TIP3   OH225808   6.667   0.542   1.502
 8615TIP3    H125809   6.728   0.614   1.518
 8615TIP3    H225810   6.584   0.585   1.481
 8616TIP3   OH225811   2.741   3.791   5.293
 8616TIP3    H125812   2.764   3.701   5.269
 8616TIP3    H225813   2.733   3.837   5.209
 8617TIP3   OH225814   5.156   3.565   5.449
 8617TIP3    H125815   5.136   3.502   5.518
 8617TIP3    H225816   5.217   3.520   5.391
 8618TIP3   OH225817   3.561   3.723   1.886
 8618TIP3    H125818   3.498   3.782   1.928
 8618TIP3    H225819   3.535   3.636   1.915
 8619TIP3   OH225820   5.183   0.043   1.606
 8619TIP3    H125821   5.250  -0.013   1.645
 8619TIP3    H225822   5.224   0.079   1.527
 8620TIP3   OH225823   0.024   2.562   3.685
 8620TIP3    H125824   0.092   2.495   3.697
 8620TIP3    H225825  -0.037   2.523   3.622
 8621TIP3   OH225826   1.768   4.108   2.334
 8621TIP3    H125827   1.742   4.017   2.318
 8621TIP3    H225828   1.863   4.107   2.332
 8622TIP3   OH225829   6.009   2.857   3.997
 8622TIP3    H125830   5.972   2.943   3.981
 8622TIP3    H225831   6.084   2.851   3.938
 8623TIP3   OH225832   0.511   5.851   1.324
 8623TIP3    H125833   0.475   5.767   1.296
 8623TIP3    H225834   0.606   5.841   1.316
 8624TIP3   OH225835   5.932   5.058   2.199
 8624TIP3    H125836   5.998   5.127   2.195
 8624TIP3    H225837   5.849   5.105   2.204
 8625TIP3   OH225838   0.126   2.196   2.618
 8625TIP3    H125839   0.068   2.239   2.681
 8625TIP3    H225840   0.149   2.113   2.659
 8626TIP3   OH225841   6.654   6.697   4.367
 8626TIP3    H125842   6.688   6.608   4.374
 8626TIP3    H225843   6.620   6.717   4.455
 8627TIP3   OH225844   5.025   6.500   3.569
 8627TIP3    H125845   4.985   6.413   3.572
 8627TIP3    H225846   5.119   6.484   3.571
 8628TIP3   OH225847   4.692   1.472   4.894
 8628TIP3    H125848   4.686   1.403   4.828
 8628TIP3    H225849   4.784   1.475   4.916
 8629TIP3   OH225850   2.422   6.470   1.857
 8629TIP3    H125851   2.338   6.515   1.847
 8629TIP3    H225852   2.482   6.518   1.799
 8630TIP3   OH225853   6.172   5.654   4.409
 8630TIP3    H125854   6.267   5.644   4.421
 8630TIP3    H225855   6.163   5.711   4.333
 8631TIP3   OH225856   6.954   5.906   0.120
 8631TIP3    H125857   6.963   5.999   0.096
 8631TIP3    H225858   6.906   5.868   0.047
 8632TIP3   OH225859   2.581   2.607   0.113
 8632TIP3    H125860   2.646   2.649   0.057
 8632TIP3    H225861   2.576   2.517   0.081
 8633TIP3   OH225862   1.849   3.344   4.053
 8633TIP3    H125863   1.816   3.307   4.135
 8633TIP3    H225864   1.783   3.322   3.988
 8634TIP3   OH225865   2.397   5.090   4.006
 8634TIP3    H125866   2.344   5.054   3.934
 8634TIP3    H225867   2.474   5.126   3.963
 8635TIP3   OH225868   1.978   0.372   0.392
 8635TIP3    H125869   1.885   0.352   0.383
 8635TIP3    H225870   2.022   0.294   0.359
 8636TIP3   OH225871   0.564   2.216   4.326
 8636TIP3    H125872   0.627   2.257   4.268
 8636TIP3    H225873   0.479   2.236   4.287
 8637TIP3   OH225874   5.862   5.273   3.779
 8637TIP3    H125875   5.858   5.349   3.838
 8637TIP3    H225876   5.807   5.207   3.821
 8638TIP3   OH225877   0.940   2.967   5.497
 8638TIP3    H125878   0.982   2.930   5.419
 8638TIP3    H225879   0.872   3.025   5.461
 8639TIP3   OH225880   6.829   4.363   0.511
 8639TIP3    H125881   6.844   4.371   0.605
 8639TIP3    H225882   6.854   4.449   0.476
 8640TIP3   OH225883   1.006   3.825   3.106
 8640TIP3    H125884   0.920   3.855   3.137
 8640TIP3    H225885   1.002   3.834   3.011
 8641TIP3   OH225886   5.000   1.505   5.206
 8641TIP3    H125887   4.921   1.550   5.237
 8641TIP3    H225888   5.025   1.448   5.278
 8642TIP3   OH225889   6.670   5.426   2.041
 8642TIP3    H125890   6.739   5.482   2.005
 8642TIP3    H225891   6.717   5.364   2.097
 8643TIP3   OH225892   4.502   3.079   2.607
 8643TIP3    H125893   4.510   3.005   2.667
 8643TIP3    H225894   4.542   3.153   2.654
 8644TIP3   OH225895   4.696   2.512   3.324
 8644TIP3    H125896   4.736   2.538   3.407
 8644TIP3    H225897   4.770   2.485   3.269
 8645TIP3   OH225898   5.119   0.466   2.917
 8645TIP3    H125899   5.197   0.497   2.872
 8645TIP3    H225900   5.123   0.371   2.908
 8646TIP3   OH225901   7.124   0.798   5.702
 8646TIP3    H125902   7.111   0.707   5.728
 8646TIP3    H225903   7.043   0.821   5.656
 8647TIP3   OH225904   3.040   1.668   5.684
 8647TIP3    H125905   3.013   1.755   5.656
 8647TIP3    H225906   2.992   1.653   5.765
 8648TIP3   OH225907   5.436   1.826   0.127
 8648TIP3    H125908   5.389   1.783   0.055
 8648TIP3    H225909   5.421   1.769   0.202
 8649TIP3   OH225910   1.227   3.611   0.698
 8649TIP3    H125911   1.214   3.675   0.628
 8649TIP3    H225912   1.188   3.652   0.775
 8650TIP3   OH225913   3.380   5.600   0.244
 8650TIP3    H125914   3.285   5.598   0.253
 8650TIP3    H225915   3.410   5.529   0.301
 8651TIP3   OH225916   6.574   1.479   2.696
 8651TIP3    H125917   6.600   1.569   2.713
 8651TIP3    H225918   6.575   1.470   2.601
 8652TIP3   OH225919   5.557   3.884   3.868
 8652TIP3    H125920   5.632   3.870   3.810
 8652TIP3    H225921   5.494   3.932   3.815
 8653TIP3   OH225922   1.068   6.415   5.879
 8653TIP3    H125923   1.065   6.331   5.833
 8653TIP3    H225924   1.115   6.474   5.819
 8654TIP3   OH225925   5.168   5.640   4.798
 8654TIP3    H125926   5.261   5.621   4.810
 8654TIP3    H225927   5.167   5.716   4.739
 8655TIP3   OH225928   3.422   6.662   5.107
 8655TIP3    H125929   3.469   6.612   5.173
 8655TIP3    H225930   3.469   6.745   5.101
 8656TIP3   OH225931   0.093   1.559   3.588
 8656TIP3    H125932   0.178   1.586   3.623
 8656TIP3    H225933   0.094   1.587   3.497
 8657TIP3   OH225934   0.690   5.388   1.887
 8657TIP3    H125935   0.748   5.436   1.946
 8657TIP3    H225936   0.690   5.439   1.806
 8658TIP3   OH225937   4.058   5.438   5.862
 8658TIP3    H125938   4.134   5.379   5.868
 8658TIP3    H225939   4.090   5.513   5.812
 8659TIP3   OH225940   1.416   5.786   1.903
 8659TIP3    H125941   1.491   5.784   1.962
 8659TIP3    H225942   1.438   5.854   1.839
 8660TIP3   OH225943   1.812   1.259   4.181
 8660TIP3    H125944   1.888   1.201   4.184
 8660TIP3    H225945   1.844   1.343   4.214
 8661TIP3   OH225946   4.603   1.043   2.610
 8661TIP3    H125947   4.622   0.985   2.536
 8661TIP3    H225948   4.516   1.079   2.590
 8662TIP3   OH225949   0.862   5.034   4.460
 8662TIP3    H125950   0.821   5.120   4.454
 8662TIP3    H225951   0.898   5.018   4.373
 8663TIP3   OH225952   4.989   2.456   3.364
 8663TIP3    H125953   5.073   2.416   3.387
 8663TIP3    H225954   5.003   2.494   3.277
 8664TIP3   OH225955   0.184   2.951   2.839
 8664TIP3    H125956   0.103   2.910   2.870
 8664TIP3    H225957   0.225   2.987   2.918
 8665TIP3   OH225958   3.035   3.319   0.172
 8665TIP3    H125959   2.951   3.303   0.129
 8665TIP3    H225960   3.057   3.409   0.149
 8666TIP3   OH225961   1.971   3.113   4.600
 8666TIP3    H125962   1.943   3.039   4.546
 8666TIP3    H225963   2.064   3.124   4.580
 8667TIP3   OH225964   6.706   0.401   1.759
 8667TIP3    H125965   6.671   0.457   1.827
 8667TIP3    H225966   6.677   0.442   1.677
 8668TIP3   OH225967   6.208   5.000   3.079
 8668TIP3    H125968   6.157   5.002   2.998
 8668TIP3    H225969   6.149   4.962   3.144
 8669TIP3   OH225970   6.422   5.908   5.840
 8669TIP3    H125971   6.394   5.839   5.901
 8669TIP3    H225972   6.510   5.881   5.812
 8670TIP3   OH225973   0.393   4.328   5.654
 8670TIP3    H125974   0.384   4.291   5.742
 8670TIP3    H225975   0.435   4.258   5.603
 8671TIP3   OH225976   5.701   4.504   5.064
 8671TIP3    H125977   5.724   4.586   5.108
 8671TIP3    H225978   5.633   4.465   5.118
 8672TIP3   OH225979   0.304   6.034   5.547
 8672TIP3    H125980   0.391   6.058   5.515
 8672TIP3    H225981   0.320   5.967   5.613
 8673TIP3   OH225982   6.525   3.071   3.214
 8673TIP3    H125983   6.574   3.133   3.161
 8673TIP3    H225984   6.590   3.034   3.274
 8674TIP3   OH225985   0.103   1.962   4.652
 8674TIP3    H125986   0.009   1.944   4.653
 8674TIP3    H225987   0.142   1.887   4.607
 8675TIP3   OH225988   6.960   2.372   5.834
 8675TIP3    H125989   6.940   2.421   5.754
 8675TIP3    H225990   7.046   2.403   5.861
 8676TIP3   OH225991   5.201   3.928   1.256
 8676TIP3    H125992   5.283   3.939   1.305
 8676TIP3    H225993   5.219   3.967   1.171
 8677TIP3   OH225994   2.910   5.514   0.730
 8677TIP3    H125995   2.896   5.519   0.825
 8677TIP3    H225996   2.909   5.605   0.701
 8678TIP3   OH225997   1.638   5.565   4.523
 8678TIP3    H125998   1.723   5.542   4.563
 8678TIP3    H225999   1.611   5.485   4.477
 8679TIP3   OH226000   0.481   5.801   2.698
 8679TIP3    H126001   0.545   5.797   2.627
 8679TIP3    H226002   0.455   5.710   2.712
 8680TIP3   OH226003   2.587   1.082   1.652
 8680TIP3    H126004   2.609   1.110   1.741
 8680TIP3    H226005   2.661   1.112   1.599
 8681TIP3   OH226006   4.900   0.081   5.254
 8681TIP3    H126007   4.947   0.161   5.279
 8681TIP3    H226008   4.835   0.069   5.324
 8682TIP3   OH226009   2.005   2.963   3.683
 8682TIP3    H126010   2.066   2.979   3.611
 8682TIP3    H226011   2.011   3.042   3.737
 8683TIP3   OH226012   1.720   3.474   5.614
 8683TIP3    H126013   1.709   3.379   5.617
 8683TIP3    H226014   1.814   3.488   5.609
 8684TIP3   OH226015   2.006   4.983   0.961
 8684TIP3    H126016   2.060   4.927   1.016
 8684TIP3    H226017   1.991   4.931   0.882
 8685TIP3   OH226018   6.753   4.298   1.083
 8685TIP3    H126019   6.685   4.251   1.131
 8685TIP3    H226020   6.713   4.381   1.059
 8686TIP3   OH226021   5.793   1.721   1.501
 8686TIP3    H126022   5.877   1.766   1.490
 8686TIP3    H226023   5.748   1.772   1.569
 8687TIP3   OH226024   2.685   2.436   3.598
 8687TIP3    H126025   2.752   2.481   3.546
 8687TIP3    H226026   2.604   2.483   3.578
 8688TIP3   OH226027   3.904   2.654   3.129
 8688TIP3    H126028   3.994   2.657   3.097
 8688TIP3    H226029   3.901   2.721   3.198
 8689TIP3   OH226030   4.041   4.845   4.665
 8689TIP3    H126031   4.035   4.939   4.678
 8689TIP3    H226032   4.121   4.832   4.615
 8690TIP3   OH226033   6.748   3.466   0.375
 8690TIP3    H126034   6.680   3.495   0.436
 8690TIP3    H226035   6.804   3.409   0.428
 8691TIP3   OH226036   1.545   2.271   2.056
 8691TIP3    H126037   1.592   2.354   2.048
 8691TIP3    H226038   1.456   2.296   2.080
 8692TIP3   OH226039   5.135   4.173   0.523
 8692TIP3    H126040   5.064   4.140   0.577
 8692TIP3    H226041   5.214   4.156   0.574
 8693TIP3   OH226042   4.332   2.328   5.114
 8693TIP3    H126043   4.320   2.423   5.115
 8693TIP3    H226044   4.369   2.307   5.200
 8694TIP3   OH226045   3.935   1.496   1.045
 8694TIP3    H126046   3.848   1.463   1.065
 8694TIP3    H226047   3.994   1.442   1.099
 8695TIP3   OH226048   1.669   5.953   1.126
 8695TIP3    H126049   1.646   5.934   1.035
 8695TIP3    H226050   1.717   6.036   1.122
 8696TIP3   OH226051   1.674   1.990   5.441
 8696TIP3    H126052   1.622   1.962   5.516
 8696TIP3    H226053   1.720   2.069   5.471
 8697TIP3   OH226054   1.192   6.531   1.409
 8697TIP3    H126055   1.174   6.621   1.382
 8697TIP3    H226056   1.284   6.533   1.436
 8698TIP3   OH226057   2.953   2.686   1.745
 8698TIP3    H126058   2.877   2.649   1.790
 8698TIP3    H226059   2.953   2.644   1.659
 8699TIP3   OH226060   6.503   5.716   4.035
 8699TIP3    H126061   6.527   5.774   3.963
 8699TIP3    H226062   6.415   5.686   4.013
 8700TIP3   OH226063   0.197   0.624   5.137
 8700TIP3    H126064   0.128   0.687   5.113
 8700TIP3    H226065   0.250   0.616   5.057
 8701TIP3   OH226066   1.184   5.682   4.438
 8701TIP3    H126067   1.269   5.721   4.457
 8701TIP3    H226068   1.136   5.689   4.521
 8702TIP3   OH226069   1.195   5.136   2.819
 8702TIP3    H126070   1.162   5.104   2.735
 8702TIP3    H226071   1.288   5.113   2.819
 8703TIP3   OH226072   3.594   4.605   5.532
 8703TIP3    H126073   3.503   4.606   5.504
 8703TIP3    H226074   3.638   4.669   5.476
 8704TIP3   OH226075   0.843   3.235   1.065
 8704TIP3    H126076   0.807   3.172   1.003
 8704TIP3    H226077   0.833   3.193   1.151
 8705TIP3   OH226078   0.346   2.086   0.154
 8705TIP3    H126079   0.439   2.097   0.136
 8705TIP3    H226080   0.311   2.043   0.076
 8706TIP3   OH226081   3.335   0.691   5.686
 8706TIP3    H126082   3.321   0.597   5.695
 8706TIP3    H226083   3.379   0.702   5.602
 8707TIP3   OH226084   3.933   2.968   1.182
 8707TIP3    H126085   3.866   3.027   1.147
 8707TIP3    H226086   3.928   2.980   1.277
 8708TIP3   OH226087   5.152   1.210   5.773
 8708TIP3    H126088   5.121   1.220   5.863
 8708TIP3    H226089   5.148   1.298   5.736
 8709TIP3   OH226090   1.595   1.831   4.782
 8709TIP3    H126091   1.560   1.920   4.792
 8709TIP3    H226092   1.521   1.779   4.752
 8710TIP3   OH226093   3.886   4.660   5.630
 8710TIP3    H126094   3.852   4.596   5.568
 8710TIP3    H226095   3.981   4.644   5.631
 8711TIP3   OH226096   5.538   1.198   0.548
 8711TIP3    H126097   5.449   1.220   0.519
 8711TIP3    H226098   5.533   1.200   0.643
 8712TIP3   OH226099   3.381   2.458   0.533
 8712TIP3    H126100   3.465   2.505   0.533
 8712TIP3    H226101   3.388   2.397   0.607
 8713TIP3   OH226102   5.091   0.643   5.516
 8713TIP3    H126103   5.105   0.716   5.577
 8713TIP3    H226104   5.058   0.572   5.571
 8714TIP3   OH226105   2.989   6.727   5.766
 8714TIP3    H126106   2.947   6.737   5.680
 8714TIP3    H226107   3.083   6.738   5.747
 8715TIP3   OH226108   5.014   3.187   0.490
 8715TIP3    H126109   4.977   3.199   0.403
 8715TIP3    H226110   5.060   3.103   0.485
 8716TIP3   OH226111   5.219   2.365   3.634
 8716TIP3    H126112   5.212   2.387   3.541
 8716TIP3    H226113   5.234   2.449   3.677
 8717TIP3   OH226114   6.288   4.578   0.113
 8717TIP3    H126115   6.318   4.521   0.184
 8717TIP3    H226116   6.226   4.524   0.064
 8718TIP3   OH226117   1.685   6.530   0.729
 8718TIP3    H126118   1.707   6.458   0.671
 8718TIP3    H226119   1.615   6.496   0.786
 8719TIP3   OH226120   0.179   3.007   5.673
 8719TIP3    H126121   0.209   3.070   5.738
 8719TIP3    H226122   0.259   2.969   5.638
 8720TIP3   OH226123   4.040   4.339   3.369
 8720TIP3    H126124   4.020   4.404   3.301
 8720TIP3    H226125   3.986   4.364   3.443
 8721TIP3   OH226126   4.592   3.322   4.759
 8721TIP3    H126127   4.612   3.362   4.844
 8721TIP3    H226128   4.677   3.296   4.724
 8722TIP3   OH226129   6.173   3.240   0.032
 8722TIP3    H126130   6.111   3.292   0.083
 8722TIP3    H226131   6.179   3.157   0.080
 8723TIP3   OH226132   5.808   0.108   0.454
 8723TIP3    H126133   5.783   0.016   0.456
 8723TIP3    H226134   5.851   0.119   0.369
 8724TIP3   OH226135   5.206   4.322   4.276
 8724TIP3    H126136   5.264   4.246   4.276
 8724TIP3    H226137   5.123   4.288   4.242
 8725TIP3   OH226138   0.773   2.124   4.477
 8725TIP3    H126139   0.833   2.199   4.481
 8725TIP3    H226140   0.688   2.163   4.460
 8726TIP3   OH226141   3.849   1.118   4.841
 8726TIP3    H126142   3.760   1.117   4.875
 8726TIP3    H226143   3.904   1.134   4.917
 8727TIP3   OH226144   0.309   4.678   2.118
 8727TIP3    H126145   0.214   4.676   2.129
 8727TIP3    H226146   0.337   4.754   2.168
 8728TIP3   OH226147   3.660   0.306   3.689
 8728TIP3    H126148   3.635   0.375   3.628
 8728TIP3    H226149   3.598   0.235   3.671
 8729TIP3   OH226150   5.209   0.754  -0.021
 8729TIP3    H126151   5.250   0.750   0.065
 8729TIP3    H226152   5.136   0.692  -0.017
 8730TIP3   OH226153   5.740   4.780   4.508
 8730TIP3    H126154   5.683   4.707   4.485
 8730TIP3    H226155   5.827   4.752   4.479
 8731TIP3   OH226156   2.965   4.417   1.344
 8731TIP3    H126157   2.949   4.394   1.436
 8731TIP3    H226158   2.878   4.414   1.304
 8732TIP3   OH226159   2.745   4.833   3.570
 8732TIP3    H126160   2.814   4.842   3.635
 8732TIP3    H226161   2.671   4.795   3.618
 8733TIP3   OH226162   1.535   0.709   4.029
 8733TIP3    H126163   1.441   0.728   4.030
 8733TIP3    H226164   1.574   0.784   3.984
 8734TIP3   OH226165   4.679   5.498   1.724
 8734TIP3    H126166   4.605   5.554   1.699
 8734TIP3    H226167   4.755   5.556   1.721
 8735TIP3   OH226168   6.766   3.417   3.935
 8735TIP3    H126169   6.732   3.332   3.964
 8735TIP3    H226170   6.690   3.461   3.897
 8736TIP3   OH226171   4.656   4.284   5.031
 8736TIP3    H126172   4.661   4.310   5.123
 8736TIP3    H226173   4.563   4.272   5.014
 8737TIP3   OH226174   4.409   2.934   0.809
 8737TIP3    H126175   4.370   2.911   0.893
 8737TIP3    H226176   4.376   3.022   0.791
 8738TIP3   OH226177   5.932   4.251   5.590
 8738TIP3    H126178   5.865   4.317   5.570
 8738TIP3    H226179   5.933   4.247   5.686
 8739TIP3   OH226180   3.275   3.515   1.361
 8739TIP3    H126181   3.273   3.594   1.415
 8739TIP3    H226182   3.254   3.444   1.422
 8740TIP3   OH226183   0.972   3.642   5.088
 8740TIP3    H126184   0.888   3.596   5.092
 8740TIP3    H226185   1.037   3.572   5.089
 8741TIP3   OH226186   3.818   3.247   2.505
 8741TIP3    H126187   3.873   3.306   2.556
 8741TIP3    H226188   3.840   3.160   2.538
 8742TIP3   OH226189   1.243   3.357   2.152
 8742TIP3    H126190   1.256   3.263   2.141
 8742TIP3    H226191   1.185   3.382   2.080
 8743TIP3   OH226192   3.888   1.878   3.058
 8743TIP3    H126193   3.934   1.932   3.122
 8743TIP3    H226194   3.955   1.855   2.994
 8744TIP3   OH226195   5.522   5.223   0.894
 8744TIP3    H126196   5.446   5.221   0.836
 8744TIP3    H226197   5.490   5.191   0.978
 8745TIP3   OH226198   4.370   2.728   3.315
 8745TIP3    H126199   4.305   2.791   3.346
 8745TIP3    H226200   4.454   2.765   3.343
 8746TIP3   OH226201   2.891   3.808   1.751
 8746TIP3    H126202   2.924   3.743   1.813
 8746TIP3    H226203   2.915   3.774   1.665
 8747TIP3   OH226204   4.827   0.996   2.821
 8747TIP3    H126205   4.791   1.070   2.773
 8747TIP3    H226206   4.752   0.959   2.868
 8748TIP3   OH226207   3.873   4.490   3.519
 8748TIP3    H126208   3.895   4.498   3.612
 8748TIP3    H226209   3.778   4.477   3.518
 8749TIP3   OH226210   5.867   1.125   2.446
 8749TIP3    H126211   5.899   1.064   2.512
 8749TIP3    H226212   5.927   1.200   2.452
 8750TIP3   OH226213   6.031   0.044   2.453
 8750TIP3    H126214   5.984   0.082   2.379
 8750TIP3    H226215   6.087  -0.024   2.414
 8751TIP3   OH226216   1.061   3.776   4.077
 8751TIP3    H126217   1.067   3.779   3.982
 8751TIP3    H226218   0.977   3.818   4.097
 8752TIP3   OH226219   3.188   4.761   0.210
 8752TIP3    H126220   3.164   4.843   0.168
 8752TIP3    H226221   3.281   4.772   0.232
 8753TIP3   OH226222   5.399   6.421   2.560
 8753TIP3    H126223   5.342   6.489   2.524
 8753TIP3    H226224   5.347   6.380   2.628
 8754TIP3   OH226225   6.002   0.059   0.183
 8754TIP3    H126226   6.048  -0.021   0.208
 8754TIP3    H226227   5.979   0.046   0.091
 8755TIP3   OH226228   4.076   0.469   1.299
 8755TIP3    H126229   4.009   0.438   1.239
 8755TIP3    H226230   4.126   0.391   1.322
 8756TIP3   OH226231   2.212   1.037   2.800
 8756TIP3    H126232   2.137   1.017   2.744
 8756TIP3    H226233   2.234   0.953   2.840
 8757TIP3   OH226234   3.610   6.691   2.686
 8757TIP3    H126235   3.527   6.714   2.728
 8757TIP3    H226236   3.606   6.732   2.599
 8758TIP3   OH226237   3.934   4.841   2.670
 8758TIP3    H126238   3.888   4.921   2.694
 8758TIP3    H226239   3.865   4.781   2.642
 8759TIP3   OH226240   4.432   4.389   5.680
 8759TIP3    H126241   4.451   4.479   5.653
 8759TIP3    H226242   4.511   4.340   5.657
 8760TIP3   OH226243   3.525   1.061   3.666
 8760TIP3    H126244   3.541   1.088   3.576
 8760TIP3    H226245   3.524   0.965   3.663
 8761TIP3   OH226246   2.461   3.744   5.372
 8761TIP3    H126247   2.389   3.791   5.415
 8761TIP3    H226248   2.496   3.806   5.309
 8762TIP3   OH226249   2.066   3.249   0.800
 8762TIP3    H126250   2.014   3.174   0.829
 8762TIP3    H226251   2.083   3.233   0.707
 8763TIP3   OH226252   1.278   1.710   1.282
 8763TIP3    H126253   1.291   1.700   1.376
 8763TIP3    H226254   1.319   1.795   1.262
 8764TIP3   OH226255   1.755   2.763   4.941
 8764TIP3    H126256   1.697   2.693   4.972
 8764TIP3    H226257   1.757   2.751   4.846
 8765TIP3   OH226258   0.871   1.275   3.400
 8765TIP3    H126259   0.934   1.211   3.367
 8765TIP3    H226260   0.787   1.227   3.402
 8766TIP3   OH226261   3.221   2.498   5.538
 8766TIP3    H126262   3.193   2.552   5.464
 8766TIP3    H226263   3.293   2.445   5.504
 8767TIP3   OH226264   3.619   6.670   4.050
 8767TIP3    H126265   3.566   6.733   4.099
 8767TIP3    H226266   3.561   6.596   4.035
 8768TIP3   OH226267   0.390   4.033   3.868
 8768TIP3    H126268   0.337   3.994   3.798
 8768TIP3    H226269   0.345   4.005   3.948
 8769TIP3   OH226270   1.144   2.715   1.832
 8769TIP3    H126271   1.092   2.792   1.855
 8769TIP3    H226272   1.082   2.642   1.843
 8770TIP3   OH226273   5.342   6.776   2.737
 8770TIP3    H126274   5.315   6.825   2.659
 8770TIP3    H226275   5.260   6.741   2.773
 8771TIP3   OH226276   4.028   1.809   5.046
 8771TIP3    H126277   4.010   1.861   5.124
 8771TIP3    H226278   4.034   1.719   5.077
 8772TIP3   OH226279   3.485   0.848   5.864
 8772TIP3    H126280   3.557   0.786   5.878
 8772TIP3    H226281   3.425   0.802   5.806
 8773TIP3   OH226282   0.406   5.303   4.605
 8773TIP3    H126283   0.369   5.366   4.543
 8773TIP3    H226284   0.332   5.248   4.630
 8774TIP3   OH226285   3.833   5.152   3.130
 8774TIP3    H126286   3.848   5.061   3.105
 8774TIP3    H226287   3.810   5.149   3.222
 8775TIP3   OH226288   6.871   1.250   2.563
 8775TIP3    H126289   6.899   1.315   2.498
 8775TIP3    H226290   6.926   1.268   2.639
 8776TIP3   OH226291   6.809   3.220   1.381
 8776TIP3    H126292   6.833   3.167   1.457
 8776TIP3    H226293   6.755   3.163   1.327
 8777TIP3   OH226294   0.630   2.723   0.834
 8777TIP3    H126295   0.694   2.667   0.790
 8777TIP3    H226296   0.680   2.770   0.900
 8778TIP3   OH226297   5.361   4.350   5.419
 8778TIP3    H126298   5.389   4.356   5.328
 8778TIP3    H226299   5.394   4.266   5.449
 8779TIP3   OH226300   2.321   3.977   3.304
 8779TIP3    H126301   2.367   3.919   3.365
 8779TIP3    H226302   2.235   3.937   3.293
 8780TIP3   OH226303   0.937   5.655   3.033
 8780TIP3    H126304   0.980   5.736   3.008
 8780TIP3    H226305   1.004   5.604   3.077
 8781TIP3   OH226306   0.646   4.645   0.816
 8781TIP3    H126307   0.691   4.665   0.899
 8781TIP3    H226308   0.557   4.677   0.829
 8782TIP3   OH226309   3.624   0.492   3.493
 8782TIP3    H126310   3.536   0.457   3.481
 8782TIP3    H226311   3.618   0.583   3.464
 8783TIP3   OH226312   6.145   4.198   3.845
 8783TIP3    H126313   6.175   4.201   3.935
 8783TIP3    H226314   6.191   4.270   3.802
 8784TIP3   OH226315   6.844   0.677   5.004
 8784TIP3    H126316   6.793   0.611   4.957
 8784TIP3    H226317   6.813   0.761   4.969
 8785TIP3   OH226318   1.892   5.171   4.089
 8785TIP3    H126319   1.923   5.238   4.151
 8785TIP3    H226320   1.932   5.090   4.120
 8786TIP3   OH226321   3.353   2.667   1.438
 8786TIP3    H126322   3.430   2.640   1.489
 8786TIP3    H226323   3.390   2.709   1.360
 8787TIP3   OH226324   2.698   2.845   0.391
 8787TIP3    H126325   2.726   2.833   0.481
 8787TIP3    H226326   2.771   2.892   0.350
 8788TIP3   OH226327   5.612   1.995   5.575
 8788TIP3    H126328   5.625   2.014   5.482
 8788TIP3    H226329   5.563   2.070   5.608
 8789TIP3   OH226330   3.365   5.462   1.687
 8789TIP3    H126331   3.431   5.484   1.753
 8789TIP3    H226332   3.409   5.401   1.629
 8790TIP3   OH226333   1.632   5.330   3.621
 8790TIP3    H126334   1.674   5.402   3.573
 8790TIP3    H226335   1.602   5.270   3.552
 8791TIP3   OH226336   2.244   5.269   4.743
 8791TIP3    H126337   2.196   5.347   4.771
 8791TIP3    H226338   2.188   5.196   4.768
 8792TIP3   OH226339   4.040   6.238   2.334
 8792TIP3    H126340   3.970   6.235   2.400
 8792TIP3    H226341   4.089   6.318   2.355
 8793TIP3   OH226342   4.903   1.395   4.252
 8793TIP3    H126343   4.974   1.367   4.194
 8793TIP3    H226344   4.878   1.316   4.300
 8794TIP3   OH226345   5.671   2.026   1.113
 8794TIP3    H126346   5.671   1.935   1.082
 8794TIP3    H226347   5.631   2.076   1.042
 8795TIP3   OH226348   0.823   5.272   5.560
 8795TIP3    H126349   0.737   5.300   5.592
 8795TIP3    H226350   0.803   5.201   5.498
 8796TIP3   OH226351   4.109   1.473   0.211
 8796TIP3    H126352   4.017   1.456   0.230
 8796TIP3    H226353   4.120   1.446   0.120
 8797TIP3   OH226354   3.743   5.496   0.258
 8797TIP3    H126355   3.659   5.450   0.266
 8797TIP3    H226356   3.749   5.549   0.337
 8798TIP3   OH226357   4.279   2.054   0.192
 8798TIP3    H126358   4.316   2.044   0.280
 8798TIP3    H226359   4.193   2.094   0.207
 8799TIP3   OH226360   4.108   0.947   1.270
 8799TIP3    H126361   4.056   1.026   1.255
 8799TIP3    H226362   4.135   0.920   1.183
 8800TIP3   OH226363   4.125   6.345   5.135
 8800TIP3    H126364   4.191   6.413   5.131
 8800TIP3    H226365   4.122   6.319   5.227
 8801TIP3   OH226366   5.373   3.276   4.678
 8801TIP3    H126367   5.330   3.350   4.635
 8801TIP3    H226368   5.314   3.252   4.750
 8802TIP3   OH226369   0.877   5.965   2.971
 8802TIP3    H126370   0.940   6.014   3.025
 8802TIP3    H226371   0.803   5.949   3.030
 8803TIP3   OH226372   5.956   4.513   4.028
 8803TIP3    H126373   5.913   4.473   4.104
 8803TIP3    H226374   6.047   4.487   4.035
 8804TIP3   OH226375   1.675   6.008   0.869
 8804TIP3    H126376   1.623   6.058   0.806
 8804TIP3    H226377   1.730   6.073   0.912
 8805TIP3   OH226378   3.679   3.559   0.831
 8805TIP3    H126379   3.717   3.505   0.900
 8805TIP3    H226380   3.660   3.497   0.760
 8806TIP3   OH226381   3.719   0.279   3.971
 8806TIP3    H126382   3.748   0.311   3.886
 8806TIP3    H226383   3.716   0.357   4.027
 8807TIP3   OH226384   0.095   1.312   2.253
 8807TIP3    H126385   0.097   1.273   2.166
 8807TIP3    H226386   0.155   1.258   2.304
 8808TIP3   OH226387   3.629   6.381   3.409
 8808TIP3    H126388   3.682   6.358   3.486
 8808TIP3    H226389   3.690   6.428   3.352
 8809TIP3   OH226390   2.973   6.399   1.702
 8809TIP3    H126391   3.024   6.468   1.744
 8809TIP3    H226392   2.911   6.445   1.646
 8810TIP3   OH226393   6.649   3.032   5.043
 8810TIP3    H126394   6.655   2.958   5.103
 8810TIP3    H226395   6.678   3.107   5.094
 8811TIP3   OH226396   1.544   6.169   3.873
 8811TIP3    H126397   1.523   6.113   3.799
 8811TIP3    H226398   1.533   6.259   3.840
 8812TIP3   OH226399   3.246   4.021   3.987
 8812TIP3    H126400   3.260   4.004   4.081
 8812TIP3    H226401   3.334   4.019   3.950
 8813TIP3   OH226402   6.275   2.805   1.854
 8813TIP3    H126403   6.232   2.830   1.936
 8813TIP3    H226404   6.313   2.886   1.821
 8814TIP3   OH226405   3.196   0.738   0.306
 8814TIP3    H126406   3.217   0.804   0.372
 8814TIP3    H226407   3.111   0.703   0.333
 8815TIP3   OH226408   4.108   6.724   0.484
 8815TIP3    H126409   4.044   6.796   0.487
 8815TIP3    H226410   4.071   6.662   0.422
 8816TIP3   OH226411   2.398   0.257   5.651
 8816TIP3    H126412   2.402   0.231   5.743
 8816TIP3    H226413   2.309   0.288   5.639
 8817TIP3   OH226414   6.604   3.328   5.810
 8817TIP3    H126415   6.550   3.281   5.873
 8817TIP3    H226416   6.694   3.310   5.838
 8818TIP3   OH226417   5.749   5.281   1.891
 8818TIP3    H126418   5.779   5.209   1.836
 8818TIP3    H226419   5.672   5.246   1.937
 8819TIP3   OH226420   6.275   1.352   0.339
 8819TIP3    H126421   6.331   1.406   0.284
 8819TIP3    H226422   6.269   1.399   0.422
 8820TIP3   OH226423   3.030   4.232   5.847
 8820TIP3    H126424   3.089   4.160   5.827
 8820TIP3    H226425   2.990   4.208   5.931
 8821TIP3   OH226426   4.895   2.312   5.873
 8821TIP3    H126427   4.874   2.405   5.874
 8821TIP3    H226428   4.810   2.269   5.861
 8822TIP3   OH226429   4.550   2.972   3.077
 8822TIP3    H126430   4.603   2.903   3.117
 8822TIP3    H226431   4.578   3.052   3.121
 8823TIP3   OH226432   3.800   3.109   5.183
 8823TIP3    H126433   3.728   3.058   5.220
 8823TIP3    H226434   3.832   3.161   5.256
 8824TIP3   OH226435   2.179   5.298   5.346
 8824TIP3    H126436   2.182   5.207   5.377
 8824TIP3    H226437   2.226   5.297   5.263
 8825TIP3   OH226438   2.399   4.803   5.430
 8825TIP3    H126439   2.423   4.873   5.369
 8825TIP3    H226440   2.399   4.846   5.516
 8826TIP3   OH226441   3.890   5.428   4.677
 8826TIP3    H126442   3.971   5.390   4.644
 8826TIP3    H226443   3.894   5.414   4.772
 8827TIP3   OH226444   3.940   3.805   3.957
 8827TIP3    H126445   3.992   3.850   3.891
 8827TIP3    H226446   3.871   3.866   3.979
 8828TIP3   OH226447   2.099   6.759   3.881
 8828TIP3    H126448   2.165   6.709   3.929
 8828TIP3    H226449   2.150   6.814   3.821
 8829TIP3   OH226450   5.662   2.850   1.667
 8829TIP3    H126451   5.594   2.784   1.658
 8829TIP3    H226452   5.727   2.827   1.601
 8830TIP3   OH226453   3.260   3.284   3.407
 8830TIP3    H126454   3.336   3.333   3.378
 8830TIP3    H226455   3.269   3.199   3.365
 8831TIP3   OH226456   2.135   6.444   2.739
 8831TIP3    H126457   2.090   6.425   2.822
 8831TIP3    H226458   2.131   6.362   2.690
 8832TIP3   OH226459   2.396   3.456   4.866
 8832TIP3    H126460   2.475   3.417   4.903
 8832TIP3    H226461   2.429   3.512   4.796
 8833TIP3   OH226462   1.268   2.760   0.298
 8833TIP3    H126463   1.206   2.741   0.228
 8833TIP3    H226464   1.213   2.780   0.374
 8834TIP3   OH226465   0.219   4.305   4.676
 8834TIP3    H126466   0.176   4.390   4.679
 8834TIP3    H226467   0.148   4.242   4.664
 8835TIP3   OH226468   5.491   2.779   1.140
 8835TIP3    H126469   5.553   2.754   1.072
 8835TIP3    H226470   5.502   2.873   1.151
 8836TIP3   OH226471   6.497   4.749   2.852
 8836TIP3    H126472   6.506   4.654   2.848
 8836TIP3    H226473   6.509   4.771   2.944
 8837TIP3   OH226474   0.619   0.985   0.308
 8837TIP3    H126475   0.699   0.962   0.355
 8837TIP3    H226476   0.588   0.901   0.273
 8838TIP3   OH226477   1.063   3.341   0.050
 8838TIP3    H126478   1.114   3.343  -0.031
 8838TIP3    H226479   1.067   3.249   0.078
 8839TIP3   OH226480   4.269   2.477   1.690
 8839TIP3    H126481   4.359   2.508   1.681
 8839TIP3    H226482   4.278   2.383   1.710
 8840TIP3   OH226483   4.567   2.037   1.684
 8840TIP3    H126484   4.574   2.130   1.664
 8840TIP3    H226485   4.657   2.010   1.704
 8841TIP3   OH226486   4.283   2.047   5.871
 8841TIP3    H126487   4.245   1.959   5.873
 8841TIP3    H226488   4.232   2.097   5.934
 8842TIP3   OH226489   3.800   5.941   3.315
 8842TIP3    H126490   3.852   5.869   3.279
 8842TIP3    H226491   3.712   5.928   3.280
 8843TIP3   OH226492   6.270   4.639   1.340
 8843TIP3    H126493   6.356   4.675   1.358
 8843TIP3    H226494   6.285   4.545   1.326
 8844TIP3   OH226495   2.346   0.250   1.121
 8844TIP3    H126496   2.333   0.222   1.211
 8844TIP3    H226497   2.264   0.291   1.096
 8845TIP3   OH226498   2.683   0.148   4.565
 8845TIP3    H126499   2.668   0.059   4.597
 8845TIP3    H226500   2.778   0.158   4.566
 8846TIP3   OH226501   0.373   3.601   2.542
 8846TIP3    H126502   0.336   3.550   2.613
 8846TIP3    H226503   0.313   3.675   2.531
 8847TIP3   OH226504   3.575   6.068   0.460
 8847TIP3    H126505   3.576   6.107   0.373
 8847TIP3    H226506   3.550   5.976   0.444
 8848TIP3   OH226507   3.193   3.561   3.185
 8848TIP3    H126508   3.182   3.650   3.220
 8848TIP3    H226509   3.151   3.505   3.249
 8849TIP3   OH226510   5.479   4.113   4.031
 8849TIP3    H126511   5.389   4.108   4.061
 8849TIP3    H226512   5.500   4.026   3.998
 8850TIP3   OH226513   0.326   4.148   4.343
 8850TIP3    H126514   0.392   4.091   4.383
 8850TIP3    H226515   0.370   4.232   4.332
 8851TIP3   OH226516   7.092   0.167   4.224
 8851TIP3    H126517   7.076   0.261   4.233
 8851TIP3    H226518   7.004   0.127   4.226
 8852TIP3   OH226519   0.884   2.669   2.733
 8852TIP3    H126520   0.872   2.575   2.746
 8852TIP3    H226521   0.965   2.676   2.682
 8853TIP3   OH226522   1.366   0.503   1.701
 8853TIP3    H126523   1.344   0.501   1.794
 8853TIP3    H226524   1.289   0.539   1.659
 8854TIP3   OH226525   6.704   0.251   3.979
 8854TIP3    H126526   6.613   0.231   3.956
 8854TIP3    H226527   6.751   0.251   3.896
 8855TIP3   OH226528   0.483   3.007   4.072
 8855TIP3    H126529   0.572   2.999   4.106
 8855TIP3    H226530   0.457   3.096   4.095
 8856TIP3   OH226531   6.192   4.193   4.119
 8856TIP3    H126532   6.253   4.256   4.157
 8856TIP3    H226533   6.179   4.128   4.188
 8857TIP3   OH226534   2.274   0.658   5.415
 8857TIP3    H126535   2.187   0.650   5.455
 8857TIP3    H226536   2.265   0.728   5.351
 8858TIP3   OH226537   3.048   0.016   5.265
 8858TIP3    H126538   3.115  -0.016   5.326
 8858TIP3    H226539   3.051   0.111   5.273
 8859TIP3   OH226540   5.287   3.776   4.881
 8859TIP3    H126541   5.213   3.797   4.938
 8859TIP3    H226542   5.287   3.681   4.875
 8860TIP3   OH226543   0.201   5.430   5.266
 8860TIP3    H126544   0.168   5.457   5.180
 8860TIP3    H226545   0.201   5.509   5.319
 8861TIP3   OH226546   7.181   1.621   0.895
 8861TIP3    H126547   7.108   1.660   0.845
 8861TIP3    H226548   7.227   1.696   0.932
 8862TIP3   OH226549   2.273   0.664   1.093
 8862TIP3    H126550   2.192   0.615   1.078
 8862TIP3    H226551   2.251   0.755   1.073
 8863TIP3   OH226552   4.084   1.559   3.478
 8863TIP3    H126553   4.043   1.620   3.416
 8863TIP3    H226554   4.130   1.615   3.541
 8864TIP3   OH226555   6.941   1.127   1.642
 8864TIP3    H126556   6.878   1.064   1.676
 8864TIP3    H226557   6.888   1.193   1.598
 8865TIP3   OH226558   2.936   3.400   1.613
 8865TIP3    H126559   2.933   3.494   1.592
 8865TIP3    H226560   2.849   3.367   1.591
 8866TIP3   OH226561   2.842   6.539   1.507
 8866TIP3    H126562   2.921   6.591   1.496
 8866TIP3    H226563   2.777   6.580   1.450
 8867TIP3   OH226564   6.104   2.387   3.204
 8867TIP3    H126565   6.032   2.341   3.162
 8867TIP3    H226566   6.155   2.423   3.131
 8868TIP3   OH226567   5.898   2.805   5.235
 8868TIP3    H126568   5.827   2.869   5.228
 8868TIP3    H226569   5.854   2.721   5.248
 8869TIP3   OH226570   0.436   1.523   1.493
 8869TIP3    H126571   0.383   1.542   1.571
 8869TIP3    H226572   0.476   1.607   1.471
 8870TIP3   OH226573   1.754   0.827   4.841
 8870TIP3    H126574   1.699   0.778   4.902
 8870TIP3    H226575   1.698   0.839   4.764
 8871TIP3   OH226576   1.135   2.690   2.541
 8871TIP3    H126577   1.163   2.613   2.492
 8871TIP3    H226578   1.212   2.717   2.591
 8872TIP3   OH226579   1.743   3.318   4.547
 8872TIP3    H126580   1.781   3.402   4.574
 8872TIP3    H226581   1.818   3.260   4.535
 8873TIP3   OH226582   0.363   1.083   5.362
 8873TIP3    H126583   0.438   1.067   5.420
 8873TIP3    H226584   0.314   1.001   5.363
 8874TIP3   OH226585   1.759   4.809   2.840
 8874TIP3    H126586   1.831   4.849   2.791
 8874TIP3    H226587   1.680   4.849   2.804
 8875TIP3   OH226588   4.378   0.677   4.578
 8875TIP3    H126589   4.466   0.691   4.542
 8875TIP3    H226590   4.324   0.744   4.537
 8876TIP3   OH226591   4.619   5.726   2.464
 8876TIP3    H126592   4.613   5.754   2.373
 8876TIP3    H226593   4.531   5.697   2.487
 8877TIP3   OH226594   2.044   4.245   1.539
 8877TIP3    H126595   2.036   4.286   1.625
 8877TIP3    H226596   1.954   4.240   1.507
 8878TIP3   OH226597   4.936   0.130   1.654
 8878TIP3    H126598   5.031   0.117   1.646
 8878TIP3    H226599   4.916   0.200   1.592
 8879TIP3   OH226600   6.976   1.015   0.687
 8879TIP3    H126601   7.013   1.082   0.629
 8879TIP3    H226602   7.050   0.986   0.740
 8880TIP3   OH226603   5.188   2.423   5.035
 8880TIP3    H126604   5.167   2.423   5.128
 8880TIP3    H226605   5.258   2.358   5.026
 8881TIP3   OH226606   0.600   1.894   4.943
 8881TIP3    H126607   0.607   1.800   4.959
 8881TIP3    H226608   0.612   1.904   4.849
 8882TIP3   OH226609   3.395   1.374   5.215
 8882TIP3    H126610   3.378   1.377   5.121
 8882TIP3    H226611   3.358   1.291   5.243
 8883TIP3   OH226612   6.107   6.054   2.270
 8883TIP3    H126613   6.186   6.015   2.234
 8883TIP3    H226614   6.137   6.104   2.346
 8884TIP3   OH226615   1.533   2.705   5.705
 8884TIP3    H126616   1.562   2.660   5.784
 8884TIP3    H226617   1.485   2.638   5.656
 8885TIP3   OH226618   5.225   1.147   0.908
 8885TIP3    H126619   5.174   1.224   0.933
 8885TIP3    H226620   5.160   1.088   0.869
 8886TIP3   OH226621   5.679   1.324   2.835
 8886TIP3    H126622   5.690   1.322   2.930
 8886TIP3    H226623   5.768   1.318   2.801
 8887TIP3   OH226624   6.987   0.600   3.858
 8887TIP3    H126625   7.022   0.684   3.886
 8887TIP3    H226626   6.927   0.575   3.927
 8888TIP3   OH226627   3.613   1.686   5.417
 8888TIP3    H126628   3.593   1.598   5.386
 8888TIP3    H226629   3.625   1.737   5.337
 8889TIP3   OH226630   3.492   5.607   4.234
 8889TIP3    H126631   3.440   5.687   4.232
 8889TIP3    H226632   3.557   5.622   4.303
 8890TIP3   OH226633   4.731   6.686   4.413
 8890TIP3    H126634   4.721   6.755   4.479
 8890TIP3    H226635   4.646   6.683   4.369
 8891TIP3   OH226636   3.586   3.950   1.052
 8891TIP3    H126637   3.606   3.910   0.968
 8891TIP3    H226638   3.665   3.936   1.104
 8892TIP3   OH226639   2.303   2.911   1.672
 8892TIP3    H126640   2.208   2.909   1.659
 8892TIP3    H226641   2.338   2.934   1.586
 8893TIP3   OH226642   5.058   5.151   1.821
 8893TIP3    H126643   5.081   5.178   1.910
 8893TIP3    H226644   4.964   5.166   1.815
 8894TIP3   OH226645   1.022   4.375   1.286
 8894TIP3    H126646   1.088   4.342   1.225
 8894TIP3    H226647   0.969   4.299   1.308
 8895TIP3   OH226648   4.633   5.729   4.844
 8895TIP3    H126649   4.566   5.786   4.806
 8895TIP3    H226650   4.705   5.733   4.782
 8896TIP3   OH226651   6.688   5.137   1.859
 8896TIP3    H126652   6.766   5.190   1.844
 8896TIP3    H226653   6.662   5.157   1.949
 8897TIP3   OH226654   5.989   1.118   0.460
 8897TIP3    H126655   6.077   1.079   0.463
 8897TIP3    H226656   6.005   1.212   0.467
 8898TIP3   OH226657   2.471   5.813   2.910
 8898TIP3    H126658   2.440   5.728   2.878
 8898TIP3    H226659   2.397   5.850   2.957
 8899TIP3   OH226660   2.990   4.505   2.501
 8899TIP3    H126661   2.973   4.514   2.594
 8899TIP3    H226662   2.943   4.578   2.461
 8900TIP3   OH226663   6.914   6.732   5.842
 8900TIP3    H126664   6.919   6.637   5.831
 8900TIP3    H226665   6.872   6.743   5.928
 8901TIP3   OH226666   0.481   6.363   5.425
 8901TIP3    H126667   0.417   6.354   5.355
 8901TIP3    H226668   0.464   6.450   5.462
 8902TIP3   OH226669   6.766   4.419   2.584
 8902TIP3    H126670   6.703   4.363   2.629
 8902TIP3    H226671   6.850   4.398   2.625
 8903TIP3   OH226672   2.466   1.372   3.290
 8903TIP3    H126673   2.503   1.442   3.237
 8903TIP3    H226674   2.503   1.292   3.254
 8904TIP3   OH226675   4.550   0.960   5.375
 8904TIP3    H126676   4.586   0.890   5.322
 8904TIP3    H226677   4.627   1.008   5.407
 8905TIP3   OH226678   6.293   0.125   1.131
 8905TIP3    H126679   6.315   0.060   1.198
 8905TIP3    H226680   6.374   0.136   1.081
 8906TIP3   OH226681   5.443   1.450   2.909
 8906TIP3    H126682   5.484   1.452   2.996
 8906TIP3    H226683   5.516   1.436   2.849
 8907TIP3   OH226684   4.911   3.492   4.778
 8907TIP3    H126685   4.942   3.473   4.867
 8907TIP3    H226686   4.944   3.580   4.760
 8908TIP3   OH226687   4.348   1.454   1.255
 8908TIP3    H126688   4.335   1.376   1.202
 8908TIP3    H226689   4.415   1.504   1.209
 8909TIP3   OH226690   0.480   1.904   4.296
 8909TIP3    H126691   0.553   1.844   4.279
 8909TIP3    H226692   0.506   1.951   4.375
 8910TIP3   OH226693   5.737   3.568   2.484
 8910TIP3    H126694   5.798   3.553   2.556
 8910TIP3    H226695   5.731   3.663   2.477
 8911TIP3   OH226696   6.271   0.565   1.455
 8911TIP3    H126697   6.287   0.475   1.482
 8911TIP3    H226698   6.334   0.580   1.384
 8912TIP3   OH226699   4.768   0.173   2.969
 8912TIP3    H126700   4.690   0.118   2.967
 8912TIP3    H226701   4.813   0.155   2.887
 8913TIP3   OH226702   2.437   3.805   0.908
 8913TIP3    H126703   2.454   3.754   0.829
 8913TIP3    H226704   2.372   3.755   0.956
 8914TIP3   OH226705   3.047   3.251   0.913
 8914TIP3    H126706   3.061   3.305   0.991
 8914TIP3    H226707   3.021   3.313   0.845
 8915TIP3   OH226708   0.327   5.799   4.014
 8915TIP3    H126709   0.253   5.857   4.030
 8915TIP3    H226710   0.385   5.813   4.089
 8916TIP3   OH226711   6.268   5.223   5.563
 8916TIP3    H126712   6.309   5.205   5.647
 8916TIP3    H226713   6.184   5.263   5.586
 8917TIP3   OH226714   3.311   1.380   2.363
 8917TIP3    H126715   3.338   1.338   2.445
 8917TIP3    H226716   3.286   1.307   2.306
 8918TIP3   OH226717   0.358   2.870   4.856
 8918TIP3    H126718   0.282   2.928   4.862
 8918TIP3    H226719   0.398   2.890   4.772
 8919TIP3   OH226720   1.753   0.604   5.855
 8919TIP3    H126721   1.736   0.670   5.788
 8919TIP3    H226722   1.677   0.609   5.913
 8920TIP3   OH226723   0.360   5.756   5.673
 8920TIP3    H126724   0.294   5.775   5.739
 8920TIP3    H226725   0.322   5.687   5.619
 8921TIP3   OH226726   3.750   2.994   0.197
 8921TIP3    H126727   3.764   3.069   0.255
 8921TIP3    H226728   3.689   2.937   0.244
 8922TIP3   OH226729   1.049   0.903   0.639
 8922TIP3    H126730   1.118   0.969   0.635
 8922TIP3    H226731   0.978   0.946   0.688
 8923TIP3   OH226732   6.613   3.342   3.149
 8923TIP3    H126733   6.529   3.371   3.113
 8923TIP3    H226734   6.597   3.338   3.243
 8924TIP3   OH226735   6.449   5.092   5.189
 8924TIP3    H126736   6.541   5.099   5.162
 8924TIP3    H226737   6.401   5.078   5.107
 8925TIP3   OH226738   5.801   2.527   4.386
 8925TIP3    H126739   5.766   2.489   4.305
 8925TIP3    H226740   5.848   2.605   4.357
 8926TIP3   OH226741   5.357   0.899   2.003
 8926TIP3    H126742   5.353   0.993   2.020
 8926TIP3    H226743   5.428   0.889   1.939
 8927TIP3   OH226744   0.664   4.110   5.758
 8927TIP3    H126745   0.589   4.051   5.768
 8927TIP3    H226746   0.636   4.171   5.690
 8928TIP3   OH226747   3.976   0.833   2.065
 8928TIP3    H126748   3.884   0.808   2.072
 8928TIP3    H226749   4.022   0.771   2.121
 8929TIP3   OH226750   1.531   4.578   3.985
 8929TIP3    H126751   1.527   4.620   4.071
 8929TIP3    H226752   1.551   4.649   3.924
 8930TIP3   OH226753   3.957   4.870   5.114
 8930TIP3    H126754   3.991   4.798   5.167
 8930TIP3    H226755   3.909   4.827   5.043
 8931TIP3   OH226756   6.914   3.654   1.558
 8931TIP3    H126757   6.987   3.595   1.576
 8931TIP3    H226758   6.840   3.596   1.541
 8932TIP3   OH226759   5.871   5.257   3.273
 8932TIP3    H126760   5.937   5.261   3.203
 8932TIP3    H226761   5.887   5.337   3.324
 8933TIP3   OH226762   5.398   4.547   2.650
 8933TIP3    H126763   5.456   4.531   2.576
 8933TIP3    H226764   5.413   4.639   2.673
 8934TIP3   OH226765   4.493   3.450   1.598
 8934TIP3    H126766   4.544   3.437   1.678
 8934TIP3    H226767   4.402   3.443   1.627
 8935TIP3   OH226768   0.679   2.523   4.309
 8935TIP3    H126769   0.746   2.526   4.377
 8935TIP3    H226770   0.702   2.447   4.256
 8936TIP3   OH226771   2.800   2.570   3.917
 8936TIP3    H126772   2.889   2.546   3.891
 8936TIP3    H226773   2.743   2.522   3.856
 8937TIP3   OH226774   0.510   4.485   1.722
 8937TIP3    H126775   0.524   4.464   1.814
 8937TIP3    H226776   0.487   4.578   1.721
 8938TIP3   OH226777   2.540   2.860   5.514
 8938TIP3    H126778   2.481   2.898   5.448
 8938TIP3    H226779   2.626   2.898   5.494
 8939TIP3   OH226780   6.975   0.315   2.883
 8939TIP3    H126781   7.034   0.243   2.905
 8939TIP3    H226782   7.025   0.394   2.903
 8940TIP3   OH226783   5.919   0.840   1.189
 8940TIP3    H126784   5.949   0.893   1.263
 8940TIP3    H226785   5.997   0.796   1.157
 8941TIP3   OH226786   3.822   2.085   3.443
 8941TIP3    H126787   3.810   1.991   3.460
 8941TIP3    H226788   3.907   2.105   3.481
 8942TIP3   OH226789   2.198   5.218   2.922
 8942TIP3    H126790   2.103   5.210   2.932
 8942TIP3    H226791   2.209   5.274   2.845
 8943TIP3   OH226792   2.076   5.886   4.858
 8943TIP3    H126793   2.004   5.828   4.880
 8943TIP3    H226794   2.154   5.831   4.860
 8944TIP3   OH226795   3.413   6.528   0.059
 8944TIP3    H126796   3.472   6.519   0.134
 8944TIP3    H226797   3.377   6.616   0.068
 8945TIP3   OH226798   5.160   5.368   5.767
 8945TIP3    H126799   5.170   5.345   5.675
 8945TIP3    H226800   5.068   5.396   5.775
 8946TIP3   OH226801   2.342   6.403   0.344
 8946TIP3    H126802   2.305   6.470   0.400
 8946TIP3    H226803   2.334   6.322   0.394
 8947TIP3   OH226804   4.692   1.427   2.825
 8947TIP3    H126805   4.664   1.415   2.915
 8947TIP3    H226806   4.677   1.520   2.807
 8948TIP3   OH226807   7.005   5.656   1.303
 8948TIP3    H126808   7.078   5.718   1.296
 8948TIP3    H226809   6.935   5.695   1.251
 8949TIP3   OH226810   7.205   6.400   5.881
 8949TIP3    H126811   7.121   6.367   5.912
 8949TIP3    H226812   7.191   6.419   5.788
 8950TIP3   OH226813   3.723   5.489   5.736
 8950TIP3    H126814   3.751   5.508   5.647
 8950TIP3    H226815   3.745   5.568   5.786
 8951TIP3   OH226816   7.033   0.782   2.123
 8951TIP3    H126817   7.101   0.763   2.058
 8951TIP3    H226818   6.970   0.710   2.113
 8952TIP3   OH226819   2.686   5.465   0.387
 8952TIP3    H126820   2.682   5.438   0.478
 8952TIP3    H226821   2.760   5.416   0.350
 8953TIP3   OH226822   3.280   2.709   0.025
 8953TIP3    H126823   3.330   2.632   0.053
 8953TIP3    H226824   3.310   2.778   0.085
 8954TIP3   OH226825   4.548   2.665   0.504
 8954TIP3    H126826   4.565   2.744   0.556
 8954TIP3    H226827   4.635   2.635   0.477
 8955TIP3   OH226828   1.396   0.214   4.743
 8955TIP3    H126829   1.378   0.305   4.765
 8955TIP3    H226830   1.442   0.179   4.820
 8956TIP3   OH226831   3.480   0.268   5.910
 8956TIP3    H126832   3.547   0.211   5.873
 8956TIP3    H226833   3.520   0.355   5.912
 8957TIP3   OH226834   0.349   1.880   5.064
 8957TIP3    H126835   0.432   1.928   5.070
 8957TIP3    H226836   0.374   1.794   5.029
 8958TIP3   OH226837   0.428   2.160   0.529
 8958TIP3    H126838   0.451   2.215   0.604
 8958TIP3    H226839   0.354   2.205   0.488
 8959TIP3   OH226840   4.051   1.794   2.221
 8959TIP3    H126841   3.999   1.855   2.169
 8959TIP3    H226842   4.127   1.775   2.166
 8960TIP3   OH226843   4.341   2.796   4.897
 8960TIP3    H126844   4.295   2.802   4.814
 8960TIP3    H226845   4.285   2.742   4.952
 8961TIP3   OH226846   1.955   6.573   2.527
 8961TIP3    H126847   1.997   6.542   2.447
 8961TIP3    H226848   1.995   6.520   2.597
 8962TIP3   OH226849   0.304   2.836   5.437
 8962TIP3    H126850   0.345   2.756   5.472
 8962TIP3    H226851   0.213   2.810   5.420
 8963TIP3   OH226852   1.974   3.619   1.299
 8963TIP3    H126853   2.069   3.610   1.311
 8963TIP3    H226854   1.954   3.707   1.332
 8964TIP3   OH226855   4.300   6.160   2.286
 8964TIP3    H126856   4.213   6.189   2.311
 8964TIP3    H226857   4.328   6.222   2.218
 8965TIP3   OH226858   7.185   3.910   3.066
 8965TIP3    H126859   7.270   3.925   3.107
 8965TIP3    H226860   7.163   3.993   3.025
 8966TIP3   OH226861   6.804   1.634   1.803
 8966TIP3    H126862   6.719   1.632   1.848
 8966TIP3    H226863   6.786   1.598   1.716
 8967TIP3   OH226864   5.807   5.550   1.232
 8967TIP3    H126865   5.726   5.587   1.197
 8967TIP3    H226866   5.793   5.455   1.231
 8968TIP3   OH226867   2.283   6.006   0.577
 8968TIP3    H126868   2.370   5.970   0.561
 8968TIP3    H226869   2.225   5.930   0.578
 8969TIP3   OH226870   5.131   4.818   1.163
 8969TIP3    H126871   5.045   4.820   1.203
 8969TIP3    H226872   5.183   4.881   1.213
 8970TIP3   OH226873   4.322   3.486   3.603
 8970TIP3    H126874   4.379   3.440   3.665
 8970TIP3    H226875   4.267   3.543   3.658
 8971TIP3   OH226876   6.856   3.338   1.037
 8971TIP3    H126877   6.783   3.346   0.974
 8971TIP3    H226878   6.819   3.369   1.120
 8972TIP3   OH226879   2.983   0.526   3.451
 8972TIP3    H126880   2.990   0.549   3.543
 8972TIP3    H226881   2.895   0.553   3.426
 8973TIP3   OH226882   0.152   3.517   5.626
 8973TIP3    H126883   0.226   3.487   5.574
 8973TIP3    H226884   0.182   3.600   5.664
 8974TIP3   OH226885   2.020   4.634   3.588
 8974TIP3    H126886   2.036   4.692   3.662
 8974TIP3    H226887   1.929   4.606   3.599
 8975TIP3   OH226888   1.355   3.054   1.118
 8975TIP3    H126889   1.359   3.136   1.067
 8975TIP3    H226890   1.276   3.011   1.087
 8976TIP3   OH226891   0.746   0.133   3.569
 8976TIP3    H126892   0.828   0.165   3.531
 8976TIP3    H226893   0.687   0.126   3.494
 8977TIP3   OH226894   3.151   3.628   5.685
 8977TIP3    H126895   3.245   3.624   5.697
 8977TIP3    H226896   3.135   3.589   5.599
 8978TIP3   OH226897   4.446   3.994   4.259
 8978TIP3    H126898   4.435   3.903   4.234
 8978TIP3    H226899   4.362   4.035   4.241
 8979TIP3   OH226900   4.251   0.352   2.625
 8979TIP3    H126901   4.345   0.364   2.613
 8979TIP3    H226902   4.243   0.315   2.713
 8980TIP3   OH226903   1.862   0.367   1.621
 8980TIP3    H126904   1.786   0.421   1.601
 8980TIP3    H226905   1.849   0.339   1.712
 8981TIP3   OH226906   5.506   4.466   4.204
 8981TIP3    H126907   5.587   4.415   4.212
 8981TIP3    H226908   5.484   4.462   4.111
 8982TIP3   OH226909   2.987   2.152   1.066
 8982TIP3    H126910   2.966   2.244   1.050
 8982TIP3    H226911   3.053   2.131   1.000
 8983TIP3   OH226912   2.751   0.225   2.648
 8983TIP3    H126913   2.841   0.229   2.678
 8983TIP3    H226914   2.710   0.305   2.682
 8984TIP3   OH226915   0.918   0.050   2.461
 8984TIP3    H126916   0.877  -0.034   2.446
 8984TIP3    H226917   0.928   0.088   2.374
 8985TIP3   OH226918   6.272   3.964   0.102
 8985TIP3    H126919   6.336   4.014   0.153
 8985TIP3    H226920   6.264   4.013   0.020
 8986TIP3   OH226921   7.212   0.589   4.784
 8986TIP3    H126922   7.129   0.541   4.779
 8986TIP3    H226923   7.187   0.676   4.816
 8987TIP3   OH226924   0.871   0.410   2.997
 8987TIP3    H126925   0.836   0.337   2.946
 8987TIP3    H226926   0.963   0.388   3.011
 8988TIP3   OH226927   6.052   6.046   5.726
 8988TIP3    H126928   5.968   6.076   5.693
 8988TIP3    H226929   6.114   6.067   5.656
 8989TIP3   OH226930   6.142   4.630   2.113
 8989TIP3    H126931   6.069   4.692   2.120
 8989TIP3    H226932   6.123   4.564   2.180
 8990TIP3   OH226933   0.254   6.135   4.068
 8990TIP3    H126934   0.241   6.041   4.082
 8990TIP3    H226935   0.176   6.162   4.019
 8991TIP3   OH226936   1.908   4.993   1.232
 8991TIP3    H126937   1.974   4.993   1.300
 8991TIP3    H226938   1.956   5.015   1.152
 8992TIP3   OH226939   4.959   5.035   2.600
 8992TIP3    H126940   4.928   5.059   2.687
 8992TIP3    H226941   4.947   5.114   2.547
 8993TIP3   OH226942   1.739   6.767   2.034
 8993TIP3    H126943   1.665   6.706   2.044
 8993TIP3    H226944   1.747   6.809   2.119
 8994TIP3   OH226945   6.541   0.382   5.789
 8994TIP3    H126946   6.505   0.409   5.874
 8994TIP3    H226947   6.504   0.295   5.774
 8995TIP3   OH226948   2.781   3.138   3.251
 8995TIP3    H126949   2.700   3.188   3.237
 8995TIP3    H226950   2.788   3.081   3.174
 8996TIP3   OH226951   5.563   0.783   4.543
 8996TIP3    H126952   5.617   0.854   4.509
 8996TIP3    H226953   5.575   0.787   4.638
 8997TIP3   OH226954   5.380   0.695   1.153
 8997TIP3    H126955   5.338   0.617   1.188
 8997TIP3    H226956   5.465   0.699   1.197
 8998TIP3   OH226957   2.482   2.511   3.076
 8998TIP3    H126958   2.439   2.478   3.155
 8998TIP3    H226959   2.570   2.475   3.079
 8999TIP3   OH226960   0.938   6.564   1.520
 8999TIP3    H126961   0.959   6.546   1.612
 8999TIP3    H226962   1.024   6.580   1.480
 9000TIP3   OH226963   3.238   1.912   0.706
 9000TIP3    H126964   3.285   1.941   0.628
 9000TIP3    H226965   3.178   1.845   0.675
 9001TIP3   OH226966   6.420   4.058   2.448
 9001TIP3    H126967   6.513   4.051   2.428
 9001TIP3    H226968   6.377   4.002   2.383
 9002TIP3   OH226969   3.021   1.252   2.817
 9002TIP3    H126970   2.940   1.299   2.794
 9002TIP3    H226971   3.070   1.247   2.735
 9003TIP3   OH226972   2.498   2.693   3.522
 9003TIP3    H126973   2.419   2.678   3.573
 9003TIP3    H226974   2.488   2.637   3.445
 9004TIP3   OH226975   2.366   2.934   5.305
 9004TIP3    H126976   2.290   2.889   5.342
 9004TIP3    H226977   2.399   2.875   5.237
 9005TIP3   OH226978   5.033   3.643   2.409
 9005TIP3    H126979   4.972   3.714   2.391
 9005TIP3    H226980   5.007   3.611   2.495
 9006TIP3   OH226981   0.543   3.259   2.385
 9006TIP3    H126982   0.623   3.213   2.409
 9006TIP3    H226983   0.482   3.240   2.456
 9007TIP3   OH226984   1.558   4.497   2.126
 9007TIP3    H126985   1.647   4.514   2.158
 9007TIP3    H226986   1.526   4.426   2.181
 9008TIP3   OH226987   3.384   3.046   5.667
 9008TIP3    H126988   3.343   3.031   5.582
 9008TIP3    H226989   3.379   2.961   5.711
 9009TIP3   OH226990   6.638   3.380   2.701
 9009TIP3    H126991   6.610   3.291   2.726
 9009TIP3    H226992   6.614   3.434   2.776
 9010TIP3   OH226993   4.026   5.875   1.476
 9010TIP3    H126994   4.120   5.865   1.468
 9010TIP3    H226995   4.013   5.968   1.495
 9011TIP3   OH226996   5.565   1.413   3.145
 9011TIP3    H126997   5.627   1.348   3.177
 9011TIP3    H226998   5.577   1.489   3.203
 9012TIP3   OH226999   3.841   0.397   2.827
 9012TIP3    H127000   3.798   0.481   2.813
 9012TIP3    H227001   3.921   0.418   2.875
 9013TIP3   OH227002   6.034   6.238   1.822
 9013TIP3    H127003   6.094   6.173   1.786
 9013TIP3    H227004   6.074   6.264   1.906
 9014TIP3   OH227005   6.763   4.849   5.688
 9014TIP3    H127006   6.733   4.895   5.609
 9014TIP3    H227007   6.730   4.760   5.678
 9015TIP3   OH227008   6.603   6.019   2.745
 9015TIP3    H127009   6.598   6.007   2.650
 9015TIP3    H227010   6.601   6.114   2.757
 9016TIP3   OH227011   2.510   3.633   0.220
 9016TIP3    H127012   2.525   3.550   0.266
 9016TIP3    H227013   2.581   3.639   0.157
 9017TIP3   OH227014   6.270   4.877   2.006
 9017TIP3    H127015   6.292   4.785   1.993
 9017TIP3    H227016   6.198   4.894   1.945
 9018TIP3   OH227017   1.446   5.262   3.925
 9018TIP3    H127018   1.355   5.233   3.937
 9018TIP3    H227019   1.445   5.354   3.951
 9019TIP3   OH227020   7.228   4.494   4.328
 9019TIP3    H127021   7.170   4.424   4.359
 9019TIP3    H227022   7.235   4.479   4.234
 9020TIP3   OH227023   3.821   6.606   3.371
 9020TIP3    H127024   3.868   6.524   3.353
 9020TIP3    H227025   3.853   6.667   3.305
 9021TIP3   OH227026   1.139   0.635   3.116
 9021TIP3    H127027   1.099   0.721   3.101
 9021TIP3    H227028   1.231   0.655   3.134
 9022TIP3   OH227029   2.544   2.970   1.925
 9022TIP3    H127030   2.636   2.963   1.899
 9022TIP3    H227031   2.541   2.930   2.012
 9023TIP3   OH227032   1.858   3.560   3.461
 9023TIP3    H127033   1.921   3.488   3.459
 9023TIP3    H227034   1.887   3.615   3.534
 9024TIP3   OH227035   4.354   3.426   4.325
 9024TIP3    H127036   4.440   3.423   4.368
 9024TIP3    H227037   4.301   3.364   4.374
 9025TIP3   OH227038   1.759   0.992   5.110
 9025TIP3    H127039   1.675   0.973   5.070
 9025TIP3    H227040   1.739   1.012   5.201
 9026TIP3   OH227041   1.118   2.064   0.538
 9026TIP3    H127042   1.189   2.006   0.509
 9026TIP3    H227043   1.070   2.085   0.457
 9027TIP3   OH227044   0.619   3.621   0.102
 9027TIP3    H127045   0.671   3.576   0.169
 9027TIP3    H227046   0.529   3.593   0.120
 9028TIP3   OH227047   5.796   6.744   4.565
 9028TIP3    H127048   5.867   6.785   4.615
 9028TIP3    H227049   5.749   6.818   4.525
 9029TIP3   OH227050   2.438   4.713   4.880
 9029TIP3    H127051   2.357   4.724   4.929
 9029TIP3    H227052   2.473   4.629   4.910
 9030TIP3   OH227053   7.047   0.180   0.977
 9030TIP3    H127054   7.075   0.265   1.012
 9030TIP3    H227055   6.988   0.144   1.043
 9031TIP3   OH227056   3.685   1.078   5.860
 9031TIP3    H127057   3.702   1.055   5.769
 9031TIP3    H227058   3.603   1.035   5.881
 9032TIP3   OH227059   3.309   4.596   5.513
 9032TIP3    H127060   3.272   4.655   5.578
 9032TIP3    H227061   3.258   4.516   5.522
 9033TIP3   OH227062   6.046   5.307   1.286
 9033TIP3    H127063   6.056   5.368   1.213
 9033TIP3    H227064   6.022   5.362   1.360
 9034TIP3   OH227065   6.830   5.284   4.092
 9034TIP3    H127066   6.785   5.263   4.174
 9034TIP3    H227067   6.794   5.368   4.065
 9035TIP3   OH227068   5.075   0.817   0.349
 9035TIP3    H127069   5.031   0.824   0.265
 9035TIP3    H227070   5.151   0.876   0.342
 9036TIP3   OH227071   6.695   3.767   0.407
 9036TIP3    H127072   6.678   3.839   0.467
 9036TIP3    H227073   6.626   3.703   0.425
 9037TIP3   OH227074   1.663   0.606   0.051
 9037TIP3    H127075   1.661   0.541   0.120
 9037TIP3    H227076   1.744   0.590   0.003
 9038TIP3   OH227077   6.525   4.136   1.187
 9038TIP3    H127078   6.510   4.203   1.120
 9038TIP3    H227079   6.437   4.109   1.213
 9039TIP3   OH227080   4.565   1.407   2.056
 9039TIP3    H127081   4.606   1.471   1.998
 9039TIP3    H227082   4.539   1.335   1.998
 9040TIP3   OH227083   3.700   4.100   4.516
 9040TIP3    H127084   3.622   4.132   4.560
 9040TIP3    H227085   3.682   4.112   4.422
 9041TIP3   OH227086   0.184   1.909   5.805
 9041TIP3    H127087   0.120   1.919   5.875
 9041TIP3    H227088   0.185   1.994   5.761
 9042TIP3   OH227089   6.698   5.843   3.650
 9042TIP3    H127090   6.677   5.930   3.683
 9042TIP3    H227091   6.782   5.854   3.605
 9043TIP3   OH227092   0.222   1.678   3.947
 9043TIP3    H127093   0.166   1.621   4.000
 9043TIP3    H227094   0.275   1.726   4.010
 9044TIP3   OH227095   5.630   1.572   1.846
 9044TIP3    H127096   5.557   1.615   1.892
 9044TIP3    H227097   5.696   1.641   1.837
 9045TIP3   OH227098   6.192   2.179   5.078
 9045TIP3    H127099   6.197   2.213   4.988
 9045TIP3    H227100   6.120   2.116   5.076
 9046TIP3   OH227101   2.392   3.396   1.009
 9046TIP3    H127102   2.347   3.363   1.087
 9046TIP3    H227103   2.352   3.481   0.992
 9047TIP3   OH227104   1.784   2.511   0.833
 9047TIP3    H127105   1.722   2.452   0.876
 9047TIP3    H227106   1.767   2.596   0.872
 9048TIP3   OH227107   4.860   4.130   4.316
 9048TIP3    H127108   4.816   4.185   4.381
 9048TIP3    H227109   4.886   4.190   4.247
 9049TIP3   OH227110   6.834   4.290   0.799
 9049TIP3    H127111   6.783   4.218   0.838
 9049TIP3    H227112   6.924   4.271   0.825
 9050TIP3   OH227113   4.549   0.952   3.527
 9050TIP3    H127114   4.623   1.013   3.528
 9050TIP3    H227115   4.474   1.005   3.554
 9051TIP3   OH227116   1.527   6.677   4.112
 9051TIP3    H127117   1.546   6.756   4.061
 9051TIP3    H227118   1.434   6.660   4.095
 9052TIP3   OH227119   4.957   4.385   5.902
 9052TIP3    H127120   4.971   4.294   5.876
 9052TIP3    H227121   5.031   4.433   5.865
 9053TIP3   OH227122   1.265   1.256   4.767
 9053TIP3    H127123   1.213   1.276   4.689
 9053TIP3    H227124   1.272   1.339   4.813
 9054TIP3   OH227125   2.716   2.668   2.207
 9054TIP3    H127126   2.647   2.623   2.257
 9054TIP3    H227127   2.785   2.602   2.198
 9055TIP3   OH227128   5.765   5.027   5.347
 9055TIP3    H127129   5.736   5.116   5.369
 9055TIP3    H227130   5.851   5.019   5.387
 9056TIP3   OH227131   4.846   5.889   0.956
 9056TIP3    H127132   4.857   5.860   0.866
 9056TIP3    H227133   4.849   5.809   1.008
 9057TIP3   OH227134   2.694   1.033   0.782
 9057TIP3    H127135   2.714   0.972   0.711
 9057TIP3    H227136   2.623   1.087   0.748
 9058TIP3   OH227137   6.807   4.705  -0.004
 9058TIP3    H127138   6.810   4.696  -0.099
 9058TIP3    H227139   6.884   4.757   0.019
 9059TIP3   OH227140   3.400   1.215   1.730
 9059TIP3    H127141   3.460   1.173   1.668
 9059TIP3    H227142   3.349   1.143   1.766
 9060TIP3   OH227143   0.878   0.860   5.214
 9060TIP3    H127144   0.966   0.895   5.221
 9060TIP3    H227145   0.855   0.836   5.304
 9061TIP3   OH227146   5.832   4.747   3.601
 9061TIP3    H127147   5.911   4.769   3.552
 9061TIP3    H227148   5.769   4.815   3.577
 9062TIP3   OH227149   6.429   6.214   1.060
 9062TIP3    H127150   6.465   6.155   1.127
 9062TIP3    H227151   6.463   6.300   1.084
 9063TIP3   OH227152   6.566   1.897   5.601
 9063TIP3    H127153   6.486   1.846   5.598
 9063TIP3    H227154   6.583   1.911   5.695
 9064TIP3   OH227155   5.757   1.762   0.978
 9064TIP3    H127156   5.786   1.756   0.887
 9064TIP3    H227157   5.812   1.700   1.025
 9065TIP3   OH227158   3.476   0.306   0.163
 9065TIP3    H127159   3.536   0.290   0.236
 9065TIP3    H227160   3.415   0.233   0.165
 9066TIP3   OH227161   6.371   1.114   0.210
 9066TIP3    H127162   6.277   1.102   0.194
 9066TIP3    H227163   6.377   1.201   0.250
 9067TIP3   OH227164   2.505   3.139   3.598
 9067TIP3    H127165   2.600   3.147   3.605
 9067TIP3    H227166   2.484   3.181   3.515
 9068TIP3   OH227167   4.954   1.845   0.889
 9068TIP3    H127168   4.954   1.756   0.925
 9068TIP3    H227169   5.046   1.872   0.890
 9069TIP3   OH227170   2.563   5.552   4.516
 9069TIP3    H127171   2.554   5.624   4.453
 9069TIP3    H227172   2.615   5.486   4.471
 9070TIP3   OH227173   2.175   3.851   1.819
 9070TIP3    H127174   2.196   3.811   1.903
 9070TIP3    H227175   2.084   3.826   1.803
 9071TIP3   OH227176   5.374   0.573   0.820
 9071TIP3    H127177   5.397   0.637   0.753
 9071TIP3    H227178   5.326   0.623   0.886
 9072TIP3   OH227179   2.548   2.409   2.025
 9072TIP3    H127180   2.516   2.364   1.946
 9072TIP3    H227181   2.563   2.338   2.088
 9073TIP3   OH227182   3.645   4.120   3.771
 9073TIP3    H127183   3.599   4.177   3.709
 9073TIP3    H227184   3.733   4.110   3.735
 9074TIP3   OH227185   3.762   3.504   2.423
 9074TIP3    H127186   3.854   3.504   2.398
 9074TIP3    H227187   3.741   3.412   2.441
 9075TIP3   OH227188   0.192   4.983   5.877
 9075TIP3    H127189   0.098   4.991   5.889
 9075TIP3    H227190   0.214   4.896   5.908
 9076TIP3   OH227191   1.126   5.653   3.411
 9076TIP3    H127192   1.123   5.719   3.342
 9076TIP3    H227193   1.188   5.688   3.475
 9077TIP3   OH227194   0.366   6.102   3.324
 9077TIP3    H127195   0.376   6.078   3.417
 9077TIP3    H227196   0.344   6.195   3.326
 9078TIP3   OH227197   0.723   6.778   3.994
 9078TIP3    H127198   0.641   6.733   4.016
 9078TIP3    H227199   0.726   6.777   3.898
 9079TIP3   OH227200   1.180   2.836   4.590
 9079TIP3    H127201   1.159   2.917   4.638
 9079TIP3    H227202   1.141   2.849   4.504
 9080TIP3   OH227203   4.102   4.494   5.041
 9080TIP3    H127204   4.088   4.425   4.976
 9080TIP3    H227205   4.129   4.570   4.989
 9081TIP3   OH227206   5.383   5.358   5.102
 9081TIP3    H127207   5.414   5.298   5.170
 9081TIP3    H227208   5.395   5.310   5.020
 9082TIP3   OH227209   6.881   3.455   3.655
 9082TIP3    H127210   6.790   3.481   3.643
 9082TIP3    H227211   6.882   3.406   3.737
 9083TIP3   OH227212   6.376   6.131   0.263
 9083TIP3    H127213   6.348   6.061   0.322
 9083TIP3    H227214   6.471   6.134   0.272
 9084TIP3   OH227215   5.457   5.315   4.487
 9084TIP3    H127216   5.394   5.322   4.558
 9084TIP3    H227217   5.541   5.302   4.531
 9085TIP3   OH227218   0.123   1.879   1.714
 9085TIP3    H127219   0.081   1.958   1.747
 9085TIP3    H227220   0.106   1.813   1.781
 9086TIP3   OH227221   2.180   5.503   5.525
 9086TIP3    H127222   2.091   5.538   5.516
 9086TIP3    H227223   2.178   5.420   5.477
 9087TIP3   OH227224   0.979   4.310   2.255
 9087TIP3    H127225   0.970   4.237   2.316
 9087TIP3    H227226   0.893   4.352   2.255
 9088TIP3   OH227227   2.740   2.434   2.826
 9088TIP3    H127228   2.773   2.431   2.916
 9088TIP3    H227229   2.792   2.369   2.780
 9089TIP3   OH227230   6.203   5.314   0.310
 9089TIP3    H127231   6.135   5.303   0.376
 9089TIP3    H227232   6.163   5.368   0.242
 9090TIP3   OH227233   0.747   2.452   5.409
 9090TIP3    H127234   0.745   2.362   5.441
 9090TIP3    H227235   0.824   2.490   5.452
 9091TIP3   OH227236   5.376   4.600   5.552
 9091TIP3    H127237   5.466   4.632   5.555
 9091TIP3    H227238   5.379   4.523   5.495
 9092TIP3   OH227239   0.916   0.193   4.447
 9092TIP3    H127240   0.973   0.235   4.512
 9092TIP3    H227241   0.916   0.253   4.372
 9093TIP3   OH227242   1.023   0.709   1.518
 9093TIP3    H127243   0.933   0.710   1.487
 9093TIP3    H227244   1.067   0.776   1.467
 9094TIP3   OH227245   3.706   1.816   4.431
 9094TIP3    H127246   3.782   1.867   4.403
 9094TIP3    H227247   3.737   1.725   4.428
 9095TIP3   OH227248   6.458   1.797   3.710
 9095TIP3    H127249   6.519   1.730   3.678
 9095TIP3    H227250   6.430   1.844   3.631
 9096TIP3   OH227251   6.634   2.349   1.618
 9096TIP3    H127252   6.670   2.387   1.538
 9096TIP3    H227253   6.707   2.350   1.680
 9097TIP3   OH227254   6.846   5.082   0.135
 9097TIP3    H127255   6.836   5.059   0.228
 9097TIP3    H227256   6.763   5.056   0.095
 9098TIP3   OH227257   6.820   1.093   4.037
 9098TIP3    H127258   6.845   1.136   3.956
 9098TIP3    H227259   6.729   1.066   4.023
 9099TIP3   OH227260   2.568   2.781   3.155
 9099TIP3    H127261   2.569   2.691   3.123
 9099TIP3    H227262   2.640   2.824   3.108
 9100TIP3   OH227263   3.023   2.130   5.577
 9100TIP3    H127264   2.945   2.134   5.521
 9100TIP3    H227265   3.003   2.060   5.639
 9101TIP3   OH227266   4.927   5.533   2.012
 9101TIP3    H127267   4.900   5.622   2.033
 9101TIP3    H227268   4.871   5.478   2.068
 9102TIP3   OH227269   7.129   4.454   0.470
 9102TIP3    H127270   7.088   4.540   0.483
 9102TIP3    H227271   7.096   4.425   0.385
 9103TIP3   OH227272   6.504   0.165   0.966
 9103TIP3    H127273   6.501   0.153   0.871
 9103TIP3    H227274   6.594   0.144   0.990
 9104TIP3   OH227275   5.432   6.723   4.341
 9104TIP3    H127276   5.458   6.792   4.401
 9104TIP3    H227277   5.444   6.761   4.254
 9105TIP3   OH227278   4.003   2.864   2.096
 9105TIP3    H127279   3.997   2.919   2.174
 9105TIP3    H227280   4.093   2.874   2.066
 9106TIP3   OH227281   2.473   3.995   5.251
 9106TIP3    H127282   2.490   4.083   5.285
 9106TIP3    H227283   2.377   3.990   5.246
 9107TIP3   OH227284   3.014   0.565   1.135
 9107TIP3    H127285   3.018   0.475   1.103
 9107TIP3    H227286   3.084   0.570   1.201
 9108TIP3   OH227287   0.204   5.729   0.386
 9108TIP3    H127288   0.111   5.723   0.406
 9108TIP3    H227289   0.212   5.697   0.296
 9109TIP3   OH227290   7.195   1.999   2.484
 9109TIP3    H127291   7.212   2.068   2.420
 9109TIP3    H227292   7.250   2.023   2.559
 9110TIP3   OH227293   5.603   0.461   1.142
 9110TIP3    H127294   5.686   0.416   1.125
 9110TIP3    H227295   5.626   0.554   1.142
 9111TIP3   OH227296   1.602   2.525   5.014
 9111TIP3    H127297   1.589   2.493   5.103
 9111TIP3    H227298   1.551   2.464   4.959
 9112TIP3   OH227299   4.025   6.720   5.386
 9112TIP3    H127300   4.024   6.696   5.478
 9112TIP3    H227301   4.032   6.815   5.385
 9113TIP3   OH227302   3.070   1.812   0.474
 9113TIP3    H127303   3.015   1.765   0.412
 9113TIP3    H227304   3.039   1.903   0.470
 9114TIP3   OH227305   2.289   6.544   5.375
 9114TIP3    H127306   2.294   6.625   5.425
 9114TIP3    H227307   2.279   6.476   5.441
 9115TIP3   OH227308   1.060   4.544   0.235
 9115TIP3    H127309   1.061   4.475   0.168
 9115TIP3    H227310   0.967   4.561   0.251
 9116TIP3   OH227311   0.569   1.992   5.729
 9116TIP3    H127312   0.505   2.062   5.727
 9116TIP3    H227313   0.650   2.033   5.760
 9117TIP3   OH227314   3.835   2.809   4.346
 9117TIP3    H127315   3.784   2.853   4.279
 9117TIP3    H227316   3.844   2.719   4.314
 9118TIP3   OH227317   2.263   5.435   5.098
 9118TIP3    H127318   2.187   5.464   5.149
 9118TIP3    H227319   2.236   5.445   5.007
 9119TIP3   OH227320   0.621   3.712   1.577
 9119TIP3    H127321   0.667   3.629   1.586
 9119TIP3    H227322   0.531   3.687   1.554
 9120TIP3   OH227323   1.462   3.356   1.919
 9120TIP3    H127324   1.467   3.380   1.827
 9120TIP3    H227325   1.426   3.267   1.919
 9121TIP3   OH227326   4.779   0.550   5.819
 9121TIP3    H127327   4.861   0.600   5.824
 9121TIP3    H227328   4.751   0.557   5.728
 9122TIP3   OH227329   4.593   1.274   5.677
 9122TIP3    H127330   4.682   1.305   5.693
 9122TIP3    H227331   4.544   1.352   5.653
 9123TIP3   OH227332   7.089   4.651   0.189
 9123TIP3    H127333   7.055   4.561   0.190
 9123TIP3    H227334   7.033   4.697   0.251
 9124TIP3   OH227335   2.067   4.698   2.751
 9124TIP3    H127336   2.071   4.621   2.695
 9124TIP3    H227337   2.137   4.686   2.815
 9125TIP3   OH227338   1.817   4.832   4.767
 9125TIP3    H127339   1.759   4.824   4.843
 9125TIP3    H227340   1.825   4.742   4.733
 9126TIP3   OH227341   5.384   0.753   0.225
 9126TIP3    H127342   5.468   0.716   0.254
 9126TIP3    H227343   5.370   0.827   0.284
 9127TIP3   OH227344   2.947   2.795   5.553
 9127TIP3    H127345   2.887   2.738   5.601
 9127TIP3    H227346   2.994   2.842   5.622
 9128TIP3   OH227347   2.322   1.603   2.092
 9128TIP3    H127348   2.296   1.611   2.001
 9128TIP3    H227349   2.349   1.691   2.118
 9129TIP3   OH227350   4.551   4.911   1.201
 9129TIP3    H127351   4.471   4.883   1.158
 9129TIP3    H227352   4.562   5.002   1.173
 9130TIP3   OH227353   1.966   6.511   1.084
 9130TIP3    H127354   2.000   6.524   0.996
 9130TIP3    H227355   1.991   6.590   1.132
 9131TIP3   OH227356   1.636   1.067   5.623
 9131TIP3    H127357   1.702   1.072   5.691
 9131TIP3    H227358   1.552   1.074   5.670
 9132TIP3   OH227359   0.089   2.963   2.169
 9132TIP3    H127360   0.007   3.005   2.141
 9132TIP3    H227361   0.154   2.994   2.107
 9133TIP3   OH227362   2.586   3.194   2.542
 9133TIP3    H127363   2.612   3.283   2.567
 9133TIP3    H227364   2.660   3.160   2.492
 9134TIP3   OH227365   5.116   4.509   0.175
 9134TIP3    H127366   5.073   4.560   0.243
 9134TIP3    H227367   5.179   4.454   0.222
 9135TIP3   OH227368   5.645   3.321   1.242
 9135TIP3    H127369   5.573   3.377   1.214
 9135TIP3    H227370   5.667   3.352   1.329
 9136TIP3   OH227371   5.735   5.746   1.706
 9136TIP3    H127372   5.709   5.782   1.790
 9136TIP3    H227373   5.653   5.719   1.665
 9137TIP3   OH227374   3.189   1.225   3.733
 9137TIP3    H127375   3.207   1.237   3.826
 9137TIP3    H227376   3.198   1.131   3.718
 9138TIP3   OH227377   3.985   3.025   0.040
 9138TIP3    H127378   3.916   3.028   0.106
 9138TIP3    H227379   3.966   2.946  -0.011
 9139TIP3   OH227380   5.791   3.719   3.488
 9139TIP3    H127381   5.754   3.780   3.425
 9139TIP3    H227382   5.819   3.644   3.436
 9140TIP3   OH227383   2.931   6.761   4.022
 9140TIP3    H127384   2.970   6.806   4.097
 9140TIP3    H227385   2.912   6.673   4.055
 9141TIP3   OH227386   5.359   2.682   2.951
 9141TIP3    H127387   5.302   2.636   2.890
 9141TIP3    H227388   5.359   2.773   2.920
 9142TIP3   OH227389   3.092   2.266   2.421
 9142TIP3    H127390   3.162   2.326   2.445
 9142TIP3    H227391   3.129   2.212   2.350
 9143TIP3   OH227392   5.151   0.784   2.327
 9143TIP3    H127393   5.231   0.836   2.315
 9143TIP3    H227394   5.099   0.833   2.391
 9144TIP3   OH227395   7.090   0.470   2.051
 9144TIP3    H127396   7.164   0.487   2.110
 9144TIP3    H227397   7.123   0.405   1.990
 9145TIP3   OH227398   6.455   3.961   1.438
 9145TIP3    H127399   6.404   4.028   1.391
 9145TIP3    H227400   6.525   4.010   1.481
 9146TIP3   OH227401   4.370   2.387   0.534
 9146TIP3    H127402   4.379   2.347   0.620
 9146TIP3    H227403   4.385   2.480   0.549
 9147TIP3   OH227404   0.932   3.681   2.345
 9147TIP3    H127405   0.953   3.750   2.408
 9147TIP3    H227406   0.849   3.645   2.376
 9148TIP3   OH227407   4.806   4.751   3.497
 9148TIP3    H127408   4.829   4.811   3.426
 9148TIP3    H227409   4.889   4.728   3.537
 9149TIP3   OH227410   3.909   1.524   1.864
 9149TIP3    H127411   3.991   1.497   1.821
 9149TIP3    H227412   3.841   1.497   1.803
 9150TIP3   OH227413   6.703   2.225   4.236
 9150TIP3    H127414   6.696   2.132   4.257
 9150TIP3    H227415   6.795   2.246   4.253
 9151TIP3   OH227416   2.251   6.674   0.176
 9151TIP3    H127417   2.230   6.697   0.267
 9151TIP3    H227418   2.249   6.757   0.129
 9152TIP3   OH227419   2.643   1.703   1.949
 9152TIP3    H127420   2.649   1.650   1.870
 9152TIP3    H227421   2.692   1.655   2.015
 9153TIP3   OH227422   1.844   2.630   0.602
 9153TIP3    H127423   1.825   2.578   0.681
 9153TIP3    H227424   1.837   2.721   0.631
 9154TIP3   OH227425   6.235   2.393   2.417
 9154TIP3    H127426   6.220   2.360   2.329
 9154TIP3    H227427   6.156   2.369   2.466
 9155TIP3   OH227428   4.754   0.127   0.689
 9155TIP3    H127429   4.790   0.171   0.766
 9155TIP3    H227430   4.762   0.192   0.619
 9156TIP3   OH227431   5.292   6.049   2.427
 9156TIP3    H127432   5.241   6.082   2.501
 9156TIP3    H227433   5.346   5.980   2.465
 9157TIP3   OH227434   6.280   5.815   2.340
 9157TIP3    H127435   6.324   5.730   2.345
 9157TIP3    H227436   6.290   5.853   2.428
 9158TIP3   OH227437   3.938   4.360   3.764
 9158TIP3    H127438   3.942   4.283   3.707
 9158TIP3    H227439   3.866   4.341   3.825
 9159TIP3   OH227440   3.177   6.201   5.416
 9159TIP3    H127441   3.244   6.253   5.370
 9159TIP3    H227442   3.179   6.116   5.373
 9160TIP3   OH227443   0.426   4.874   0.740
 9160TIP3    H127444   0.336   4.905   0.726
 9160TIP3    H227445   0.450   4.832   0.658
 9161TIP3   OH227446   6.204   4.246   5.654
 9161TIP3    H127447   6.119   4.206   5.668
 9161TIP3    H227448   6.251   4.231   5.736
 9162TIP3   OH227449   2.263   3.270   1.557
 9162TIP3    H127450   2.287   3.226   1.638
 9162TIP3    H227451   2.174   3.301   1.571
 9163TIP3   OH227452   3.170   6.110   5.143
 9163TIP3    H127453   3.098   6.166   5.171
 9163TIP3    H227454   3.214   6.161   5.074
 9164TIP3   OH227455   2.533   0.156   0.403
 9164TIP3    H127456   2.529   0.085   0.467
 9164TIP3    H227457   2.525   0.236   0.456
 9165TIP3   OH227458   1.288   6.748   2.178
 9165TIP3    H127459   1.200   6.779   2.200
 9165TIP3    H227460   1.346   6.819   2.204
 9166TIP3   OH227461   3.848   3.374   2.059
 9166TIP3    H127462   3.908   3.312   2.101
 9166TIP3    H227463   3.783   3.318   2.015
 9167TIP3   OH227464   5.375   0.943   5.041
 9167TIP3    H127465   5.426   1.021   5.060
 9167TIP3    H227466   5.403   0.879   5.106
 9168TIP3   OH227467   6.601   3.176   1.953
 9168TIP3    H127468   6.634   3.262   1.929
 9168TIP3    H227469   6.596   3.128   1.871
 9169TIP3   OH227470   4.104   6.597   2.634
 9169TIP3    H127471   4.040   6.659   2.669
 9169TIP3    H227472   4.121   6.536   2.705
 9170TIP3   OH227473   1.695   2.545   2.548
 9170TIP3    H127474   1.652   2.602   2.613
 9170TIP3    H227475   1.764   2.501   2.598
 9171TIP3   OH227476   1.652   5.152   5.514
 9171TIP3    H127477   1.747   5.146   5.527
 9171TIP3    H227478   1.619   5.068   5.544
 9172TIP3   OH227479   5.875   1.783   4.116
 9172TIP3    H127480   5.921   1.836   4.180
 9172TIP3    H227481   5.923   1.797   4.034
 9173TIP3   OH227482   6.013   4.343   0.794
 9173TIP3    H127483   5.970   4.274   0.743
 9173TIP3    H227484   6.072   4.296   0.852
 9174TIP3   OH227485   4.534   6.160   5.310
 9174TIP3    H127486   4.491   6.107   5.378
 9174TIP3    H227487   4.585   6.224   5.358
 9175TIP3   OH227488   6.224   3.641   3.245
 9175TIP3    H127489   6.168   3.595   3.182
 9175TIP3    H227490   6.199   3.605   3.330
 9176TIP3   OH227491   0.411   6.373   3.986
 9176TIP3    H127492   0.358   6.298   4.011
 9176TIP3    H227493   0.429   6.360   3.893
 9177TIP3   OH227494   2.854   5.577   2.814
 9177TIP3    H127495   2.903   5.644   2.767
 9177TIP3    H227496   2.796   5.627   2.872
 9178TIP3   OH227497   2.675   5.006   4.678
 9178TIP3    H127498   2.761   4.989   4.640
 9178TIP3    H227499   2.693   5.035   4.768
 9179TIP3   OH227500   3.866   0.091   0.792
 9179TIP3    H127501   3.920   0.045   0.728
 9179TIP3    H227502   3.886   0.183   0.779
 9180TIP3   OH227503   2.941   0.476   4.664
 9180TIP3    H127504   2.864   0.472   4.721
 9180TIP3    H227505   3.015   0.483   4.725
 9181TIP3   OH227506   4.497   0.534   5.179
 9181TIP3    H127507   4.528   0.553   5.091
 9181TIP3    H227508   4.473   0.619   5.215
 9182TIP3   OH227509   6.441   6.316   2.231
 9182TIP3    H127510   6.444   6.411   2.229
 9182TIP3    H227511   6.532   6.289   2.216
 9183TIP3   OH227512   5.683   0.011   0.080
 9183TIP3    H127513   5.637   0.041   0.158
 9183TIP3    H227514   5.697   0.091   0.029
 9184TIP3   OH227515   1.429   5.472   3.075
 9184TIP3    H127516   1.375   5.541   3.037
 9184TIP3    H227517   1.502   5.462   3.014
 9185TIP3   OH227518   0.771   3.453   5.111
 9185TIP3    H127519   0.822   3.375   5.089
 9185TIP3    H227520   0.681   3.430   5.089
 9186TIP3   OH227521   3.076   4.048   3.046
 9186TIP3    H127522   3.002   4.057   3.106
 9186TIP3    H227523   3.067   4.121   2.985
 9187TIP3   OH227524   2.493   2.926   2.418
 9187TIP3    H127525   2.489   3.011   2.462
 9187TIP3    H227526   2.454   2.865   2.480
 9188TIP3   OH227527   5.251   6.495   0.552
 9188TIP3    H127528   5.332   6.538   0.523
 9188TIP3    H227529   5.251   6.411   0.505
 9189TIP3   OH227530   0.422   5.204   1.842
 9189TIP3    H127531   0.368   5.194   1.921
 9189TIP3    H227532   0.437   5.299   1.836
 9190TIP3   OH227533   2.117   5.897   5.689
 9190TIP3    H127534   2.180   5.901   5.761
 9190TIP3    H227535   2.165   5.931   5.613
 9191TIP3   OH227536   2.817   3.523   5.665
 9191TIP3    H127537   2.848   3.611   5.644
 9191TIP3    H227538   2.889   3.465   5.638
 9192TIP3   OH227539   4.222   3.898   1.780
 9192TIP3    H127540   4.165   3.832   1.740
 9192TIP3    H227541   4.197   3.898   1.872
 9193TIP3   OH227542   6.007   0.003   4.294
 9193TIP3    H127543   6.036   0.091   4.318
 9193TIP3    H227544   5.934  -0.015   4.353
 9194TIP3   OH227545   0.500   1.341   4.430
 9194TIP3    H127546   0.429   1.343   4.494
 9194TIP3    H227547   0.467   1.392   4.356
 9195TIP3   OH227548   6.981   0.660   2.376
 9195TIP3    H127549   6.978   0.694   2.286
 9195TIP3    H227550   6.969   0.737   2.431
 9196TIP3   OH227551   3.342   6.719   1.322
 9196TIP3    H127552   3.299   6.692   1.403
 9196TIP3    H227553   3.339   6.814   1.324
 9197TIP3   OH227554   6.521   2.502   3.122
 9197TIP3    H127555   6.565   2.554   3.055
 9197TIP3    H227556   6.562   2.529   3.204
 9198TIP3   OH227557   1.052   4.611   2.211
 9198TIP3    H127558   1.014   4.523   2.205
 9198TIP3    H227559   1.139   4.602   2.171
 9199TIP3   OH227560   4.417   5.913   2.990
 9199TIP3    H127561   4.472   5.836   2.973
 9199TIP3    H227562   4.362   5.920   2.912
 9200TIP3   OH227563   6.865   3.722   2.945
 9200TIP3    H127564   6.867   3.758   3.034
 9200TIP3    H227565   6.935   3.769   2.899
 9201TIP3   OH227566   6.957   2.522   2.398
 9201TIP3    H127567   6.990   2.454   2.457
 9201TIP3    H227568   6.957   2.481   2.311
 9202TIP3   OH227569   5.318   4.859   5.851
 9202TIP3    H127570   5.317   4.950   5.883
 9202TIP3    H227571   5.396   4.821   5.890
 9203TIP3   OH227572   5.370   3.075   0.985
 9203TIP3    H127573   5.309   3.002   0.998
 9203TIP3    H227574   5.438   3.040   0.927
 9204TIP3   OH227575   4.659   0.810   5.123
 9204TIP3    H127576   4.673   0.881   5.061
 9204TIP3    H227577   4.655   0.731   5.069
 9205TIP3   OH227578   4.203   5.456   1.794
 9205TIP3    H127579   4.252   5.536   1.817
 9205TIP3    H227580   4.114   5.487   1.777
 9206TIP3   OH227581   3.457   5.472   0.480
 9206TIP3    H127582   3.511   5.498   0.555
 9206TIP3    H227583   3.367   5.489   0.508
 9207TIP3   OH227584   0.599   2.778   4.617
 9207TIP3    H127585   0.544   2.706   4.587
 9207TIP3    H227586   0.540   2.854   4.617
 9208TIP3   OH227587   5.051   2.385   0.541
 9208TIP3    H127588   5.018   2.389   0.631
 9208TIP3    H227589   5.089   2.472   0.526
 9209TIP3   OH227590   1.133   0.685   4.594
 9209TIP3    H127591   1.068   0.739   4.639
 9209TIP3    H227592   1.211   0.693   4.649
 9210TIP3   OH227593   5.871   5.973   5.251
 9210TIP3    H127594   5.820   5.917   5.308
 9210TIP3    H227595   5.961   5.940   5.259
 9211TIP3   OH227596   3.765   4.997   1.718
 9211TIP3    H127597   3.848   5.042   1.731
 9211TIP3    H227598   3.739   4.968   1.806
 9212TIP3   OH227599   3.409   4.489   5.862
 9212TIP3    H127600   3.365   4.561   5.906
 9212TIP3    H227601   3.489   4.527   5.826
 9213TIP3   OH227602   3.890   1.221   0.646
 9213TIP3    H127603   3.823   1.267   0.696
 9213TIP3    H227604   3.963   1.282   0.641
 9214TIP3   OH227605   2.888   2.952   1.051
 9214TIP3    H127606   2.954   2.992   1.107
 9214TIP3    H227607   2.839   3.026   1.015
 9215TIP3   OH227608   1.584   6.322   1.382
 9215TIP3    H127609   1.671   6.357   1.361
 9215TIP3    H227610   1.539   6.316   1.298
 9216TIP3   OH227611   6.026   5.536   0.203
 9216TIP3    H127612   5.972   5.501   0.132
 9216TIP3    H227613   5.991   5.624   0.218
 9217TIP3   OH227614   2.876   5.582   2.391
 9217TIP3    H127615   2.959   5.535   2.397
 9217TIP3    H227616   2.897   5.673   2.412
 9218TIP3   OH227617   0.572   3.216   5.374
 9218TIP3    H127618   0.629   3.156   5.423
 9218TIP3    H227619   0.513   3.158   5.326
 9219TIP3   OH227620   2.504   2.610   2.365
 9219TIP3    H127621   2.556   2.555   2.424
 9219TIP3    H227622   2.436   2.647   2.421
 9220TIP3   OH227623   4.559   1.513   4.168
 9220TIP3    H127624   4.604   1.584   4.123
 9220TIP3    H227625   4.518   1.555   4.244
 9221TIP3   OH227626   5.337   6.292   5.670
 9221TIP3    H127627   5.331   6.337   5.586
 9221TIP3    H227628   5.402   6.343   5.720
 9222TIP3   OH227629   5.238   3.276   0.293
 9222TIP3    H127630   5.320   3.310   0.328
 9222TIP3    H227631   5.211   3.208   0.355
 9223TIP3   OH227632   5.578   5.262   2.777
 9223TIP3    H127633   5.660   5.231   2.814
 9223TIP3    H227634   5.535   5.307   2.850
 9224TIP3   OH227635   4.221   4.743   4.481
 9224TIP3    H127636   4.178   4.657   4.489
 9224TIP3    H227637   4.302   4.725   4.433
 9225TIP3   OH227638   4.858   0.391   5.001
 9225TIP3    H127639   4.764   0.409   4.997
 9225TIP3    H227640   4.885   0.425   5.086
 9226TIP3   OH227641   0.496   1.767   4.579
 9226TIP3    H127642   0.505   1.862   4.576
 9226TIP3    H227643   0.402   1.751   4.570
 9227TIP3   OH227644   6.405   0.599   0.555
 9227TIP3    H127645   6.473   0.565   0.613
 9227TIP3    H227646   6.363   0.668   0.606
 9228TIP3   OH227647   6.751   0.386   0.878
 9228TIP3    H127648   6.702   0.413   0.956
 9228TIP3    H227649   6.721   0.297   0.861
 9229TIP3   OH227650   4.915   6.045   4.165
 9229TIP3    H127651   4.879   6.126   4.130
 9229TIP3    H227652   4.841   5.985   4.169
 9230TIP3   OH227653   4.232   2.158   4.921
 9230TIP3    H127654   4.278   2.213   4.984
 9230TIP3    H227655   4.210   2.217   4.849
 9231TIP3   OH227656   5.123   2.495   0.167
 9231TIP3    H127657   5.101   2.580   0.205
 9231TIP3    H227658   5.164   2.515   0.083
 9232TIP3   OH227659   4.023   4.058   4.445
 9232TIP3    H127660   4.100   4.096   4.488
 9232TIP3    H227661   3.953   4.064   4.510
 9233TIP3   OH227662   1.481   3.692   2.929
 9233TIP3    H127663   1.554   3.750   2.952
 9233TIP3    H227664   1.523   3.609   2.903
 9234TIP3   OH227665   6.562   4.694   2.253
 9234TIP3    H127666   6.655   4.675   2.243
 9234TIP3    H227667   6.538   4.739   2.172
 9235TIP3   OH227668   7.029   4.297   1.642
 9235TIP3    H127669   6.970   4.361   1.604
 9235TIP3    H227670   7.068   4.252   1.567
 9236TIP3   OH227671   6.699   6.781   1.811
 9236TIP3    H127672   6.664   6.870   1.823
 9236TIP3    H227673   6.627   6.723   1.838
 9237TIP3   OH227674   1.747   0.140   5.516
 9237TIP3    H127675   1.807   0.082   5.470
 9237TIP3    H227676   1.674   0.152   5.455
 9238TIP3   OH227677   0.917   1.424   1.981
 9238TIP3    H127678   0.904   1.357   1.915
 9238TIP3    H227679   0.992   1.393   2.032
 9239TIP3   OH227680   1.498   0.107   0.217
 9239TIP3    H127681   1.471   0.023   0.180
 9239TIP3    H227682   1.429   0.168   0.191
 9240TIP3   OH227683   3.230   0.553   2.357
 9240TIP3    H127684   3.212   0.482   2.420
 9240TIP3    H227685   3.165   0.620   2.377
 9241TIP3   OH227686   3.979   1.290   1.596
 9241TIP3    H127687   4.006   1.265   1.684
 9241TIP3    H227688   4.041   1.358   1.569
 9242TIP3   OH227689   7.020   4.640   0.849
 9242TIP3    H127690   6.995   4.566   0.904
 9242TIP3    H227691   6.956   4.639   0.777
 9243TIP3   OH227692   4.725   3.854   1.682
 9243TIP3    H127693   4.773   3.934   1.704
 9243TIP3    H227694   4.637   3.869   1.719
 9244TIP3   OH227695   3.087   0.767   5.911
 9244TIP3    H127696   3.109   0.838   5.972
 9244TIP3    H227697   3.094   0.687   5.964
 9245TIP3   OH227698   2.709   2.357   5.027
 9245TIP3    H127699   2.638   2.294   5.038
 9245TIP3    H227700   2.780   2.306   4.988
 9246TIP3   OH227701   4.304   4.232   2.129
 9246TIP3    H127702   4.295   4.321   2.093
 9246TIP3    H227703   4.394   4.230   2.162
 9247TIP3   OH227704   0.873   1.745   5.779
 9247TIP3    H127705   0.814   1.670   5.781
 9247TIP3    H227706   0.817   1.820   5.800
 9248TIP3   OH227707   4.344   6.204   1.446
 9248TIP3    H127708   4.364   6.245   1.530
 9248TIP3    H227709   4.302   6.121   1.469
 9249TIP3   OH227710   3.876   1.721   5.484
 9249TIP3    H127711   3.791   1.720   5.439
 9249TIP3    H227712   3.893   1.629   5.505
 9250TIP3   OH227713   5.461   3.819   1.660
 9250TIP3    H127714   5.404   3.764   1.714
 9250TIP3    H227715   5.466   3.902   1.706
 9251TIP3   OH227716   3.507   3.505   4.583
 9251TIP3    H127717   3.571   3.555   4.533
 9251TIP3    H227718   3.530   3.413   4.568
 9252TIP3   OH227719   1.475   3.421   1.627
 9252TIP3    H127720   1.395   3.372   1.609
 9252TIP3    H227721   1.479   3.486   1.556
 9253TIP3   OH227722   0.341   2.766   1.929
 9253TIP3    H127723   0.308   2.710   1.999
 9253TIP3    H227724   0.436   2.759   1.935
 9254TIP3   OH227725   5.936   2.720   4.222
 9254TIP3    H127726   5.962   2.636   4.186
 9254TIP3    H227727   5.964   2.785   4.158
 9255TIP3   OH227728   4.566   2.892   3.410
 9255TIP3    H127729   4.561   2.871   3.503
 9255TIP3    H227730   4.539   2.983   3.404
 9256TIP3   OH227731   1.220   1.795   5.498
 9256TIP3    H127732   1.281   1.742   5.549
 9256TIP3    H227733   1.262   1.881   5.492
 9257TIP3   OH227734   0.285   3.364   3.099
 9257TIP3    H127735   0.347   3.410   3.043
 9257TIP3    H227736   0.233   3.433   3.140
 9258TIP3   OH227737   3.293   1.541   1.161
 9258TIP3    H127738   3.364   1.586   1.206
 9258TIP3    H227739   3.213   1.580   1.198
 9259TIP3   OH227740   5.052   3.486   0.805
 9259TIP3    H127741   4.994   3.455   0.875
 9259TIP3    H227742   5.135   3.441   0.822
 9260TIP3   OH227743   1.463   5.142   2.838
 9260TIP3    H127744   1.491   5.227   2.804
 9260TIP3    H227745   1.513   5.078   2.788
 9261TIP3   OH227746   3.639   5.792   5.171
 9261TIP3    H127747   3.612   5.860   5.232
 9261TIP3    H227748   3.560   5.769   5.123
 9262TIP3   OH227749   2.445   3.852   2.078
 9262TIP3    H127750   2.389   3.782   2.044
 9262TIP3    H227751   2.527   3.842   2.030
 9263TIP3   OH227752   2.156   5.549   1.525
 9263TIP3    H127753   2.250   5.553   1.507
 9263TIP3    H227754   2.135   5.456   1.524
 9264TIP3   OH227755   1.364   6.226   4.292
 9264TIP3    H127756   1.351   6.202   4.384
 9264TIP3    H227757   1.459   6.237   4.283
 9265TIP3   OH227758   2.750   5.980   1.699
 9265TIP3    H127759   2.696   5.921   1.752
 9265TIP3    H227760   2.839   5.948   1.712
 9266TIP3   OH227761   3.833   0.993   4.132
 9266TIP3    H127762   3.889   1.054   4.180
 9266TIP3    H227763   3.885   0.912   4.128
 9267TIP3   OH227764   1.335   6.573   0.671
 9267TIP3    H127765   1.396   6.600   0.602
 9267TIP3    H227766   1.286   6.652   0.692
 9268TIP3   OH227767   3.611   0.716   0.740
 9268TIP3    H127768   3.607   0.661   0.818
 9268TIP3    H227769   3.599   0.655   0.667
 9269TIP3   OH227770   5.460   3.390   4.983
 9269TIP3    H127771   5.513   3.358   4.910
 9269TIP3    H227772   5.377   3.415   4.943
 9270TIP3   OH227773   1.977   2.729   3.804
 9270TIP3    H127774   2.028   2.667   3.751
 9270TIP3    H227775   1.963   2.804   3.746
 9271TIP3   OH227776   1.189   4.795   3.438
 9271TIP3    H127777   1.097   4.824   3.436
 9271TIP3    H227778   1.188   4.709   3.397
 9272TIP3   OH227779   6.651   1.497   1.034
 9272TIP3    H127780   6.723   1.483   0.971
 9272TIP3    H227781   6.620   1.586   1.016
 9273TIP3   OH227782   3.172   4.373   5.552
 9273TIP3    H127783   3.077   4.362   5.546
 9273TIP3    H227784   3.207   4.316   5.483
 9274TIP3   OH227785   1.462   5.225   5.177
 9274TIP3    H127786   1.376   5.217   5.137
 9274TIP3    H227787   1.447   5.274   5.258
 9275TIP3   OH227788   4.515   0.281   1.469
 9275TIP3    H127789   4.453   0.208   1.472
 9275TIP3    H227790   4.509   0.320   1.556
 9276TIP3   OH227791   6.828   0.262   3.703
 9276TIP3    H127792   6.918   0.230   3.708
 9276TIP3    H227793   6.795   0.227   3.620
 9277TIP3   OH227794   3.430   6.525   4.840
 9277TIP3    H127795   3.422   6.614   4.807
 9277TIP3    H227796   3.394   6.470   4.771
 9278TIP3   OH227797   6.788   2.823   0.853
 9278TIP3    H127798   6.816   2.737   0.883
 9278TIP3    H227799   6.787   2.877   0.932
 9279TIP3   OH227800   4.979   1.521   2.830
 9279TIP3    H127801   4.885   1.504   2.824
 9279TIP3    H227802   4.999   1.516   2.924
 9280TIP3   OH227803   5.414   5.805   5.122
 9280TIP3    H127804   5.435   5.854   5.042
 9280TIP3    H227805   5.319   5.793   5.119
 9281TIP3   OH227806   1.800   6.015   5.966
 9281TIP3    H127807   1.872   5.952   5.974
 9281TIP3    H227808   1.779   6.015   5.872
 9282TIP3   OH227809   6.427   1.041   4.720
 9282TIP3    H127810   6.489   1.092   4.668
 9282TIP3    H227811   6.417   1.091   4.801
 9283TIP3   OH227812   5.785   0.140   0.736
 9283TIP3    H127813   5.791   0.045   0.747
 9283TIP3    H227814   5.783   0.153   0.641
 9284TIP3   OH227815   6.568   5.496   3.167
 9284TIP3    H127816   6.593   5.447   3.089
 9284TIP3    H227817   6.545   5.583   3.134
 9285TIP3   OH227818   1.728   1.242   2.378
 9285TIP3    H127819   1.708   1.247   2.284
 9285TIP3    H227820   1.663   1.299   2.420
 9286TIP3   OH227821   6.931   1.967   4.251
 9286TIP3    H127822   6.857   1.956   4.191
 9286TIP3    H227823   6.957   2.058   4.242
 9287TIP3   OH227824   5.746   6.483   1.866
 9287TIP3    H127825   5.800   6.469   1.789
 9287TIP3    H227826   5.697   6.401   1.876
 9288TIP3   OH227827   6.679   4.141   1.434
 9288TIP3    H127828   6.769   4.129   1.402
 9288TIP3    H227829   6.628   4.155   1.354
 9289TIP3   OH227830   6.164   2.128   2.265
 9289TIP3    H127831   6.255   2.137   2.295
 9289TIP3    H227832   6.121   2.079   2.334
 9290TIP3   OH227833   2.971   0.264   3.559
 9290TIP3    H127834   2.998   0.351   3.530
 9290TIP3    H227835   2.876   0.271   3.572
 9291TIP3   OH227836   1.587   2.011   2.138
 9291TIP3    H127837   1.580   2.099   2.101
 9291TIP3    H227838   1.496   1.981   2.145
 9292TIP3   OH227839   4.404   1.055   5.162
 9292TIP3    H127840   4.449   1.119   5.107
 9292TIP3    H227841   4.464   1.039   5.234
 9293TIP3   OH227842   2.460   1.048   5.390
 9293TIP3    H127843   2.537   1.035   5.446
 9293TIP3    H227844   2.492   1.035   5.301
 9294TIP3   OH227845   6.383   6.489   4.280
 9294TIP3    H127846   6.443   6.563   4.274
 9294TIP3    H227847   6.418   6.426   4.216
 9295TIP3   OH227848   3.154   0.377   0.101
 9295TIP3    H127849   3.226   0.432   0.070
 9295TIP3    H227850   3.079   0.436   0.106
 9296TIP3   OH227851   1.477   5.924   5.745
 9296TIP3    H127852   1.444   5.843   5.706
 9296TIP3    H227853   1.556   5.944   5.696
 9297TIP3   OH227854   2.546   2.093   3.997
 9297TIP3    H127855   2.468   2.138   4.030
 9297TIP3    H227856   2.560   2.129   3.910
 9298TIP3   OH227857   0.625   1.460   3.992
 9298TIP3    H127858   0.613   1.366   3.981
 9298TIP3    H227859   0.567   1.484   4.064
 9299TIP3   OH227860   5.905   5.875   3.058
 9299TIP3    H127861   5.876   5.784   3.067
 9299TIP3    H227862   5.952   5.893   3.139
 9300TIP3   OH227863   0.429   1.830   3.199
 9300TIP3    H127864   0.467   1.914   3.173
 9300TIP3    H227865   0.497   1.766   3.178
 9301TIP3   OH227866   0.339   0.736   2.149
 9301TIP3    H127867   0.429   0.728   2.180
 9301TIP3    H227868   0.336   0.822   2.106
 9302TIP3   OH227869   7.199   1.718   5.271
 9302TIP3    H127870   7.245   1.639   5.300
 9302TIP3    H227871   7.261   1.789   5.288
 9303TIP3   OH227872   0.421   5.125   5.839
 9303TIP3    H127873   0.448   5.082   5.758
 9303TIP3    H227874   0.332   5.093   5.855
 9304TIP3   OH227875   0.213   2.086   1.983
 9304TIP3    H127876   0.270   2.014   2.012
 9304TIP3    H227877   0.125   2.056   2.004
 9305TIP3   OH227878   3.028   2.503   3.194
 9305TIP3    H127879   3.037   2.418   3.150
 9305TIP3    H227880   3.030   2.567   3.123
 9306TIP3   OH227881   6.452   3.777   3.070
 9306TIP3    H127882   6.368   3.743   3.039
 9306TIP3    H227883   6.430   3.825   3.150
 9307TIP3   OH227884   3.726   3.612   4.479
 9307TIP3    H127885   3.762   3.697   4.452
 9307TIP3    H227886   3.800   3.566   4.517
 9308TIP3   OH227887   5.350   4.218   2.812
 9308TIP3    H127888   5.262   4.253   2.828
 9308TIP3    H227889   5.358   4.219   2.717
 9309TIP3   OH227890   6.693   2.325   2.114
 9309TIP3    H127891   6.650   2.241   2.132
 9309TIP3    H227892   6.624   2.381   2.079
 9310TIP3   OH227893   5.343   4.986   4.735
 9310TIP3    H127894   5.282   4.939   4.679
 9310TIP3    H227895   5.326   4.953   4.823
 9311TIP3   OH227896   7.132   2.799   5.710
 9311TIP3    H127897   7.185   2.863   5.661
 9311TIP3    H227898   7.069   2.852   5.758
 9312TIP3   OH227899   5.459   1.806   4.787
 9312TIP3    H127900   5.536   1.810   4.729
 9312TIP3    H227901   5.390   1.851   4.738
 9313TIP3   OH227902   1.417   3.418   0.182
 9313TIP3    H127903   1.373   3.348   0.232
 9313TIP3    H227904   1.510   3.403   0.198
 9314TIP3   OH227905   2.310   4.037   0.812
 9314TIP3    H127906   2.274   4.084   0.888
 9314TIP3    H227907   2.372   3.975   0.850
 9315TIP3   OH227908   5.281   5.886   3.555
 9315TIP3    H127909   5.375   5.870   3.545
 9315TIP3    H227910   5.269   5.898   3.649
 9316TIP3   OH227911   4.146   5.538   0.274
 9316TIP3    H127912   4.194   5.553   0.192
 9316TIP3    H227913   4.061   5.505   0.246
 9317TIP3   OH227914   4.104   3.082   1.015
 9317TIP3    H127915   4.147   3.135   1.082
 9317TIP3    H227916   4.045   3.024   1.065
 9318TIP3   OH227917   3.055   1.121   5.036
 9318TIP3    H127918   3.077   1.135   4.944
 9318TIP3    H227919   3.034   1.208   5.070
 9319TIP3   OH227920   1.440   3.913   5.222
 9319TIP3    H127921   1.386   3.923   5.144
 9319TIP3    H227922   1.485   3.997   5.231
 9320TIP3   OH227923   5.185   6.597   4.439
 9320TIP3    H127924   5.238   6.590   4.518
 9320TIP3    H227925   5.241   6.644   4.377
 9321TIP3   OH227926   0.767   2.975   5.865
 9321TIP3    H127927   0.758   3.066   5.837
 9321TIP3    H227928   0.842   2.975   5.924
 9322TIP3   OH227929   4.469   5.441   3.740
 9322TIP3    H127930   4.564   5.437   3.749
 9322TIP3    H227931   4.443   5.352   3.717
 9323TIP3   OH227932   3.544   3.734   0.573
 9323TIP3    H127933   3.524   3.778   0.491
 9323TIP3    H227934   3.462   3.691   0.599
 9324TIP3   OH227935   4.545   6.007   3.744
 9324TIP3    H127936   4.512   6.001   3.834
 9324TIP3    H227937   4.618   6.068   3.750
 9325TIP3   OH227938   3.903   3.675   4.872
 9325TIP3    H127939   3.864   3.739   4.812
 9325TIP3    H227940   3.916   3.723   4.953
 9326TIP3   OH227941   4.018   3.364   0.714
 9326TIP3    H127942   3.960   3.403   0.780
 9326TIP3    H227943   4.031   3.274   0.743
 9327TIP3   OH227944   3.261   2.536   5.843
 9327TIP3    H127945   3.254   2.548   5.748
 9327TIP3    H227946   3.178   2.567   5.878
 9328TIP3   OH227947   0.867   6.303   0.330
 9328TIP3    H127948   0.846   6.242   0.260
 9328TIP3    H227949   0.954   6.336   0.308
 9329TIP3   OH227950   3.799   2.042   5.815
 9329TIP3    H127951   3.807   2.137   5.828
 9329TIP3    H227952   3.705   2.028   5.805
 9330TIP3   OH227953   2.525   6.178   2.165
 9330TIP3    H127954   2.471   6.140   2.095
 9330TIP3    H227955   2.603   6.210   2.120
 9331TIP3   OH227956   5.863   1.312   0.919
 9331TIP3    H127957   5.894   1.284   1.006
 9331TIP3    H227958   5.885   1.239   0.861
 9332TIP3   OH227959   2.003   4.502   5.494
 9332TIP3    H127960   1.921   4.482   5.540
 9332TIP3    H227961   2.049   4.418   5.489
 9333TIP3   OH227962   3.345   5.558   3.705
 9333TIP3    H127963   3.270   5.608   3.736
 9333TIP3    H227964   3.398   5.542   3.783
 9334TIP3   OH227965   1.764   1.847   2.327
 9334TIP3    H127966   1.696   1.902   2.289
 9334TIP3    H227967   1.833   1.844   2.261
 9335TIP3   OH227968   1.722   5.367   5.303
 9335TIP3    H127969   1.696   5.320   5.382
 9335TIP3    H227970   1.802   5.413   5.327
 9336TIP3   OH227971   2.557   4.565   0.866
 9336TIP3    H127972   2.497   4.640   0.871
 9336TIP3    H227973   2.569   4.550   0.773
 9337TIP3   OH227974   1.292   2.609   4.373
 9337TIP3    H127975   1.203   2.642   4.385
 9337TIP3    H227976   1.341   2.684   4.341
 9338TIP3   OH227977   3.956   6.355   1.903
 9338TIP3    H127978   4.003   6.279   1.937
 9338TIP3    H227979   3.986   6.364   1.813
 9339TIP3   OH227980   5.461   4.873   4.488
 9339TIP3    H127981   5.476   4.779   4.502
 9339TIP3    H227982   5.472   4.912   4.574
 9340TIP3   OH227983   6.874   5.817   1.130
 9340TIP3    H127984   6.907   5.900   1.097
 9340TIP3    H227985   6.779   5.830   1.137
 9341TIP3   OH227986   4.331   1.082   4.515
 9341TIP3    H127987   4.270   1.021   4.474
 9341TIP3    H227988   4.414   1.035   4.518
 9342TIP3   OH227989   7.159   1.588   2.720
 9342TIP3    H127990   7.150   1.493   2.713
 9342TIP3    H227991   7.073   1.618   2.750
 9343TIP3   OH227992   6.329   6.541   3.738
 9343TIP3    H127993   6.365   6.627   3.761
 9343TIP3    H227994   6.236   6.558   3.721
 9344TIP3   OH227995   1.216   1.044   0.330
 9344TIP3    H127996   1.188   1.083   0.412
 9344TIP3    H227997   1.253   1.117   0.280
 9345TIP3   OH227998   4.320   1.065   1.446
 9345TIP3    H127999   4.290   1.156   1.448
 9345TIP3    H228000   4.252   1.019   1.395
 9346TIP3   OH228001   2.324   4.715   3.886
 9346TIP3    H128002   2.257   4.746   3.947
 9346TIP3    H228003   2.310   4.621   3.880
 9347TIP3   OH228004   0.545   5.272   5.564
 9347TIP3    H128005   0.483   5.315   5.623
 9347TIP3    H228006   0.494   5.255   5.484
 9348TIP3   OH228007   1.906   4.912   3.871
 9348TIP3    H128008   1.858   4.995   3.875
 9348TIP3    H228009   1.845   4.852   3.828
 9349TIP3   OH228010   6.407   2.429   5.119
 9349TIP3    H128011   6.400   2.364   5.189
 9349TIP3    H228012   6.495   2.418   5.085
 9350TIP3   OH228013   1.408   2.731   1.771
 9350TIP3    H128014   1.324   2.709   1.812
 9350TIP3    H228015   1.385   2.775   1.690
 9351TIP3   OH228016   0.354   2.605   5.834
 9351TIP3    H128017   0.327   2.644   5.917
 9351TIP3    H228018   0.284   2.628   5.773
 9352TIP3   OH228019   1.165   2.437   5.274
 9352TIP3    H128020   1.116   2.479   5.344
 9352TIP3    H228021   1.218   2.508   5.235
 9353TIP3   OH228022   5.513   0.925   3.086
 9353TIP3    H128023   5.548   0.985   3.021
 9353TIP3    H228024   5.570   0.849   3.082
 9354TIP3   OH228025   1.335   1.402   0.698
 9354TIP3    H128026   1.302   1.480   0.654
 9354TIP3    H228027   1.427   1.422   0.716
 9355TIP3   OH228028   4.373   0.334   4.488
 9355TIP3    H128029   4.336   0.249   4.466
 9355TIP3    H228030   4.307   0.375   4.544
 9356TIP3   OH228031   5.727   0.172   4.699
 9356TIP3    H128032   5.714   0.229   4.623
 9356TIP3    H228033   5.651   0.189   4.755
 9357TIP3   OH228034   0.227   5.348   2.344
 9357TIP3    H128035   0.134   5.369   2.357
 9357TIP3    H228036   0.274   5.417   2.390
 9358TIP3   OH228037   0.668   1.319   5.540
 9358TIP3    H128038   0.708   1.245   5.585
 9358TIP3    H228039   0.715   1.396   5.573
 9359TIP3   OH228040   5.113   1.218   4.911
 9359TIP3    H128041   5.041   1.185   4.857
 9359TIP3    H228042   5.085   1.306   4.937
 9360TIP3   OH228043   4.069   0.397   4.007
 9360TIP3    H128044   4.088   0.409   3.914
 9360TIP3    H228045   3.973   0.386   4.011
 9361TIP3   OH228046   3.995   5.972   2.453
 9361TIP3    H128047   3.916   5.978   2.506
 9361TIP3    H228048   4.058   6.029   2.498
 9362TIP3   OH228049   6.308   2.771   1.251
 9362TIP3    H128050   6.396   2.806   1.236
 9362TIP3    H228051   6.288   2.794   1.341
 9363TIP3   OH228052   6.284   3.877   2.302
 9363TIP3    H128053   6.242   3.829   2.373
 9363TIP3    H228054   6.344   3.815   2.262
 9364TIP3   OH228055   5.391   5.691   2.150
 9364TIP3    H128056   5.482   5.721   2.157
 9364TIP3    H228057   5.386   5.617   2.211
 9365TIP3   OH228058   5.675   0.562   0.119
 9365TIP3    H128059   5.674   0.649   0.080
 9365TIP3    H228060   5.764   0.529   0.103
 9366TIP3   OH228061   3.231   5.636   0.832
 9366TIP3    H128062   3.304   5.655   0.891
 9366TIP3    H228063   3.213   5.719   0.788
 9367TIP3   OH228064   3.258   1.384   2.030
 9367TIP3    H128065   3.217   1.424   1.953
 9367TIP3    H228066   3.204   1.306   2.048
 9368TIP3   OH228067   0.191   6.484   0.693
 9368TIP3    H128068   0.119   6.433   0.656
 9368TIP3    H228069   0.238   6.422   0.749
 9369TIP3   OH228070   4.004   4.889   0.299
 9369TIP3    H128071   3.909   4.896   0.291
 9369TIP3    H228072   4.018   4.832   0.375
 9370TIP3   OH228073   2.254   5.782   5.459
 9370TIP3    H128074   2.189   5.742   5.401
 9370TIP3    H228075   2.300   5.707   5.498
 9371TIP3   OH228076   2.231   2.690   4.232
 9371TIP3    H128077   2.169   2.624   4.200
 9371TIP3    H228078   2.213   2.768   4.180
 9372TIP3   OH228079   5.330   5.610   0.756
 9372TIP3    H128080   5.419   5.626   0.725
 9372TIP3    H228081   5.339   5.594   0.850
 9373TIP3   OH228082   4.030   3.742   5.699
 9373TIP3    H128083   3.958   3.702   5.748
 9373TIP3    H228084   3.988   3.781   5.622
 9374TIP3   OH228085   1.215   0.102   1.790
 9374TIP3    H128086   1.166   0.177   1.757
 9374TIP3    H228087   1.210   0.037   1.720
 9375TIP3   OH228088   6.457   4.707   3.988
 9375TIP3    H128089   6.435   4.625   3.944
 9375TIP3    H228090   6.418   4.775   3.933
 9376TIP3   OH228091   6.589   0.729   5.530
 9376TIP3    H128092   6.512   0.783   5.513
 9376TIP3    H228093   6.565   0.642   5.499
 9377TIP3   OH228094   3.827   5.270   0.374
 9377TIP3    H128095   3.732   5.258   0.369
 9377TIP3    H228096   3.841   5.360   0.345
 9378TIP3   OH228097   6.035   6.804   2.493
 9378TIP3    H128098   6.035   6.770   2.583
 9378TIP3    H228099   5.943   6.798   2.466
 9379TIP3   OH228100   2.074   0.139   4.446
 9379TIP3    H128101   2.155   0.088   4.445
 9379TIP3    H228102   2.056   0.151   4.539
 9380TIP3   OH228103   0.496   5.032   0.497
 9380TIP3    H128104   0.436   4.979   0.444
 9380TIP3    H228105   0.583   5.000   0.473
 9381TIP3   OH228106   4.940   2.347   3.743
 9381TIP3    H128107   5.011   2.379   3.687
 9381TIP3    H228108   4.921   2.420   3.803
 9382TIP3   OH228109   3.227   0.369   4.399
 9382TIP3    H128110   3.164   0.354   4.329
 9382TIP3    H228111   3.293   0.427   4.360
 9383TIP3   OH228112   6.702   1.687   3.348
 9383TIP3    H128113   6.754   1.662   3.271
 9383TIP3    H228114   6.679   1.779   3.333
 9384TIP3   OH228115   2.335   6.257   4.025
 9384TIP3    H128116   2.419   6.253   3.979
 9384TIP3    H228117   2.280   6.194   3.979
 9385TIP3   OH228118   2.634   2.526   4.671
 9385TIP3    H128119   2.591   2.547   4.589
 9385TIP3    H228120   2.574   2.557   4.739
 9386TIP3   OH228121   2.693   1.987   3.113
 9386TIP3    H128122   2.748   2.042   3.168
 9386TIP3    H228123   2.754   1.929   3.067
 9387TIP3   OH228124   3.790   5.867   4.917
 9387TIP3    H128125   3.796   5.806   4.843
 9387TIP3    H228126   3.757   5.948   4.878
 9388TIP3   OH228127   5.183   6.816   1.909
 9388TIP3    H128128   5.268   6.841   1.871
 9388TIP3    H228129   5.168   6.726   1.878
 9389TIP3   OH228130   2.876   3.851   4.639
 9389TIP3    H128131   2.836   3.938   4.639
 9389TIP3    H228132   2.906   3.839   4.729
 9390TIP3   OH228133   6.275   2.807   3.644
 9390TIP3    H128134   6.244   2.717   3.636
 9390TIP3    H228135   6.205   2.861   3.608
 9391TIP3   OH228136   2.267   2.302   3.499
 9391TIP3    H128137   2.209   2.249   3.444
 9391TIP3    H228138   2.207   2.349   3.557
 9392TIP3   OH228139   6.630   3.524   3.573
 9392TIP3    H128140   6.575   3.553   3.646
 9392TIP3    H228141   6.614   3.589   3.504
 9393TIP3   OH228142   1.075   3.405   1.944
 9393TIP3    H128143   1.029   3.488   1.929
 9393TIP3    H228144   1.011   3.350   1.990
 9394TIP3   OH228145   0.706   3.020   0.943
 9394TIP3    H128146   0.721   2.967   0.864
 9394TIP3    H228147   0.743   2.967   1.014
 9395TIP3   OH228148   2.796   0.314   3.037
 9395TIP3    H128149   2.741   0.345   2.964
 9395TIP3    H228150   2.734   0.276   3.099
 9396TIP3   OH228151   1.534   0.202   5.334
 9396TIP3    H128152   1.571   0.171   5.251
 9396TIP3    H228153   1.456   0.148   5.348
 9397TIP3   OH228154   2.423   4.511   0.103
 9397TIP3    H128155   2.409   4.598   0.140
 9397TIP3    H228156   2.351   4.458   0.136
 9398TIP3   OH228157   1.839   1.497   3.934
 9398TIP3    H128158   1.749   1.525   3.947
 9398TIP3    H228159   1.890   1.548   3.997
 9399TIP3   OH228160   6.192   5.079   4.374
 9399TIP3    H128161   6.152   5.065   4.460
 9399TIP3    H228162   6.232   4.995   4.352
 9400TIP3   OH228163   0.557   6.370   4.591
 9400TIP3    H128164   0.564   6.358   4.686
 9400TIP3    H228165   0.531   6.461   4.580
 9401TIP3   OH228166   3.488   5.260   1.534
 9401TIP3    H128167   3.473   5.234   1.443
 9401TIP3    H228168   3.485   5.178   1.583
 9402TIP3   OH228169   3.200   1.113   2.279
 9402TIP3    H128170   3.262   1.049   2.315
 9402TIP3    H228171   3.126   1.112   2.339
 9403TIP3   OH228172   5.937   3.618   5.348
 9403TIP3    H128173   5.955   3.698   5.299
 9403TIP3    H228174   5.958   3.547   5.287
 9404TIP3   OH228175   1.757   5.914   1.778
 9404TIP3    H128176   1.775   5.884   1.689
 9404TIP3    H228177   1.808   5.855   1.834
 9405TIP3   OH228178   2.160   5.024   3.847
 9405TIP3    H128179   2.202   5.004   3.763
 9405TIP3    H228180   2.069   4.998   3.836
 9406TIP3   OH228181   5.885   4.859   0.923
 9406TIP3    H128182   5.977   4.884   0.920
 9406TIP3    H228183   5.885   4.763   0.917
 9407TIP3   OH228184   0.841   6.431   5.304
 9407TIP3    H128185   0.892   6.351   5.314
 9407TIP3    H228186   0.847   6.474   5.389
 9408TIP3   OH228187   0.571   5.790   4.992
 9408TIP3    H128188   0.597   5.701   4.971
 9408TIP3    H228189   0.512   5.816   4.921
 9409TIP3   OH228190   6.790   1.775   4.907
 9409TIP3    H128191   6.702   1.776   4.944
 9409TIP3    H228192   6.779   1.812   4.819
 9410TIP3   OH228193   1.240   4.154   1.691
 9410TIP3    H128194   1.179   4.225   1.669
 9410TIP3    H228195   1.253   4.107   1.608
 9411TIP3   OH228196   1.821   6.219   1.768
 9411TIP3    H128197   1.833   6.268   1.849
 9411TIP3    H228198   1.829   6.127   1.795
 9412TIP3   OH228199   3.716   6.164   0.001
 9412TIP3    H128200   3.795   6.118  -0.027
 9412TIP3    H228201   3.744   6.254   0.015
 9413TIP3   OH228202   0.725   2.321   4.703
 9413TIP3    H128203   0.630   2.314   4.695
 9413TIP3    H228204   0.748   2.259   4.771
 9414TIP3   OH228205   4.863   2.134   5.634
 9414TIP3    H128206   4.928   2.070   5.662
 9414TIP3    H228207   4.798   2.136   5.704
 9415TIP3   OH228208   3.861   0.211   2.630
 9415TIP3    H128209   3.877   0.283   2.691
 9415TIP3    H228210   3.829   0.139   2.685
 9416TIP3   OH228211   0.652   2.946   1.400
 9416TIP3    H128212   0.587   2.911   1.340
 9416TIP3    H228213   0.604   2.960   1.482
 9417TIP3   OH228214   1.530   6.043   1.773
 9417TIP3    H128215   1.506   6.095   1.850
 9417TIP3    H228216   1.613   6.002   1.796
 9418TIP3   OH228217   2.058   4.292   5.833
 9418TIP3    H128218   2.007   4.274   5.754
 9418TIP3    H228219   2.074   4.386   5.830
 9419TIP3   OH228220   5.953   0.847   0.088
 9419TIP3    H128221   5.895   0.862   0.013
 9419TIP3    H228222   5.908   0.782   0.141
 9420TIP3   OH228223   0.775   2.344   5.142
 9420TIP3    H128224   0.756   2.362   5.234
 9420TIP3    H228225   0.712   2.278   5.116
 9421TIP3   OH228226   7.089   2.492   4.430
 9421TIP3    H128227   7.024   2.467   4.495
 9421TIP3    H228228   7.067   2.441   4.353
 9422TIP3   OH228229   2.087   3.943   3.881
 9422TIP3    H128230   2.002   3.923   3.840
 9422TIP3    H228231   2.131   3.859   3.887
 9423TIP3   OH228232   3.580   4.516   4.050
 9423TIP3    H128233   3.553   4.517   4.142
 9423TIP3    H228234   3.604   4.606   4.030
 9424TIP3   OH228235   4.447   6.563   2.365
 9424TIP3    H128236   4.524   6.535   2.317
 9424TIP3    H228237   4.470   6.649   2.400
 9425TIP3   OH228238   0.222   4.301   5.049
 9425TIP3    H128239   0.256   4.257   5.127
 9425TIP3    H228240   0.234   4.238   4.978
 9426TIP3   OH228241   3.808   4.488   0.559
 9426TIP3    H128242   3.740   4.437   0.604
 9426TIP3    H228243   3.843   4.546   0.626
 9427TIP3   OH228244   4.982   4.691   4.570
 9427TIP3    H128245   5.063   4.704   4.619
 9427TIP3    H228246   5.006   4.707   4.479
 9428TIP3   OH228247   2.625   3.845   1.835
 9428TIP3    H128248   2.587   3.872   1.751
 9428TIP3    H228249   2.705   3.799   1.812
 9429TIP3   OH228250   0.952   4.842   1.761
 9429TIP3    H128251   0.879   4.819   1.818
 9429TIP3    H228252   1.029   4.804   1.803
 9430TIP3   OH228253   4.180   4.616   3.181
 9430TIP3    H128254   4.110   4.626   3.246
 9430TIP3    H228255   4.145   4.555   3.117
 9431TIP3   OH228256   6.865   6.618   4.556
 9431TIP3    H128257   6.788   6.566   4.531
 9431TIP3    H228258   6.937   6.578   4.508
 9432TIP3   OH228259   3.809   3.629   2.706
 9432TIP3    H128260   3.858   3.613   2.625
 9432TIP3    H228261   3.718   3.609   2.683
 9433TIP3   OH228262   0.179   5.182   1.178
 9433TIP3    H128263   0.209   5.187   1.087
 9433TIP3    H228264   0.215   5.099   1.210
 9434TIP3   OH228265   7.083   5.652   4.701
 9434TIP3    H128266   7.050   5.740   4.684
 9434TIP3    H228267   7.178   5.664   4.706
 9435TIP3   OH228268   2.129   1.756   5.164
 9435TIP3    H128269   2.178   1.778   5.085
 9435TIP3    H228270   2.050   1.810   5.159
 9436TIP3   OH228271   4.883   4.949   5.180
 9436TIP3    H128272   4.938   4.921   5.254
 9436TIP3    H228273   4.935   4.927   5.103
 9437TIP3   OH228274   3.916   4.926   2.069
 9437TIP3    H128275   3.823   4.934   2.090
 9437TIP3    H228276   3.949   4.859   2.129
 9438TIP3   OH228277   5.265   0.950   3.732
 9438TIP3    H128278   5.312   0.883   3.782
 9438TIP3    H228279   5.190   0.902   3.694
 9439TIP3   OH228280   5.644   1.674   2.533
 9439TIP3    H128281   5.592   1.597   2.510
 9439TIP3    H228282   5.669   1.659   2.625
 9440TIP3   OH228283   2.187   1.214   3.258
 9440TIP3    H128284   2.247   1.150   3.298
 9440TIP3    H228285   2.238   1.294   3.251
 9441TIP3   OH228286   5.856   6.633   2.076
 9441TIP3    H128287   5.850   6.563   2.011
 9441TIP3    H228288   5.786   6.694   2.053
 9442TIP3   OH228289   4.878   3.916   5.299
 9442TIP3    H128290   4.940   3.989   5.294
 9442TIP3    H228291   4.908   3.854   5.233
 9443TIP3   OH228292   1.911   5.941   2.513
 9443TIP3    H128293   1.977   5.948   2.444
 9443TIP3    H228294   1.829   5.968   2.471
 9444TIP3   OH228295   2.177   3.186   5.507
 9444TIP3    H128296   2.255   3.144   5.543
 9444TIP3    H228297   2.137   3.231   5.582
 9445TIP3   OH228298   2.261   0.920   0.958
 9445TIP3    H128299   2.267   0.891   0.867
 9445TIP3    H228300   2.323   0.993   0.964
 9446TIP3   OH228301   6.170   3.279   2.368
 9446TIP3    H128302   6.148   3.212   2.303
 9446TIP3    H228303   6.121   3.356   2.341
 9447TIP3   OH228304   0.548   6.211   1.117
 9447TIP3    H128305   0.639   6.198   1.142
 9447TIP3    H228306   0.517   6.123   1.095
 9448TIP3   OH228307   1.029   2.329   0.056
 9448TIP3    H128308   1.005   2.340   0.148
 9448TIP3    H228309   0.982   2.251   0.027
 9449TIP3   OH228310   3.441   0.739   0.194
 9449TIP3    H128311   3.359   0.729   0.243
 9449TIP3    H228312   3.489   0.805   0.243
 9450TIP3   OH228313   1.321   2.226   5.673
 9450TIP3    H128314   1.403   2.208   5.718
 9450TIP3    H228315   1.266   2.269   5.739
 9451TIP3   OH228316   5.907   4.661   1.238
 9451TIP3    H128317   5.973   4.704   1.183
 9451TIP3    H228318   5.924   4.567   1.226
 9452TIP3   OH228319   4.401   3.069   5.382
 9452TIP3    H128320   4.312   3.093   5.408
 9452TIP3    H228321   4.395   2.976   5.360
 9453TIP3   OH228322   6.515   2.873   0.000
 9453TIP3    H128323   6.533   2.942   0.064
 9453TIP3    H228324   6.567   2.799   0.030
 9454TIP3   OH228325   2.313   5.332   5.826
 9454TIP3    H128326   2.276   5.413   5.792
 9454TIP3    H228327   2.267   5.263   5.778
 9455TIP3   OH228328   3.601   4.888   1.295
 9455TIP3    H128329   3.536   4.819   1.281
 9455TIP3    H228330   3.604   4.898   1.391
 9456TIP3   OH228331   3.244   1.142   4.538
 9456TIP3    H128332   3.210   1.137   4.449
 9456TIP3    H228333   3.304   1.216   4.538
 9457TIP3   OH228334   7.082   1.536   1.958
 9457TIP3    H128335   7.057   1.485   2.035
 9457TIP3    H228336   7.008   1.595   1.943
 9458TIP3   OH228337   4.631   1.720   4.790
 9458TIP3    H128338   4.654   1.637   4.833
 9458TIP3    H228339   4.692   1.784   4.827
 9459TIP3   OH228340   3.458   5.920   3.910
 9459TIP3    H128341   3.508   5.894   3.987
 9459TIP3    H228342   3.509   5.886   3.836
 9460TIP3   OH228343   3.116   1.845   4.637
 9460TIP3    H128344   3.142   1.911   4.701
 9460TIP3    H228345   3.149   1.879   4.553
 9461TIP3   OH228346   4.692   5.346   1.494
 9461TIP3    H128347   4.677   5.252   1.508
 9461TIP3    H228348   4.676   5.385   1.580
 9462TIP3   OH228349   4.553   5.365   0.868
 9462TIP3    H128350   4.505   5.283   0.857
 9462TIP3    H228351   4.548   5.408   0.783
 9463TIP3   OH228352   0.733   2.743   5.373
 9463TIP3    H128353   0.727   2.796   5.293
 9463TIP3    H228354   0.704   2.656   5.346
 9464TIP3   OH228355   6.303   6.766   4.937
 9464TIP3    H128356   6.256   6.702   4.989
 9464TIP3    H228357   6.263   6.762   4.851
 9465TIP3   OH228358   0.713   2.497   2.263
 9465TIP3    H128359   0.626   2.501   2.304
 9465TIP3    H228360   0.756   2.577   2.294
 9466TIP3   OH228361   3.994   0.159   5.038
 9466TIP3    H128362   4.087   0.136   5.037
 9466TIP3    H228363   3.988   0.234   5.097
 9467TIP3   OH228364   0.065   4.776   4.976
 9467TIP3    H128365   0.035   4.765   5.066
 9467TIP3    H228366   0.023   4.705   4.928
 9468TIP3   OH228367   0.868   4.539   3.549
 9468TIP3    H128368   0.843   4.630   3.565
 9468TIP3    H228369   0.955   4.531   3.589
 9469TIP3   OH228370   5.857   6.099   1.635
 9469TIP3    H128371   5.771   6.133   1.658
 9469TIP3    H228372   5.913   6.122   1.709
 9470TIP3   OH228373   4.629   4.321   3.304
 9470TIP3    H128374   4.679   4.397   3.335
 9470TIP3    H228375   4.560   4.309   3.370
 9471TIP3   OH228376   4.404   6.560   3.312
 9471TIP3    H128377   4.339   6.609   3.362
 9471TIP3    H228378   4.358   6.531   3.234
 9472TIP3   OH228379   4.658   2.260   0.893
 9472TIP3    H128380   4.674   2.314   0.816
 9472TIP3    H228381   4.678   2.317   0.967
 9473TIP3   OH228382   1.894   4.139   4.050
 9473TIP3    H128383   1.845   4.185   4.119
 9473TIP3    H228384   1.851   4.054   4.042
 9474TIP3   OH228385   6.079   6.683   5.729
 9474TIP3    H128386   6.163   6.669   5.685
 9474TIP3    H228387   6.058   6.600   5.770
 9475TIP3   OH228388   4.173   1.145   0.236
 9475TIP3    H128389   4.174   1.049   0.236
 9475TIP3    H228390   4.090   1.168   0.279
 9476TIP3   OH228391   2.823   6.405   0.621
 9476TIP3    H128392   2.812   6.385   0.714
 9476TIP3    H228393   2.889   6.474   0.619
 9477TIP3   OH228394   4.893   3.521   1.886
 9477TIP3    H128395   4.896   3.496   1.978
 9477TIP3    H228396   4.871   3.614   1.887
 9478TIP3   OH228397   1.022   3.879   5.266
 9478TIP3    H128398   1.029   3.952   5.205
 9478TIP3    H228399   0.990   3.806   5.212
 9479TIP3   OH228400   3.165   6.594   1.774
 9479TIP3    H128401   3.127   6.633   1.853
 9479TIP3    H228402   3.258   6.586   1.794
 9480TIP3   OH228403   2.021   4.397   0.996
 9480TIP3    H128404   1.972   4.478   1.000
 9480TIP3    H228405   1.976   4.339   1.057
 9481TIP3   OH228406   7.017   5.244   3.576
 9481TIP3    H128407   6.960   5.243   3.653
 9481TIP3    H228408   7.085   5.308   3.597
 9482TIP3   OH228409   0.908   5.417   5.798
 9482TIP3    H128410   0.918   5.380   5.710
 9482TIP3    H228411   0.822   5.459   5.797
 9483TIP3   OH228412   1.084   3.946   0.699
 9483TIP3    H128413   1.004   3.905   0.666
 9483TIP3    H228414   1.153   3.911   0.642
 9484TIP3   OH228415   1.161   6.031   0.130
 9484TIP3    H128416   1.071   5.998   0.133
 9484TIP3    H228417   1.196   5.998   0.047
 9485TIP3   OH228418   3.428   2.364   4.483
 9485TIP3    H128419   3.426   2.459   4.474
 9485TIP3    H228420   3.371   2.332   4.413
 9486TIP3   OH228421   2.575   6.604   0.182
 9486TIP3    H128422   2.583   6.669   0.252
 9486TIP3    H228423   2.486   6.615   0.148
 9487TIP3   OH228424   5.252   1.465   4.255
 9487TIP3    H128425   5.191   1.392   4.245
 9487TIP3    H228426   5.235   1.522   4.180
 9488TIP3   OH228427   2.492   4.235   1.140
 9488TIP3    H128428   2.429   4.202   1.075
 9488TIP3    H228429   2.441   4.293   1.196
 9489TIP3   OH228430   2.724   4.679   0.450
 9489TIP3    H128431   2.708   4.650   0.360
 9489TIP3    H228432   2.819   4.671   0.460
 9490TIP3   OH228433   5.940   0.944   5.592
 9490TIP3    H128434   6.021   0.963   5.640
 9490TIP3    H228435   5.952   0.857   5.556
 9491TIP3   OH228436   2.683   0.229   5.836
 9491TIP3    H128437   2.659   0.279   5.915
 9491TIP3    H228438   2.600   0.192   5.806
 9492TIP3   OH228439   3.313   1.921   5.397
 9492TIP3    H128440   3.408   1.917   5.384
 9492TIP3    H228441   3.290   1.838   5.439
 9493TIP3   OH228442   0.190   0.150   0.279
 9493TIP3    H128443   0.170   0.132   0.187
 9493TIP3    H228444   0.255   0.085   0.304
 9494TIP3   OH228445   1.831   2.687   1.856
 9494TIP3    H128446   1.770   2.636   1.909
 9494TIP3    H228447   1.912   2.637   1.857
 9495TIP3   OH228448   5.722   2.713   1.427
 9495TIP3    H128449   5.651   2.648   1.417
 9495TIP3    H228450   5.802   2.662   1.417
 9496TIP3   OH228451   2.001   6.696   2.029
 9496TIP3    H128452   2.022   6.758   2.100
 9496TIP3    H228453   1.906   6.697   2.025
 9497TIP3   OH228454   0.710   2.352   1.647
 9497TIP3    H128455   0.640   2.393   1.697
 9497TIP3    H228456   0.689   2.373   1.556
 9498TIP3   OH228457   1.169   5.553   5.179
 9498TIP3    H128458   1.090   5.607   5.186
 9498TIP3    H228459   1.205   5.575   5.093
 9499TIP3   OH228460   0.492   5.239   3.555
 9499TIP3    H128461   0.488   5.327   3.594
 9499TIP3    H228462   0.578   5.236   3.512
 9500TIP3   OH228463   1.493   4.623   3.650
 9500TIP3    H128464   1.555   4.670   3.595
 9500TIP3    H228465   1.447   4.565   3.589
 9501TIP3   OH228466   6.891   1.938   5.113
 9501TIP3    H128467   6.883   1.862   5.055
 9501TIP3    H228468   6.829   1.920   5.185
 9502TIP3   OH228469   0.639   5.035   1.402
 9502TIP3    H128470   0.684   4.956   1.433
 9502TIP3    H228471   0.661   5.102   1.466
 9503TIP3   OH228472   2.505   3.190   1.464
 9503TIP3    H128473   2.480   3.102   1.439
 9503TIP3    H228474   2.424   3.229   1.499
 9504TIP3   OH228475   1.843   3.259   2.485
 9504TIP3    H128476   1.832   3.172   2.524
 9504TIP3    H228477   1.934   3.261   2.455
 9505TIP3   OH228478   1.158   5.856   2.575
 9505TIP3    H128479   1.187   5.798   2.505
 9505TIP3    H228480   1.113   5.927   2.531
 9506TIP3   OH228481   1.065   2.074   5.729
 9506TIP3    H128482   1.095   2.017   5.799
 9506TIP3    H228483   1.145   2.119   5.700
 9507TIP3   OH228484   4.984   1.488   0.581
 9507TIP3    H128485   4.948   1.474   0.669
 9507TIP3    H228486   5.079   1.487   0.593
 9508TIP3   OH228487   6.371   5.234   3.132
 9508TIP3    H128488   6.413   5.244   3.047
 9508TIP3    H228489   6.288   5.190   3.113
 9509TIP3   OH228490   2.524   2.838   2.156
 9509TIP3    H128491   2.602   2.790   2.181
 9509TIP3    H228492   2.502   2.888   2.235
 9510TIP3   OH228493   2.268   0.288   3.901
 9510TIP3    H128494   2.213   0.307   3.825
 9510TIP3    H228495   2.262   0.367   3.955
 9511TIP3   OH228496   3.928   0.148   1.733
 9511TIP3    H128497   4.014   0.121   1.767
 9511TIP3    H228498   3.865   0.100   1.786
 9512TIP3   OH228499   2.683   3.947   0.871
 9512TIP3    H128500   2.601   3.904   0.897
 9512TIP3    H228501   2.674   3.962   0.777
 9513TIP3   OH228502   0.436   6.371   3.697
 9513TIP3    H128503   0.456   6.367   3.604
 9513TIP3    H228504   0.520   6.392   3.739
 9514TIP3   OH228505   1.442   4.006   4.775
 9514TIP3    H128506   1.414   3.983   4.863
 9514TIP3    H228507   1.495   3.931   4.746
 9515TIP3   OH228508   4.174   2.644   1.473
 9515TIP3    H128509   4.256   2.692   1.460
 9515TIP3    H228510   4.200   2.566   1.522
 9516TIP3   OH228511   3.060   2.824   1.387
 9516TIP3    H128512   3.074   2.733   1.413
 9516TIP3    H228513   3.130   2.842   1.325
 9517TIP3   OH228514   3.589   4.617   1.144
 9517TIP3    H128515   3.582   4.530   1.105
 9517TIP3    H228516   3.626   4.601   1.231
 9518TIP3   OH228517   0.126   0.543   3.095
 9518TIP3    H128518   0.058   0.524   3.030
 9518TIP3    H228519   0.141   0.459   3.140
 9519TIP3   OH228520   4.095   2.663   1.848
 9519TIP3    H128521   4.133   2.607   1.781
 9519TIP3    H228522   4.060   2.602   1.913
 9520TIP3   OH228523   0.399   2.659   0.194
 9520TIP3    H128524   0.354   2.610   0.264
 9520TIP3    H228525   0.488   2.626   0.196
 9521TIP3   OH228526   5.583   6.652   2.401
 9521TIP3    H128527   5.670   6.613   2.389
 9521TIP3    H228528   5.533   6.625   2.324
 9522TIP3   OH228529   1.661   0.596   4.273
 9522TIP3    H128530   1.656   0.571   4.180
 9522TIP3    H228531   1.738   0.549   4.306
 9523TIP3   OH228532   2.951   0.990   1.734
 9523TIP3    H128533   2.947   1.059   1.667
 9523TIP3    H228534   3.036   1.002   1.776
 9524TIP3   OH228535   6.418   0.524   1.000
 9524TIP3    H128536   6.371   0.460   0.947
 9524TIP3    H228537   6.474   0.571   0.938
 9525TIP3   OH228538   0.628   1.000   1.883
 9525TIP3    H128539   0.553   1.021   1.938
 9525TIP3    H228540   0.600   0.926   1.830
 9526TIP3   OH228541   0.848   2.817   1.067
 9526TIP3    H128542   0.844   2.765   1.148
 9526TIP3    H228543   0.938   2.850   1.065
 9527TIP3   OH228544   5.031   3.635   3.484
 9527TIP3    H128545   5.003   3.633   3.393
 9527TIP3    H228546   4.984   3.708   3.523
 9528TIP3   OH228547   4.683   6.812   5.564
 9528TIP3    H128548   4.706   6.797   5.472
 9528TIP3    H228549   4.761   6.786   5.613
 9529TIP3   OH228550   2.223   0.729   1.956
 9529TIP3    H128551   2.264   0.729   1.870
 9529TIP3    H228552   2.259   0.653   2.001
 9530TIP3   OH228553   2.881   0.127   5.672
 9530TIP3    H128554   2.872   0.052   5.730
 9530TIP3    H228555   2.836   0.198   5.718
 9531TIP3   OH228556   3.707   5.070   2.765
 9531TIP3    H128557   3.719   4.999   2.828
 9531TIP3    H228558   3.633   5.121   2.799
 9532TIP3   OH228559   4.186   5.408   2.598
 9532TIP3    H128560   4.246   5.354   2.648
 9532TIP3    H228561   4.167   5.356   2.520
 9533TIP3   OH228562   5.624   3.167   1.641
 9533TIP3    H128563   5.544   3.201   1.680
 9533TIP3    H228564   5.613   3.072   1.642
 9534TIP3   OH228565   2.386   6.759   2.544
 9534TIP3    H128566   2.326   6.747   2.471
 9534TIP3    H228567   2.469   6.780   2.504
 9535TIP3   OH228568   2.983   3.386   4.919
 9535TIP3    H128569   2.924   3.458   4.897
 9535TIP3    H228570   2.953   3.313   4.865
 9536TIP3   OH228571   5.738   3.410   0.546
 9536TIP3    H128572   5.646   3.406   0.521
 9536TIP3    H228573   5.768   3.319   0.545
 9537TIP3   OH228574   1.423   5.591   0.684
 9537TIP3    H128575   1.432   5.610   0.591
 9537TIP3    H228576   1.330   5.571   0.695
 9538TIP3   OH228577   5.010   0.874   3.079
 9538TIP3    H128578   5.038   0.806   3.141
 9538TIP3    H228579   5.050   0.847   2.996
 9539TIP3   OH228580   4.966   4.665   0.375
 9539TIP3    H128581   4.954   4.684   0.468
 9539TIP3    H228582   4.886   4.699   0.334
 9540TIP3   OH228583   7.071   5.566   2.199
 9540TIP3    H128584   7.019   5.636   2.238
 9540TIP3    H228585   7.021   5.487   2.216
 9541TIP3   OH228586   3.574   1.108   1.552
 9541TIP3    H128587   3.603   1.196   1.530
 9541TIP3    H228588   3.610   1.052   1.483
 9542TIP3   OH228589   6.194   3.555   3.542
 9542TIP3    H128590   6.176   3.633   3.595
 9542TIP3    H228591   6.124   3.494   3.564
 9543TIP3   OH228592   0.865   4.285   4.313
 9543TIP3    H128593   0.936   4.322   4.366
 9543TIP3    H228594   0.897   4.292   4.223
 9544TIP3   OH228595   3.534   3.851   4.759
 9544TIP3    H128596   3.495   3.767   4.782
 9544TIP3    H228597   3.463   3.900   4.716
 9545TIP3   OH228598   5.745   0.089   2.411
 9545TIP3    H128599   5.786   0.096   2.497
 9545TIP3    H228600   5.698   0.172   2.400
 9546TIP3   OH228601   2.674   6.534   4.693
 9546TIP3    H128602   2.628   6.467   4.744
 9546TIP3    H228603   2.757   6.546   4.738
 9547TIP3   OH228604   1.653   1.687   1.430
 9547TIP3    H128605   1.648   1.611   1.488
 9547TIP3    H228606   1.741   1.682   1.392
 9548TIP3   OH228607   6.850   4.172   4.536
 9548TIP3    H128608   6.834   4.079   4.550
 9548TIP3    H228609   6.793   4.196   4.463
 9549TIP3   OH228610   6.556   3.241   0.497
 9549TIP3    H128611   6.620   3.281   0.438
 9549TIP3    H228612   6.486   3.211   0.438
 9550TIP3   OH228613   5.127   2.406   5.644
 9550TIP3    H128614   5.111   2.340   5.711
 9550TIP3    H228615   5.040   2.424   5.606
 9551TIP3   OH228616   4.521   2.388   4.827
 9551TIP3    H128617   4.559   2.319   4.882
 9551TIP3    H228618   4.565   2.468   4.856
 9552TIP3   OH228619   2.895   0.517   4.412
 9552TIP3    H128620   2.910   0.498   4.505
 9552TIP3    H228621   2.964   0.470   4.366
 9553TIP3   OH228622   0.631   3.662   0.955
 9553TIP3    H128623   0.709   3.606   0.954
 9553TIP3    H228624   0.619   3.687   0.864
 9554TIP3   OH228625   4.127   1.796   2.893
 9554TIP3    H128626   4.131   1.707   2.858
 9554TIP3    H228627   4.196   1.844   2.847
 9555TIP3   OH228628   0.762   3.821   5.596
 9555TIP3    H128629   0.853   3.808   5.571
 9555TIP3    H228630   0.754   3.916   5.610
 9556TIP3   OH228631   1.202   6.599   5.700
 9556TIP3    H128632   1.147   6.677   5.697
 9556TIP3    H228633   1.263   6.616   5.772
 9557TIP3   OH228634   4.078   0.799   5.886
 9557TIP3    H128635   4.054   0.726   5.828
 9557TIP3    H228636   4.101   0.870   5.826
 9558TIP3   OH228637   3.428   4.538   1.632
 9558TIP3    H128638   3.509   4.589   1.638
 9558TIP3    H228639   3.437   4.490   1.550
 9559TIP3   OH228640   2.577   4.947   1.475
 9559TIP3    H128641   2.555   4.854   1.463
 9559TIP3    H228642   2.621   4.972   1.395
 9560TIP3   OH228643   3.360   0.465   1.507
 9560TIP3    H128644   3.311   0.529   1.558
 9560TIP3    H228645   3.452   0.483   1.527
 9561TIP3   OH228646   6.952   4.297   3.872
 9561TIP3    H128647   6.967   4.255   3.787
 9561TIP3    H228648   6.938   4.390   3.850
 9562TIP3   OH228649   4.872   1.172   5.524
 9562TIP3    H128650   4.837   1.206   5.606
 9562TIP3    H228651   4.884   1.078   5.539
 9563TIP3   OH228652   1.180   5.899   3.842
 9563TIP3    H128653   1.214   5.988   3.829
 9563TIP3    H228654   1.231   5.845   3.782
 9564TIP3   OH228655   4.341   4.817   5.694
 9564TIP3    H128656   4.287   4.871   5.636
 9564TIP3    H228657   4.376   4.879   5.758
 9565TIP3   OH228658   3.189   0.512   5.335
 9565TIP3    H128659   3.278   0.509   5.299
 9565TIP3    H228660   3.166   0.605   5.334
 9566TIP3   OH228661   1.266   3.713   3.755
 9566TIP3    H128662   1.180   3.744   3.785
 9566TIP3    H228663   1.326   3.736   3.826
 9567TIP3   OH228664   5.660   0.957   5.392
 9567TIP3    H128665   5.741   0.908   5.380
 9567TIP3    H228666   5.620   0.959   5.305
 9568TIP3   OH228667   7.169   1.354   3.727
 9568TIP3    H128668   7.200   1.435   3.685
 9568TIP3    H228669   7.231   1.340   3.799
 9569TIP3   OH228670   7.031   3.096   2.085
 9569TIP3    H128671   6.968   3.036   2.125
 9569TIP3    H228672   7.057   3.155   2.155
 9570TIP3   OH228673   0.035   4.005   2.109
 9570TIP3    H128674   0.059   4.097   2.100
 9570TIP3    H228675   0.035   3.990   2.204
 9571TIP3   OH228676   5.438   3.483   1.140
 9571TIP3    H128677   5.381   3.437   1.079
 9571TIP3    H228678   5.379   3.519   1.206
 9572TIP3   OH228679   2.137   5.739   2.266
 9572TIP3    H128680   2.175   5.827   2.258
 9572TIP3    H228681   2.168   5.693   2.188
 9573TIP3   OH228682   1.615   1.626   5.711
 9573TIP3    H128683   1.616   1.566   5.636
 9573TIP3    H228684   1.707   1.634   5.737
 9574TIP3   OH228685   5.518   1.695   3.240
 9574TIP3    H128686   5.539   1.761   3.305
 9574TIP3    H228687   5.440   1.728   3.195
 9575TIP3   OH228688   0.311   1.803   5.530
 9575TIP3    H128689   0.252   1.829   5.460
 9575TIP3    H228690   0.300   1.871   5.597
 9576TIP3   OH228691   4.574   4.020   1.216
 9576TIP3    H128692   4.540   4.097   1.171
 9576TIP3    H228693   4.669   4.024   1.206
 9577TIP3   OH228694   4.269   6.195  -0.013
 9577TIP3    H128695   4.293   6.102  -0.013
 9577TIP3    H228696   4.197   6.201   0.050
 9578TIP3   OH228697   4.875   4.534   1.664
 9578TIP3    H128698   4.917   4.495   1.741
 9578TIP3    H228699   4.814   4.597   1.700
 9579TIP3   OH228700   0.111   6.380   1.163
 9579TIP3    H128701   0.200   6.385   1.128
 9579TIP3    H228702   0.055   6.397   1.088
 9580TIP3   OH228703   1.529   5.210   3.403
 9580TIP3    H128704   1.514   5.118   3.426
 9580TIP3    H228705   1.457   5.233   3.345
 9581TIP3   OH228706   3.724   2.665   2.552
 9581TIP3    H128707   3.746   2.572   2.549
 9581TIP3    H228708   3.727   2.687   2.646
 9582TIP3   OH228709   0.455   4.673   4.367
 9582TIP3    H128710   0.522   4.656   4.433
 9582TIP3    H228711   0.437   4.587   4.328
 9583TIP3   OH228712   1.349   2.909   4.352
 9583TIP3    H128713   1.420   2.971   4.372
 9583TIP3    H228714   1.270   2.953   4.381
 9584TIP3   OH228715   1.786   0.570   3.413
 9584TIP3    H128716   1.801   0.631   3.340
 9584TIP3    H228717   1.770   0.626   3.489
 9585TIP3   OH228718   3.352   2.234   0.183
 9585TIP3    H128719   3.422   2.232   0.248
 9585TIP3    H228720   3.335   2.141   0.163
 9586TIP3   OH228721   6.084   3.438   3.109
 9586TIP3    H128722   6.149   3.393   3.163
 9586TIP3    H228723   6.080   3.386   3.028
 9587TIP3   OH228724   2.916   6.234   1.290
 9587TIP3    H128725   2.870   6.183   1.357
 9587TIP3    H228726   2.999   6.257   1.330
 9588TIP3   OH228727   0.850   0.301   1.938
 9588TIP3    H128728   0.913   0.373   1.936
 9588TIP3    H228729   0.830   0.284   1.846
 9589TIP3   OH228730   2.919   1.708   2.663
 9589TIP3    H128731   2.828   1.737   2.667
 9589TIP3    H228732   2.916   1.616   2.687
 9590TIP3   OH228733   5.791   1.857   5.161
 9590TIP3    H128734   5.698   1.840   5.148
 9590TIP3    H228735   5.828   1.773   5.186
 9591TIP3   OH228736   4.019   4.692   3.385
 9591TIP3    H128737   3.965   4.764   3.417
 9591TIP3    H228738   3.977   4.613   3.420
 9592TIP3   OH228739   4.662   1.524   0.619
 9592TIP3    H128740   4.633   1.555   0.705
 9592TIP3    H228741   4.754   1.501   0.633
 9593TIP3   OH228742   2.430   5.101   4.549
 9593TIP3    H128743   2.510   5.079   4.597
 9593TIP3    H228744   2.378   5.151   4.612
 9594TIP3   OH228745   5.860   2.056   3.715
 9594TIP3    H128746   5.846   1.966   3.742
 9594TIP3    H228747   5.788   2.076   3.655
 9595TIP3   OH228748   6.818   1.468   0.794
 9595TIP3    H128749   6.854   1.410   0.727
 9595TIP3    H228750   6.830   1.556   0.758
 9596TIP3   OH228751   0.451   2.608   5.581
 9596TIP3    H128752   0.513   2.674   5.612
 9596TIP3    H228753   0.430   2.557   5.659
 9597TIP3   OH228754   4.696   3.345   0.457
 9597TIP3    H128755   4.750   3.328   0.534
 9597TIP3    H228756   4.608   3.315   0.481
 9598TIP3   OH228757   6.237   2.176   2.007
 9598TIP3    H128758   6.188   2.154   2.086
 9598TIP3    H228759   6.172   2.171   1.936
 9599TIP3   OH228760   6.132   2.660   5.509
 9599TIP3    H128761   6.195   2.714   5.557
 9599TIP3    H228762   6.172   2.648   5.423
 9600TIP3   OH228763   1.109   6.646   0.072
 9600TIP3    H128764   1.177   6.677   0.132
 9600TIP3    H228765   1.130   6.686  -0.012
 9601TIP3   OH228766   4.258   2.890   4.667
 9601TIP3    H128767   4.287   2.908   4.578
 9601TIP3    H228768   4.314   2.945   4.722
 9602TIP3   OH228769   1.174   5.984   4.205
 9602TIP3    H128770   1.233   6.015   4.137
 9602TIP3    H228771   1.209   6.020   4.286
 9603TIP3   OH228772   4.187   2.177   1.145
 9603TIP3    H128773   4.142   2.128   1.076
 9603TIP3    H228774   4.117   2.206   1.204
 9604TIP3   OH228775   5.383   0.772   3.913
 9604TIP3    H128776   5.321   0.704   3.888
 9604TIP3    H228777   5.435   0.733   3.984
 9605TIP3   OH228778   1.904   6.562   3.385
 9605TIP3    H128779   1.964   6.602   3.323
 9605TIP3    H228780   1.935   6.592   3.471
 9606TIP3   OH228781   0.311   1.515   2.930
 9606TIP3    H128782   0.358   1.479   2.855
 9606TIP3    H228783   0.307   1.443   2.993
 9607TIP3   OH228784   6.503   0.573   1.249
 9607TIP3    H128785   6.457   0.562   1.165
 9607TIP3    H228786   6.595   0.554   1.229
 9608TIP3   OH228787   1.196   5.549   5.819
 9608TIP3    H128788   1.235   5.498   5.748
 9608TIP3    H228789   1.107   5.514   5.828
 9609TIP3   OH228790   0.272   1.013   0.085
 9609TIP3    H128791   0.281   1.108   0.095
 9609TIP3    H228792   0.344   0.976   0.136
 9610TIP3   OH228793   2.523   3.129   4.404
 9610TIP3    H128794   2.467   3.057   4.434
 9610TIP3    H228795   2.494   3.147   4.315
 9611TIP3   OH228796   1.928   5.175   5.583
 9611TIP3    H128797   1.895   5.190   5.671
 9611TIP3    H228798   2.017   5.144   5.595
 9612TIP3   OH228799   6.586   1.015   4.284
 9612TIP3    H128800   6.587   1.014   4.188
 9612TIP3    H228801   6.500   0.981   4.307
 9613TIP3   OH228802   1.961   2.151   2.783
 9613TIP3    H128803   2.020   2.097   2.730
 9613TIP3    H228804   1.916   2.089   2.841
 9614TIP3   OH228805   6.254   3.301   0.457
 9614TIP3    H128806   6.282   3.263   0.541
 9614TIP3    H228807   6.206   3.230   0.414
 9615TIP3   OH228808   5.514   5.094   1.967
 9615TIP3    H128809   5.526   5.045   2.048
 9615TIP3    H228810   5.474   5.031   1.907
 9616TIP3   OH228811   5.774   5.261   1.245
 9616TIP3    H128812   5.868   5.244   1.249
 9616TIP3    H228813   5.737   5.183   1.205
 9617TIP3   OH228814   3.979   6.434   4.607
 9617TIP3    H128815   4.058   6.380   4.613
 9617TIP3    H228816   4.007   6.513   4.562
 9618TIP3   OH228817   3.046   0.592   4.118
 9618TIP3    H128818   3.032   0.653   4.045
 9618TIP3    H228819   2.986   0.520   4.101
 9619TIP3   OH228820   2.728   1.990   2.005
 9619TIP3    H128821   2.822   1.995   2.023
 9619TIP3    H228822   2.698   1.914   2.055
 9620TIP3   OH228823   4.375   1.106   0.438
 9620TIP3    H128824   4.357   1.199   0.452
 9620TIP3    H228825   4.333   1.086   0.355
 9621TIP3   OH228826   6.839   5.695   5.499
 9621TIP3    H128827   6.812   5.786   5.492
 9621TIP3    H228828   6.779   5.657   5.562
 9622TIP3   OH228829   0.317   0.347   4.443
 9622TIP3    H128830   0.315   0.264   4.490
 9622TIP3    H228831   0.321   0.322   4.351
 9623TIP3   OH228832   0.411   1.277   3.455
 9623TIP3    H128833   0.441   1.368   3.459
 9623TIP3    H228834   0.322   1.280   3.489
 9624TIP3   OH228835   3.910   2.313   4.406
 9624TIP3    H128836   3.869   2.366   4.474
 9624TIP3    H228837   4.004   2.315   4.427
 9625TIP3   OH228838   3.270   0.886   4.059
 9625TIP3    H128839   3.308   0.959   4.011
 9625TIP3    H228840   3.345   0.840   4.097
 9626TIP3   OH228841   6.759   4.039   5.334
 9626TIP3    H128842   6.794   3.949   5.332
 9626TIP3    H228843   6.683   4.034   5.391
 9627TIP3   OH228844   1.701   0.490   2.586
 9627TIP3    H128845   1.691   0.395   2.577
 9627TIP3    H228846   1.796   0.504   2.586
 9628TIP3   OH228847   2.612   3.703   3.751
 9628TIP3    H128848   2.703   3.727   3.768
 9628TIP3    H228849   2.618   3.640   3.679
 9629TIP3   OH228850   2.663   1.808   5.683
 9629TIP3    H128851   2.616   1.725   5.694
 9629TIP3    H228852   2.604   1.875   5.717
 9630TIP3   OH228853   4.841   5.573   4.263
 9630TIP3    H128854   4.834   5.506   4.331
 9630TIP3    H228855   4.897   5.534   4.196
 9631TIP3   OH228856   2.926   6.525   4.162
 9631TIP3    H128857   2.860   6.550   4.226
 9631TIP3    H228858   3.010   6.548   4.203
 9632TIP3   OH228859   6.268   2.762   1.534
 9632TIP3    H128860   6.223   2.762   1.619
 9632TIP3    H228861   6.358   2.738   1.555
 9633TIP3   OH228862   1.902   4.393   2.069
 9633TIP3    H128863   1.854   4.445   2.005
 9633TIP3    H228864   1.993   4.420   2.057
 9634TIP3   OH228865   1.350   2.379   1.337
 9634TIP3    H128866   1.372   2.336   1.419
 9634TIP3    H228867   1.391   2.465   1.344
 9635TIP3   OH228868   5.511   1.622   3.572
 9635TIP3    H128869   5.462   1.604   3.652
 9635TIP3    H228870   5.464   1.574   3.504
 9636TIP3   OH228871   1.602   5.212   0.575
 9636TIP3    H128872   1.548   5.204   0.654
 9636TIP3    H228873   1.644   5.298   0.583
 9637TIP3   OH228874   3.717   0.821   3.873
 9637TIP3    H128875   3.765   0.904   3.878
 9637TIP3    H228876   3.783   0.755   3.895
 9638TIP3   OH228877   5.910   6.677   2.689
 9638TIP3    H128878   5.884   6.621   2.616
 9638TIP3    H228879   5.832   6.682   2.744
 9639TIP3   OH228880   1.698   3.296   1.099
 9639TIP3    H128881   1.772   3.314   1.040
 9639TIP3    H228882   1.738   3.251   1.173
 9640TIP3   OH228883   2.184   2.291   3.067
 9640TIP3    H128884   2.231   2.276   2.985
 9640TIP3    H228885   2.237   2.246   3.133
 9641TIP3   OH228886   3.775   3.305   3.746
 9641TIP3    H128887   3.771   3.365   3.820
 9641TIP3    H228888   3.778   3.218   3.785
 9642TIP3   OH228889   7.202   3.304   4.129
 9642TIP3    H128890   7.237   3.273   4.213
 9642TIP3    H228891   7.167   3.225   4.087
 9643TIP3   OH228892   0.131   4.938   0.638
 9643TIP3    H128893   0.046   4.981   0.643
 9643TIP3    H228894   0.115   4.850   0.671
 9644TIP3   OH228895   6.905   5.069   5.721
 9644TIP3    H128896   6.872   5.105   5.638
 9644TIP3    H228897   6.866   4.982   5.726
 9645TIP3   OH228898   4.758   4.441   0.447
 9645TIP3    H128899   4.823   4.510   0.433
 9645TIP3    H228900   4.800   4.362   0.413
 9646TIP3   OH228901   3.655   4.581   5.795
 9646TIP3    H128902   3.649   4.611   5.704
 9646TIP3    H228903   3.747   4.562   5.808
 9647TIP3   OH228904   2.500   6.728   3.125
 9647TIP3    H128905   2.430   6.683   3.173
 9647TIP3    H228906   2.454   6.777   3.056
 9648TIP3   OH228907   0.258   1.281   3.118
 9648TIP3    H128908   0.228   1.207   3.171
 9648TIP3    H228909   0.225   1.263   3.030
 9649TIP3   OH228910   4.460   3.132   4.030
 9649TIP3    H128911   4.533   3.074   4.055
 9649TIP3    H228912   4.419   3.157   4.113
 9650TIP3   OH228913   5.972   3.738   2.723
 9650TIP3    H128914   5.915   3.751   2.647
 9650TIP3    H228915   5.935   3.663   2.768
 9651TIP3   OH228916   3.713   3.965   5.256
 9651TIP3    H128917   3.718   3.955   5.161
 9651TIP3    H228918   3.620   3.975   5.274
 9652TIP3   OH228919   5.187   4.781   5.591
 9652TIP3    H128920   5.241   4.809   5.665
 9652TIP3    H228921   5.237   4.710   5.550
 9653TIP3   OH228922   3.399   6.543   3.365
 9653TIP3    H128923   3.444   6.471   3.411
 9653TIP3    H228924   3.315   6.552   3.410
 9654TIP3   OH228925   3.994   4.518   4.186
 9654TIP3    H128926   3.914   4.568   4.200
 9654TIP3    H228927   4.038   4.563   4.113
 9655TIP3   OH228928   3.267   4.812   4.109
 9655TIP3    H128929   3.245   4.784   4.021
 9655TIP3    H228930   3.183   4.810   4.156
 9656TIP3   OH228931   1.536   1.520   2.863
 9656TIP3    H128932   1.467   1.562   2.812
 9656TIP3    H228933   1.608   1.584   2.863
 9657TIP3   OH228934   4.896   1.152   4.788
 9657TIP3    H128935   4.820   1.203   4.760
 9657TIP3    H228936   4.885   1.067   4.745
 9658TIP3   OH228937   5.168   3.961   5.195
 9658TIP3    H128938   5.182   4.052   5.169
 9658TIP3    H228939   5.114   3.924   5.125
 9659TIP3   OH228940   2.467   1.204   3.885
 9659TIP3    H128941   2.443   1.296   3.875
 9659TIP3    H228942   2.467   1.190   3.980
 9660TIP3   OH228943   5.767   1.352   1.760
 9660TIP3    H128944   5.806   1.403   1.689
 9660TIP3    H228945   5.704   1.411   1.801
 9661TIP3   OH228946   5.945   2.528   5.740
 9661TIP3    H128947   6.032   2.538   5.700
 9661TIP3    H228948   5.888   2.585   5.688
 9662TIP3   OH228949   3.582   3.747   5.396
 9662TIP3    H128950   3.595   3.748   5.301
 9662TIP3    H228951   3.655   3.798   5.430
 9663TIP3   OH228952   3.160   6.515   5.453
 9663TIP3    H128953   3.213   6.466   5.390
 9663TIP3    H228954   3.081   6.462   5.464
 9664TIP3   OH228955   3.206   0.260   4.640
 9664TIP3    H128956   3.190   0.279   4.548
 9664TIP3    H228957   3.134   0.203   4.666
 9665TIP3   OH228958   5.054   3.040   4.255
 9665TIP3    H128959   5.084   2.978   4.189
 9665TIP3    H228960   5.028   2.986   4.330
 9666TIP3   OH228961   0.456   2.392   4.106
 9666TIP3    H128962   0.448   2.434   4.020
 9666TIP3    H228963   0.508   2.454   4.158
 9667TIP3   OH228964   5.040   5.874   4.464
 9667TIP3    H128965   4.979   5.889   4.392
 9667TIP3    H228966   5.046   5.958   4.509
 9668TIP3   OH228967   2.847   4.432   3.088
 9668TIP3    H128968   2.914   4.406   3.151
 9668TIP3    H228969   2.851   4.527   3.086
 9669TIP3   OH228970   0.604   1.953   1.081
 9669TIP3    H128971   0.611   1.860   1.060
 9669TIP3    H228972   0.600   1.996   0.996
 9670TIP3   OH228973   3.971   0.665   2.379
 9670TIP3    H128974   4.055   0.643   2.340
 9670TIP3    H228975   3.915   0.589   2.361
 9671TIP3   OH228976   0.120   5.643   2.891
 9671TIP3    H128977   0.129   5.639   2.795
 9671TIP3    H228978   0.207   5.670   2.922
 9672TIP3   OH228979   3.447   3.259   4.413
 9672TIP3    H128980   3.360   3.273   4.451
 9672TIP3    H228981   3.494   3.210   4.480
 9673TIP3   OH228982   5.395   4.773   3.175
 9673TIP3    H128983   5.407   4.832   3.250
 9673TIP3    H228984   5.453   4.699   3.193
 9674TIP3   OH228985   0.255   0.026   5.340
 9674TIP3    H128986   0.214   0.110   5.361
 9674TIP3    H228987   0.235  -0.030   5.415
 9675TIP3   OH228988   3.361   0.057   0.222
 9675TIP3    H128989   3.371   0.025   0.311
 9675TIP3    H228990   3.408  -0.007   0.168
 9676TIP3   OH228991   0.992   4.698   0.789
 9676TIP3    H128992   1.077   4.668   0.756
 9676TIP3    H228993   0.935   4.696   0.712
 9677TIP3   OH228994   5.577   0.915   0.704
 9677TIP3    H128995   5.558   0.876   0.790
 9677TIP3    H228996   5.534   0.858   0.641
 9678TIP3   OH228997   5.549   5.062   4.229
 9678TIP3    H128998   5.566   5.039   4.321
 9678TIP3    H228999   5.475   5.123   4.233
 9679TIP3   OH229000   6.424   2.465   0.671
 9679TIP3    H129001   6.448   2.547   0.627
 9679TIP3    H229002   6.486   2.457   0.743
 9680TIP3   OH229003   0.146   1.877   3.656
 9680TIP3    H129004   0.241   1.881   3.663
 9680TIP3    H229005   0.130   1.850   3.565
 9681TIP3   OH229006   1.779   3.101   1.309
 9681TIP3    H129007   1.717   3.123   1.379
 9681TIP3    H229008   1.865   3.116   1.349
 9682TIP3   OH229009   2.910   6.544   2.411
 9682TIP3    H129010   2.878   6.454   2.425
 9682TIP3    H229011   2.840   6.586   2.361
 9683TIP3   OH229012   2.375   2.936   4.527
 9683TIP3    H129013   2.411   2.913   4.612
 9683TIP3    H229014   2.288   2.896   4.526
 9684TIP3   OH229015   0.743   3.252   5.772
 9684TIP3    H129016   0.765   3.314   5.841
 9684TIP3    H229017   0.647   3.252   5.769
 9685TIP3   OH229018   5.352   2.963   5.050
 9685TIP3    H129019   5.355   2.954   4.955
 9685TIP3    H229020   5.372   3.055   5.067
 9686TIP3   OH229021   5.599   1.452   0.242
 9686TIP3    H129022   5.660   1.500   0.187
 9686TIP3    H229023   5.519   1.447   0.191
 9687TIP3   OH229024   5.478   2.217   3.338
 9687TIP3    H129025   5.386   2.194   3.327
 9687TIP3    H229026   5.479   2.313   3.339
 9688TIP3   OH229027   2.625   3.941   5.576
 9688TIP3    H129028   2.578   3.886   5.639
 9688TIP3    H229029   2.623   3.890   5.495
 9689TIP3   OH229030   6.187   1.784   2.925
 9689TIP3    H129031   6.122   1.805   2.993
 9689TIP3    H229032   6.158   1.700   2.890
 9690TIP3   OH229033   1.679   5.810   1.351
 9690TIP3    H129034   1.649   5.868   1.281
 9690TIP3    H229035   1.604   5.802   1.409
 9691TIP3   OH229036   4.787   4.864   4.735
 9691TIP3    H129037   4.695   4.886   4.720
 9691TIP3    H229038   4.806   4.792   4.675
 9692TIP3   OH229039   3.476   0.787   1.554
 9692TIP3    H129040   3.437   0.797   1.468
 9692TIP3    H229041   3.425   0.845   1.611
 9693TIP3   OH229042   7.114   6.216   0.347
 9693TIP3    H129043   7.140   6.125   0.333
 9693TIP3    H229044   7.095   6.248   0.259
 9694TIP3   OH229045   3.348   1.397   4.952
 9694TIP3    H129046   3.378   1.310   4.924
 9694TIP3    H229047   3.378   1.456   4.883
 9695TIP3   OH229048   3.617   4.322   0.678
 9695TIP3    H129049   3.617   4.247   0.619
 9695TIP3    H229050   3.670   4.293   0.753
 9696TIP3   OH229051   1.473   6.360   0.816
 9696TIP3    H129052   1.421   6.433   0.783
 9696TIP3    H229053   1.484   6.302   0.741
 9697TIP3   OH229054   4.553   0.330   3.177
 9697TIP3    H129055   4.562   0.254   3.120
 9697TIP3    H229056   4.642   0.351   3.205
 9698TIP3   OH229057   2.658   5.711   5.864
 9698TIP3    H129058   2.725   5.742   5.804
 9698TIP3    H229059   2.675   5.757   5.946
 9699TIP3   OH229060   0.522   3.073   3.563
 9699TIP3    H129061   0.611   3.105   3.554
 9699TIP3    H229062   0.526   3.012   3.637
 9700TIP3   OH229063   1.696   5.137   3.845
 9700TIP3    H129064   1.613   5.177   3.872
 9700TIP3    H229065   1.723   5.188   3.769
 9701TIP3   OH229066   1.645   1.482   4.342
 9701TIP3    H129067   1.623   1.467   4.434
 9701TIP3    H229068   1.741   1.480   4.340
 9702TIP3   OH229069   1.658   4.643   4.462
 9702TIP3    H129070   1.729   4.629   4.525
 9702TIP3    H229071   1.625   4.556   4.443
 9703TIP3   OH229072   5.766   6.600   5.069
 9703TIP3    H129073   5.739   6.522   5.021
 9703TIP3    H229074   5.777   6.570   5.159
 9704TIP3   OH229075   4.930   3.719   3.218
 9704TIP3    H129076   4.884   3.801   3.201
 9704TIP3    H229077   4.900   3.660   3.149
 9705TIP3   OH229078   2.593   3.290   2.900
 9705TIP3    H129079   2.596   3.360   2.833
 9705TIP3    H229080   2.682   3.289   2.937
 9706TIP3   OH229081   4.132   4.941   3.421
 9706TIP3    H129082   4.112   4.870   3.482
 9706TIP3    H229083   4.219   4.970   3.446
 9707TIP3   OH229084   1.258   3.610   1.652
 9707TIP3    H129085   1.289   3.540   1.710
 9707TIP3    H229086   1.278   3.578   1.564
 9708TIP3   OH229087   3.625   6.207   2.076
 9708TIP3    H129088   3.575   6.211   2.157
 9708TIP3    H229089   3.700   6.152   2.096
 9709TIP3   OH229090   6.936   3.954   0.472
 9709TIP3    H129091   6.952   3.879   0.531
 9709TIP3    H229092   7.007   4.015   0.491
 9710TIP3   OH229093   7.076   5.127   3.296
 9710TIP3    H129094   7.021   5.199   3.265
 9710TIP3    H229095   7.080   5.139   3.391
 9711TIP3   OH229096   1.554   6.353   5.203
 9711TIP3    H129097   1.488   6.411   5.163
 9711TIP3    H229098   1.637   6.379   5.163
 9712TIP3   OH229099   5.798   1.888   4.827
 9712TIP3    H129100   5.860   1.876   4.899
 9712TIP3    H229101   5.761   1.801   4.812
 9713TIP3   OH229102   4.050   3.400   3.935
 9713TIP3    H129103   4.036   3.400   4.030
 9713TIP3    H229104   4.141   3.425   3.923
 9714TIP3   OH229105   2.134   1.030   0.673
 9714TIP3    H129106   2.055   1.038   0.727
 9714TIP3    H229107   2.155   0.937   0.676
 9715TIP3   OH229108   4.904   6.247   0.339
 9715TIP3    H129109   4.933   6.158   0.360
 9715TIP3    H229110   4.824   6.234   0.288
 9716TIP3   OH229111   3.943   3.884   5.064
 9716TIP3    H129112   4.020   3.881   5.119
 9716TIP3    H229113   3.917   3.976   5.063
 9717TIP3   OH229114   1.209   0.600   2.825
 9717TIP3    H129115   1.155   0.632   2.897
 9717TIP3    H229116   1.260   0.528   2.863
 9718TIP3   OH229117   1.828   4.577   4.677
 9718TIP3    H129118   1.909   4.528   4.661
 9718TIP3    H229119   1.770   4.514   4.719
 9719TIP3   OH229120   1.310   3.655   5.629
 9719TIP3    H129121   1.399   3.682   5.608
 9719TIP3    H229122   1.254   3.710   5.574
 9720TIP3   OH229123   3.572   1.529   2.274
 9720TIP3    H129124   3.653   1.567   2.240
 9720TIP3    H229125   3.592   1.437   2.288
 9721TIP3   OH229126   1.053   5.661   3.908
 9721TIP3    H129127   1.092   5.741   3.872
 9721TIP3    H229128   1.045   5.679   4.002
 9722TIP3   OH229129   0.317   3.362   3.805
 9722TIP3    H129130   0.346   3.377   3.715
 9722TIP3    H229131   0.280   3.274   3.804
 9723TIP3   OH229132   1.251   3.210   4.095
 9723TIP3    H129133   1.338   3.202   4.135
 9723TIP3    H229134   1.223   3.299   4.117
 9724TIP3   OH229135   6.079   1.694   2.104
 9724TIP3    H129136   6.168   1.678   2.137
 9724TIP3    H229137   6.032   1.730   2.179
 9725TIP3   OH229138   4.248   1.880   4.890
 9725TIP3    H129139   4.180   1.843   4.946
 9725TIP3    H229140   4.239   1.975   4.900
 9726TIP3   OH229141   2.987   1.367   4.008
 9726TIP3    H129142   3.071   1.326   4.027
 9726TIP3    H229143   3.007   1.430   3.938
 9727TIP3   OH229144   4.585   2.459   3.732
 9727TIP3    H129145   4.657   2.508   3.692
 9727TIP3    H229146   4.554   2.515   3.803
 9728TIP3   OH229147   3.013   0.806   3.944
 9728TIP3    H129148   3.099   0.836   3.974
 9728TIP3    H229149   2.951   0.863   3.989
 9729TIP3   OH229150   4.440   4.843   2.111
 9729TIP3    H129151   4.527   4.804   2.126
 9729TIP3    H229152   4.456   4.911   2.045
 9730TIP3   OH229153   3.830   1.381   3.887
 9730TIP3    H129154   3.899   1.346   3.944
 9730TIP3    H229155   3.752   1.383   3.943
 9731TIP3   OH229156   3.706   3.889   5.720
 9731TIP3    H129157   3.776   3.872   5.657
 9731TIP3    H229158   3.741   3.956   5.778
 9732TIP3   OH229159   0.198   4.782   4.028
 9732TIP3    H129160   0.147   4.755   3.952
 9732TIP3    H229161   0.287   4.749   4.011
 9733TIP3   OH229162   5.145   1.287   1.616
 9733TIP3    H129163   5.176   1.270   1.527
 9733TIP3    H229164   5.073   1.225   1.628
 9734TIP3   OH229165   6.499   2.987   0.722
 9734TIP3    H129166   6.567   3.049   0.749
 9734TIP3    H229167   6.418   3.038   0.723
 9735TIP3   OH229168   1.376   2.426   3.325
 9735TIP3    H129169   1.379   2.438   3.420
 9735TIP3    H229170   1.376   2.515   3.290
 9736TIP3   OH229171   5.376   4.705   5.206
 9736TIP3    H129172   5.352   4.778   5.264
 9736TIP3    H229173   5.299   4.693   5.150
 9737TIP3   OH229174   2.391   6.573   2.879
 9737TIP3    H129175   2.356   6.488   2.853
 9737TIP3    H229176   2.318   6.616   2.925
 9738TIP3   OH229177   1.317   5.729   1.215
 9738TIP3    H129178   1.287   5.700   1.301
 9738TIP3    H229179   1.274   5.671   1.152
 9739TIP3   OH229180   3.015   1.675   4.903
 9739TIP3    H129181   3.066   1.646   4.978
 9739TIP3    H229182   3.049   1.763   4.884
 9740TIP3   OH229183   0.765   6.063   3.446
 9740TIP3    H129184   0.728   6.076   3.533
 9740TIP3    H229185   0.859   6.050   3.462
 9741TIP3   OH229186   1.670   1.180   4.914
 9741TIP3    H129187   1.649   1.127   4.838
 9741TIP3    H229188   1.688   1.117   4.984
 9742TIP3   OH229189   4.085   4.120   1.524
 9742TIP3    H129190   4.158   4.125   1.585
 9742TIP3    H229191   4.009   4.146   1.575
 9743TIP3   OH229192   0.085   0.100   2.725
 9743TIP3    H129193   0.100   0.021   2.674
 9743TIP3    H229194   0.131   0.169   2.677
 9744TIP3   OH229195   4.789   0.917   4.679
 9744TIP3    H129196   4.820   0.837   4.720
 9744TIP3    H229197   4.701   0.930   4.714
 9745TIP3   OH229198   7.122   2.309   1.987
 9745TIP3    H129199   7.072   2.316   2.069
 9745TIP3    H229200   7.208   2.345   2.008
 9746TIP3   OH229201   2.026   0.532   5.852
 9746TIP3    H129202   2.024   0.445   5.892
 9746TIP3    H229203   1.934   0.558   5.849
 9747TIP3   OH229204   4.019   0.399   0.844
 9747TIP3    H129205   3.983   0.469   0.792
 9747TIP3    H229206   3.974   0.406   0.928
 9748TIP3   OH229207   3.870   2.540   0.747
 9748TIP3    H129208   3.959   2.572   0.731
 9748TIP3    H229209   3.823   2.558   0.666
 9749TIP3   OH229210   4.658   3.496   1.334
 9749TIP3    H129211   4.697   3.579   1.362
 9749TIP3    H229212   4.633   3.453   1.416
   7.22126   6.80828   5.89613   0.00000   0.00000  -2.40709   0.00000  -2.40709  -3.40413
