Title t= 432.00000 step= 216000
44469
    1GLY      N    1   6.296   5.270   3.884
    1GLY    HT1    2   6.261   5.346   3.946
    1GLY    HT2    3   6.381   5.247   3.938
    1GLY    HT3    4   6.234   5.186   3.885
    1GLY     CA    5   6.315   5.317   3.746
    1GLY    HA1    6   6.360   5.241   3.684
    1GLY    HA2    7   6.381   5.402   3.753
    1GLY      C    8   6.196   5.372   3.673
    1GLY      O    9   6.088   5.383   3.728
    2PRO      N   10   6.210   5.422   3.545
    2PRO     CD   11   6.345   5.459   3.495
    2PRO    HD1   12   6.381   5.372   3.435
    2PRO    HD2   13   6.421   5.489   3.570
    2PRO     CA   14   6.107   5.507   3.481
    2PRO     HA   15   6.077   5.583   3.552
    2PRO     CB   16   6.172   5.561   3.355
    2PRO    HB1   17   6.125   5.648   3.307
    2PRO    HB2   18   6.180   5.483   3.276
    2PRO     CG   19   6.322   5.579   3.406
    2PRO    HG1   20   6.392   5.576   3.321
    2PRO    HG2   21   6.326   5.674   3.464
    2PRO      C   22   5.986   5.438   3.439
    2PRO      O   23   5.896   5.505   3.385
    3GLY      N   24   5.973   5.305   3.469
    3GLY     HN   25   6.054   5.253   3.494
    3GLY     CA   26   5.851   5.231   3.449
    3GLY    HA1   27   5.881   5.136   3.408
    3GLY    HA2   28   5.785   5.285   3.383
    3GLY      C   29   5.773   5.202   3.568
    3GLY      O   30   5.678   5.126   3.565
    4ASN      N   31   5.815   5.252   3.683
    4ASN     HN   32   5.890   5.317   3.688
    4ASN     CA   33   5.739   5.243   3.807
    4ASN     HA   34   5.665   5.164   3.802
    4ASN     CB   35   5.838   5.208   3.915
    4ASN    HB1   36   5.796   5.196   4.017
    4ASN    HB2   37   5.904   5.298   3.914
    4ASN     CG   38   5.932   5.091   3.877
    4ASN    OD1   39   6.048   5.116   3.842
    4ASN    ND2   40   5.888   4.968   3.898
    4ASN   HD21   41   5.940   4.890   3.864
    4ASN   HD22   42   5.791   4.953   3.916
    4ASN      C   43   5.665   5.387   3.832
    4ASN      O   44   5.733   5.491   3.833
    5PRO      N   45   5.532   5.403   3.838
    5PRO     CD   46   5.438   5.310   3.781
    5PRO    HD1   47   5.425   5.228   3.855
    5PRO    HD2   48   5.486   5.277   3.686
    5PRO     CA   49   5.475   5.535   3.858
    5PRO     HA   50   5.505   5.594   3.772
    5PRO     CB   51   5.333   5.516   3.862
    5PRO    HB1   52   5.290   5.605   3.813
    5PRO    HB2   53   5.271   5.503   3.954
    5PRO     CG   54   5.310   5.389   3.767
    5PRO    HG1   55   5.215   5.336   3.787
    5PRO    HG2   56   5.303   5.416   3.659
    5PRO      C   57   5.519   5.608   3.985
    5PRO      O   58   5.530   5.543   4.092
    6GLY      N   59   5.549   5.739   3.973
    6GLY     HN   60   5.562   5.780   3.883
    6GLY     CA   61   5.567   5.832   4.086
    6GLY    HA1   62   5.599   5.925   4.041
    6GLY    HA2   63   5.651   5.809   4.149
    6GLY      C   64   5.446   5.848   4.177
    6GLY      O   65   5.341   5.797   4.142
    7PRO      N   66   5.458   5.894   4.301
    7PRO     CD   67   5.583   5.949   4.345
    7PRO    HD1   68   5.592   6.042   4.284
    7PRO    HD2   69   5.666   5.876   4.332
    7PRO     CA   70   5.362   5.903   4.411
    7PRO     HA   71   5.359   5.800   4.444
    7PRO     CB   72   5.420   6.007   4.490
    7PRO    HB1   73   5.381   6.021   4.593
    7PRO    HB2   74   5.416   6.104   4.435
    7PRO     CG   75   5.563   5.976   4.492
    7PRO    HG1   76   5.613   6.070   4.526
    7PRO    HG2   77   5.578   5.890   4.561
    7PRO      C   78   5.222   5.943   4.357
    7PRO      O   79   5.206   6.021   4.257
    8GLY      N   80   5.112   5.888   4.411
    8GLY     HN   81   5.118   5.819   4.483
    8GLY     CA   82   4.979   5.940   4.403
    8GLY    HA1   83   4.980   6.029   4.464
    8GLY    HA2   84   4.920   5.856   4.436
    8GLY      C   85   4.919   5.976   4.268
    8GLY      O   86   4.948   5.915   4.165
    9ASN      N   87   4.839   6.082   4.268
    9ASN     HN   88   4.815   6.129   4.353
    9ASN     CA   89   4.766   6.131   4.151
    9ASN     HA   90   4.826   6.107   4.066
    9ASN     CB   91   4.625   6.076   4.145
    9ASN    HB1   92   4.555   6.136   4.082
    9ASN    HB2   93   4.572   6.087   4.242
    9ASN     CG   94   4.623   5.932   4.095
    9ASN    OD1   95   4.640   5.907   3.974
    9ASN    ND2   96   4.603   5.836   4.190
    9ASN   HD21   97   4.615   5.739   4.169
    9ASN   HD22   98   4.586   5.864   4.284
    9ASN      C   99   4.764   6.282   4.169
    9ASN      O  100   4.759   6.336   4.282
   10PRO      N  101   4.761   6.351   4.046
   10PRO     CD  102   4.773   6.293   3.913
   10PRO    HD1  103   4.682   6.234   3.893
   10PRO    HD2  104   4.860   6.224   3.906
   10PRO     CA  105   4.718   6.487   4.035
   10PRO     HA  106   4.795   6.553   4.073
   10PRO     CB  107   4.708   6.517   3.884
   10PRO    HB1  108   4.743   6.620   3.865
   10PRO    HB2  109   4.608   6.490   3.845
   10PRO     CG  110   4.799   6.415   3.824
   10PRO    HG1  111   4.779   6.388   3.718
   10PRO    HG2  112   4.903   6.452   3.836
   10PRO      C  113   4.589   6.527   4.114
   10PRO      O  114   4.500   6.443   4.125
   11GLY      N  115   4.581   6.650   4.167
   11GLY     HN  116   4.658   6.710   4.150
   11GLY     CA  117   4.475   6.691   4.256
   11GLY    HA1  118   4.500   6.791   4.289
   11GLY    HA2  119   4.467   6.617   4.335
   11GLY      C  120   4.338   6.693   4.190
   11GLY      O  121   4.322   6.679   4.064
   12PRO      N  122   4.226   6.726   4.265
   12PRO     CD  123   4.229   6.725   4.412
   12PRO    HD1  124   4.313   6.776   4.463
   12PRO    HD2  125   4.221   6.619   4.444
   12PRO     CA  126   4.098   6.741   4.215
   12PRO     HA  127   4.068   6.660   4.150
   12PRO     CB  128   4.004   6.743   4.343
   12PRO    HB1  129   3.941   6.652   4.348
   12PRO    HB2  130   3.929   6.825   4.333
   12PRO     CG  131   4.092   6.786   4.460
   12PRO    HG1  132   4.086   6.897   4.456
   12PRO    HG2  133   4.049   6.741   4.552
   12PRO      C  134   4.084   6.876   4.148
   12PRO      O  135   4.008   6.884   4.050
   13GLY      N  136   4.153   6.981   4.193
   13GLY     HN  137   4.215   6.954   4.265
   13GLY     CA  138   4.124   7.116   4.160
   13GLY    HA1  139   4.094   7.118   4.057
   13GLY    HA2  140   4.214   7.167   4.193
   13GLY      C  141   4.002   7.176   4.226
   13GLY      O  142   3.942   7.110   4.314
   14ASN      N  143   3.964   7.308   4.207
   14ASN     HN  144   4.021   7.375   4.161
   14ASN     CA  145   3.860   7.373   4.278
   14ASN     HA  146   3.802   7.299   4.331
   14ASN     CB  147   3.914   7.475   4.380
   14ASN    HB1  148   3.932   7.421   4.476
   14ASN    HB2  149   3.837   7.553   4.402
   14ASN     CG  150   4.032   7.553   4.321
   14ASN    OD1  151   4.150   7.527   4.350
   14ASN    ND2  152   4.008   7.653   4.223
   14ASN   HD21  153   4.088   7.708   4.203
   14ASN   HD22  154   3.916   7.689   4.207
   14ASN      C  155   3.763   7.439   4.185
   14ASN      O  156   3.803   7.491   4.084
   15PRO      N  157   3.625   7.444   4.213
   15PRO     CD  158   3.566   7.387   4.340
   15PRO    HD1  159   3.617   7.411   4.436
   15PRO    HD2  160   3.564   7.277   4.327
   15PRO     CA  161   3.516   7.501   4.128
   15PRO     HA  162   3.514   7.448   4.034
   15PRO     CB  163   3.387   7.459   4.195
   15PRO    HB1  164   3.354   7.357   4.168
   15PRO    HB2  165   3.297   7.521   4.174
   15PRO     CG  166   3.420   7.448   4.347
   15PRO    HG1  167   3.424   7.549   4.393
   15PRO    HG2  168   3.356   7.385   4.412
   15PRO      C  169   3.505   7.645   4.094
   15PRO    OT1  170   3.516   7.687   3.975
   15PRO    OT2  171   3.499   7.735   4.182
   16LIT    LIT  172   2.033   6.866   3.652
   17LIT    LIT  173   5.240   1.419   1.899
   18LIT    LIT  174   5.874   3.723   6.732
   19LIT    LIT  175   0.896   6.774   5.395
   20LIT    LIT  176   2.624   0.912   4.781
   21LIT    LIT  177   2.611   5.825   6.579
   22LIT    LIT  178   7.942   0.188   3.503
   23LIT    LIT  179   4.220   0.594   5.001
   24LIT    LIT  180   3.710   5.577   0.423
   25LIT    LIT  181   6.070   6.089   4.866
   26LIT    LIT  182   5.275   7.195   2.340
   27LIT    LIT  183   1.652   1.763   0.261
   28LIT    LIT  184   1.115   3.481   6.207
   29LIT    LIT  185   7.802   0.455   0.895
   30LIT    LIT  186   5.836   1.523   5.947
   31LIT    LIT  187   0.426   1.905   1.511
   32LIT    LIT  188   5.399   2.337   2.894
   33LIT    LIT  189   0.308   5.698   4.642
   34LIT    LIT  190   0.522   1.468   2.798
   35LIT    LIT  191   7.223   5.550   4.177
   36LIT    LIT  192   6.230   3.919   0.946
   37LIT    LIT  193   2.827   1.277   6.347
   38LIT    LIT  194   2.700   1.353   2.825
   39LIT    LIT  195   3.784   5.976   5.947
   40LIT    LIT  196   8.054   4.937   0.029
   41LIT    LIT  197   1.020   6.741   6.137
   42LIT    LIT  198   0.698   2.623   3.365
   43LIT    LIT  199   6.203   0.036   4.041
   44LIT    LIT  200   3.413   3.433   4.692
   45LIT    LIT  201   2.572   2.512   4.984
   46LIT    LIT  202   6.159   4.610   6.558
   47LIT    LIT  203   5.590   4.038   4.097
   48LIT    LIT  204   5.609   3.084   0.382
   49LIT    LIT  205   0.565   3.450   3.229
   50LIT    LIT  206   2.846   4.853   1.438
   51LIT    LIT  207   4.435   1.360   1.785
   52LIT    LIT  208   4.637   4.357   1.467
   53LIT    LIT  209   7.786   6.914   0.392
   54LIT    LIT  210   7.545   0.020   2.535
   55LIT    LIT  211   8.076   4.072   0.681
   56LIT    LIT  212   3.261   7.263   6.465
   57LIT    LIT  213   7.211   5.246   3.044
   58CLA    CLA  214   2.513   1.701   2.863
   59CLA    CLA  215   3.421   7.731   2.731
   60CLA    CLA  216   1.718   0.958   3.530
   61CLA    CLA  217   5.260   5.259   5.025
   62CLA    CLA  218   6.000   6.970   1.488
   63CLA    CLA  219   7.072   7.416   3.026
   64CLA    CLA  220   2.301   5.263   3.670
   65CLA    CLA  221   2.137   0.079   5.459
   66CLA    CLA  222   5.167   3.092   6.730
   67CLA    CLA  223   0.668   4.605   3.442
   68CLA    CLA  224   0.854   5.992   4.697
   69CLA    CLA  225   5.054   4.243   2.507
   70CLA    CLA  226   3.146   0.509   6.585
   71CLA    CLA  227   7.408   5.288   4.809
   72CLA    CLA  228   4.658   2.695   2.042
   73CLA    CLA  229   1.355   3.162   2.384
   74CLA    CLA  230   2.629   2.598   5.191
   75CLA    CLA  231   2.441   4.591   5.187
   76CLA    CLA  232   3.665   1.634   4.419
   77CLA    CLA  233   5.604   3.779   4.633
   78CLA    CLA  234   1.240   0.326   5.420
   79CLA    CLA  235   5.813   0.106   4.198
   80CLA    CLA  236   1.752   4.953   2.775
   81CLA    CLA  237   4.702   2.606   1.001
   82CLA    CLA  238   8.208   2.023   2.727
   83CLA    CLA  239   4.849   6.525   0.980
   84CLA    CLA  240   3.312   6.900   1.515
   85CLA    CLA  241   8.256   1.513   1.300
   86CLA    CLA  242   6.132   1.135   4.013
   87CLA    CLA  243   0.325   2.341   3.255
   88CLA    CLA  244   3.887   5.368   4.888
   89CLA    CLA  245   6.488   4.918   3.073
   90CLA    CLA  246   6.476   3.804   0.155
   91CLA    CLA  247   0.309   7.706   1.221
   92CLA    CLA  248   7.619   0.312   0.872
   93CLA    CLA  249   6.651   5.799   0.167
   94CLA    CLA  250   2.525   4.608   3.374
   95CLA    CLA  251   7.397   1.592   6.360
   96CLA    CLA  252   1.039   0.899   0.800
   97CLA    CLA  253   7.536   4.798   0.125
   98CLA    CLA  254   0.547   4.857   5.914
   99CLA    CLA  255   7.242   3.574   0.430
  100TIP3   OH2  256   5.138   1.616   4.961
  100TIP3    H1  257   5.112   1.646   5.048
  100TIP3    H2  258   5.185   1.691   4.923
  101TIP3   OH2  259   5.250   2.882   0.635
  101TIP3    H1  260   5.201   2.814   0.683
  101TIP3    H2  261   5.183   2.947   0.613
  102TIP3   OH2  262   4.571   0.659   1.223
  102TIP3    H1  263   4.566   0.747   1.185
  102TIP3    H2  264   4.516   0.606   1.165
  103TIP3   OH2  265   3.519   5.180   6.446
  103TIP3    H1  266   3.435   5.176   6.401
  103TIP3    H2  267   3.558   5.263   6.417
  104TIP3   OH2  268   1.492   2.850   0.026
  104TIP3    H1  269   1.404   2.861  -0.010
  104TIP3    H2  270   1.484   2.777   0.087
  105TIP3   OH2  271   4.855   1.724   5.569
  105TIP3    H1  272   4.884   1.651   5.514
  105TIP3    H2  273   4.874   1.802   5.516
  106TIP3   OH2  274   2.787   5.013   2.038
  106TIP3    H1  275   2.742   4.941   1.995
  106TIP3    H2  276   2.719   5.059   2.086
  107TIP3   OH2  277   4.023   1.469   1.033
  107TIP3    H1  278   4.030   1.413   1.110
  107TIP3    H2  279   3.942   1.442   0.991
  108TIP3   OH2  280   6.740   1.681   4.575
  108TIP3    H1  281   6.826   1.723   4.583
  108TIP3    H2  282   6.754   1.591   4.604
  109TIP3   OH2  283   7.885   4.276   2.594
  109TIP3    H1  284   7.952   4.343   2.604
  109TIP3    H2  285   7.924   4.197   2.631
  110TIP3   OH2  286   4.677   0.280   2.500
  110TIP3    H1  287   4.586   0.290   2.474
  110TIP3    H2  288   4.677   0.203   2.557
  111TIP3   OH2  289   8.192   0.010   3.724
  111TIP3    H1  290   8.139   0.088   3.734
  111TIP3    H2  291   8.280   0.037   3.750
  112TIP3   OH2  292   7.240   3.566   2.511
  112TIP3    H1  293   7.188   3.527   2.441
  112TIP3    H2  294   7.268   3.650   2.476
  113TIP3   OH2  295   7.661   1.755   4.655
  113TIP3    H1  296   7.569   1.757   4.683
  113TIP3    H2  297   7.705   1.704   4.723
  114TIP3   OH2  298   5.592   4.238   1.620
  114TIP3    H1  299   5.620   4.260   1.709
  114TIP3    H2  300   5.510   4.286   1.608
  115TIP3   OH2  301   2.866   5.244   1.275
  115TIP3    H1  302   2.817   5.323   1.299
  115TIP3    H2  303   2.855   5.236   1.180
  116TIP3   OH2  304   5.022   2.590   3.529
  116TIP3    H1  305   5.071   2.582   3.611
  116TIP3    H2  306   4.940   2.632   3.554
  117TIP3   OH2  307   5.130   4.234   5.184
  117TIP3    H1  308   5.044   4.252   5.221
  117TIP3    H2  309   5.118   4.153   5.133
  118TIP3   OH2  310   1.256   2.255   3.005
  118TIP3    H1  311   1.218   2.326   2.953
  118TIP3    H2  312   1.339   2.236   2.963
  119TIP3   OH2  313   2.536   2.894   6.011
  119TIP3    H1  314   2.584   2.874   5.930
  119TIP3    H2  315   2.446   2.910   5.981
  120TIP3   OH2  316   2.312   5.506   1.555
  120TIP3    H1  317   2.246   5.489   1.622
  120TIP3    H2  318   2.300   5.436   1.490
  121TIP3   OH2  319   1.381   4.843   2.569
  121TIP3    H1  320   1.454   4.823   2.627
  121TIP3    H2  321   1.355   4.758   2.533
  122TIP3   OH2  322   0.468   3.428   0.800
  122TIP3    H1  323   0.500   3.515   0.774
  122TIP3    H2  324   0.540   3.391   0.852
  123TIP3   OH2  325   3.619   5.650   1.014
  123TIP3    H1  326   3.555   5.643   1.085
  123TIP3    H2  327   3.683   5.713   1.046
  124TIP3   OH2  328   5.034   5.803   2.676
  124TIP3    H1  329   4.978   5.779   2.603
  124TIP3    H2  330   5.093   5.728   2.686
  125TIP3   OH2  331   7.215   0.259   2.997
  125TIP3    H1  332   7.192   0.348   2.971
  125TIP3    H2  333   7.288   0.236   2.940
  126TIP3   OH2  334   4.563   7.427   4.492
  126TIP3    H1  335   4.488   7.404   4.547
  126TIP3    H2  336   4.625   7.469   4.552
  127TIP3   OH2  337   7.631   6.649   1.578
  127TIP3    H1  338   7.656   6.564   1.614
  127TIP3    H2  339   7.702   6.708   1.603
  128TIP3   OH2  340   7.417   1.963   5.949
  128TIP3    H1  341   7.442   1.900   6.018
  128TIP3    H2  342   7.456   1.927   5.869
  129TIP3   OH2  343   5.107   5.671   0.970
  129TIP3    H1  344   5.200   5.673   0.949
  129TIP3    H2  345   5.084   5.578   0.967
  130TIP3   OH2  346   0.725   0.774   2.686
  130TIP3    H1  347   0.683   0.804   2.605
  130TIP3    H2  348   0.652   0.759   2.746
  131TIP3   OH2  349   8.178   2.260   3.752
  131TIP3    H1  350   8.254   2.204   3.734
  131TIP3    H2  351   8.112   2.233   3.689
  132TIP3   OH2  352   7.457   4.366   4.249
  132TIP3    H1  353   7.498   4.399   4.169
  132TIP3    H2  354   7.363   4.366   4.229
  133TIP3   OH2  355   1.635   2.293   0.787
  133TIP3    H1  356   1.552   2.247   0.780
  133TIP3    H2  357   1.639   2.322   0.879
  134TIP3   OH2  358   8.079   2.859   0.612
  134TIP3    H1  359   8.164   2.896   0.638
  134TIP3    H2  360   8.016   2.903   0.668
  135TIP3   OH2  361   5.969   1.941   2.825
  135TIP3    H1  362   6.007   1.863   2.864
  135TIP3    H2  363   5.984   1.931   2.731
  136TIP3   OH2  364   2.114   3.284   6.484
  136TIP3    H1  365   2.057   3.333   6.543
  136TIP3    H2  366   2.152   3.350   6.426
  137TIP3   OH2  367   3.914   6.079   2.717
  137TIP3    H1  368   3.971   6.132   2.660
  137TIP3    H2  369   3.898   6.135   2.793
  138TIP3   OH2  370   4.484   2.864   1.792
  138TIP3    H1  371   4.551   2.839   1.855
  138TIP3    H2  372   4.401   2.837   1.831
  139TIP3   OH2  373   0.502   1.564   4.370
  139TIP3    H1  374   0.475   1.517   4.448
  139TIP3    H2  375   0.478   1.507   4.297
  140TIP3   OH2  376   7.645   6.849   4.565
  140TIP3    H1  377   7.585   6.925   4.567
  140TIP3    H2  378   7.651   6.822   4.657
  141TIP3   OH2  379   6.937   1.487   4.421
  141TIP3    H1  380   6.864   1.511   4.365
  141TIP3    H2  381   6.897   1.468   4.506
  142TIP3   OH2  382   3.847   1.299   0.828
  142TIP3    H1  383   3.936   1.315   0.795
  142TIP3    H2  384   3.834   1.205   0.816
  143TIP3   OH2  385   1.721   5.386   4.292
  143TIP3    H1  386   1.708   5.442   4.215
  143TIP3    H2  387   1.816   5.378   4.299
  144TIP3   OH2  388   5.208   7.714   5.648
  144TIP3    H1  389   5.150   7.690   5.576
  144TIP3    H2  390   5.296   7.690   5.617
  145TIP3   OH2  391   5.706   1.934   4.489
  145TIP3    H1  392   5.639   1.987   4.447
  145TIP3    H2  393   5.657   1.874   4.546
  146TIP3   OH2  394   3.508   6.183   1.510
  146TIP3    H1  395   3.567   6.176   1.585
  146TIP3    H2  396   3.421   6.167   1.547
  147TIP3   OH2  397   3.133   7.352   0.046
  147TIP3    H1  398   3.206   7.354  -0.017
  147TIP3    H2  399   3.157   7.282   0.107
  148TIP3   OH2  400   2.885   7.535   3.218
  148TIP3    H1  401   2.854   7.624   3.237
  148TIP3    H2  402   2.949   7.517   3.286
  149TIP3   OH2  403   2.106   1.890   4.063
  149TIP3    H1  404   2.149   1.942   3.994
  149TIP3    H2  405   2.068   1.956   4.122
  150TIP3   OH2  406   1.253   7.236   0.683
  150TIP3    H1  407   1.297   7.262   0.602
  150TIP3    H2  408   1.296   7.154   0.709
  151TIP3   OH2  409   3.658   7.361   1.464
  151TIP3    H1  410   3.712   7.349   1.542
  151TIP3    H2  411   3.688   7.444   1.427
  152TIP3   OH2  412   4.834   1.760   2.607
  152TIP3    H1  413   4.788   1.676   2.606
  152TIP3    H2  414   4.806   1.803   2.527
  153TIP3   OH2  415   5.784   0.593   4.064
  153TIP3    H1  416   5.814   0.666   4.119
  153TIP3    H2  417   5.690   0.586   4.084
  154TIP3   OH2  418   1.195   0.317   3.082
  154TIP3    H1  419   1.188   0.224   3.100
  154TIP3    H2  420   1.252   0.323   3.006
  155TIP3   OH2  421   1.010   2.246   2.734
  155TIP3    H1  422   1.068   2.320   2.755
  155TIP3    H2  423   0.974   2.219   2.819
  156TIP3   OH2  424   1.040   3.666   3.030
  156TIP3    H1  425   0.988   3.586   3.029
  156TIP3    H2  426   1.131   3.635   3.027
  157TIP3   OH2  427   6.852   1.641   1.558
  157TIP3    H1  428   6.809   1.563   1.591
  157TIP3    H2  429   6.934   1.609   1.520
  158TIP3   OH2  430   8.051   1.684   5.568
  158TIP3    H1  431   8.104   1.639   5.634
  158TIP3    H2  432   7.962   1.654   5.584
  159TIP3   OH2  433   1.276   1.842   6.038
  159TIP3    H1  434   1.274   1.874   6.128
  159TIP3    H2  435   1.212   1.770   6.036
  160TIP3   OH2  436   5.901   6.970   6.275
  160TIP3    H1  437   5.975   7.001   6.328
  160TIP3    H2  438   5.860   6.902   6.329
  161TIP3   OH2  439   3.737   5.193   4.235
  161TIP3    H1  440   3.680   5.265   4.207
  161TIP3    H2  441   3.740   5.135   4.158
  162TIP3   OH2  442   1.621   6.800   4.106
  162TIP3    H1  443   1.559   6.873   4.106
  162TIP3    H2  444   1.706   6.841   4.119
  163TIP3   OH2  445   0.322   0.364   4.375
  163TIP3    H1  446   0.337   0.453   4.341
  163TIP3    H2  447   0.233   0.342   4.346
  164TIP3   OH2  448   1.084   4.750   0.887
  164TIP3    H1  449   1.086   4.655   0.894
  164TIP3    H2  450   1.059   4.780   0.974
  165TIP3   OH2  451   2.884   2.708   4.649
  165TIP3    H1  452   2.930   2.662   4.719
  165TIP3    H2  453   2.948   2.770   4.615
  166TIP3   OH2  454   3.908   3.264   4.037
  166TIP3    H1  455   3.845   3.317   4.085
  166TIP3    H2  456   3.877   3.266   3.947
  167TIP3   OH2  457   4.110   4.854   0.672
  167TIP3    H1  458   4.131   4.830   0.762
  167TIP3    H2  459   4.180   4.814   0.620
  168TIP3   OH2  460   5.716   3.393   3.377
  168TIP3    H1  461   5.805   3.414   3.347
  168TIP3    H2  462   5.659   3.429   3.309
  169TIP3   OH2  463   5.613   6.628   0.778
  169TIP3    H1  464   5.557   6.702   0.753
  169TIP3    H2  465   5.558   6.575   0.836
  170TIP3   OH2  466   5.556   3.206   0.239
  170TIP3    H1  467   5.539   3.295   0.271
  170TIP3    H2  468   5.565   3.215   0.144
  171TIP3   OH2  469   3.050   3.634   2.568
  171TIP3    H1  470   3.118   3.652   2.502
  171TIP3    H2  471   3.099   3.629   2.651
  172TIP3   OH2  472   3.555   0.623   4.773
  172TIP3    H1  473   3.461   0.614   4.753
  172TIP3    H2  474   3.583   0.698   4.721
  173TIP3   OH2  475   7.038   2.524   2.147
  173TIP3    H1  476   6.957   2.503   2.192
  173TIP3    H2  477   7.051   2.618   2.164
  174TIP3   OH2  478   7.001   6.518   3.694
  174TIP3    H1  479   7.064   6.588   3.675
  174TIP3    H2  480   6.976   6.533   3.786
  175TIP3   OH2  481   3.076   1.530   3.297
  175TIP3    H1  482   3.068   1.585   3.374
  175TIP3    H2  483   3.002   1.468   3.304
  176TIP3   OH2  484   0.004   0.924   5.428
  176TIP3    H1  485  -0.025   0.915   5.519
  176TIP3    H2  486   0.042   0.839   5.407
  177TIP3   OH2  487   6.589   5.907   0.540
  177TIP3    H1  488   6.512   5.939   0.492
  177TIP3    H2  489   6.560   5.901   0.631
  178TIP3   OH2  490   0.196   6.335   4.558
  178TIP3    H1  491   0.209   6.299   4.645
  178TIP3    H2  492   0.153   6.419   4.573
  179TIP3   OH2  493   2.858   6.170   3.974
  179TIP3    H1  494   2.891   6.154   4.062
  179TIP3    H2  495   2.929   6.215   3.929
  180TIP3   OH2  496   1.945   6.864   6.658
  180TIP3    H1  497   1.970   6.813   6.735
  180TIP3    H2  498   2.025   6.872   6.607
  181TIP3   OH2  499   5.412   0.335   4.730
  181TIP3    H1  500   5.484   0.367   4.675
  181TIP3    H2  501   5.333   0.355   4.680
  182TIP3   OH2  502   2.460   4.082   2.147
  182TIP3    H1  503   2.480   4.153   2.207
  182TIP3    H2  504   2.509   4.104   2.068
  183TIP3   OH2  505   4.673   0.118   4.010
  183TIP3    H1  506   4.741   0.054   4.034
  183TIP3    H2  507   4.719   0.202   4.011
  184TIP3   OH2  508   4.663   5.915   1.921
  184TIP3    H1  509   4.738   5.960   1.961
  184TIP3    H2  510   4.590   5.934   1.979
  185TIP3   OH2  511   0.296   1.886   0.692
  185TIP3    H1  512   0.338   1.821   0.635
  185TIP3    H2  513   0.247   1.943   0.633
  186TIP3   OH2  514   2.184   4.657   1.459
  186TIP3    H1  515   2.151   4.744   1.439
  186TIP3    H2  516   2.112   4.598   1.435
  187TIP3   OH2  517   1.907   7.697   5.405
  187TIP3    H1  518   1.851   7.739   5.471
  187TIP3    H2  519   1.875   7.730   5.321
  188TIP3   OH2  520   5.473   4.913   3.722
  188TIP3    H1  521   5.435   4.828   3.744
  188TIP3    H2  522   5.543   4.925   3.786
  189TIP3   OH2  523   4.023   5.847   1.284
  189TIP3    H1  524   4.100   5.855   1.227
  189TIP3    H2  525   4.053   5.796   1.359
  190TIP3   OH2  526   3.013   3.188   4.593
  190TIP3    H1  527   3.018   3.257   4.526
  190TIP3    H2  528   3.059   3.114   4.555
  191TIP3   OH2  529   4.103   5.708   1.822
  191TIP3    H1  530   4.131   5.778   1.881
  191TIP3    H2  531   4.128   5.627   1.867
  192TIP3   OH2  532   2.541   3.310   0.730
  192TIP3    H1  533   2.603   3.243   0.757
  192TIP3    H2  534   2.586   3.393   0.746
  193TIP3   OH2  535   5.598   5.414   0.768
  193TIP3    H1  536   5.624   5.505   0.758
  193TIP3    H2  537   5.643   5.368   0.697
  194TIP3   OH2  538   1.349   1.105   6.052
  194TIP3    H1  539   1.291   1.030   6.059
  194TIP3    H2  540   1.313   1.169   6.114
  195TIP3   OH2  541   4.299   5.093   0.558
  195TIP3    H1  542   4.329   5.011   0.517
  195TIP3    H2  543   4.232   5.065   0.620
  196TIP3   OH2  544   7.456   6.271   3.079
  196TIP3    H1  545   7.416   6.184   3.075
  196TIP3    H2  546   7.420   6.309   3.160
  197TIP3   OH2  547   6.070   3.430   4.400
  197TIP3    H1  548   6.145   3.470   4.355
  197TIP3    H2  549   6.024   3.503   4.440
  198TIP3   OH2  550   6.494   6.029   3.077
  198TIP3    H1  551   6.504   6.108   3.024
  198TIP3    H2  552   6.431   6.054   3.145
  199TIP3   OH2  553   0.511   1.559   5.480
  199TIP3    H1  554   0.548   1.643   5.507
  199TIP3    H2  555   0.585   1.499   5.478
  200TIP3   OH2  556   8.276   1.091   3.692
  200TIP3    H1  557   8.332   1.164   3.663
  200TIP3    H2  558   8.260   1.108   3.784
  201TIP3   OH2  559   6.105   3.375   6.391
  201TIP3    H1  560   6.015   3.407   6.400
  201TIP3    H2  561   6.102   3.314   6.317
  202TIP3   OH2  562   4.681   4.204   2.347
  202TIP3    H1  563   4.624   4.130   2.369
  202TIP3    H2  564   4.701   4.244   2.432
  203TIP3   OH2  565   3.590   4.012   6.348
  203TIP3    H1  566   3.681   4.033   6.368
  203TIP3    H2  567   3.542   4.093   6.365
  204TIP3   OH2  568   3.472   7.114   0.537
  204TIP3    H1  569   3.481   7.126   0.632
  204TIP3    H2  570   3.429   7.194   0.506
  205TIP3   OH2  571   6.076   3.262   5.078
  205TIP3    H1  572   6.115   3.235   5.161
  205TIP3    H2  573   6.007   3.323   5.102
  206TIP3   OH2  574   0.532   0.293   3.420
  206TIP3    H1  575   0.502   0.320   3.333
  206TIP3    H2  576   0.526   0.197   3.419
  207TIP3   OH2  577   7.805   4.506   4.898
  207TIP3    H1  578   7.751   4.545   4.966
  207TIP3    H2  579   7.756   4.521   4.817
  208TIP3   OH2  580   3.874   2.903   0.951
  208TIP3    H1  581   3.811   2.831   0.953
  208TIP3    H2  582   3.953   2.867   0.991
  209TIP3   OH2  583   1.232   2.010   5.338
  209TIP3    H1  584   1.246   2.019   5.244
  209TIP3    H2  585   1.320   2.001   5.375
  210TIP3   OH2  586   4.197   0.142   5.092
  210TIP3    H1  587   4.277   0.192   5.107
  210TIP3    H2  588   4.195   0.127   4.997
  211TIP3   OH2  589   7.547   3.063   1.160
  211TIP3    H1  590   7.583   3.099   1.079
  211TIP3    H2  591   7.619   3.011   1.197
  212TIP3   OH2  592   3.417   7.497   3.791
  212TIP3    H1  593   3.468   7.562   3.839
  212TIP3    H2  594   3.332   7.496   3.836
  213TIP3   OH2  595   4.594   0.649   0.204
  213TIP3    H1  596   4.625   0.739   0.213
  213TIP3    H2  597   4.498   0.658   0.201
  214TIP3   OH2  598   0.692   1.072   0.981
  214TIP3    H1  599   0.708   1.069   0.887
  214TIP3    H2  600   0.687   0.979   1.007
  215TIP3   OH2  601   6.119   3.685   2.039
  215TIP3    H1  602   6.144   3.648   2.124
  215TIP3    H2  603   6.200   3.682   1.987
  216TIP3   OH2  604   5.582   6.614   3.519
  216TIP3    H1  605   5.617   6.654   3.598
  216TIP3    H2  606   5.508   6.560   3.549
  217TIP3   OH2  607   5.845   5.801   2.489
  217TIP3    H1  608   5.882   5.718   2.460
  217TIP3    H2  609   5.840   5.793   2.584
  218TIP3   OH2  610   5.308   0.448   3.454
  218TIP3    H1  611   5.227   0.400   3.444
  218TIP3    H2  612   5.340   0.424   3.541
  219TIP3   OH2  613   0.349   6.776   4.197
  219TIP3    H1  614   0.436   6.746   4.174
  219TIP3    H2  615   0.300   6.696   4.216
  220TIP3   OH2  616   8.248   1.913   6.360
  220TIP3    H1  617   8.206   1.954   6.286
  220TIP3    H2  618   8.322   1.864   6.323
  221TIP3   OH2  619   2.144   0.932   3.356
  221TIP3    H1  620   2.086   0.895   3.424
  221TIP3    H2  621   2.104   1.017   3.335
  222TIP3   OH2  622   3.199   3.085   0.698
  222TIP3    H1  623   3.285   3.114   0.727
  222TIP3    H2  624   3.172   3.150   0.633
  223TIP3   OH2  625   0.484   7.605   6.189
  223TIP3    H1  626   0.417   7.657   6.146
  223TIP3    H2  627   0.523   7.665   6.253
  224TIP3   OH2  628   2.561   3.773   4.687
  224TIP3    H1  629   2.559   3.868   4.690
  224TIP3    H2  630   2.500   3.750   4.617
  225TIP3   OH2  631   2.911   1.590   1.358
  225TIP3    H1  632   2.938   1.584   1.450
  225TIP3    H2  633   2.872   1.504   1.339
  226TIP3   OH2  634   6.960   5.331   5.807
  226TIP3    H1  635   6.970   5.288   5.892
  226TIP3    H2  636   7.040   5.383   5.798
  227TIP3   OH2  637   3.664   2.130   2.805
  227TIP3    H1  638   3.739   2.167   2.758
  227TIP3    H2  639   3.703   2.077   2.874
  228TIP3   OH2  640   6.791   3.108   3.717
  228TIP3    H1  641   6.858   3.156   3.765
  228TIP3    H2  642   6.808   3.129   3.625
  229TIP3   OH2  643   5.427   3.676   5.455
  229TIP3    H1  644   5.415   3.656   5.362
  229TIP3    H2  645   5.350   3.637   5.497
  230TIP3   OH2  646   4.201   3.217   4.993
  230TIP3    H1  647   4.136   3.197   4.925
  230TIP3    H2  648   4.229   3.306   4.974
  231TIP3   OH2  649   5.235   7.717   3.951
  231TIP3    H1  650   5.267   7.771   3.878
  231TIP3    H2  651   5.286   7.636   3.945
  232TIP3   OH2  652   4.014   4.064   0.602
  232TIP3    H1  653   3.979   4.123   0.670
  232TIP3    H2  654   4.019   3.979   0.645
  233TIP3   OH2  655   5.449   3.270   6.725
  233TIP3    H1  656   5.434   3.318   6.806
  233TIP3    H2  657   5.376   3.209   6.719
  234TIP3   OH2  658   2.703   3.653   3.130
  234TIP3    H1  659   2.666   3.727   3.081
  234TIP3    H2  660   2.627   3.602   3.157
  235TIP3   OH2  661   7.167   4.615   4.206
  235TIP3    H1  662   7.185   4.526   4.237
  235TIP3    H2  663   7.142   4.663   4.285
  236TIP3   OH2  664   6.115   6.266   2.962
  236TIP3    H1  665   6.050   6.302   2.901
  236TIP3    H2  666   6.073   6.188   2.998
  237TIP3   OH2  667   4.870   0.625   2.061
  237TIP3    H1  668   4.920   0.639   1.981
  237TIP3    H2  669   4.789   0.582   2.032
  238TIP3   OH2  670   6.293   7.050   1.878
  238TIP3    H1  671   6.332   6.966   1.858
  238TIP3    H2  672   6.365   7.113   1.873
  239TIP3   OH2  673   2.765   4.106   5.911
  239TIP3    H1  674   2.684   4.151   5.885
  239TIP3    H2  675   2.814   4.095   5.830
  240TIP3   OH2  676   1.302   4.557   2.507
  240TIP3    H1  677   1.334   4.482   2.557
  240TIP3    H2  678   1.241   4.520   2.444
  241TIP3   OH2  679   0.888   7.429   6.739
  241TIP3    H1  680   0.953   7.493   6.769
  241TIP3    H2  681   0.874   7.451   6.647
  242TIP3   OH2  682   2.599   0.723   1.460
  242TIP3    H1  683   2.630   0.735   1.370
  242TIP3    H2  684   2.544   0.800   1.478
  243TIP3   OH2  685   6.072   2.878   0.873
  243TIP3    H1  686   6.135   2.900   0.942
  243TIP3    H2  687   6.040   2.791   0.896
  244TIP3   OH2  688   3.076   3.538   1.441
  244TIP3    H1  689   3.145   3.604   1.446
  244TIP3    H2  690   3.080   3.493   1.526
  245TIP3   OH2  691   2.673   5.940   2.905
  245TIP3    H1  692   2.580   5.936   2.884
  245TIP3    H2  693   2.706   6.017   2.858
  246TIP3   OH2  694   1.793   1.163   0.521
  246TIP3    H1  695   1.714   1.109   0.520
  246TIP3    H2  696   1.834   1.147   0.436
  247TIP3   OH2  697   8.102   1.809   5.179
  247TIP3    H1  698   8.096   1.890   5.231
  247TIP3    H2  699   8.023   1.760   5.202
  248TIP3   OH2  700   5.943   2.375   0.349
  248TIP3    H1  701   5.851   2.401   0.341
  248TIP3    H2  702   5.943   2.309   0.418
  249TIP3   OH2  703   6.796   5.206   0.058
  249TIP3    H1  704   6.888   5.234   0.063
  249TIP3    H2  705   6.759   5.229   0.144
  250TIP3   OH2  706   1.470   4.099   0.313
  250TIP3    H1  707   1.410   4.081   0.386
  250TIP3    H2  708   1.430   4.172   0.267
  251TIP3   OH2  709   4.547   0.801   2.223
  251TIP3    H1  710   4.594   0.808   2.140
  251TIP3    H2  711   4.573   0.716   2.258
  252TIP3   OH2  712   2.250   6.331   5.079
  252TIP3    H1  713   2.168   6.327   5.127
  252TIP3    H2  714   2.230   6.292   4.993
  253TIP3   OH2  715   1.471   1.699   2.741
  253TIP3    H1  716   1.425   1.771   2.784
  253TIP3    H2  717   1.428   1.690   2.656
  254TIP3   OH2  718   1.060   5.295   4.806
  254TIP3    H1  719   1.085   5.383   4.778
  254TIP3    H2  720   1.140   5.243   4.797
  255TIP3   OH2  721   7.903   7.564   0.851
  255TIP3    H1  722   7.992   7.529   0.858
  255TIP3    H2  723   7.902   7.640   0.909
  256TIP3   OH2  724   8.074   2.183   0.495
  256TIP3    H1  725   8.125   2.122   0.547
  256TIP3    H2  726   8.138   2.225   0.437
  257TIP3   OH2  727   1.550   2.267   1.525
  257TIP3    H1  728   1.510   2.295   1.442
  257TIP3    H2  729   1.633   2.316   1.528
  258TIP3   OH2  730   0.324   3.226   3.854
  258TIP3    H1  731   0.263   3.158   3.825
  258TIP3    H2  732   0.340   3.278   3.775
  259TIP3   OH2  733   5.721   4.266   0.452
  259TIP3    H1  734   5.808   4.296   0.424
  259TIP3    H2  735   5.678   4.240   0.370
  260TIP3   OH2  736   6.489   6.560   3.356
  260TIP3    H1  737   6.475   6.574   3.262
  260TIP3    H2  738   6.583   6.545   3.364
  261TIP3   OH2  739   2.353   4.590   2.725
  261TIP3    H1  740   2.375   4.678   2.695
  261TIP3    H2  741   2.417   4.571   2.793
  262TIP3   OH2  742   2.989   2.572   4.849
  262TIP3    H1  743   2.963   2.573   4.941
  262TIP3    H2  744   3.026   2.484   4.836
  263TIP3   OH2  745   7.757   7.212   5.276
  263TIP3    H1  746   7.751   7.142   5.212
  263TIP3    H2  747   7.763   7.292   5.224
  264TIP3   OH2  748   3.118   1.453   4.490
  264TIP3    H1  749   3.157   1.373   4.525
  264TIP3    H2  750   3.111   1.438   4.396
  265TIP3   OH2  751   0.375   4.440   0.530
  265TIP3    H1  752   0.312   4.465   0.598
  265TIP3    H2  753   0.427   4.370   0.570
  266TIP3   OH2  754   7.145   1.235   4.601
  266TIP3    H1  755   7.229   1.191   4.588
  266TIP3    H2  756   7.080   1.171   4.572
  267TIP3   OH2  757   7.321   4.919   2.653
  267TIP3    H1  758   7.383   4.927   2.726
  267TIP3    H2  759   7.367   4.959   2.579
  268TIP3   OH2  760   5.031   7.629   0.847
  268TIP3    H1  761   5.118   7.667   0.860
  268TIP3    H2  762   4.971   7.702   0.864
  269TIP3   OH2  763   2.475   2.307   2.999
  269TIP3    H1  764   2.386   2.310   2.963
  269TIP3    H2  765   2.530   2.279   2.925
  270TIP3   OH2  766   6.995   4.205   5.846
  270TIP3    H1  767   7.013   4.221   5.753
  270TIP3    H2  768   7.043   4.125   5.867
  271TIP3   OH2  769   2.294   0.917   1.850
  271TIP3    H1  770   2.274   0.894   1.759
  271TIP3    H2  771   2.308   1.012   1.848
  272TIP3   OH2  772   4.257   0.709   6.470
  272TIP3    H1  773   4.179   0.700   6.415
  272TIP3    H2  774   4.315   0.638   6.442
  273TIP3   OH2  775   7.653   0.615   0.155
  273TIP3    H1  776   7.678   0.591   0.244
  273TIP3    H2  777   7.559   0.599   0.151
  274TIP3   OH2  778   4.174   4.479   3.889
  274TIP3    H1  779   4.239   4.447   3.951
  274TIP3    H2  780   4.094   4.488   3.940
  275TIP3   OH2  781   7.814   6.585   4.934
  275TIP3    H1  782   7.729   6.572   4.891
  275TIP3    H2  783   7.792   6.627   5.018
  276TIP3   OH2  784   6.645   6.941   5.306
  276TIP3    H1  785   6.553   6.938   5.333
  276TIP3    H2  786   6.684   6.864   5.347
  277TIP3   OH2  787   4.878   3.835   2.769
  277TIP3    H1  788   4.971   3.857   2.775
  277TIP3    H2  789   4.875   3.752   2.724
  278TIP3   OH2  790   4.718   7.650   1.368
  278TIP3    H1  791   4.673   7.584   1.420
  278TIP3    H2  792   4.803   7.611   1.347
  279TIP3   OH2  793   0.307   7.757   1.805
  279TIP3    H1  794   0.236   7.811   1.770
  279TIP3    H2  795   0.360   7.734   1.728
  280TIP3   OH2  796   5.595   1.928   3.400
  280TIP3    H1  797   5.578   1.992   3.331
  280TIP3    H2  798   5.596   1.843   3.356
  281TIP3   OH2  799   7.982   3.287   0.787
  281TIP3    H1  800   8.059   3.305   0.734
  281TIP3    H2  801   7.913   3.269   0.724
  282TIP3   OH2  802   0.350   3.379   3.624
  282TIP3    H1  803   0.388   3.447   3.568
  282TIP3    H2  804   0.271   3.419   3.660
  283TIP3   OH2  805   5.987   0.348   6.450
  283TIP3    H1  806   6.069   0.299   6.443
  283TIP3    H2  807   5.995   0.418   6.385
  284TIP3   OH2  808   3.859   5.108   0.912
  284TIP3    H1  809   3.809   5.042   0.960
  284TIP3    H2  810   3.916   5.056   0.854
  285TIP3   OH2  811   7.366   3.108   6.005
  285TIP3    H1  812   7.388   3.172   6.073
  285TIP3    H2  813   7.359   3.159   5.925
  286TIP3   OH2  814   8.250   2.259   5.802
  286TIP3    H1  815   8.341   2.278   5.824
  286TIP3    H2  816   8.253   2.234   5.710
  287TIP3   OH2  817   2.001   6.730   6.143
  287TIP3    H1  818   1.951   6.726   6.224
  287TIP3    H2  819   2.049   6.647   6.141
  288TIP3   OH2  820   5.229   2.444   5.513
  288TIP3    H1  821   5.162   2.378   5.532
  288TIP3    H2  822   5.202   2.520   5.564
  289TIP3   OH2  823   3.548   5.375   4.165
  289TIP3    H1  824   3.609   5.445   4.142
  289TIP3    H2  825   3.498   5.409   4.240
  290TIP3   OH2  826   7.062   4.199   0.351
  290TIP3    H1  827   7.099   4.200   0.439
  290TIP3    H2  828   7.037   4.108   0.336
  291TIP3   OH2  829   0.047   7.073   3.337
  291TIP3    H1  830  -0.047   7.089   3.332
  291TIP3    H2  831   0.085   7.124   3.265
  292TIP3   OH2  832   1.848   3.251   6.693
  292TIP3    H1  833   1.895   3.171   6.716
  292TIP3    H2  834   1.766   3.220   6.654
  293TIP3   OH2  835   8.157   1.206   2.673
  293TIP3    H1  836   8.068   1.214   2.641
  293TIP3    H2  837   8.211   1.246   2.604
  294TIP3   OH2  838   7.295   3.689   6.364
  294TIP3    H1  839   7.254   3.775   6.375
  294TIP3    H2  840   7.332   3.692   6.275
  295TIP3   OH2  841   1.036   2.807   5.215
  295TIP3    H1  842   0.986   2.790   5.135
  295TIP3    H2  843   0.991   2.880   5.257
  296TIP3   OH2  844   2.273   4.204   3.881
  296TIP3    H1  845   2.191   4.244   3.851
  296TIP3    H2  846   2.270   4.211   3.976
  297TIP3   OH2  847   2.833   1.080   3.954
  297TIP3    H1  848   2.775   1.032   4.012
  297TIP3    H2  849   2.903   1.112   4.010
  298TIP3   OH2  850   2.018   5.053   5.328
  298TIP3    H1  851   1.982   5.028   5.243
  298TIP3    H2  852   1.943   5.087   5.377
  299TIP3   OH2  853   4.400   1.562   6.154
  299TIP3    H1  854   4.383   1.471   6.175
  299TIP3    H2  855   4.495   1.572   6.166
  300TIP3   OH2  856   0.100   2.002   1.813
  300TIP3    H1  857   0.117   1.954   1.894
  300TIP3    H2  858   0.028   2.062   1.835
  301TIP3   OH2  859   1.978   6.644   4.184
  301TIP3    H1  860   2.064   6.606   4.168
  301TIP3    H2  861   1.919   6.569   4.192
  302TIP3   OH2  862   6.766   2.125   6.773
  302TIP3    H1  863   6.754   2.044   6.823
  302TIP3    H2  864   6.797   2.096   6.687
  303TIP3   OH2  865   4.473   0.733   4.164
  303TIP3    H1  866   4.499   0.652   4.122
  303TIP3    H2  867   4.555   0.783   4.173
  304TIP3   OH2  868   4.509   2.920   6.021
  304TIP3    H1  869   4.477   3.001   6.061
  304TIP3    H2  870   4.601   2.915   6.047
  305TIP3   OH2  871   7.532   2.308   0.442
  305TIP3    H1  872   7.620   2.346   0.440
  305TIP3    H2  873   7.476   2.376   0.407
  306TIP3   OH2  874   0.704   0.845   3.914
  306TIP3    H1  875   0.693   0.913   3.847
  306TIP3    H2  876   0.633   0.862   3.976
  307TIP3   OH2  877   2.641   2.156   5.886
  307TIP3    H1  878   2.699   2.094   5.841
  307TIP3    H2  879   2.558   2.109   5.894
  308TIP3   OH2  880   6.551   3.561   1.426
  308TIP3    H1  881   6.594   3.558   1.512
  308TIP3    H2  882   6.470   3.510   1.439
  309TIP3   OH2  883   5.681   7.639   5.320
  309TIP3    H1  884   5.680   7.545   5.303
  309TIP3    H2  885   5.725   7.677   5.244
  310TIP3   OH2  886   3.897   2.619   4.347
  310TIP3    H1  887   3.984   2.631   4.308
  310TIP3    H2  888   3.886   2.525   4.354
  311TIP3   OH2  889   6.492   6.986   2.140
  311TIP3    H1  890   6.529   7.024   2.061
  311TIP3    H2  891   6.503   7.053   2.207
  312TIP3   OH2  892   4.923   0.923   2.634
  312TIP3    H1  893   5.016   0.905   2.650
  312TIP3    H2  894   4.902   0.874   2.554
  313TIP3   OH2  895   1.294   4.932   0.563
  313TIP3    H1  896   1.228   4.953   0.630
  313TIP3    H2  897   1.273   4.992   0.491
  314TIP3   OH2  898   8.217   3.292   0.645
  314TIP3    H1  899   8.267   3.373   0.637
  314TIP3    H2  900   8.282   3.222   0.636
  315TIP3   OH2  901   0.255   0.046   3.213
  315TIP3    H1  902   0.283  -0.008   3.140
  315TIP3    H2  903   0.331   0.049   3.271
  316TIP3   OH2  904   3.674   7.602   5.220
  316TIP3    H1  905   3.687   7.512   5.190
  316TIP3    H2  906   3.629   7.645   5.147
  317TIP3   OH2  907   2.007   5.511   5.570
  317TIP3    H1  908   2.096   5.538   5.591
  317TIP3    H2  909   2.009   5.493   5.476
  318TIP3   OH2  910   4.836   2.352   4.745
  318TIP3    H1  911   4.899   2.358   4.817
  318TIP3    H2  912   4.767   2.295   4.778
  319TIP3   OH2  913   0.779   6.818   2.206
  319TIP3    H1  914   0.844   6.764   2.250
  319TIP3    H2  915   0.800   6.810   2.113
  320TIP3   OH2  916   6.334   7.096   0.056
  320TIP3    H1  917   6.325   7.153  -0.020
  320TIP3    H2  918   6.351   7.009   0.020
  321TIP3   OH2  919   3.652   0.300   1.519
  321TIP3    H1  920   3.604   0.227   1.556
  321TIP3    H2  921   3.597   0.330   1.446
  322TIP3   OH2  922   4.278   3.749   5.336
  322TIP3    H1  923   4.268   3.730   5.429
  322TIP3    H2  924   4.372   3.741   5.320
  323TIP3   OH2  925   4.011   4.055   4.091
  323TIP3    H1  926   3.946   3.991   4.065
  323TIP3    H2  927   4.087   4.037   4.035
  324TIP3   OH2  928   0.808   3.255   4.087
  324TIP3    H1  929   0.744   3.200   4.043
  324TIP3    H2  930   0.767   3.278   4.170
  325TIP3   OH2  931   1.564   1.929   1.240
  325TIP3    H1  932   1.469   1.938   1.246
  325TIP3    H2  933   1.590   1.894   1.325
  326TIP3   OH2  934   2.910   6.620   2.246
  326TIP3    H1  935   2.845   6.656   2.186
  326TIP3    H2  936   2.864   6.615   2.330
  327TIP3   OH2  937   8.222   5.750   6.624
  327TIP3    H1  938   8.286   5.815   6.594
  327TIP3    H2  939   8.171   5.728   6.547
  328TIP3   OH2  940   0.454   0.662   0.418
  328TIP3    H1  941   0.444   0.578   0.461
  328TIP3    H2  942   0.493   0.641   0.333
  329TIP3   OH2  943   4.561   2.565   1.765
  329TIP3    H1  944   4.557   2.613   1.848
  329TIP3    H2  945   4.617   2.618   1.709
  330TIP3   OH2  946   6.205   6.104   6.295
  330TIP3    H1  947   6.233   6.088   6.385
  330TIP3    H2  948   6.190   6.199   6.291
  331TIP3   OH2  949   6.607   0.482   5.247
  331TIP3    H1  950   6.693   0.455   5.280
  331TIP3    H2  951   6.623   0.567   5.205
  332TIP3   OH2  952   4.864   4.433   0.296
  332TIP3    H1  953   4.860   4.489   0.219
  332TIP3    H2  954   4.780   4.386   0.295
  333TIP3   OH2  955   2.463   0.692   6.685
  333TIP3    H1  956   2.547   0.671   6.725
  333TIP3    H2  957   2.438   0.612   6.638
  334TIP3   OH2  958   2.763   6.767   5.025
  334TIP3    H1  959   2.682   6.800   4.986
  334TIP3    H2  960   2.773   6.680   4.987
  335TIP3   OH2  961   8.026   4.871   5.551
  335TIP3    H1  962   8.005   4.780   5.532
  335TIP3    H2  963   8.089   4.867   5.623
  336TIP3   OH2  964   4.243   2.011   4.984
  336TIP3    H1  965   4.322   2.063   4.992
  336TIP3    H2  966   4.263   1.947   4.916
  337TIP3   OH2  967   7.654   7.519   0.122
  337TIP3    H1  968   7.716   7.573   0.074
  337TIP3    H2  969   7.624   7.455   0.057
  338TIP3   OH2  970   1.189   0.669   2.171
  338TIP3    H1  971   1.276   0.638   2.195
  338TIP3    H2  972   1.156   0.711   2.251
  339TIP3   OH2  973   2.562   0.897   4.593
  339TIP3    H1  974   2.570   0.967   4.528
  339TIP3    H2  975   2.539   0.820   4.541
  340TIP3   OH2  976   7.481   3.569   2.659
  340TIP3    H1  977   7.532   3.513   2.601
  340TIP3    H2  978   7.394   3.573   2.620
  341TIP3   OH2  979   7.300   7.223   6.472
  341TIP3    H1  980   7.268   7.255   6.387
  341TIP3    H2  981   7.356   7.293   6.504
  342TIP3   OH2  982   6.378   4.303   6.128
  342TIP3    H1  983   6.388   4.300   6.033
  342TIP3    H2  984   6.292   4.342   6.142
  343TIP3   OH2  985   8.020   7.206   5.680
  343TIP3    H1  986   7.942   7.222   5.733
  343TIP3    H2  987   8.079   7.279   5.699
  344TIP3   OH2  988   7.312   5.402   1.691
  344TIP3    H1  989   7.288   5.333   1.753
  344TIP3    H2  990   7.239   5.406   1.629
  345TIP3   OH2  991   7.196   1.651   6.636
  345TIP3    H1  992   7.259   1.598   6.686
  345TIP3    H2  993   7.245   1.680   6.559
  346TIP3   OH2  994   1.063   2.599   3.135
  346TIP3    H1  995   0.990   2.541   3.156
  346TIP3    H2  996   1.121   2.594   3.211
  347TIP3   OH2  997   1.171   6.087   5.696
  347TIP3    H1  998   1.174   6.122   5.607
  347TIP3    H2  999   1.233   6.141   5.745
  348TIP3   OH2 1000   3.540   4.108   3.717
  348TIP3    H1 1001   3.563   4.178   3.657
  348TIP3    H2 1002   3.451   4.083   3.693
  349TIP3   OH2 1003   0.051   6.696   3.991
  349TIP3    H1 1004   0.010   6.773   4.031
  349TIP3    H2 1005   0.023   6.623   4.046
  350TIP3   OH2 1006   2.100   6.346   6.160
  350TIP3    H1 1007   2.057   6.310   6.238
  350TIP3    H2 1008   2.192   6.353   6.184
  351TIP3   OH2 1009   2.343   4.155   4.695
  351TIP3    H1 1010   2.285   4.098   4.745
  351TIP3    H2 1011   2.340   4.239   4.739
  352TIP3   OH2 1012  -0.007   5.626   2.794
  352TIP3    H1 1013   0.054   5.661   2.730
  352TIP3    H2 1014  -0.028   5.538   2.761
  353TIP3   OH2 1015   6.743   1.729   3.469
  353TIP3    H1 1016   6.716   1.809   3.423
  353TIP3    H2 1017   6.752   1.756   3.561
  354TIP3   OH2 1018   4.246   2.257   0.525
  354TIP3    H1 1019   4.271   2.331   0.579
  354TIP3    H2 1020   4.157   2.235   0.553
  355TIP3   OH2 1021   1.861   2.716   5.403
  355TIP3    H1 1022   1.826   2.748   5.319
  355TIP3    H2 1023   1.902   2.793   5.442
  356TIP3   OH2 1024   4.950   2.049   6.430
  356TIP3    H1 1025   4.970   2.141   6.414
  356TIP3    H2 1026   4.917   2.016   6.347
  357TIP3   OH2 1027   7.615   0.991   0.583
  357TIP3    H1 1028   7.650   0.910   0.618
  357TIP3    H2 1029   7.557   0.963   0.512
  358TIP3   OH2 1030   5.110   1.983   4.774
  358TIP3    H1 1031   5.048   2.024   4.713
  358TIP3    H2 1032   5.116   1.892   4.744
  359TIP3   OH2 1033   5.182   6.807   2.040
  359TIP3    H1 1034   5.266   6.761   2.031
  359TIP3    H2 1035   5.194   6.888   1.989
  360TIP3   OH2 1036   4.656   6.522   3.404
  360TIP3    H1 1037   4.734   6.468   3.416
  360TIP3    H2 1038   4.595   6.491   3.472
  361TIP3   OH2 1039   1.087   6.769   1.246
  361TIP3    H1 1040   1.017   6.801   1.189
  361TIP3    H2 1041   1.162   6.823   1.225
  362TIP3   OH2 1042   3.627   6.023   5.842
  362TIP3    H1 1043   3.656   6.036   5.751
  362TIP3    H2 1044   3.532   6.020   5.836
  363TIP3   OH2 1045   2.395   4.433   0.760
  363TIP3    H1 1046   2.417   4.479   0.679
  363TIP3    H2 1047   2.328   4.488   0.801
  364TIP3   OH2 1048   4.223   0.959   0.120
  364TIP3    H1 1049   4.304   0.966   0.170
  364TIP3    H2 1050   4.204   1.048   0.092
  365TIP3   OH2 1051   3.837   6.611   1.885
  365TIP3    H1 1052   3.766   6.626   1.947
  365TIP3    H2 1053   3.818   6.668   1.811
  366TIP3   OH2 1054   6.841   6.999   0.094
  366TIP3    H1 1055   6.861   7.001   0.188
  366TIP3    H2 1056   6.876   6.916   0.063
  367TIP3   OH2 1057   3.112   7.615   0.631
  367TIP3    H1 1058   3.178   7.568   0.682
  367TIP3    H2 1059   3.129   7.589   0.540
  368TIP3   OH2 1060   8.010   5.136   5.282
  368TIP3    H1 1061   8.049   5.155   5.367
  368TIP3    H2 1062   8.080   5.154   5.219
  369TIP3   OH2 1063   2.494   3.011   1.885
  369TIP3    H1 1064   2.534   3.031   1.800
  369TIP3    H2 1065   2.463   2.921   1.876
  370TIP3   OH2 1066   0.617   2.451   3.374
  370TIP3    H1 1067   0.527   2.422   3.366
  370TIP3    H2 1068   0.660   2.384   3.427
  371TIP3   OH2 1069   3.290   5.214   6.327
  371TIP3    H1 1070   3.269   5.246   6.239
  371TIP3    H2 1071   3.205   5.208   6.371
  372TIP3   OH2 1072   3.971   5.910   6.577
  372TIP3    H1 1073   4.014   5.930   6.493
  372TIP3    H2 1074   4.011   5.828   6.606
  373TIP3   OH2 1075   0.821   7.124   6.776
  373TIP3    H1 1076   0.768   7.060   6.729
  373TIP3    H2 1077   0.774   7.206   6.766
  374TIP3   OH2 1078   6.947   4.451   2.261
  374TIP3    H1 1079   6.946   4.519   2.193
  374TIP3    H2 1080   6.883   4.481   2.326
  375TIP3   OH2 1081   8.181   3.545   4.784
  375TIP3    H1 1082   8.210   3.554   4.874
  375TIP3    H2 1083   8.260   3.529   4.734
  376TIP3   OH2 1084   4.950   5.014   0.131
  376TIP3    H1 1085   4.969   5.107   0.121
  376TIP3    H2 1086   5.017   4.970   0.080
  377TIP3   OH2 1087   0.753   4.095   0.089
  377TIP3    H1 1088   0.673   4.053   0.121
  377TIP3    H2 1089   0.722   4.168   0.036
  378TIP3   OH2 1090   4.442   5.143   6.408
  378TIP3    H1 1091   4.537   5.158   6.405
  378TIP3    H2 1092   4.420   5.117   6.318
  379TIP3   OH2 1093   4.078   6.355   3.031
  379TIP3    H1 1094   4.074   6.434   3.084
  379TIP3    H2 1095   4.045   6.381   2.945
  380TIP3   OH2 1096   5.115   6.127   5.492
  380TIP3    H1 1097   5.166   6.129   5.573
  380TIP3    H2 1098   5.176   6.095   5.425
  381TIP3   OH2 1099   4.791   0.847   4.712
  381TIP3    H1 1100   4.783   0.810   4.799
  381TIP3    H2 1101   4.857   0.915   4.720
  382TIP3   OH2 1102   3.026   5.434   6.098
  382TIP3    H1 1103   3.024   5.380   6.019
  382TIP3    H2 1104   2.967   5.389   6.159
  383TIP3   OH2 1105   0.037   2.172   4.893
  383TIP3    H1 1106   0.123   2.157   4.933
  383TIP3    H2 1107   0.050   2.151   4.801
  384TIP3   OH2 1108   2.952   1.797   0.084
  384TIP3    H1 1109   2.884   1.823   0.146
  384TIP3    H2 1110   2.977   1.878   0.041
  385TIP3   OH2 1111   7.529   3.092   3.924
  385TIP3    H1 1112   7.513   3.167   3.982
  385TIP3    H2 1113   7.444   3.050   3.916
  386TIP3   OH2 1114   4.463   4.780   5.067
  386TIP3    H1 1115   4.371   4.800   5.080
  386TIP3    H2 1116   4.464   4.724   4.989
  387TIP3   OH2 1117   2.341   7.598   1.073
  387TIP3    H1 1118   2.373   7.674   1.122
  387TIP3    H2 1119   2.398   7.593   0.996
  388TIP3   OH2 1120   4.515   6.539   1.765
  388TIP3    H1 1121   4.559   6.464   1.725
  388TIP3    H2 1122   4.571   6.563   1.839
  389TIP3   OH2 1123   7.352   6.476   1.040
  389TIP3    H1 1124   7.280   6.491   0.979
  389TIP3    H2 1125   7.343   6.545   1.106
  390TIP3   OH2 1126   7.136   6.083   3.317
  390TIP3    H1 1127   7.088   6.157   3.354
  390TIP3    H2 1128   7.074   6.009   3.324
  391TIP3   OH2 1129   6.032   1.071   6.288
  391TIP3    H1 1130   6.070   0.986   6.266
  391TIP3    H2 1131   5.986   1.056   6.371
  392TIP3   OH2 1132   4.322   4.670   5.467
  392TIP3    H1 1133   4.352   4.671   5.376
  392TIP3    H2 1134   4.277   4.753   5.479
  393TIP3   OH2 1135   0.979   2.332   1.233
  393TIP3    H1 1136   1.000   2.298   1.146
  393TIP3    H2 1137   0.969   2.254   1.288
  394TIP3   OH2 1138   4.883   7.792   0.093
  394TIP3    H1 1139   4.882   7.714   0.038
  394TIP3    H2 1140   4.791   7.805   0.117
  395TIP3   OH2 1141   6.506   4.127   6.795
  395TIP3    H1 1142   6.491   4.219   6.772
  395TIP3    H2 1143   6.568   4.096   6.729
  396TIP3   OH2 1144   3.248   1.167   4.610
  396TIP3    H1 1145   3.301   1.240   4.641
  396TIP3    H2 1146   3.260   1.166   4.515
  397TIP3   OH2 1147   1.930   3.716   3.177
  397TIP3    H1 1148   1.908   3.750   3.090
  397TIP3    H2 1149   1.879   3.769   3.238
  398TIP3   OH2 1150   7.304   5.148   6.548
  398TIP3    H1 1151   7.293   5.169   6.641
  398TIP3    H2 1152   7.220   5.111   6.522
  399TIP3   OH2 1153   5.810   7.451   4.892
  399TIP3    H1 1154   5.776   7.412   4.812
  399TIP3    H2 1155   5.742   7.512   4.920
  400TIP3   OH2 1156   6.227   7.525   3.712
  400TIP3    H1 1157   6.209   7.595   3.774
  400TIP3    H2 1158   6.228   7.568   3.626
  401TIP3   OH2 1159   2.521   5.367   2.759
  401TIP3    H1 1160   2.512   5.400   2.848
  401TIP3    H2 1161   2.541   5.444   2.706
  402TIP3   OH2 1162   2.524   7.259   0.075
  402TIP3    H1 1163   2.559   7.176   0.106
  402TIP3    H2 1164   2.530   7.254  -0.020
  403TIP3   OH2 1165   1.528   5.914   3.910
  403TIP3    H1 1166   1.439   5.879   3.899
  403TIP3    H2 1167   1.585   5.838   3.903
  404TIP3   OH2 1168   0.835   6.593   1.454
  404TIP3    H1 1169   0.766   6.591   1.389
  404TIP3    H2 1170   0.916   6.580   1.404
  405TIP3   OH2 1171   6.799   0.643   4.833
  405TIP3    H1 1172   6.740   0.717   4.825
  405TIP3    H2 1173   6.845   0.657   4.915
  406TIP3   OH2 1174   6.701   4.074   3.940
  406TIP3    H1 1175   6.697   4.052   3.847
  406TIP3    H2 1176   6.758   4.150   3.944
  407TIP3   OH2 1177   6.419   7.814   0.126
  407TIP3    H1 1178   6.381   7.825   0.213
  407TIP3    H2 1179   6.371   7.739   0.089
  408TIP3   OH2 1180   0.686   1.280   1.713
  408TIP3    H1 1181   0.717   1.367   1.688
  408TIP3    H2 1182   0.635   1.250   1.639
  409TIP3   OH2 1183   2.274   0.195   3.958
  409TIP3    H1 1184   2.279   0.203   3.863
  409TIP3    H2 1185   2.304   0.279   3.991
  410TIP3   OH2 1186   1.406   1.370   6.729
  410TIP3    H1 1187   1.459   1.443   6.698
  410TIP3    H2 1188   1.446   1.292   6.689
  411TIP3   OH2 1189   8.287   0.611   3.082
  411TIP3    H1 1190   8.302   0.536   3.139
  411TIP3    H2 1191   8.234   0.671   3.135
  412TIP3   OH2 1192   6.501   2.003   4.886
  412TIP3    H1 1193   6.476   2.094   4.869
  412TIP3    H2 1194   6.561   1.981   4.815
  413TIP3   OH2 1195   3.980   4.753   4.375
  413TIP3    H1 1196   4.064   4.716   4.349
  413TIP3    H2 1197   3.949   4.798   4.297
  414TIP3   OH2 1198   3.606   4.333   5.170
  414TIP3    H1 1199   3.681   4.385   5.139
  414TIP3    H2 1200   3.644   4.267   5.227
  415TIP3   OH2 1201   4.969   6.877   1.540
  415TIP3    H1 1202   4.991   6.924   1.621
  415TIP3    H2 1203   5.016   6.794   1.547
  416TIP3   OH2 1204   6.014   6.247   0.445
  416TIP3    H1 1205   6.065   6.308   0.392
  416TIP3    H2 1206   6.026   6.162   0.402
  417TIP3   OH2 1207   2.435   1.415   2.930
  417TIP3    H1 1208   2.366   1.400   2.995
  417TIP3    H2 1209   2.444   1.511   2.928
  418TIP3   OH2 1210   5.382   0.492   1.611
  418TIP3    H1 1211   5.322   0.499   1.538
  418TIP3    H2 1212   5.395   0.398   1.624
  419TIP3   OH2 1213   1.303   3.216   4.108
  419TIP3    H1 1214   1.347   3.223   4.192
  419TIP3    H2 1215   1.314   3.302   4.068
  420TIP3   OH2 1216   6.889   7.617   2.532
  420TIP3    H1 1217   6.936   7.548   2.485
  420TIP3    H2 1218   6.926   7.615   2.620
  421TIP3   OH2 1219   7.895   7.783   4.688
  421TIP3    H1 1220   7.870   7.791   4.780
  421TIP3    H2 1221   7.839   7.846   4.642
  422TIP3   OH2 1222   4.756   3.496   5.200
  422TIP3    H1 1223   4.789   3.409   5.178
  422TIP3    H2 1224   4.781   3.550   5.125
  423TIP3   OH2 1225   1.650   2.749   4.054
  423TIP3    H1 1226   1.577   2.693   4.029
  423TIP3    H2 1227   1.640   2.762   4.149
  424TIP3   OH2 1228   2.733   4.568   0.792
  424TIP3    H1 1229   2.669   4.601   0.729
  424TIP3    H2 1230   2.682   4.547   0.870
  425TIP3   OH2 1231   4.301   7.296   3.644
  425TIP3    H1 1232   4.393   7.288   3.672
  425TIP3    H2 1233   4.263   7.210   3.663
  426TIP3   OH2 1234   3.448   1.768   0.564
  426TIP3    H1 1235   3.406   1.844   0.523
  426TIP3    H2 1236   3.378   1.704   0.573
  427TIP3   OH2 1237   1.152   6.404   4.455
  427TIP3    H1 1238   1.229   6.451   4.425
  427TIP3    H2 1239   1.150   6.323   4.403
  428TIP3   OH2 1240   4.796   0.396   6.025
  428TIP3    H1 1241   4.740   0.336   5.975
  428TIP3    H2 1242   4.803   0.474   5.970
  429TIP3   OH2 1243   7.097   1.449   3.285
  429TIP3    H1 1244   7.108   1.484   3.197
  429TIP3    H2 1245   7.002   1.437   3.295
  430TIP3   OH2 1246   3.192   1.707   4.625
  430TIP3    H1 1247   3.170   1.637   4.564
  430TIP3    H2 1248   3.266   1.752   4.585
  431TIP3   OH2 1249   2.635   1.095   5.525
  431TIP3    H1 1250   2.644   1.085   5.430
  431TIP3    H2 1251   2.570   1.164   5.535
  432TIP3   OH2 1252   1.672   1.949   0.758
  432TIP3    H1 1253   1.634   2.033   0.785
  432TIP3    H2 1254   1.623   1.926   0.679
  433TIP3   OH2 1255   6.496   6.690   1.232
  433TIP3    H1 1256   6.434   6.618   1.243
  433TIP3    H2 1257   6.557   6.660   1.165
  434TIP3   OH2 1258   7.441  -0.020   3.960
  434TIP3    H1 1259   7.442   0.058   4.014
  434TIP3    H2 1260   7.384   0.003   3.886
  435TIP3   OH2 1261   5.616   0.508   3.412
  435TIP3    H1 1262   5.694   0.459   3.438
  435TIP3    H2 1263   5.556   0.440   3.380
  436TIP3   OH2 1264   5.375   7.654   5.387
  436TIP3    H1 1265   5.375   7.586   5.319
  436TIP3    H2 1266   5.452   7.635   5.440
  437TIP3   OH2 1267   6.300   1.589   2.712
  437TIP3    H1 1268   6.342   1.674   2.711
  437TIP3    H2 1269   6.372   1.526   2.719
  438TIP3   OH2 1270   0.488   5.562   5.291
  438TIP3    H1 1271   0.499   5.571   5.385
  438TIP3    H2 1272   0.466   5.470   5.277
  439TIP3   OH2 1273   4.672   1.837   3.315
  439TIP3    H1 1274   4.745   1.869   3.369
  439TIP3    H2 1275   4.651   1.910   3.258
  440TIP3   OH2 1276   2.562   0.146   4.327
  440TIP3    H1 1277   2.615   0.197   4.266
  440TIP3    H2 1278   2.549   0.062   4.284
  441TIP3   OH2 1279   6.524   0.969   0.800
  441TIP3    H1 1280   6.564   1.020   0.870
  441TIP3    H2 1281   6.596   0.951   0.739
  442TIP3   OH2 1282   1.934   5.332   6.678
  442TIP3    H1 1283   1.870   5.315   6.609
  442TIP3    H2 1284   1.885   5.323   6.760
  443TIP3   OH2 1285   7.484   6.780   6.533
  443TIP3    H1 1286   7.433   6.714   6.580
  443TIP3    H2 1287   7.434   6.861   6.542
  444TIP3   OH2 1288   7.944   4.448   0.755
  444TIP3    H1 1289   7.884   4.516   0.723
  444TIP3    H2 1290   7.941   4.456   0.850
  445TIP3   OH2 1291   7.960   3.991   0.027
  445TIP3    H1 1292   7.945   4.070  -0.026
  445TIP3    H2 1293   7.881   3.939   0.015
  446TIP3   OH2 1294   4.666   5.614   3.856
  446TIP3    H1 1295   4.581   5.656   3.843
  446TIP3    H2 1296   4.667   5.589   3.948
  447TIP3   OH2 1297   5.272   2.091   3.580
  447TIP3    H1 1298   5.367   2.092   3.587
  447TIP3    H2 1299   5.246   2.182   3.593
  448TIP3   OH2 1300   2.936   6.253   2.211
  448TIP3    H1 1301   2.852   6.213   2.188
  448TIP3    H2 1302   2.974   6.280   2.127
  449TIP3   OH2 1303   7.451   2.464   1.244
  449TIP3    H1 1304   7.496   2.512   1.174
  449TIP3    H2 1305   7.383   2.414   1.199
  450TIP3   OH2 1306   0.511   0.416   4.939
  450TIP3    H1 1307   0.558   0.500   4.943
  450TIP3    H2 1308   0.495   0.403   4.845
  451TIP3   OH2 1309   0.640   0.863   6.099
  451TIP3    H1 1310   0.665   0.772   6.083
  451TIP3    H2 1311   0.562   0.857   6.155
  452TIP3   OH2 1312   3.391   6.549   3.395
  452TIP3    H1 1313   3.344   6.576   3.316
  452TIP3    H2 1314   3.330   6.490   3.440
  453TIP3   OH2 1315   1.267   6.879   5.205
  453TIP3    H1 1316   1.196   6.857   5.144
  453TIP3    H2 1317   1.347   6.854   5.159
  454TIP3   OH2 1318   5.756   3.795   5.070
  454TIP3    H1 1319   5.812   3.718   5.077
  454TIP3    H2 1320   5.671   3.761   5.043
  455TIP3   OH2 1321   3.407   0.819   1.012
  455TIP3    H1 1322   3.407   0.755   1.083
  455TIP3    H2 1323   3.341   0.786   0.951
  456TIP3   OH2 1324   1.823   3.527   5.024
  456TIP3    H1 1325   1.896   3.467   5.036
  456TIP3    H2 1326   1.796   3.514   4.933
  457TIP3   OH2 1327   7.542   3.994   1.977
  457TIP3    H1 1328   7.535   3.991   2.072
  457TIP3    H2 1329   7.483   4.065   1.951
  458TIP3   OH2 1330   5.762   6.754   2.690
  458TIP3    H1 1331   5.717   6.675   2.719
  458TIP3    H2 1332   5.854   6.728   2.684
  459TIP3   OH2 1333   7.012   0.639   6.724
  459TIP3    H1 1334   6.973   0.560   6.685
  459TIP3    H2 1335   7.106   0.630   6.708
  460TIP3   OH2 1336   7.940   0.083   6.148
  460TIP3    H1 1337   7.948   0.011   6.086
  460TIP3    H2 1338   7.951   0.043   6.234
  461TIP3   OH2 1339   3.228   5.876   4.573
  461TIP3    H1 1340   3.138   5.884   4.543
  461TIP3    H2 1341   3.221   5.854   4.666
  462TIP3   OH2 1342   1.533   4.932   0.708
  462TIP3    H1 1343   1.460   4.925   0.646
  462TIP3    H2 1344   1.554   5.025   0.711
  463TIP3   OH2 1345   8.187   3.795   5.894
  463TIP3    H1 1346   8.115   3.848   5.926
  463TIP3    H2 1347   8.199   3.823   5.803
  464TIP3   OH2 1348   3.335   0.539   5.801
  464TIP3    H1 1349   3.325   0.634   5.813
  464TIP3    H2 1350   3.334   0.503   5.890
  465TIP3   OH2 1351   5.461   5.834   4.965
  465TIP3    H1 1352   5.490   5.746   4.990
  465TIP3    H2 1353   5.385   5.850   5.021
  466TIP3   OH2 1354   8.305   1.801   0.388
  466TIP3    H1 1355   8.328   1.802   0.295
  466TIP3    H2 1356   8.209   1.792   0.388
  467TIP3   OH2 1357   1.353   0.412   0.873
  467TIP3    H1 1358   1.323   0.421   0.783
  467TIP3    H2 1359   1.396   0.495   0.893
  468TIP3   OH2 1360   5.487   2.906   2.168
  468TIP3    H1 1361   5.519   2.970   2.231
  468TIP3    H2 1362   5.423   2.954   2.115
  469TIP3   OH2 1363   2.659   2.594   4.829
  469TIP3    H1 1364   2.709   2.544   4.765
  469TIP3    H2 1365   2.688   2.685   4.815
  470TIP3   OH2 1366   5.287   5.822   3.600
  470TIP3    H1 1367   5.365   5.819   3.544
  470TIP3    H2 1368   5.215   5.797   3.542
  471TIP3   OH2 1369   2.056   3.977   3.526
  471TIP3    H1 1370   1.962   3.962   3.528
  471TIP3    H2 1371   2.068   4.044   3.459
  472TIP3   OH2 1372   1.571   4.930   0.295
  472TIP3    H1 1373   1.639   4.870   0.264
  472TIP3    H2 1374   1.511   4.874   0.345
  473TIP3   OH2 1375   7.396   3.852   3.993
  473TIP3    H1 1376   7.302   3.870   4.006
  473TIP3    H2 1377   7.438   3.937   4.002
  474TIP3   OH2 1378   3.331   3.799   4.327
  474TIP3    H1 1379   3.394   3.864   4.359
  474TIP3    H2 1380   3.250   3.821   4.372
  475TIP3   OH2 1381   1.436   4.278   3.562
  475TIP3    H1 1382   1.473   4.361   3.533
  475TIP3    H2 1383   1.453   4.276   3.656
  476TIP3   OH2 1384   3.773   0.896   0.253
  476TIP3    H1 1385   3.812   0.950   0.321
  476TIP3    H2 1386   3.714   0.837   0.300
  477TIP3   OH2 1387   7.128   6.644   5.091
  477TIP3    H1 1388   7.091   6.555   5.092
  477TIP3    H2 1389   7.058   6.700   5.124
  478TIP3   OH2 1390   4.733   7.132   2.653
  478TIP3    H1 1391   4.822   7.105   2.631
  478TIP3    H2 1392   4.717   7.096   2.740
  479TIP3   OH2 1393   3.493   2.061   0.814
  479TIP3    H1 1394   3.461   2.046   0.902
  479TIP3    H2 1395   3.544   1.982   0.794
  480TIP3   OH2 1396   0.408   7.086   4.423
  480TIP3    H1 1397   0.419   6.991   4.415
  480TIP3    H2 1398   0.365   7.112   4.342
  481TIP3   OH2 1399   7.091   4.267   6.442
  481TIP3    H1 1400   7.048   4.183   6.462
  481TIP3    H2 1401   7.077   4.320   6.521
  482TIP3   OH2 1402   1.863   0.999   6.216
  482TIP3    H1 1403   1.772   0.973   6.204
  482TIP3    H2 1404   1.872   1.009   6.311
  483TIP3   OH2 1405   3.349   5.406   1.656
  483TIP3    H1 1406   3.407   5.379   1.727
  483TIP3    H2 1407   3.364   5.501   1.648
  484TIP3   OH2 1408   3.078   4.104   0.980
  484TIP3    H1 1409   3.011   4.161   0.943
  484TIP3    H2 1410   3.035   4.019   0.990
  485TIP3   OH2 1411   4.711   0.301   2.067
  485TIP3    H1 1412   4.621   0.323   2.089
  485TIP3    H2 1413   4.732   0.356   1.992
  486TIP3   OH2 1414   0.095   1.628   2.067
  486TIP3    H1 1415   0.023   1.615   2.006
  486TIP3    H2 1416   0.141   1.706   2.035
  487TIP3   OH2 1417   4.170   2.247   1.255
  487TIP3    H1 1418   4.099   2.184   1.271
  487TIP3    H2 1419   4.175   2.297   1.337
  488TIP3   OH2 1420   8.121   5.007   2.283
  488TIP3    H1 1421   8.084   5.088   2.247
  488TIP3    H2 1422   8.191   4.984   2.222
  489TIP3   OH2 1423   2.604   1.631   5.136
  489TIP3    H1 1424   2.555   1.640   5.217
  489TIP3    H2 1425   2.665   1.559   5.153
  490TIP3   OH2 1426   0.227   7.112   1.595
  490TIP3    H1 1427   0.322   7.122   1.582
  490TIP3    H2 1428   0.194   7.202   1.593
  491TIP3   OH2 1429   7.651   1.284   0.691
  491TIP3    H1 1430   7.597   1.325   0.759
  491TIP3    H2 1431   7.632   1.191   0.699
  492TIP3   OH2 1432   3.920   2.450   1.704
  492TIP3    H1 1433   3.987   2.504   1.663
  492TIP3    H2 1434   3.953   2.434   1.792
  493TIP3   OH2 1435   3.506   6.333   3.812
  493TIP3    H1 1436   3.420   6.342   3.773
  493TIP3    H2 1437   3.567   6.339   3.738
  494TIP3   OH2 1438   6.728   5.136   6.110
  494TIP3    H1 1439   6.798   5.108   6.052
  494TIP3    H2 1440   6.721   5.066   6.175
  495TIP3   OH2 1441   1.561   7.227   4.964
  495TIP3    H1 1442   1.506   7.272   5.028
  495TIP3    H2 1443   1.638   7.200   5.013
  496TIP3   OH2 1444   6.722   7.270   5.992
  496TIP3    H1 1445   6.719   7.243   5.900
  496TIP3    H2 1446   6.747   7.362   5.989
  497TIP3   OH2 1447   5.146   1.882   4.131
  497TIP3    H1 1448   5.071   1.920   4.084
  497TIP3    H2 1449   5.222   1.910   4.081
  498TIP3   OH2 1450   2.958   6.868   6.203
  498TIP3    H1 1451   2.885   6.916   6.241
  498TIP3    H2 1452   3.022   6.936   6.180
  499TIP3   OH2 1453   6.199   7.111   4.859
  499TIP3    H1 1454   6.143   7.165   4.914
  499TIP3    H2 1455   6.232   7.043   4.917
  500TIP3   OH2 1456   2.253   6.247   4.040
  500TIP3    H1 1457   2.240   6.179   3.974
  500TIP3    H2 1458   2.282   6.323   3.990
  501TIP3   OH2 1459   1.790   0.063   0.046
  501TIP3    H1 1460   1.726   0.082  -0.023
  501TIP3    H2 1461   1.860   0.125   0.032
  502TIP3   OH2 1462   3.144   3.887   0.331
  502TIP3    H1 1463   3.213   3.872   0.266
  502TIP3    H2 1464   3.191   3.921   0.407
  503TIP3   OH2 1465   1.313   6.647   2.955
  503TIP3    H1 1466   1.239   6.587   2.958
  503TIP3    H2 1467   1.307   6.689   2.869
  504TIP3   OH2 1468   0.256   6.211   6.309
  504TIP3    H1 1469   0.168   6.182   6.334
  504TIP3    H2 1470   0.253   6.306   6.319
  505TIP3   OH2 1471   3.734   7.259   1.173
  505TIP3    H1 1472   3.773   7.240   1.258
  505TIP3    H2 1473   3.796   7.225   1.109
  506TIP3   OH2 1474   2.252   6.579   0.936
  506TIP3    H1 1475   2.339   6.549   0.961
  506TIP3    H2 1476   2.249   6.671   0.963
  507TIP3   OH2 1477   4.359   0.383   3.825
  507TIP3    H1 1478   4.338   0.315   3.761
  507TIP3    H2 1479   4.277   0.430   3.838
  508TIP3   OH2 1480   3.276   3.821   0.091
  508TIP3    H1 1481   3.195   3.800   0.045
  508TIP3    H2 1482   3.343   3.767   0.048
  509TIP3   OH2 1483   1.068   7.553   6.021
  509TIP3    H1 1484   1.012   7.592   6.088
  509TIP3    H2 1485   1.153   7.596   6.034
  510TIP3   OH2 1486   0.312   2.501   3.689
  510TIP3    H1 1487   0.249   2.486   3.760
  510TIP3    H2 1488   0.307   2.422   3.636
  511TIP3   OH2 1489   0.220   5.308   4.059
  511TIP3    H1 1490   0.202   5.288   3.967
  511TIP3    H2 1491   0.143   5.356   4.088
  512TIP3   OH2 1492   0.073   6.657   0.703
  512TIP3    H1 1493   0.082   6.601   0.780
  512TIP3    H2 1494   0.119   6.738   0.728
  513TIP3   OH2 1495   6.360   3.543   2.204
  513TIP3    H1 1496   6.416   3.619   2.222
  513TIP3    H2 1497   6.387   3.513   2.118
  514TIP3   OH2 1498   7.484   2.699   5.413
  514TIP3    H1 1499   7.452   2.736   5.496
  514TIP3    H2 1500   7.431   2.742   5.346
  515TIP3   OH2 1501   2.146   4.655   4.796
  515TIP3    H1 1502   2.094   4.691   4.724
  515TIP3    H2 1503   2.082   4.642   4.867
  516TIP3   OH2 1504   0.107   1.042   4.452
  516TIP3    H1 1505   0.060   0.979   4.397
  516TIP3    H2 1506   0.044   1.065   4.521
  517TIP3   OH2 1507   7.723   6.690   1.064
  517TIP3    H1 1508   7.807   6.645   1.078
  517TIP3    H2 1509   7.703   6.729   1.149
  518TIP3   OH2 1510   5.975   1.255   4.712
  518TIP3    H1 1511   5.955   1.220   4.625
  518TIP3    H2 1512   6.067   1.232   4.727
  519TIP3   OH2 1513   1.887   1.901   3.264
  519TIP3    H1 1514   1.798   1.899   3.229
  519TIP3    H2 1515   1.941   1.860   3.196
  520TIP3   OH2 1516   2.225   3.200   4.209
  520TIP3    H1 1517   2.157   3.197   4.276
  520TIP3    H2 1518   2.229   3.111   4.175
  521TIP3   OH2 1519   7.045   6.990   0.585
  521TIP3    H1 1520   7.115   7.022   0.643
  521TIP3    H2 1521   6.966   7.032   0.619
  522TIP3   OH2 1522   3.120   2.716   6.663
  522TIP3    H1 1523   3.204   2.688   6.701
  522TIP3    H2 1524   3.139   2.730   6.570
  523TIP3   OH2 1525   4.739   4.651   2.503
  523TIP3    H1 1526   4.829   4.629   2.479
  523TIP3    H2 1527   4.685   4.606   2.438
  524TIP3   OH2 1528   8.002   1.792   0.379
  524TIP3    H1 1529   8.006   1.857   0.309
  524TIP3    H2 1530   8.012   1.708   0.334
  525TIP3   OH2 1531   5.465   7.523   0.749
  525TIP3    H1 1532   5.503   7.524   0.661
  525TIP3    H2 1533   5.417   7.605   0.757
  526TIP3   OH2 1534   3.942   2.396   0.100
  526TIP3    H1 1535   3.938   2.372   0.008
  526TIP3    H2 1536   4.021   2.451   0.108
  527TIP3   OH2 1537   1.604   3.628   5.612
  527TIP3    H1 1538   1.531   3.648   5.554
  527TIP3    H2 1539   1.679   3.616   5.553
  528TIP3   OH2 1540   7.189   2.706   2.882
  528TIP3    H1 1541   7.148   2.780   2.925
  528TIP3    H2 1542   7.280   2.732   2.871
  529TIP3   OH2 1543   3.766   5.892   6.764
  529TIP3    H1 1544   3.848   5.883   6.715
  529TIP3    H2 1545   3.715   5.815   6.739
  530TIP3   OH2 1546   0.330   2.472   1.816
  530TIP3    H1 1547   0.407   2.528   1.806
  530TIP3    H2 1548   0.256   2.531   1.804
  531TIP3   OH2 1549   0.338   4.255   5.348
  531TIP3    H1 1550   0.328   4.172   5.396
  531TIP3    H2 1551   0.334   4.322   5.415
  532TIP3   OH2 1552   2.778   6.726   1.204
  532TIP3    H1 1553   2.690   6.691   1.195
  532TIP3    H2 1554   2.775   6.809   1.157
  533TIP3   OH2 1555   4.300   3.351   0.259
  533TIP3    H1 1556   4.294   3.416   0.328
  533TIP3    H2 1557   4.256   3.274   0.294
  534TIP3   OH2 1558   7.211   3.839   0.597
  534TIP3    H1 1559   7.279   3.790   0.644
  534TIP3    H2 1560   7.217   3.808   0.507
  535TIP3   OH2 1561   2.597   1.944   4.548
  535TIP3    H1 1562   2.527   1.964   4.611
  535TIP3    H2 1563   2.554   1.944   4.463
  536TIP3   OH2 1564   3.873   1.732   4.632
  536TIP3    H1 1565   3.801   1.712   4.572
  536TIP3    H2 1566   3.832   1.775   4.707
  537TIP3   OH2 1567   0.710   7.145   1.548
  537TIP3    H1 1568   0.697   7.059   1.588
  537TIP3    H2 1569   0.623   7.185   1.549
  538TIP3   OH2 1570   6.423   3.942   0.947
  538TIP3    H1 1571   6.501   3.908   0.990
  538TIP3    H2 1572   6.457   3.990   0.871
  539TIP3   OH2 1573   3.114   2.379   2.050
  539TIP3    H1 1574   3.188   2.323   2.074
  539TIP3    H2 1575   3.105   2.440   2.123
  540TIP3   OH2 1576   4.754   3.500   1.280
  540TIP3    H1 1577   4.675   3.553   1.282
  540TIP3    H2 1578   4.817   3.548   1.334
  541TIP3   OH2 1579   5.828   4.769   0.990
  541TIP3    H1 1580   5.921   4.786   1.006
  541TIP3    H2 1581   5.782   4.819   1.058
  542TIP3   OH2 1582   2.534   4.626   0.050
  542TIP3    H1 1583   2.597   4.673  -0.004
  542TIP3    H2 1584   2.576   4.618   0.135
  543TIP3   OH2 1585   7.042   4.100   4.203
  543TIP3    H1 1586   7.104   4.057   4.261
  543TIP3    H2 1587   6.979   4.032   4.180
  544TIP3   OH2 1588   6.758   5.524   1.909
  544TIP3    H1 1589   6.745   5.442   1.958
  544TIP3    H2 1590   6.673   5.542   1.870
  545TIP3   OH2 1591   4.927   2.774   5.688
  545TIP3    H1 1592   4.837   2.743   5.673
  545TIP3    H2 1593   4.920   2.869   5.686
  546TIP3   OH2 1594   3.999   3.293   4.349
  546TIP3    H1 1595   4.080   3.337   4.322
  546TIP3    H2 1596   3.943   3.364   4.381
  547TIP3   OH2 1597   2.821   0.863   5.086
  547TIP3    H1 1598   2.852   0.943   5.043
  547TIP3    H2 1599   2.900   0.818   5.113
  548TIP3   OH2 1600   6.671   5.448   0.971
  548TIP3    H1 1601   6.682   5.484   0.884
  548TIP3    H2 1602   6.745   5.481   1.021
  549TIP3   OH2 1603   2.920   7.755   3.713
  549TIP3    H1 1604   2.880   7.803   3.640
  549TIP3    H2 1605   3.007   7.730   3.681
  550TIP3   OH2 1606   7.561   5.557   5.792
  550TIP3    H1 1607   7.542   5.508   5.712
  550TIP3    H2 1608   7.649   5.529   5.817
  551TIP3   OH2 1609   3.121   4.169   0.099
  551TIP3    H1 1610   3.145   4.122   0.018
  551TIP3    H2 1611   3.200   4.164   0.153
  552TIP3   OH2 1612   6.619   6.364   2.377
  552TIP3    H1 1613   6.590   6.438   2.325
  552TIP3    H2 1614   6.704   6.390   2.413
  553TIP3   OH2 1615   6.561   2.625   1.491
  553TIP3    H1 1616   6.531   2.537   1.469
  553TIP3    H2 1617   6.481   2.673   1.511
  554TIP3   OH2 1618   2.096   0.260   2.081
  554TIP3    H1 1619   2.068   0.233   1.993
  554TIP3    H2 1620   2.016   0.258   2.133
  555TIP3   OH2 1621   4.619   6.422   3.147
  555TIP3    H1 1622   4.632   6.453   3.237
  555TIP3    H2 1623   4.563   6.345   3.156
  556TIP3   OH2 1624   4.868   6.796   4.139
  556TIP3    H1 1625   4.942   6.774   4.195
  556TIP3    H2 1626   4.838   6.882   4.170
  557TIP3   OH2 1627   4.567   4.300   5.534
  557TIP3    H1 1628   4.567   4.393   5.509
  557TIP3    H2 1629   4.659   4.280   5.549
  558TIP3   OH2 1630   8.098   3.347   4.446
  558TIP3    H1 1631   8.129   3.369   4.358
  558TIP3    H2 1632   8.053   3.263   4.435
  559TIP3   OH2 1633   5.335   0.505   5.783
  559TIP3    H1 1634   5.260   0.467   5.738
  559TIP3    H2 1635   5.307   0.515   5.873
  560TIP3   OH2 1636   6.013   5.925   3.133
  560TIP3    H1 1637   5.930   5.970   3.114
  560TIP3    H2 1638   5.991   5.832   3.125
  561TIP3   OH2 1639   4.343   4.380   5.035
  561TIP3    H1 1640   4.397   4.413   5.106
  561TIP3    H2 1641   4.324   4.458   4.982
  562TIP3   OH2 1642   7.642   6.187   3.410
  562TIP3    H1 1643   7.683   6.111   3.369
  562TIP3    H2 1644   7.548   6.168   3.408
  563TIP3   OH2 1645   3.340   7.345   0.442
  563TIP3    H1 1646   3.322   7.428   0.397
  563TIP3    H2 1647   3.332   7.366   0.535
  564TIP3   OH2 1648   2.616   2.160   0.855
  564TIP3    H1 1649   2.586   2.077   0.819
  564TIP3    H2 1650   2.591   2.225   0.789
  565TIP3   OH2 1651   3.635   4.610   0.583
  565TIP3    H1 1652   3.632   4.703   0.558
  565TIP3    H2 1653   3.686   4.608   0.664
  566TIP3   OH2 1654   0.319   5.618   1.438
  566TIP3    H1 1655   0.341   5.575   1.355
  566TIP3    H2 1656   0.247   5.565   1.473
  567TIP3   OH2 1657   4.172   4.519   1.872
  567TIP3    H1 1658   4.134   4.603   1.847
  567TIP3    H2 1659   4.266   4.532   1.862
  568TIP3   OH2 1660   2.172   5.362   4.829
  568TIP3    H1 1661   2.124   5.444   4.843
  568TIP3    H2 1662   2.263   5.389   4.819
  569TIP3   OH2 1663   6.381   2.734   5.372
  569TIP3    H1 1664   6.400   2.692   5.288
  569TIP3    H2 1665   6.300   2.693   5.402
  570TIP3   OH2 1666   2.068   2.545   2.853
  570TIP3    H1 1667   2.013   2.490   2.909
  570TIP3    H2 1668   2.022   2.628   2.847
  571TIP3   OH2 1669   0.464   1.095   0.763
  571TIP3    H1 1670   0.427   1.021   0.715
  571TIP3    H2 1671   0.558   1.077   0.767
  572TIP3   OH2 1672   5.316   3.717   4.224
  572TIP3    H1 1673   5.348   3.737   4.312
  572TIP3    H2 1674   5.230   3.678   4.238
  573TIP3   OH2 1675   7.685   7.377   0.362
  573TIP3    H1 1676   7.652   7.437   0.295
  573TIP3    H2 1677   7.726   7.306   0.313
  574TIP3   OH2 1678   2.574   7.541   5.078
  574TIP3    H1 1679   2.601   7.450   5.087
  574TIP3    H2 1680   2.493   7.537   5.027
  575TIP3   OH2 1681   7.293   1.682   4.165
  575TIP3    H1 1682   7.212   1.632   4.169
  575TIP3    H2 1683   7.359   1.625   4.205
  576TIP3   OH2 1684   1.340   4.338   1.732
  576TIP3    H1 1685   1.378   4.425   1.734
  576TIP3    H2 1686   1.361   4.300   1.817
  577TIP3   OH2 1687   1.074   2.422   5.334
  577TIP3    H1 1688   1.083   2.475   5.413
  577TIP3    H2 1689   1.163   2.393   5.314
  578TIP3   OH2 1690   5.074   0.696   6.021
  578TIP3    H1 1691   5.136   0.759   5.985
  578TIP3    H2 1692   5.127   0.620   6.042
  579TIP3   OH2 1693   0.145   7.575   1.490
  579TIP3    H1 1694   0.193   7.607   1.413
  579TIP3    H2 1695   0.067   7.630   1.495
  580TIP3   OH2 1696   8.236   5.217   0.789
  580TIP3    H1 1697   8.163   5.178   0.836
  580TIP3    H2 1698   8.207   5.222   0.699
  581TIP3   OH2 1699   5.386   7.341   3.699
  581TIP3    H1 1700   5.370   7.262   3.751
  581TIP3    H2 1701   5.389   7.310   3.609
  582TIP3   OH2 1702   6.418   2.555   5.165
  582TIP3    H1 1703   6.475   2.508   5.226
  582TIP3    H2 1704   6.476   2.584   5.095
  583TIP3   OH2 1705   1.809   6.962   1.338
  583TIP3    H1 1706   1.794   6.910   1.259
  583TIP3    H2 1707   1.888   6.925   1.376
  584TIP3   OH2 1708   4.547   0.467   4.141
  584TIP3    H1 1709   4.528   0.379   4.173
  584TIP3    H2 1710   4.541   0.523   4.219
  585TIP3   OH2 1711   1.145   5.567   1.427
  585TIP3    H1 1712   1.135   5.638   1.364
  585TIP3    H2 1713   1.234   5.577   1.460
  586TIP3   OH2 1714   7.871   6.082   4.220
  586TIP3    H1 1715   7.945   6.143   4.219
  586TIP3    H2 1716   7.798   6.134   4.252
  587TIP3   OH2 1717   0.661   2.939   6.112
  587TIP3    H1 1718   0.623   2.936   6.200
  587TIP3    H2 1719   0.593   2.906   6.054
  588TIP3   OH2 1720   7.698   5.747   2.808
  588TIP3    H1 1721   7.654   5.663   2.823
  588TIP3    H2 1722   7.716   5.780   2.896
  589TIP3   OH2 1723   3.704   7.601   1.817
  589TIP3    H1 1724   3.668   7.517   1.790
  589TIP3    H2 1725   3.660   7.620   1.901
  590TIP3   OH2 1726   1.793   7.344   3.165
  590TIP3    H1 1727   1.745   7.269   3.130
  590TIP3    H2 1728   1.882   7.312   3.179
  591TIP3   OH2 1729   7.020   0.097   1.327
  591TIP3    H1 1730   6.992   0.153   1.255
  591TIP3    H2 1731   7.104   0.060   1.298
  592TIP3   OH2 1732   5.293   4.182   4.655
  592TIP3    H1 1733   5.306   4.267   4.699
  592TIP3    H2 1734   5.279   4.204   4.563
  593TIP3   OH2 1735   1.148   4.090   5.993
  593TIP3    H1 1736   1.219   4.097   5.929
  593TIP3    H2 1737   1.110   4.178   5.997
  594TIP3   OH2 1738   4.081   6.976   1.662
  594TIP3    H1 1739   4.109   6.930   1.583
  594TIP3    H2 1740   4.154   7.035   1.683
  595TIP3   OH2 1741   0.433   7.035   0.708
  595TIP3    H1 1742   0.526   7.023   0.727
  595TIP3    H2 1743   0.414   7.125   0.734
  596TIP3   OH2 1744   7.175   6.432   4.372
  596TIP3    H1 1745   7.194   6.513   4.419
  596TIP3    H2 1746   7.185   6.456   4.279
  597TIP3   OH2 1747   0.873   5.800   3.784
  597TIP3    H1 1748   0.827   5.857   3.723
  597TIP3    H2 1749   0.961   5.790   3.747
  598TIP3   OH2 1750   0.712   5.093   2.738
  598TIP3    H1 1751   0.662   5.085   2.819
  598TIP3    H2 1752   0.798   5.124   2.766
  599TIP3   OH2 1753   7.253   5.780   0.937
  599TIP3    H1 1754   7.191   5.838   0.894
  599TIP3    H2 1755   7.312   5.839   0.985
  600TIP3   OH2 1756   5.646   1.991   0.289
  600TIP3    H1 1757   5.583   2.062   0.294
  600TIP3    H2 1758   5.596   1.917   0.255
  601TIP3   OH2 1759   0.985   4.053   5.215
  601TIP3    H1 1760   0.903   4.052   5.165
  601TIP3    H2 1761   1.017   4.143   5.206
  602TIP3   OH2 1762   5.892   4.620   2.395
  602TIP3    H1 1763   5.830   4.555   2.427
  602TIP3    H2 1764   5.966   4.569   2.362
  603TIP3   OH2 1765   0.660   0.405   5.234
  603TIP3    H1 1766   0.704   0.355   5.304
  603TIP3    H2 1767   0.691   0.365   5.153
  604TIP3   OH2 1768   0.157   4.492   4.563
  604TIP3    H1 1769   0.092   4.482   4.633
  604TIP3    H2 1770   0.106   4.519   4.486
  605TIP3   OH2 1771   6.644   4.326   1.971
  605TIP3    H1 1772   6.681   4.244   2.005
  605TIP3    H2 1773   6.563   4.338   2.021
  606TIP3   OH2 1774   6.139   6.933   6.419
  606TIP3    H1 1775   6.225   6.925   6.377
  606TIP3    H2 1776   6.096   6.850   6.401
  607TIP3   OH2 1777   4.111   5.684   4.121
  607TIP3    H1 1778   4.125   5.760   4.177
  607TIP3    H2 1779   4.048   5.630   4.170
  608TIP3   OH2 1780   5.750   3.244   6.405
  608TIP3    H1 1781   5.734   3.164   6.355
  608TIP3    H2 1782   5.738   3.219   6.496
  609TIP3   OH2 1783   6.328   2.396   4.556
  609TIP3    H1 1784   6.298   2.351   4.477
  609TIP3    H2 1785   6.410   2.439   4.530
  610TIP3   OH2 1786   6.402   6.935   6.315
  610TIP3    H1 1787   6.439   6.983   6.241
  610TIP3    H2 1788   6.447   6.971   6.392
  611TIP3   OH2 1789   2.022   4.086   6.236
  611TIP3    H1 1790   1.931   4.111   6.224
  611TIP3    H2 1791   2.058   4.152   6.295
  612TIP3   OH2 1792   4.039   1.488   3.061
  612TIP3    H1 1793   4.060   1.411   3.114
  612TIP3    H2 1794   4.057   1.562   3.119
  613TIP3   OH2 1795   1.362   3.881   5.561
  613TIP3    H1 1796   1.452   3.904   5.539
  613TIP3    H2 1797   1.328   3.839   5.482
  614TIP3   OH2 1798   5.308   0.507   0.208
  614TIP3    H1 1799   5.239   0.507   0.274
  614TIP3    H2 1800   5.312   0.598   0.178
  615TIP3   OH2 1801   1.167   0.778   4.522
  615TIP3    H1 1802   1.164   0.840   4.449
  615TIP3    H2 1803   1.079   0.782   4.560
  616TIP3   OH2 1804   0.252   6.912   0.540
  616TIP3    H1 1805   0.307   6.966   0.597
  616TIP3    H2 1806   0.288   6.823   0.548
  617TIP3   OH2 1807   6.810   0.678   3.000
  617TIP3    H1 1808   6.833   0.770   3.015
  617TIP3    H2 1809   6.726   0.667   3.044
  618TIP3   OH2 1810   4.631   0.451   5.046
  618TIP3    H1 1811   4.647   0.509   5.120
  618TIP3    H2 1812   4.719   0.431   5.011
  619TIP3   OH2 1813   7.467   4.436   1.518
  619TIP3    H1 1814   7.510   4.521   1.520
  619TIP3    H2 1815   7.402   4.442   1.448
  620TIP3   OH2 1816   0.361   6.732   5.397
  620TIP3    H1 1817   0.422   6.714   5.327
  620TIP3    H2 1818   0.285   6.770   5.354
  621TIP3   OH2 1819   2.328   0.369   6.718
  621TIP3    H1 1820   2.260   0.395   6.655
  621TIP3    H2 1821   2.280   0.344   6.796
  622TIP3   OH2 1822   3.059   6.486   4.681
  622TIP3    H1 1823   3.100   6.473   4.595
  622TIP3    H2 1824   3.025   6.400   4.704
  623TIP3   OH2 1825   7.637   4.313   6.397
  623TIP3    H1 1826   7.721   4.267   6.394
  623TIP3    H2 1827   7.601   4.302   6.309
  624TIP3   OH2 1828   1.921   1.063   6.483
  624TIP3    H1 1829   1.966   1.011   6.548
  624TIP3    H2 1830   1.980   1.136   6.465
  625TIP3   OH2 1831   3.689   7.114   3.346
  625TIP3    H1 1832   3.703   7.037   3.291
  625TIP3    H2 1833   3.724   7.089   3.432
  626TIP3   OH2 1834   1.365   2.526   5.853
  626TIP3    H1 1835   1.300   2.595   5.844
  626TIP3    H2 1836   1.365   2.505   5.946
  627TIP3   OH2 1837   6.255   3.004   1.102
  627TIP3    H1 1838   6.209   2.991   1.185
  627TIP3    H2 1839   6.256   3.099   1.090
  628TIP3   OH2 1840   4.217   5.997   3.958
  628TIP3    H1 1841   4.212   5.940   4.035
  628TIP3    H2 1842   4.133   6.041   3.955
  629TIP3   OH2 1843   5.841   1.039   4.816
  629TIP3    H1 1844   5.768   1.011   4.761
  629TIP3    H2 1845   5.875   1.118   4.773
  630TIP3   OH2 1846   6.676   4.656   5.096
  630TIP3    H1 1847   6.597   4.608   5.069
  630TIP3    H2 1848   6.650   4.748   5.090
  631TIP3   OH2 1849   0.657   6.634   1.654
  631TIP3    H1 1850   0.693   6.605   1.570
  631TIP3    H2 1851   0.576   6.584   1.664
  632TIP3   OH2 1852   4.706   4.218   4.235
  632TIP3    H1 1853   4.738   4.142   4.284
  632TIP3    H2 1854   4.652   4.181   4.165
  633TIP3   OH2 1855   2.907   7.778   1.162
  633TIP3    H1 1856   2.817   7.804   1.143
  633TIP3    H2 1857   2.951   7.779   1.076
  634TIP3   OH2 1858   7.306   6.468   2.629
  634TIP3    H1 1859   7.218   6.441   2.655
  634TIP3    H2 1860   7.363   6.433   2.697
  635TIP3   OH2 1861   6.835   6.100   6.011
  635TIP3    H1 1862   6.752   6.057   6.031
  635TIP3    H2 1863   6.881   6.037   5.956
  636TIP3   OH2 1864   3.306   5.946   0.742
  636TIP3    H1 1865   3.387   5.913   0.704
  636TIP3    H2 1866   3.283   6.021   0.687
  637TIP3   OH2 1867   6.130   3.293   5.375
  637TIP3    H1 1868   6.056   3.354   5.371
  637TIP3    H2 1869   6.103   3.227   5.439
  638TIP3   OH2 1870   1.579   7.320   0.669
  638TIP3    H1 1871   1.529   7.239   0.682
  638TIP3    H2 1872   1.586   7.329   0.574
  639TIP3   OH2 1873   6.919   1.138   1.935
  639TIP3    H1 1874   6.932   1.233   1.942
  639TIP3    H2 1875   6.956   1.115   1.850
  640TIP3   OH2 1876   0.778   1.107   0.050
  640TIP3    H1 1877   0.710   1.156   0.097
  640TIP3    H2 1878   0.739   1.086  -0.034
  641TIP3   OH2 1879   6.382   1.899   6.374
  641TIP3    H1 1880   6.461   1.874   6.422
  641TIP3    H2 1881   6.321   1.827   6.389
  642TIP3   OH2 1882   6.297   1.963   3.504
  642TIP3    H1 1883   6.322   1.949   3.413
  642TIP3    H2 1884   6.379   1.957   3.553
  643TIP3   OH2 1885   7.295   4.334   0.190
  643TIP3    H1 1886   7.208   4.353   0.224
  643TIP3    H2 1887   7.351   4.401   0.230
  644TIP3   OH2 1888   4.962   2.354   6.391
  644TIP3    H1 1889   5.048   2.396   6.381
  644TIP3    H2 1890   4.945   2.356   6.485
  645TIP3   OH2 1891   1.226   1.638   0.312
  645TIP3    H1 1892   1.145   1.588   0.304
  645TIP3    H2 1893   1.280   1.587   0.372
  646TIP3   OH2 1894   7.337   0.965   1.994
  646TIP3    H1 1895   7.278   1.032   2.028
  646TIP3    H2 1896   7.297   0.938   1.911
  647TIP3   OH2 1897   2.526   6.607   1.248
  647TIP3    H1 1898   2.539   6.515   1.227
  647TIP3    H2 1899   2.504   6.607   1.342
  648TIP3   OH2 1900   5.772   1.877   0.511
  648TIP3    H1 1901   5.725   1.898   0.430
  648TIP3    H2 1902   5.841   1.816   0.483
  649TIP3   OH2 1903   4.215   5.050   1.542
  649TIP3    H1 1904   4.219   4.974   1.600
  649TIP3    H2 1905   4.283   5.033   1.476
  650TIP3   OH2 1906   3.011   0.539   1.451
  650TIP3    H1 1907   2.949   0.538   1.379
  650TIP3    H2 1908   3.082   0.481   1.423
  651TIP3   OH2 1909   5.628   4.957   4.019
  651TIP3    H1 1910   5.587   4.872   4.034
  651TIP3    H2 1911   5.603   5.010   4.094
  652TIP3   OH2 1912   4.199   4.638   2.824
  652TIP3    H1 1913   4.181   4.564   2.882
  652TIP3    H2 1914   4.228   4.708   2.882
  653TIP3   OH2 1915   2.261   4.353   4.842
  653TIP3    H1 1916   2.181   4.319   4.883
  653TIP3    H2 1917   2.234   4.435   4.801
  654TIP3   OH2 1918   5.971   0.580   5.133
  654TIP3    H1 1919   5.970   0.671   5.102
  654TIP3    H2 1920   6.056   0.546   5.104
  655TIP3   OH2 1921   5.993   0.922   2.393
  655TIP3    H1 1922   5.974   0.854   2.327
  655TIP3    H2 1923   5.943   0.895   2.470
  656TIP3   OH2 1924   3.366   1.797   6.425
  656TIP3    H1 1925   3.390   1.784   6.517
  656TIP3    H2 1926   3.450   1.802   6.380
  657TIP3   OH2 1927   3.958   5.550   4.283
  657TIP3    H1 1928   3.892   5.582   4.343
  657TIP3    H2 1929   3.989   5.469   4.323
  658TIP3   OH2 1930   2.315   3.327   2.709
  658TIP3    H1 1931   2.270   3.253   2.748
  658TIP3    H2 1932   2.367   3.363   2.780
  659TIP3   OH2 1933   5.367   4.699   2.786
  659TIP3    H1 1934   5.363   4.634   2.856
  659TIP3    H2 1935   5.456   4.735   2.793
  660TIP3   OH2 1936   7.221   5.817   4.847
  660TIP3    H1 1937   7.190   5.777   4.765
  660TIP3    H2 1938   7.245   5.906   4.823
  661TIP3   OH2 1939   8.001   5.764   1.435
  661TIP3    H1 1940   7.913   5.733   1.457
  661TIP3    H2 1941   8.010   5.744   1.342
  662TIP3   OH2 1942   3.608   6.466   4.937
  662TIP3    H1 1943   3.538   6.462   4.873
  662TIP3    H2 1944   3.564   6.487   5.020
  663TIP3   OH2 1945   0.248   6.411   6.002
  663TIP3    H1 1946   0.329   6.361   5.988
  663TIP3    H2 1947   0.222   6.439   5.914
  664TIP3   OH2 1948   3.428   2.760   3.133
  664TIP3    H1 1949   3.492   2.705   3.179
  664TIP3    H2 1950   3.348   2.708   3.132
  665TIP3   OH2 1951   3.369   0.731   1.895
  665TIP3    H1 1952   3.429   0.659   1.915
  665TIP3    H2 1953   3.423   0.810   1.899
  666TIP3   OH2 1954   4.594   7.452   6.768
  666TIP3    H1 1955   4.536   7.437   6.694
  666TIP3    H2 1956   4.582   7.375   6.824
  667TIP3   OH2 1957   5.455   1.626   0.418
  667TIP3    H1 1958   5.467   1.588   0.505
  667TIP3    H2 1959   5.535   1.603   0.370
  668TIP3   OH2 1960   1.137   4.485   0.563
  668TIP3    H1 1961   1.216   4.483   0.616
  668TIP3    H2 1962   1.130   4.575   0.532
  669TIP3   OH2 1963   7.500   5.327   4.039
  669TIP3    H1 1964   7.532   5.408   4.079
  669TIP3    H2 1965   7.458   5.280   4.111
  670TIP3   OH2 1966   5.895   7.328   0.479
  670TIP3    H1 1967   5.869   7.414   0.447
  670TIP3    H2 1968   5.866   7.327   0.571
  671TIP3   OH2 1969   6.066   7.642   2.511
  671TIP3    H1 1970   6.073   7.642   2.606
  671TIP3    H2 1971   6.024   7.725   2.489
  672TIP3   OH2 1972   4.393   3.560   3.321
  672TIP3    H1 1973   4.383   3.609   3.403
  672TIP3    H2 1974   4.482   3.581   3.293
  673TIP3   OH2 1975   3.354   7.061   0.851
  673TIP3    H1 1976   3.298   7.070   0.928
  673TIP3    H2 1977   3.398   6.977   0.863
  674TIP3   OH2 1978   3.316   2.488   5.894
  674TIP3    H1 1979   3.341   2.545   5.821
  674TIP3    H2 1980   3.395   2.436   5.912
  675TIP3   OH2 1981   4.780   1.181   5.715
  675TIP3    H1 1982   4.739   1.240   5.779
  675TIP3    H2 1983   4.862   1.155   5.755
  676TIP3   OH2 1984   5.811   2.935   5.226
  676TIP3    H1 1985   5.843   2.879   5.296
  676TIP3    H2 1986   5.832   3.024   5.255
  677TIP3   OH2 1987   4.517   6.687   4.929
  677TIP3    H1 1988   4.576   6.762   4.924
  677TIP3    H2 1989   4.516   6.663   5.021
  678TIP3   OH2 1990   4.079   6.312   5.730
  678TIP3    H1 1991   4.135   6.235   5.718
  678TIP3    H2 1992   3.997   6.290   5.686
  679TIP3   OH2 1993   1.605   5.259   4.000
  679TIP3    H1 1994   1.618   5.353   3.990
  679TIP3    H2 1995   1.546   5.235   3.928
  680TIP3   OH2 1996   3.300   7.776   0.243
  680TIP3    H1 1997   3.376   7.834   0.251
  680TIP3    H2 1998   3.274   7.783   0.151
  681TIP3   OH2 1999   4.310   6.744   4.751
  681TIP3    H1 2000   4.366   6.736   4.828
  681TIP3    H2 2001   4.223   6.716   4.781
  682TIP3   OH2 2002   6.265   0.452   4.036
  682TIP3    H1 2003   6.234   0.466   3.946
  682TIP3    H2 2004   6.360   0.458   4.029
  683TIP3   OH2 2005   6.092   2.130   5.156
  683TIP3    H1 2006   6.101   2.187   5.232
  683TIP3    H2 2007   6.039   2.057   5.187
  684TIP3   OH2 2008   5.523   1.018   3.048
  684TIP3    H1 2009   5.515   1.110   3.075
  684TIP3    H2 2010   5.449   0.974   3.090
  685TIP3   OH2 2011   5.303   0.994   6.432
  685TIP3    H1 2012   5.228   0.953   6.388
  685TIP3    H2 2013   5.355   1.030   6.360
  686TIP3   OH2 2014   6.580   3.928   3.449
  686TIP3    H1 2015   6.505   3.896   3.398
  686TIP3    H2 2016   6.616   3.849   3.490
  687TIP3   OH2 2017   0.136   2.784   5.532
  687TIP3    H1 2018   0.094   2.749   5.453
  687TIP3    H2 2019   0.064   2.815   5.586
  688TIP3   OH2 2020   1.443   0.224   0.655
  688TIP3    H1 2021   1.387   0.179   0.719
  688TIP3    H2 2022   1.381   0.269   0.597
  689TIP3   OH2 2023   5.816   4.892   3.351
  689TIP3    H1 2024   5.735   4.872   3.399
  689TIP3    H2 2025   5.786   4.915   3.263
  690TIP3   OH2 2026   7.196   4.419   5.664
  690TIP3    H1 2027   7.124   4.365   5.696
  690TIP3    H2 2028   7.171   4.445   5.576
  691TIP3   OH2 2029   1.631   7.193   1.285
  691TIP3    H1 2030   1.687   7.247   1.229
  691TIP3    H2 2031   1.670   7.106   1.282
  692TIP3   OH2 2032   3.922   7.393   6.489
  692TIP3    H1 2033   3.936   7.369   6.580
  692TIP3    H2 2034   4.010   7.408   6.454
  693TIP3   OH2 2035   5.576   1.761   0.679
  693TIP3    H1 2036   5.552   1.668   0.684
  693TIP3    H2 2037   5.655   1.763   0.625
  694TIP3   OH2 2038   3.295   5.647   4.431
  694TIP3    H1 2039   3.280   5.714   4.498
  694TIP3    H2 2040   3.389   5.630   4.435
  695TIP3   OH2 2041   3.104   0.712   3.657
  695TIP3    H1 2042   3.165   0.643   3.631
  695TIP3    H2 2043   3.160   0.785   3.682
  696TIP3   OH2 2044   2.021   5.394   4.131
  696TIP3    H1 2045   2.017   5.360   4.042
  696TIP3    H2 2046   2.009   5.489   4.121
  697TIP3   OH2 2047   1.456   0.046   5.015
  697TIP3    H1 2048   1.423   0.073   5.100
  697TIP3    H2 2049   1.487   0.127   4.974
  698TIP3   OH2 2050   7.901   5.141   0.365
  698TIP3    H1 2051   7.872   5.052   0.343
  698TIP3    H2 2052   7.919   5.182   0.280
  699TIP3   OH2 2053   5.491   6.621   4.204
  699TIP3    H1 2054   5.498   6.620   4.109
  699TIP3    H2 2055   5.504   6.529   4.230
  700TIP3   OH2 2056   5.144   0.423   2.771
  700TIP3    H1 2057   5.159   0.406   2.678
  700TIP3    H2 2058   5.092   0.504   2.772
  701TIP3   OH2 2059   2.674   3.485   0.919
  701TIP3    H1 2060   2.624   3.472   1.000
  701TIP3    H2 2061   2.765   3.492   0.948
  702TIP3   OH2 2062   5.848   3.524   6.324
  702TIP3    H1 2063   5.770   3.572   6.294
  702TIP3    H2 2064   5.815   3.437   6.347
  703TIP3   OH2 2065   5.849   7.730   5.125
  703TIP3    H1 2066   5.813   7.753   5.039
  703TIP3    H2 2067   5.891   7.810   5.155
  704TIP3   OH2 2068   4.770   5.728   4.963
  704TIP3    H1 2069   4.684   5.688   4.959
  704TIP3    H2 2070   4.776   5.780   4.883
  705TIP3   OH2 2071   4.591   4.988   0.842
  705TIP3    H1 2072   4.676   4.972   0.800
  705TIP3    H2 2073   4.575   4.909   0.893
  706TIP3   OH2 2074   4.780   2.504   5.744
  706TIP3    H1 2075   4.787   2.424   5.692
  706TIP3    H2 2076   4.689   2.531   5.734
  707TIP3   OH2 2077   0.925   0.762   1.081
  707TIP3    H1 2078   0.844   0.715   1.061
  707TIP3    H2 2079   0.949   0.804   0.998
  708TIP3   OH2 2080   8.124   2.833   6.448
  708TIP3    H1 2081   8.167   2.767   6.394
  708TIP3    H2 2082   8.196   2.874   6.498
  709TIP3   OH2 2083   3.222   3.674   3.070
  709TIP3    H1 2084   3.280   3.746   3.043
  709TIP3    H2 2085   3.134   3.709   3.059
  710TIP3   OH2 2086   4.127   1.806   5.136
  710TIP3    H1 2087   4.167   1.892   5.126
  710TIP3    H2 2088   4.146   1.761   5.054
  711TIP3   OH2 2089   3.850   6.830   0.066
  711TIP3    H1 2090   3.903   6.898   0.106
  711TIP3    H2 2091   3.761   6.865   0.065
  712TIP3   OH2 2092   6.712   6.431   4.728
  712TIP3    H1 2093   6.668   6.420   4.644
  712TIP3    H2 2094   6.803   6.408   4.711
  713TIP3   OH2 2095   2.077   1.854   0.095
  713TIP3    H1 2096   2.023   1.838   0.173
  713TIP3    H2 2097   2.129   1.931   0.118
  714TIP3   OH2 2098   5.291   0.536   5.234
  714TIP3    H1 2099   5.325   0.620   5.204
  714TIP3    H2 2100   5.369   0.484   5.254
  715TIP3   OH2 2101   0.705   5.785   4.027
  715TIP3    H1 2102   0.764   5.818   3.960
  715TIP3    H2 2103   0.745   5.810   4.110
  716TIP3   OH2 2104   0.426   6.489   0.770
  716TIP3    H1 2105   0.443   6.395   0.766
  716TIP3    H2 2106   0.340   6.495   0.812
  717TIP3   OH2 2107   8.277   7.680   0.574
  717TIP3    H1 2108   8.183   7.672   0.594
  717TIP3    H2 2109   8.300   7.596   0.536
  718TIP3   OH2 2110   3.944   3.263   1.643
  718TIP3    H1 2111   3.959   3.220   1.727
  718TIP3    H2 2112   3.852   3.288   1.645
  719TIP3   OH2 2113   2.541   6.330   2.131
  719TIP3    H1 2114   2.528   6.402   2.192
  719TIP3    H2 2115   2.609   6.361   2.071
  720TIP3   OH2 2116   4.554   6.961   0.879
  720TIP3    H1 2117   4.641   6.927   0.855
  720TIP3    H2 2118   4.493   6.892   0.852
  721TIP3   OH2 2119   1.097   6.763   5.732
  721TIP3    H1 2120   1.101   6.856   5.711
  721TIP3    H2 2121   1.037   6.726   5.667
  722TIP3   OH2 2122   7.825   5.456   5.329
  722TIP3    H1 2123   7.788   5.376   5.292
  722TIP3    H2 2124   7.878   5.492   5.258
  723TIP3   OH2 2125   0.014   2.714   5.257
  723TIP3    H1 2126   0.034   2.624   5.282
  723TIP3    H2 2127   0.031   2.718   5.163
  724TIP3   OH2 2128   8.282   1.636   0.980
  724TIP3    H1 2129   8.276   1.637   1.076
  724TIP3    H2 2130   8.216   1.700   0.952
  725TIP3   OH2 2131   1.513   1.574   6.571
  725TIP3    H1 2132   1.459   1.653   6.569
  725TIP3    H2 2133   1.556   1.572   6.485
  726TIP3   OH2 2134   3.072   4.229   2.365
  726TIP3    H1 2135   3.153   4.277   2.384
  726TIP3    H2 2136   3.100   4.139   2.351
  727TIP3   OH2 2137   2.343   4.855   4.359
  727TIP3    H1 2138   2.386   4.877   4.276
  727TIP3    H2 2139   2.320   4.763   4.351
  728TIP3   OH2 2140   2.799   3.753   0.744
  728TIP3    H1 2141   2.785   3.806   0.665
  728TIP3    H2 2142   2.789   3.662   0.714
  729TIP3   OH2 2143   6.800   3.544   4.336
  729TIP3    H1 2144   6.758   3.514   4.417
  729TIP3    H2 2145   6.893   3.551   4.358
  730TIP3   OH2 2146   7.219   2.007   5.633
  730TIP3    H1 2147   7.143   2.043   5.679
  730TIP3    H2 2148   7.291   2.064   5.659
  731TIP3   OH2 2149   6.740   2.268   5.298
  731TIP3    H1 2150   6.828   2.232   5.309
  731TIP3    H2 2151   6.689   2.228   5.369
  732TIP3   OH2 2152   2.902   7.597   0.283
  732TIP3    H1 2153   2.896   7.686   0.248
  732TIP3    H2 2154   2.880   7.605   0.376
  733TIP3   OH2 2155   0.847   2.298   3.146
  733TIP3    H1 2156   0.752   2.293   3.138
  733TIP3    H2 2157   0.880   2.245   3.073
  734TIP3   OH2 2158   3.634   5.722   1.892
  734TIP3    H1 2159   3.702   5.790   1.899
  734TIP3    H2 2160   3.637   5.677   1.976
  735TIP3   OH2 2161   3.659   3.931   4.167
  735TIP3    H1 2162   3.656   3.995   4.097
  735TIP3    H2 2163   3.577   3.882   4.159
  736TIP3   OH2 2164   2.897   7.646   4.209
  736TIP3    H1 2165   2.808   7.680   4.205
  736TIP3    H2 2166   2.952   7.723   4.223
  737TIP3   OH2 2167   7.473   0.198   3.370
  737TIP3    H1 2168   7.513   0.284   3.357
  737TIP3    H2 2169   7.540   0.147   3.417
  738TIP3   OH2 2170   1.655   6.423   1.975
  738TIP3    H1 2171   1.593   6.401   1.905
  738TIP3    H2 2172   1.736   6.445   1.930
  739TIP3   OH2 2173   4.155   5.050   3.062
  739TIP3    H1 2174   4.167   5.096   3.146
  739TIP3    H2 2175   4.109   5.113   3.007
  740TIP3   OH2 2176   5.973   5.941   0.811
  740TIP3    H1 2177   5.919   5.949   0.890
  740TIP3    H2 2178   5.963   6.026   0.768
  741TIP3   OH2 2179   3.681   3.286   1.702
  741TIP3    H1 2180   3.615   3.300   1.634
  741TIP3    H2 2181   3.702   3.374   1.734
  742TIP3   OH2 2182   2.512   4.215   4.181
  742TIP3    H1 2183   2.490   4.226   4.274
  742TIP3    H2 2184   2.598   4.255   4.172
  743TIP3   OH2 2185   5.644   3.019   1.529
  743TIP3    H1 2186   5.576   3.081   1.500
  743TIP3    H2 2187   5.651   3.033   1.623
  744TIP3   OH2 2188   2.939   6.570   5.316
  744TIP3    H1 2189   2.955   6.664   5.304
  744TIP3    H2 2190   2.968   6.531   5.234
  745TIP3   OH2 2191   3.546   1.318   0.653
  745TIP3    H1 2192   3.538   1.268   0.572
  745TIP3    H2 2193   3.483   1.277   0.712
  746TIP3   OH2 2194   6.291   4.600   2.251
  746TIP3    H1 2195   6.334   4.675   2.292
  746TIP3    H2 2196   6.291   4.533   2.319
  747TIP3   OH2 2197   3.365   4.292   4.304
  747TIP3    H1 2198   3.311   4.299   4.225
  747TIP3    H2 2199   3.454   4.303   4.273
  748TIP3   OH2 2200   7.064   1.130   5.956
  748TIP3    H1 2201   7.024   1.056   5.911
  748TIP3    H2 2202   7.148   1.143   5.911
  749TIP3   OH2 2203   3.976   5.276   4.360
  749TIP3    H1 2204   3.985   5.234   4.446
  749TIP3    H2 2205   3.896   5.238   4.323
  750TIP3   OH2 2206   1.361   3.308   1.378
  750TIP3    H1 2207   1.330   3.232   1.427
  750TIP3    H2 2208   1.317   3.383   1.419
  751TIP3   OH2 2209   7.725   7.279   0.875
  751TIP3    H1 2210   7.669   7.342   0.920
  751TIP3    H2 2211   7.810   7.287   0.919
  752TIP3   OH2 2212   3.818   5.504   2.026
  752TIP3    H1 2213   3.870   5.577   2.058
  752TIP3    H2 2214   3.848   5.491   1.936
  753TIP3   OH2 2215   6.166   5.764   6.402
  753TIP3    H1 2216   6.165   5.849   6.447
  753TIP3    H2 2217   6.233   5.773   6.334
  754TIP3   OH2 2218   2.603   5.709   1.621
  754TIP3    H1 2219   2.610   5.722   1.715
  754TIP3    H2 2220   2.629   5.618   1.607
  755TIP3   OH2 2221   5.352   3.948   2.075
  755TIP3    H1 2222   5.436   3.969   2.033
  755TIP3    H2 2223   5.296   4.023   2.055
  756TIP3   OH2 2224   6.920   5.246   3.934
  756TIP3    H1 2225   6.944   5.232   4.026
  756TIP3    H2 2226   6.851   5.312   3.937
  757TIP3   OH2 2227   5.952   1.287   3.590
  757TIP3    H1 2228   5.940   1.377   3.559
  757TIP3    H2 2229   6.044   1.282   3.614
  758TIP3   OH2 2230   7.631   7.137   6.215
  758TIP3    H1 2231   7.637   7.054   6.261
  758TIP3    H2 2232   7.671   7.121   6.129
  759TIP3   OH2 2233   7.490   1.359   6.594
  759TIP3    H1 2234   7.460   1.406   6.516
  759TIP3    H2 2235   7.519   1.429   6.653
  760TIP3   OH2 2236   7.206   2.522   4.804
  760TIP3    H1 2237   7.164   2.485   4.882
  760TIP3    H2 2238   7.294   2.546   4.832
  761TIP3   OH2 2239   8.024   1.023   3.374
  761TIP3    H1 2240   8.097   1.083   3.359
  761TIP3    H2 2241   8.035   0.995   3.465
  762TIP3   OH2 2242   6.518   0.212   2.495
  762TIP3    H1 2243   6.445   0.269   2.516
  762TIP3    H2 2244   6.551   0.182   2.579
  763TIP3   OH2 2245   1.147   7.343   3.403
  763TIP3    H1 2246   1.087   7.311   3.335
  763TIP3    H2 2247   1.091   7.356   3.480
  764TIP3   OH2 2248   1.305   0.416   3.392
  764TIP3    H1 2249   1.218   0.384   3.369
  764TIP3    H2 2250   1.347   0.434   3.308
  765TIP3   OH2 2251   4.169   0.922   1.587
  765TIP3    H1 2252   4.247   0.908   1.534
  765TIP3    H2 2253   4.128   0.836   1.593
  766TIP3   OH2 2254   0.941   1.807   6.497
  766TIP3    H1 2255   0.859   1.851   6.518
  766TIP3    H2 2256   0.919   1.714   6.496
  767TIP3   OH2 2257   1.759   2.654   3.526
  767TIP3    H1 2258   1.817   2.720   3.489
  767TIP3    H2 2259   1.818   2.586   3.560
  768TIP3   OH2 2260   5.057   6.334   6.582
  768TIP3    H1 2261   5.147   6.354   6.559
  768TIP3    H2 2262   5.037   6.252   6.537
  769TIP3   OH2 2263   3.606   2.286   0.667
  769TIP3    H1 2264   3.684   2.266   0.615
  769TIP3    H2 2265   3.588   2.206   0.716
  770TIP3   OH2 2266   0.251   5.094   2.414
  770TIP3    H1 2267   0.206   5.178   2.401
  770TIP3    H2 2268   0.319   5.094   2.346
  771TIP3   OH2 2269   1.746   2.351   3.569
  771TIP3    H1 2270   1.769   2.274   3.517
  771TIP3    H2 2271   1.651   2.359   3.560
  772TIP3   OH2 2272   2.345   7.285   1.533
  772TIP3    H1 2273   2.372   7.206   1.579
  772TIP3    H2 2274   2.345   7.261   1.440
  773TIP3   OH2 2275   1.582   0.065   5.315
  773TIP3    H1 2276   1.648   0.014   5.268
  773TIP3    H2 2277   1.563   0.138   5.257
  774TIP3   OH2 2278   3.776   1.130   1.823
  774TIP3    H1 2279   3.855   1.101   1.777
  774TIP3    H2 2280   3.796   1.116   1.915
  775TIP3   OH2 2281   3.236   6.392   3.800
  775TIP3    H1 2282   3.143   6.416   3.796
  775TIP3    H2 2283   3.258   6.399   3.893
  776TIP3   OH2 2284   0.207   3.097   4.381
  776TIP3    H1 2285   0.217   3.189   4.406
  776TIP3    H2 2286   0.283   3.078   4.327
  777TIP3   OH2 2287   1.784   5.743   2.449
  777TIP3    H1 2288   1.809   5.813   2.509
  777TIP3    H2 2289   1.846   5.750   2.376
  778TIP3   OH2 2290   1.512   4.291   3.817
  778TIP3    H1 2291   1.500   4.258   3.905
  778TIP3    H2 2292   1.600   4.331   3.818
  779TIP3   OH2 2293   5.984   2.693   1.389
  779TIP3    H1 2294   5.933   2.644   1.452
  779TIP3    H2 2295   5.925   2.762   1.358
  780TIP3   OH2 2296   6.173   6.258   4.858
  780TIP3    H1 2297   6.248   6.278   4.802
  780TIP3    H2 2298   6.161   6.337   4.912
  781TIP3   OH2 2299   0.372   0.418   0.146
  781TIP3    H1 2300   0.445   0.478   0.163
  781TIP3    H2 2301   0.335   0.449   0.063
  782TIP3   OH2 2302   2.962   3.422   2.014
  782TIP3    H1 2303   2.974   3.361   2.087
  782TIP3    H2 2304   3.039   3.480   2.019
  783TIP3   OH2 2305   1.301   2.202   2.411
  783TIP3    H1 2306   1.225   2.253   2.385
  783TIP3    H2 2307   1.332   2.245   2.491
  784TIP3   OH2 2308   3.556   1.489   2.681
  784TIP3    H1 2309   3.536   1.441   2.761
  784TIP3    H2 2310   3.626   1.439   2.640
  785TIP3   OH2 2311   2.598   5.677   4.245
  785TIP3    H1 2312   2.601   5.766   4.210
  785TIP3    H2 2313   2.657   5.679   4.320
  786TIP3   OH2 2314   1.347   6.870   4.423
  786TIP3    H1 2315   1.421   6.889   4.481
  786TIP3    H2 2316   1.382   6.808   4.359
  787TIP3   OH2 2317   4.418   2.081   0.024
  787TIP3    H1 2318   4.421   2.155   0.085
  787TIP3    H2 2319   4.370   2.114  -0.052
  788TIP3   OH2 2320   6.664   3.413   5.617
  788TIP3    H1 2321   6.597   3.426   5.549
  788TIP3    H2 2322   6.660   3.493   5.670
  789TIP3   OH2 2323   0.554   2.694   1.926
  789TIP3    H1 2324   0.625   2.756   1.907
  789TIP3    H2 2325   0.477   2.749   1.938
  790TIP3   OH2 2326   6.464   6.701   3.888
  790TIP3    H1 2327   6.495   6.736   3.805
  790TIP3    H2 2328   6.406   6.628   3.863
  791TIP3   OH2 2329   6.823   3.936   4.451
  791TIP3    H1 2330   6.858   3.944   4.362
  791TIP3    H2 2331   6.728   3.938   4.439
  792TIP3   OH2 2332   0.355   5.327   3.205
  792TIP3    H1 2333   0.296   5.395   3.173
  792TIP3    H2 2334   0.297   5.253   3.223
  793TIP3   OH2 2335   2.162   6.307   3.340
  793TIP3    H1 2336   2.157   6.402   3.331
  793TIP3    H2 2337   2.080   6.283   3.384
  794TIP3   OH2 2338   6.835   2.489   2.724
  794TIP3    H1 2339   6.760   2.544   2.702
  794TIP3    H2 2340   6.819   2.463   2.815
  795TIP3   OH2 2341   6.433   4.460   0.250
  795TIP3    H1 2342   6.517   4.497   0.223
  795TIP3    H2 2343   6.449   4.366   0.254
  796TIP3   OH2 2344   2.492   1.462   6.167
  796TIP3    H1 2345   2.459   1.540   6.122
  796TIP3    H2 2346   2.414   1.407   6.179
  797TIP3   OH2 2347   5.524   6.210   4.781
  797TIP3    H1 2348   5.441   6.175   4.812
  797TIP3    H2 2349   5.498   6.277   4.717
  798TIP3   OH2 2350   3.034   0.284   6.207
  798TIP3    H1 2351   3.066   0.234   6.283
  798TIP3    H2 2352   3.049   0.375   6.231
  799TIP3   OH2 2353   7.966   2.651   1.256
  799TIP3    H1 2354   7.981   2.714   1.327
  799TIP3    H2 2355   7.948   2.568   1.301
  800TIP3   OH2 2356   1.964   1.666   6.063
  800TIP3    H1 2357   1.930   1.695   6.148
  800TIP3    H2 2358   1.957   1.571   6.066
  801TIP3   OH2 2359   3.913   2.409   2.886
  801TIP3    H1 2360   3.888   2.350   2.815
  801TIP3    H2 2361   3.918   2.496   2.845
  802TIP3   OH2 2362   0.780   1.387   0.250
  802TIP3    H1 2363   0.785   1.294   0.270
  802TIP3    H2 2364   0.704   1.395   0.191
  803TIP3   OH2 2365   7.583   7.175   6.505
  803TIP3    H1 2366   7.488   7.176   6.492
  803TIP3    H2 2367   7.619   7.157   6.418
  804TIP3   OH2 2368   3.223   5.843   0.983
  804TIP3    H1 2369   3.256   5.875   0.899
  804TIP3    H2 2370   3.229   5.748   0.976
  805TIP3   OH2 2371   3.460   5.454   2.303
  805TIP3    H1 2372   3.476   5.543   2.271
  805TIP3    H2 2373   3.408   5.466   2.383
  806TIP3   OH2 2374   3.329   4.535   0.446
  806TIP3    H1 2375   3.325   4.526   0.541
  806TIP3    H2 2376   3.250   4.489   0.415
  807TIP3   OH2 2377   4.961   6.202   3.126
  807TIP3    H1 2378   4.976   6.107   3.131
  807TIP3    H2 2379   5.006   6.229   3.046
  808TIP3   OH2 2380   6.096   5.518   5.452
  808TIP3    H1 2381   6.084   5.430   5.487
  808TIP3    H2 2382   6.053   5.575   5.515
  809TIP3   OH2 2383   0.227   6.220   4.832
  809TIP3    H1 2384   0.172   6.201   4.908
  809TIP3    H2 2385   0.311   6.180   4.852
  810TIP3   OH2 2386   7.598   6.984   1.164
  810TIP3    H1 2387   7.629   7.046   1.230
  810TIP3    H2 2388   7.619   6.898   1.200
  811TIP3   OH2 2389   6.617   0.163   2.750
  811TIP3    H1 2390   6.694   0.109   2.765
  811TIP3    H2 2391   6.545   0.113   2.786
  812TIP3   OH2 2392   0.398   7.831   3.554
  812TIP3    H1 2393   0.375   7.754   3.606
  812TIP3    H2 2394   0.442   7.796   3.477
  813TIP3   OH2 2395   1.716   4.185   6.656
  813TIP3    H1 2396   1.753   4.260   6.610
  813TIP3    H2 2397   1.691   4.124   6.585
  814TIP3   OH2 2398   3.654   0.153   5.594
  814TIP3    H1 2399   3.604   0.108   5.526
  814TIP3    H2 2400   3.632   0.246   5.583
  815TIP3   OH2 2401   3.369   0.993   1.653
  815TIP3    H1 2402   3.428   1.004   1.727
  815TIP3    H2 2403   3.410   0.925   1.599
  816TIP3   OH2 2404   4.197   5.630   2.600
  816TIP3    H1 2405   4.130   5.630   2.668
  816TIP3    H2 2406   4.196   5.720   2.566
  817TIP3   OH2 2407   4.770   5.161   4.896
  817TIP3    H1 2408   4.833   5.091   4.913
  817TIP3    H2 2409   4.767   5.167   4.801
  818TIP3   OH2 2410   2.692   4.502   1.294
  818TIP3    H1 2411   2.624   4.475   1.356
  818TIP3    H2 2412   2.764   4.441   1.308
  819TIP3   OH2 2413   3.015   6.892   3.009
  819TIP3    H1 2414   3.061   6.855   2.933
  819TIP3    H2 2415   3.046   6.982   3.014
  820TIP3   OH2 2416   3.629   2.301   6.408
  820TIP3    H1 2417   3.721   2.278   6.422
  820TIP3    H2 2418   3.592   2.304   6.496
  821TIP3   OH2 2419   5.927   5.008   4.527
  821TIP3    H1 2420   5.853   4.958   4.560
  821TIP3    H2 2421   5.888   5.075   4.471
  822TIP3   OH2 2422   5.318   2.044   2.303
  822TIP3    H1 2423   5.350   1.994   2.378
  822TIP3    H2 2424   5.315   1.980   2.232
  823TIP3   OH2 2425   1.464   3.050   3.017
  823TIP3    H1 2426   1.420   3.130   2.989
  823TIP3    H2 2427   1.492   3.008   2.935
  824TIP3   OH2 2428   1.352   3.461   1.780
  824TIP3    H1 2429   1.371   3.554   1.789
  824TIP3    H2 2430   1.256   3.456   1.776
  825TIP3   OH2 2431   7.353   1.021   5.082
  825TIP3    H1 2432   7.375   0.961   5.154
  825TIP3    H2 2433   7.333   1.104   5.125
  826TIP3   OH2 2434   1.304   5.842   0.988
  826TIP3    H1 2435   1.312   5.934   0.965
  826TIP3    H2 2436   1.352   5.833   1.070
  827TIP3   OH2 2437   2.553   0.109   1.436
  827TIP3    H1 2438   2.565   0.014   1.436
  827TIP3    H2 2439   2.564   0.135   1.528
  828TIP3   OH2 2440   4.155   3.665   4.508
  828TIP3    H1 2441   4.075   3.685   4.459
  828TIP3    H2 2442   4.223   3.665   4.441
  829TIP3   OH2 2443   0.293   7.494   4.329
  829TIP3    H1 2444   0.282   7.449   4.245
  829TIP3    H2 2445   0.219   7.466   4.382
  830TIP3   OH2 2446   3.211   2.688   4.307
  830TIP3    H1 2447   3.218   2.750   4.379
  830TIP3    H2 2448   3.236   2.604   4.345
  831TIP3   OH2 2449   8.103   7.126   2.672
  831TIP3    H1 2450   8.080   7.218   2.682
  831TIP3    H2 2451   8.023   7.078   2.693
  832TIP3   OH2 2452   7.639   4.525   3.722
  832TIP3    H1 2453   7.621   4.605   3.671
  832TIP3    H2 2454   7.640   4.455   3.657
  833TIP3   OH2 2455   3.401   5.192   5.785
  833TIP3    H1 2456   3.479   5.245   5.769
  833TIP3    H2 2457   3.404   5.125   5.716
  834TIP3   OH2 2458   4.064   3.610   2.713
  834TIP3    H1 2459   4.056   3.522   2.750
  834TIP3    H2 2460   4.054   3.597   2.619
  835TIP3   OH2 2461   7.306   2.715   6.695
  835TIP3    H1 2462   7.381   2.773   6.703
  835TIP3    H2 2463   7.273   2.705   6.784
  836TIP3   OH2 2464   0.247   0.732   3.039
  836TIP3    H1 2465   0.154   0.715   3.050
  836TIP3    H2 2466   0.264   0.809   3.094
  837TIP3   OH2 2467   4.726   5.156   6.400
  837TIP3    H1 2468   4.751   5.115   6.484
  837TIP3    H2 2469   4.777   5.237   6.397
  838TIP3   OH2 2470   7.975   5.544   3.908
  838TIP3    H1 2471   7.884   5.567   3.889
  838TIP3    H2 2472   8.002   5.490   3.835
  839TIP3   OH2 2473   6.025   5.234   6.400
  839TIP3    H1 2474   6.054   5.320   6.368
  839TIP3    H2 2475   5.962   5.205   6.335
  840TIP3   OH2 2476   5.272   1.833   3.047
  840TIP3    H1 2477   5.212   1.908   3.047
  840TIP3    H2 2478   5.228   1.768   2.992
  841TIP3   OH2 2479   4.781   1.604   3.215
  841TIP3    H1 2480   4.731   1.677   3.250
  841TIP3    H2 2481   4.846   1.584   3.282
  842TIP3   OH2 2482   3.123   5.107   1.588
  842TIP3    H1 2483   3.206   5.092   1.542
  842TIP3    H2 2484   3.146   5.096   1.681
  843TIP3   OH2 2485   3.053   5.308   6.439
  843TIP3    H1 2486   2.984   5.274   6.382
  843TIP3    H2 2487   3.008   5.322   6.523
  844TIP3   OH2 2488   7.129   3.124   4.900
  844TIP3    H1 2489   7.097   3.169   4.978
  844TIP3    H2 2490   7.060   3.137   4.835
  845TIP3   OH2 2491   2.435   5.854   5.841
  845TIP3    H1 2492   2.424   5.803   5.921
  845TIP3    H2 2493   2.524   5.889   5.847
  846TIP3   OH2 2494   5.567   0.538   0.293
  846TIP3    H1 2495   5.593   0.587   0.215
  846TIP3    H2 2496   5.489   0.489   0.266
  847TIP3   OH2 2497   1.986   5.559   4.873
  847TIP3    H1 2498   1.898   5.527   4.852
  847TIP3    H2 2499   1.971   5.646   4.911
  848TIP3   OH2 2500   2.682   5.883   5.478
  848TIP3    H1 2501   2.592   5.910   5.497
  848TIP3    H2 2502   2.719   5.955   5.427
  849TIP3   OH2 2503   5.892   1.114   2.646
  849TIP3    H1 2504   5.843   1.113   2.728
  849TIP3    H2 2505   5.881   1.026   2.610
  850TIP3   OH2 2506   7.707   4.272   2.126
  850TIP3    H1 2507   7.750   4.196   2.088
  850TIP3    H2 2508   7.768   4.303   2.193
  851TIP3   OH2 2509   4.322   3.700   4.309
  851TIP3    H1 2510   4.264   3.755   4.256
  851TIP3    H2 2511   4.398   3.756   4.326
  852TIP3   OH2 2512   0.474   4.077   6.190
  852TIP3    H1 2513   0.438   3.996   6.227
  852TIP3    H2 2514   0.563   4.080   6.225
  853TIP3   OH2 2515   8.250   3.249   2.944
  853TIP3    H1 2516   8.286   3.337   2.934
  853TIP3    H2 2517   8.224   3.223   2.856
  854TIP3   OH2 2518   0.845   7.758   1.675
  854TIP3    H1 2519   0.933   7.763   1.640
  854TIP3    H2 2520   0.793   7.817   1.620
  855TIP3   OH2 2521   0.038   2.363   3.405
  855TIP3    H1 2522   0.062   2.337   3.494
  855TIP3    H2 2523   0.119   2.395   3.366
  856TIP3   OH2 2524   3.502   7.762   5.063
  856TIP3    H1 2525   3.471   7.794   4.978
  856TIP3    H2 2526   3.424   7.760   5.118
  857TIP3   OH2 2527   4.212   7.719   6.382
  857TIP3    H1 2528   4.286   7.775   6.357
  857TIP3    H2 2529   4.137   7.758   6.338
  858TIP3   OH2 2530   5.885   1.155   3.080
  858TIP3    H1 2531   5.810   1.108   3.117
  858TIP3    H2 2532   5.869   1.247   3.103
  859TIP3   OH2 2533   4.870   6.148   6.509
  859TIP3    H1 2534   4.862   6.172   6.417
  859TIP3    H2 2535   4.841   6.225   6.557
  860TIP3   OH2 2536   3.962   4.839   6.448
  860TIP3    H1 2537   4.016   4.792   6.511
  860TIP3    H2 2538   3.877   4.795   6.452
  861TIP3   OH2 2539   3.058   7.623   0.923
  861TIP3    H1 2540   3.098   7.545   0.885
  861TIP3    H2 2541   3.126   7.690   0.917
  862TIP3   OH2 2542   6.424   7.781   4.554
  862TIP3    H1 2543   6.486   7.774   4.481
  862TIP3    H2 2544   6.343   7.811   4.512
  863TIP3   OH2 2545   7.588   5.198   2.626
  863TIP3    H1 2546   7.639   5.119   2.607
  863TIP3    H2 2547   7.642   5.249   2.686
  864TIP3   OH2 2548   5.528   0.556   6.679
  864TIP3    H1 2549   5.478   0.479   6.704
  864TIP3    H2 2550   5.577   0.528   6.601
  865TIP3   OH2 2551   3.320   7.604   6.656
  865TIP3    H1 2552   3.398   7.646   6.692
  865TIP3    H2 2553   3.307   7.645   6.571
  866TIP3   OH2 2554   5.053   4.601   4.124
  866TIP3    H1 2555   4.994   4.672   4.097
  866TIP3    H2 2556   5.033   4.587   4.217
  867TIP3   OH2 2557   6.232   0.587   2.884
  867TIP3    H1 2558   6.194   0.593   2.972
  867TIP3    H2 2559   6.167   0.537   2.834
  868TIP3   OH2 2560   3.825   6.207   0.824
  868TIP3    H1 2561   3.734   6.218   0.795
  868TIP3    H2 2562   3.873   6.279   0.783
  869TIP3   OH2 2563   5.966   7.672   0.472
  869TIP3    H1 2564   5.949   7.646   0.562
  869TIP3    H2 2565   6.048   7.629   0.449
  870TIP3   OH2 2566   3.617   1.152   1.444
  870TIP3    H1 2567   3.566   1.175   1.367
  870TIP3    H2 2568   3.565   1.186   1.518
  871TIP3   OH2 2569   8.007   5.506   4.586
  871TIP3    H1 2570   8.100   5.487   4.602
  871TIP3    H2 2571   7.979   5.553   4.664
  872TIP3   OH2 2572   0.123   7.054   3.984
  872TIP3    H1 2573   0.125   7.129   3.925
  872TIP3    H2 2574   0.040   7.063   4.031
  873TIP3   OH2 2575   7.179   1.976   0.416
  873TIP3    H1 2576   7.139   2.063   0.426
  873TIP3    H2 2577   7.116   1.926   0.364
  874TIP3   OH2 2578   1.568   6.246   4.348
  874TIP3    H1 2579   1.603   6.214   4.430
  874TIP3    H2 2580   1.561   6.169   4.292
  875TIP3   OH2 2581   5.930   3.772   3.812
  875TIP3    H1 2582   5.903   3.680   3.819
  875TIP3    H2 2583   6.004   3.780   3.872
  876TIP3   OH2 2584   4.207   1.883   1.334
  876TIP3    H1 2585   4.149   1.900   1.260
  876TIP3    H2 2586   4.265   1.812   1.304
  877TIP3   OH2 2587   3.377   3.455   5.680
  877TIP3    H1 2588   3.370   3.409   5.764
  877TIP3    H2 2589   3.289   3.447   5.642
  878TIP3   OH2 2590   2.798   5.503   3.813
  878TIP3    H1 2591   2.777   5.440   3.882
  878TIP3    H2 2592   2.734   5.573   3.823
  879TIP3   OH2 2593   0.423   7.625   5.610
  879TIP3    H1 2594   0.385   7.622   5.698
  879TIP3    H2 2595   0.406   7.714   5.580
  880TIP3   OH2 2596   2.858   4.360   2.293
  880TIP3    H1 2597   2.943   4.316   2.299
  880TIP3    H2 2598   2.859   4.423   2.366
  881TIP3   OH2 2599   4.358   4.450   3.310
  881TIP3    H1 2600   4.390   4.397   3.237
  881TIP3    H2 2601   4.285   4.400   3.347
  882TIP3   OH2 2602   4.789   2.953   0.930
  882TIP3    H1 2603   4.709   2.981   0.975
  882TIP3    H2 2604   4.839   2.906   0.997
  883TIP3   OH2 2605   3.409   4.312   2.895
  883TIP3    H1 2606   3.478   4.276   2.839
  883TIP3    H2 2607   3.441   4.398   2.921
  884TIP3   OH2 2608   4.271   5.135   5.617
  884TIP3    H1 2609   4.354   5.167   5.584
  884TIP3    H2 2610   4.294   5.068   5.681
  885TIP3   OH2 2611   6.941   2.124   6.029
  885TIP3    H1 2612   7.030   2.154   6.049
  885TIP3    H2 2613   6.916   2.070   6.104
  886TIP3   OH2 2614   6.346   3.456   4.499
  886TIP3    H1 2615   6.347   3.385   4.434
  886TIP3    H2 2616   6.347   3.536   4.447
  887TIP3   OH2 2617   5.977   7.559   4.544
  887TIP3    H1 2618   5.892   7.574   4.586
  887TIP3    H2 2619   6.010   7.647   4.525
  888TIP3   OH2 2620   0.182   2.140   3.030
  888TIP3    H1 2621   0.158   2.201   2.960
  888TIP3    H2 2622   0.226   2.193   3.096
  889TIP3   OH2 2623   6.030   4.169   1.511
  889TIP3    H1 2624   5.951   4.183   1.458
  889TIP3    H2 2625   6.033   4.074   1.523
  890TIP3   OH2 2626   5.302   4.816   5.004
  890TIP3    H1 2627   5.267   4.762   5.075
  890TIP3    H2 2628   5.226   4.839   4.951
  891TIP3   OH2 2629   7.897   1.283   4.174
  891TIP3    H1 2630   7.956   1.356   4.194
  891TIP3    H2 2631   7.900   1.228   4.252
  892TIP3   OH2 2632   2.402   7.161   1.294
  892TIP3    H1 2633   2.404   7.203   1.209
  892TIP3    H2 2634   2.453   7.081   1.283
  893TIP3   OH2 2635   6.007   6.847   1.988
  893TIP3    H1 2636   5.938   6.893   2.035
  893TIP3    H2 2637   6.088   6.887   2.021
  894TIP3   OH2 2638   6.350   4.747   4.908
  894TIP3    H1 2639   6.397   4.810   4.854
  894TIP3    H2 2640   6.286   4.707   4.849
  895TIP3   OH2 2641   6.172   4.663   4.320
  895TIP3    H1 2642   6.245   4.722   4.303
  895TIP3    H2 2643   6.193   4.584   4.270
  896TIP3   OH2 2644   1.933   6.985   3.185
  896TIP3    H1 2645   1.868   6.933   3.137
  896TIP3    H2 2646   2.017   6.959   3.147
  897TIP3   OH2 2647   5.771   1.481   4.954
  897TIP3    H1 2648   5.821   1.529   4.888
  897TIP3    H2 2649   5.684   1.521   4.951
  898TIP3   OH2 2650   2.744   1.872   0.238
  898TIP3    H1 2651   2.706   1.790   0.268
  898TIP3    H2 2652   2.669   1.929   0.223
  899TIP3   OH2 2653   2.636   0.979   4.116
  899TIP3    H1 2654   2.666   1.036   4.186
  899TIP3    H2 2655   2.587   0.910   4.160
  900TIP3   OH2 2656   2.072   1.799   3.092
  900TIP3    H1 2657   2.154   1.835   3.057
  900TIP3    H2 2658   2.075   1.706   3.069
  901TIP3   OH2 2659   7.622   7.663   1.341
  901TIP3    H1 2660   7.621   7.730   1.273
  901TIP3    H2 2661   7.672   7.702   1.413
  902TIP3   OH2 2662   4.025   5.962   0.705
  902TIP3    H1 2663   3.990   5.905   0.774
  902TIP3    H2 2664   4.115   5.931   0.692
  903TIP3   OH2 2665   3.220   4.345   0.657
  903TIP3    H1 2666   3.144   4.391   0.693
  903TIP3    H2 2667   3.191   4.255   0.645
  904TIP3   OH2 2668   1.314   0.034   5.279
  904TIP3    H1 2669   1.392   0.023   5.333
  904TIP3    H2 2670   1.262   0.100   5.326
  905TIP3   OH2 2671   1.951   6.488   4.735
  905TIP3    H1 2672   1.981   6.407   4.695
  905TIP3    H2 2673   1.900   6.531   4.666
  906TIP3   OH2 2674   6.754   0.881   4.091
  906TIP3    H1 2675   6.738   0.972   4.067
  906TIP3    H2 2676   6.703   0.867   4.171
  907TIP3   OH2 2677   1.830   0.617   3.865
  907TIP3    H1 2678   1.842   0.538   3.918
  907TIP3    H2 2679   1.766   0.670   3.913
  908TIP3   OH2 2680   6.976   3.807   3.273
  908TIP3    H1 2681   6.915   3.866   3.230
  908TIP3    H2 2682   7.008   3.750   3.203
  909TIP3   OH2 2683   7.018   4.076   5.004
  909TIP3    H1 2684   7.051   4.003   5.057
  909TIP3    H2 2685   7.079   4.083   4.931
  910TIP3   OH2 2686   2.725   3.120   0.853
  910TIP3    H1 2687   2.800   3.083   0.899
  910TIP3    H2 2688   2.685   3.178   0.918
  911TIP3   OH2 2689   2.936   4.047   5.373
  911TIP3    H1 2690   3.005   3.994   5.334
  911TIP3    H2 2691   2.917   4.113   5.308
  912TIP3   OH2 2692   7.482   2.736   2.410
  912TIP3    H1 2693   7.475   2.644   2.435
  912TIP3    H2 2694   7.397   2.774   2.432
  913TIP3   OH2 2695   5.447   0.252   6.088
  913TIP3    H1 2696   5.503   0.312   6.040
  913TIP3    H2 2697   5.444   0.174   6.032
  914TIP3   OH2 2698   3.885   5.454   1.287
  914TIP3    H1 2699   3.815   5.519   1.299
  914TIP3    H2 2700   3.964   5.499   1.316
  915TIP3   OH2 2701   0.743   6.982   5.742
  915TIP3    H1 2702   0.812   7.017   5.798
  915TIP3    H2 2703   0.689   6.929   5.800
  916TIP3   OH2 2704   4.002   3.980   3.697
  916TIP3    H1 2705   4.004   4.069   3.661
  916TIP3    H2 2706   4.082   3.973   3.749
  917TIP3   OH2 2707   4.161   2.922   1.051
  917TIP3    H1 2708   4.233   2.957   1.103
  917TIP3    H2 2709   4.149   2.833   1.084
  918TIP3   OH2 2710   4.765   4.992   3.085
  918TIP3    H1 2711   4.847   4.999   3.134
  918TIP3    H2 2712   4.792   4.980   2.994
  919TIP3   OH2 2713   6.298   6.450   6.036
  919TIP3    H1 2714   6.266   6.423   6.122
  919TIP3    H2 2715   6.357   6.380   6.009
  920TIP3   OH2 2716   3.416   3.633   4.720
  920TIP3    H1 2717   3.479   3.705   4.724
  920TIP3    H2 2718   3.350   3.661   4.657
  921TIP3   OH2 2719   0.598   7.563   0.255
  921TIP3    H1 2720   0.671   7.508   0.228
  921TIP3    H2 2721   0.541   7.504   0.305
  922TIP3   OH2 2722   4.648   6.907   3.501
  922TIP3    H1 2723   4.735   6.879   3.474
  922TIP3    H2 2724   4.589   6.844   3.461
  923TIP3   OH2 2725   5.066   3.648   1.063
  923TIP3    H1 2726   4.992   3.604   1.022
  923TIP3    H2 2727   5.026   3.711   1.124
  924TIP3   OH2 2728   2.138   3.484   5.978
  924TIP3    H1 2729   2.085   3.561   5.956
  924TIP3    H2 2730   2.223   3.520   6.004
  925TIP3   OH2 2731   7.390   6.224   2.027
  925TIP3    H1 2732   7.305   6.180   2.033
  925TIP3    H2 2733   7.372   6.304   1.977
  926TIP3   OH2 2734   6.180   1.358   5.687
  926TIP3    H1 2735   6.245   1.389   5.624
  926TIP3    H2 2736   6.166   1.266   5.665
  927TIP3   OH2 2737   5.399   1.169   5.662
  927TIP3    H1 2738   5.380   1.232   5.591
  927TIP3    H2 2739   5.330   1.103   5.654
  928TIP3   OH2 2740   6.712   3.935   0.354
  928TIP3    H1 2741   6.626   3.931   0.311
  928TIP3    H2 2742   6.739   4.027   0.343
  929TIP3   OH2 2743   2.472   6.549   4.042
  929TIP3    H1 2744   2.512   6.626   4.083
  929TIP3    H2 2745   2.523   6.475   4.075
  930TIP3   OH2 2746   5.363   4.000   4.957
  930TIP3    H1 2747   5.272   4.029   4.948
  930TIP3    H2 2748   5.365   3.915   4.912
  931TIP3   OH2 2749   7.343   6.055   4.851
  931TIP3    H1 2750   7.422   6.103   4.823
  931TIP3    H2 2751   7.353   6.046   4.945
  932TIP3   OH2 2752   7.876   4.343   0.181
  932TIP3    H1 2753   7.888   4.431   0.146
  932TIP3    H2 2754   7.796   4.311   0.140
  933TIP3   OH2 2755   3.441   6.585   0.689
  933TIP3    H1 2756   3.404   6.602   0.776
  933TIP3    H2 2757   3.402   6.653   0.633
  934TIP3   OH2 2758   1.396   4.141   0.744
  934TIP3    H1 2759   1.444   4.224   0.739
  934TIP3    H2 2760   1.428   4.100   0.824
  935TIP3   OH2 2761   2.444   2.523   1.251
  935TIP3    H1 2762   2.470   2.444   1.299
  935TIP3    H2 2763   2.471   2.507   1.161
  936TIP3   OH2 2764   2.720   1.113   3.501
  936TIP3    H1 2765   2.748   1.065   3.423
  936TIP3    H2 2766   2.678   1.192   3.467
  937TIP3   OH2 2767   4.420   0.204   5.441
  937TIP3    H1 2768   4.327   0.198   5.419
  937TIP3    H2 2769   4.429   0.289   5.483
  938TIP3   OH2 2770   4.192   3.822   6.603
  938TIP3    H1 2771   4.159   3.770   6.529
  938TIP3    H2 2772   4.181   3.764   6.679
  939TIP3   OH2 2773   5.551   7.578   2.566
  939TIP3    H1 2774   5.622   7.637   2.539
  939TIP3    H2 2775   5.495   7.632   2.621
  940TIP3   OH2 2776   3.372   0.170   3.061
  940TIP3    H1 2777   3.406   0.179   3.150
  940TIP3    H2 2778   3.277   0.178   3.071
  941TIP3   OH2 2779   4.426   5.195   2.089
  941TIP3    H1 2780   4.427   5.185   1.993
  941TIP3    H2 2781   4.493   5.134   2.120
  942TIP3   OH2 2782   1.236   3.230   0.757
  942TIP3    H1 2783   1.233   3.198   0.667
  942TIP3    H2 2784   1.217   3.324   0.750
  943TIP3   OH2 2785   0.694   1.056   1.476
  943TIP3    H1 2786   0.776   1.020   1.510
  943TIP3    H2 2787   0.676   1.003   1.398
  944TIP3   OH2 2788   4.894   6.387   1.561
  944TIP3    H1 2789   4.805   6.352   1.558
  944TIP3    H2 2790   4.908   6.409   1.653
  945TIP3   OH2 2791   4.621   3.346   5.490
  945TIP3    H1 2792   4.661   3.382   5.569
  945TIP3    H2 2793   4.693   3.300   5.446
  946TIP3   OH2 2794   2.663   6.764   6.187
  946TIP3    H1 2795   2.719   6.739   6.260
  946TIP3    H2 2796   2.661   6.686   6.130
  947TIP3   OH2 2797   4.305   7.725   6.673
  947TIP3    H1 2798   4.272   7.727   6.583
  947TIP3    H2 2799   4.348   7.810   6.685
  948TIP3   OH2 2800   8.034   2.263   4.603
  948TIP3    H1 2801   8.075   2.348   4.590
  948TIP3    H2 2802   8.105   2.200   4.587
  949TIP3   OH2 2803   5.424   7.642   2.261
  949TIP3    H1 2804   5.500   7.689   2.295
  949TIP3    H2 2805   5.391   7.698   2.190
  950TIP3   OH2 2806   0.122   4.004   6.007
  950TIP3    H1 2807   0.174   3.952   5.946
  950TIP3    H2 2808   0.076   3.940   6.061
  951TIP3   OH2 2809   0.461   6.210   0.763
  951TIP3    H1 2810   0.382   6.175   0.721
  951TIP3    H2 2811   0.533   6.166   0.718
  952TIP3   OH2 2812   1.406   0.721   6.692
  952TIP3    H1 2813   1.359   0.792   6.736
  952TIP3    H2 2814   1.365   0.641   6.724
  953TIP3   OH2 2815   0.266   5.812   0.526
  953TIP3    H1 2816   0.213   5.737   0.553
  953TIP3    H2 2817   0.356   5.781   0.529
  954TIP3   OH2 2818   3.828   3.625   5.867
  954TIP3    H1 2819   3.746   3.590   5.900
  954TIP3    H2 2820   3.858   3.687   5.934
  955TIP3   OH2 2821   6.433   2.348   4.211
  955TIP3    H1 2822   6.363   2.298   4.253
  955TIP3    H2 2823   6.480   2.389   4.284
  956TIP3   OH2 2824   2.503   4.636   6.176
  956TIP3    H1 2825   2.471   4.674   6.094
  956TIP3    H2 2826   2.547   4.555   6.150
  957TIP3   OH2 2827   6.417   3.099   1.473
  957TIP3    H1 2828   6.354   3.048   1.422
  957TIP3    H2 2829   6.390   3.086   1.564
  958TIP3   OH2 2830   3.552   0.525   0.400
  958TIP3    H1 2831   3.533   0.532   0.306
  958TIP3    H2 2832   3.580   0.613   0.425
  959TIP3   OH2 2833   8.071   3.257   0.093
  959TIP3    H1 2834   8.035   3.169   0.102
  959TIP3    H2 2835   8.079   3.289   0.183
  960TIP3   OH2 2836   6.061   4.557   6.716
  960TIP3    H1 2837   5.971   4.559   6.746
  960TIP3    H2 2838   6.107   4.502   6.780
  961TIP3   OH2 2839   6.890   1.282   1.216
  961TIP3    H1 2840   6.931   1.364   1.243
  961TIP3    H2 2841   6.839   1.304   1.139
  962TIP3   OH2 2842   3.218   2.470   6.276
  962TIP3    H1 2843   3.280   2.418   6.224
  962TIP3    H2 2844   3.136   2.465   6.228
  963TIP3   OH2 2845   3.216   3.836   3.379
  963TIP3    H1 2846   3.214   3.742   3.362
  963TIP3    H2 2847   3.132   3.868   3.347
  964TIP3   OH2 2848   5.955   3.934   1.271
  964TIP3    H1 2849   5.876   3.982   1.246
  964TIP3    H2 2850   5.924   3.844   1.286
  965TIP3   OH2 2851   3.697   3.553   4.910
  965TIP3    H1 2852   3.774   3.589   4.954
  965TIP3    H2 2853   3.626   3.612   4.935
  966TIP3   OH2 2854   4.979   1.639   3.401
  966TIP3    H1 2855   5.000   1.718   3.352
  966TIP3    H2 2856   5.044   1.637   3.471
  967TIP3   OH2 2857   8.214   5.269   6.118
  967TIP3    H1 2858   8.175   5.295   6.201
  967TIP3    H2 2859   8.275   5.199   6.140
  968TIP3   OH2 2860   3.542   7.587   0.375
  968TIP3    H1 2861   3.623   7.627   0.345
  968TIP3    H2 2862   3.493   7.570   0.294
  969TIP3   OH2 2863   4.137   5.497   6.133
  969TIP3    H1 2864   4.111   5.505   6.041
  969TIP3    H2 2865   4.209   5.435   6.132
  970TIP3   OH2 2866   6.012   4.976   5.027
  970TIP3    H1 2867   5.984   4.968   5.118
  970TIP3    H2 2868   5.963   5.051   4.992
  971TIP3   OH2 2869   7.780   7.798   1.509
  971TIP3    H1 2870   7.783   7.754   1.594
  971TIP3    H2 2871   7.860   7.849   1.506
  972TIP3   OH2 2872   1.023   3.811   6.611
  972TIP3    H1 2873   1.116   3.834   6.611
  972TIP3    H2 2874   1.013   3.752   6.686
  973TIP3   OH2 2875   2.101   4.978   0.747
  973TIP3    H1 2876   2.141   5.039   0.810
  973TIP3    H2 2877   2.007   4.990   0.758
  974TIP3   OH2 2878   7.016   4.284   0.614
  974TIP3    H1 2879   7.082   4.230   0.658
  974TIP3    H2 2880   6.947   4.222   0.589
  975TIP3   OH2 2881   1.370   6.048   6.486
  975TIP3    H1 2882   1.298   6.108   6.467
  975TIP3    H2 2883   1.349   5.969   6.437
  976TIP3   OH2 2884   5.260   6.408   6.423
  976TIP3    H1 2885   5.275   6.471   6.353
  976TIP3    H2 2886   5.239   6.327   6.378
  977TIP3   OH2 2887   2.292   5.746   2.652
  977TIP3    H1 2888   2.248   5.707   2.728
  977TIP3    H2 2889   2.264   5.692   2.578
  978TIP3   OH2 2890   5.536   1.287   3.640
  978TIP3    H1 2891   5.548   1.233   3.718
  978TIP3    H2 2892   5.569   1.233   3.569
  979TIP3   OH2 2893   6.771   0.434   5.454
  979TIP3    H1 2894   6.703   0.371   5.478
  979TIP3    H2 2895   6.839   0.423   5.520
  980TIP3   OH2 2896   5.561   1.961   5.376
  980TIP3    H1 2897   5.611   1.956   5.457
  980TIP3    H2 2898   5.627   1.974   5.308
  981TIP3   OH2 2899   7.803   2.917   4.656
  981TIP3    H1 2900   7.825   2.908   4.749
  981TIP3    H2 2901   7.858   2.852   4.612
  982TIP3   OH2 2902   0.584   7.265   0.952
  982TIP3    H1 2903   0.602   7.178   0.988
  982TIP3    H2 2904   0.668   7.312   0.959
  983TIP3   OH2 2905   2.142   1.597   1.104
  983TIP3    H1 2906   2.070   1.564   1.051
  983TIP3    H2 2907   2.117   1.688   1.123
  984TIP3   OH2 2908   4.118   6.395   5.392
  984TIP3    H1 2909   4.028   6.367   5.375
  984TIP3    H2 2910   4.110   6.468   5.453
  985TIP3   OH2 2911   2.660   1.425   5.961
  985TIP3    H1 2912   2.605   1.434   6.038
  985TIP3    H2 2913   2.746   1.459   5.988
  986TIP3   OH2 2914   3.395   4.717   6.673
  986TIP3    H1 2915   3.437   4.738   6.757
  986TIP3    H2 2916   3.393   4.801   6.626
  987TIP3   OH2 2917   6.865   3.489   6.512
  987TIP3    H1 2918   6.814   3.569   6.498
  987TIP3    H2 2919   6.872   3.450   6.425
  988TIP3   OH2 2920   6.114   4.506   2.067
  988TIP3    H1 2921   6.158   4.536   2.146
  988TIP3    H2 2922   6.040   4.454   2.100
  989TIP3   OH2 2923   1.640   2.697   2.513
  989TIP3    H1 2924   1.599   2.782   2.501
  989TIP3    H2 2925   1.616   2.647   2.435
  990TIP3   OH2 2926   1.103   4.336   3.658
  990TIP3    H1 2927   1.036   4.402   3.637
  990TIP3    H2 2928   1.131   4.358   3.746
  991TIP3   OH2 2929   7.869   0.884   0.680
  991TIP3    H1 2930   7.917   0.966   0.678
  991TIP3    H2 2931   7.874   0.851   0.590
  992TIP3   OH2 2932   1.886   7.599   0.729
  992TIP3    H1 2933   1.895   7.504   0.718
  992TIP3    H2 2934   1.793   7.617   0.712
  993TIP3   OH2 2935   2.566   1.067   4.866
  993TIP3    H1 2936   2.520   1.129   4.810
  993TIP3    H2 2937   2.567   1.109   4.952
  994TIP3   OH2 2938   4.324   0.438   5.578
  994TIP3    H1 2939   4.282   0.477   5.501
  994TIP3    H2 2940   4.262   0.453   5.649
  995TIP3   OH2 2941   4.654   5.015   2.174
  995TIP3    H1 2942   4.679   5.013   2.267
  995TIP3    H2 2943   4.729   4.976   2.129
  996TIP3   OH2 2944   5.015   4.495   4.922
  996TIP3    H1 2945   5.033   4.532   5.008
  996TIP3    H2 2946   4.920   4.485   4.920
  997TIP3   OH2 2947   2.446   7.299   3.062
  997TIP3    H1 2948   2.519   7.238   3.053
  997TIP3    H2 2949   2.410   7.307   2.973
  998TIP3   OH2 2950   6.845   5.791   4.322
  998TIP3    H1 2951   6.898   5.850   4.375
  998TIP3    H2 2952   6.847   5.708   4.369
  999TIP3   OH2 2953   4.874   2.157   2.302
  999TIP3    H1 2954   4.966   2.182   2.295
  999TIP3    H2 2955   4.840   2.212   2.373
 1000TIP3   OH2 2956   2.050   6.109   1.284
 1000TIP3    H1 2957   2.074   6.064   1.365
 1000TIP3    H2 2958   2.129   6.106   1.230
 1001TIP3   OH2 2959   8.246   0.122   1.355
 1001TIP3    H1 2960   8.210   0.209   1.375
 1001TIP3    H2 2961   8.341   0.132   1.367
 1002TIP3   OH2 2962   6.292   6.214   3.640
 1002TIP3    H1 2963   6.292   6.272   3.564
 1002TIP3    H2 2964   6.384   6.199   3.659
 1003TIP3   OH2 2965   8.250   0.076   6.270
 1003TIP3    H1 2966   8.337   0.043   6.292
 1003TIP3    H2 2967   8.239   0.153   6.325
 1004TIP3   OH2 2968   7.255   7.116   1.372
 1004TIP3    H1 2969   7.333   7.150   1.415
 1004TIP3    H2 2970   7.288   7.071   1.294
 1005TIP3   OH2 2971   6.546   3.285   6.668
 1005TIP3    H1 2972   6.609   3.275   6.596
 1005TIP3    H2 2973   6.585   3.353   6.724
 1006TIP3   OH2 2974   5.521   3.458   3.729
 1006TIP3    H1 2975   5.614   3.450   3.707
 1006TIP3    H2 2976   5.519   3.472   3.823
 1007TIP3   OH2 2977   7.267   7.667   4.081
 1007TIP3    H1 2978   7.179   7.633   4.064
 1007TIP3    H2 2979   7.305   7.605   4.144
 1008TIP3   OH2 2980   0.946   3.027   1.700
 1008TIP3    H1 2981   0.948   2.943   1.654
 1008TIP3    H2 2982   1.026   3.027   1.752
 1009TIP3   OH2 2983   7.585   1.351   1.808
 1009TIP3    H1 2984   7.612   1.412   1.876
 1009TIP3    H2 2985   7.565   1.407   1.733
 1010TIP3   OH2 2986   0.962   2.679   2.889
 1010TIP3    H1 2987   1.012   2.665   2.969
 1010TIP3    H2 2988   0.895   2.611   2.890
 1011TIP3   OH2 2989   7.456   1.038   2.340
 1011TIP3    H1 2990   7.395   0.974   2.305
 1011TIP3    H2 2991   7.529   1.039   2.278
 1012TIP3   OH2 2992   4.784   2.349   5.530
 1012TIP3    H1 2993   4.783   2.269   5.582
 1012TIP3    H2 2994   4.737   2.326   5.450
 1013TIP3   OH2 2995   4.476   5.685   2.419
 1013TIP3    H1 2996   4.474   5.612   2.482
 1013TIP3    H2 2997   4.546   5.742   2.451
 1014TIP3   OH2 2998   1.545   6.866   3.317
 1014TIP3    H1 2999   1.506   6.886   3.232
 1014TIP3    H2 3000   1.478   6.889   3.381
 1015TIP3   OH2 3001   7.002   6.205   5.793
 1015TIP3    H1 3002   6.995   6.112   5.774
 1015TIP3    H2 3003   7.014   6.210   5.888
 1016TIP3   OH2 3004   1.628   6.581   0.615
 1016TIP3    H1 3005   1.604   6.491   0.638
 1016TIP3    H2 3006   1.686   6.610   0.686
 1017TIP3   OH2 3007   3.485   4.539   0.903
 1017TIP3    H1 3008   3.575   4.569   0.892
 1017TIP3    H2 3009   3.487   4.447   0.877
 1018TIP3   OH2 3010   1.750   3.260   6.216
 1018TIP3    H1 3011   1.843   3.279   6.207
 1018TIP3    H2 3012   1.747   3.171   6.249
 1019TIP3   OH2 3013   7.387   0.730   3.632
 1019TIP3    H1 3014   7.449   0.738   3.559
 1019TIP3    H2 3015   7.430   0.776   3.704
 1020TIP3   OH2 3016   2.824   2.641   3.731
 1020TIP3    H1 3017   2.737   2.652   3.770
 1020TIP3    H2 3018   2.873   2.591   3.797
 1021TIP3   OH2 3019   2.432   5.211   1.524
 1021TIP3    H1 3020   2.476   5.183   1.604
 1021TIP3    H2 3021   2.341   5.222   1.549
 1022TIP3   OH2 3022   5.335   3.360   4.847
 1022TIP3    H1 3023   5.405   3.405   4.799
 1022TIP3    H2 3024   5.326   3.276   4.801
 1023TIP3   OH2 3025   3.638   2.557   2.959
 1023TIP3    H1 3026   3.682   2.506   2.890
 1023TIP3    H2 3027   3.588   2.492   3.008
 1024TIP3   OH2 3028   4.528   5.369   1.054
 1024TIP3    H1 3029   4.623   5.357   1.062
 1024TIP3    H2 3030   4.498   5.294   1.004
 1025TIP3   OH2 3031   2.793   7.074   3.850
 1025TIP3    H1 3032   2.768   7.017   3.778
 1025TIP3    H2 3033   2.810   7.158   3.809
 1026TIP3   OH2 3034   6.791   1.554   2.231
 1026TIP3    H1 3035   6.768   1.611   2.158
 1026TIP3    H2 3036   6.733   1.582   2.302
 1027TIP3   OH2 3037   2.414   6.073   4.637
 1027TIP3    H1 3038   2.365   5.991   4.635
 1027TIP3    H2 3039   2.465   6.072   4.556
 1028TIP3   OH2 3040   5.840   5.157   2.604
 1028TIP3    H1 3041   5.900   5.142   2.677
 1028TIP3    H2 3042   5.754   5.133   2.638
 1029TIP3   OH2 3043   4.852   5.147   1.139
 1029TIP3    H1 3044   4.879   5.061   1.109
 1029TIP3    H2 3045   4.924   5.175   1.197
 1030TIP3   OH2 3046   3.419   6.230   5.342
 1030TIP3    H1 3047   3.461   6.167   5.401
 1030TIP3    H2 3048   3.418   6.312   5.392
 1031TIP3   OH2 3049   5.790   0.502   0.452
 1031TIP3    H1 3050   5.825   0.571   0.509
 1031TIP3    H2 3051   5.703   0.532   0.427
 1032TIP3   OH2 3052   1.075   6.712   1.823
 1032TIP3    H1 3053   1.022   6.776   1.776
 1032TIP3    H2 3054   1.012   6.664   1.878
 1033TIP3   OH2 3055   7.121   6.094   6.558
 1033TIP3    H1 3056   7.133   6.058   6.470
 1033TIP3    H2 3057   7.183   6.167   6.562
 1034TIP3   OH2 3058   5.933   5.375   4.719
 1034TIP3    H1 3059   5.991   5.392   4.645
 1034TIP3    H2 3060   5.848   5.357   4.679
 1035TIP3   OH2 3061   3.963   4.605   5.348
 1035TIP3    H1 3062   4.032   4.540   5.338
 1035TIP3    H2 3063   4.005   4.688   5.329
 1036TIP3   OH2 3064  -0.007   0.194   4.498
 1036TIP3    H1 3065   0.083   0.169   4.519
 1036TIP3    H2 3066  -0.027   0.146   4.417
 1037TIP3   OH2 3067   7.719   5.264   2.271
 1037TIP3    H1 3068   7.769   5.313   2.336
 1037TIP3    H2 3069   7.632   5.255   2.310
 1038TIP3   OH2 3070   0.557   5.180   5.973
 1038TIP3    H1 3071   0.527   5.092   5.950
 1038TIP3    H2 3072   0.486   5.238   5.945
 1039TIP3   OH2 3073   5.147   0.560   3.016
 1039TIP3    H1 3074   5.220   0.566   3.078
 1039TIP3    H2 3075   5.144   0.467   2.992
 1040TIP3   OH2 3076   3.127   7.745   2.799
 1040TIP3    H1 3077   3.214   7.762   2.763
 1040TIP3    H2 3078   3.144   7.717   2.889
 1041TIP3   OH2 3079   3.146   4.849   3.790
 1041TIP3    H1 3080   3.121   4.798   3.867
 1041TIP3    H2 3081   3.241   4.858   3.796
 1042TIP3   OH2 3082   3.401   5.381   5.512
 1042TIP3    H1 3083   3.352   5.301   5.528
 1042TIP3    H2 3084   3.352   5.425   5.442
 1043TIP3   OH2 3085   0.231   5.059   4.240
 1043TIP3    H1 3086   0.144   5.094   4.221
 1043TIP3    H2 3087   0.267   5.036   4.154
 1044TIP3   OH2 3088   4.300   5.843   2.278
 1044TIP3    H1 3089   4.359   5.806   2.343
 1044TIP3    H2 3090   4.301   5.779   2.206
 1045TIP3   OH2 3091   7.659   7.643   4.572
 1045TIP3    H1 3092   7.708   7.719   4.540
 1045TIP3    H2 3093   7.642   7.662   4.664
 1046TIP3   OH2 3094   1.622   4.973   4.999
 1046TIP3    H1 3095   1.552   5.036   4.984
 1046TIP3    H2 3096   1.615   4.911   4.926
 1047TIP3   OH2 3097   0.571   4.555   1.141
 1047TIP3    H1 3098   0.612   4.609   1.073
 1047TIP3    H2 3099   0.562   4.469   1.100
 1048TIP3   OH2 3100   2.684   7.478   3.559
 1048TIP3    H1 3101   2.647   7.432   3.483
 1048TIP3    H2 3102   2.689   7.570   3.530
 1049TIP3   OH2 3103   0.758   6.276   1.058
 1049TIP3    H1 3104   0.742   6.237   1.144
 1049TIP3    H2 3105   0.683   6.332   1.043
 1050TIP3   OH2 3106   4.003   2.066   4.829
 1050TIP3    H1 3107   4.084   2.047   4.877
 1050TIP3    H2 3108   4.004   2.161   4.817
 1051TIP3   OH2 3109   8.084   0.527   3.627
 1051TIP3    H1 3110   8.125   0.501   3.545
 1051TIP3    H2 3111   8.025   0.455   3.648
 1052TIP3   OH2 3112   3.145   7.596   3.965
 1052TIP3    H1 3113   3.151   7.501   3.956
 1052TIP3    H2 3114   3.132   7.610   4.059
 1053TIP3   OH2 3115   3.524   4.034   2.988
 1053TIP3    H1 3116   3.460   3.982   3.036
 1053TIP3    H2 3117   3.488   4.122   2.988
 1054TIP3   OH2 3118   3.885   5.066   3.698
 1054TIP3    H1 3119   3.926   4.987   3.733
 1054TIP3    H2 3120   3.949   5.136   3.717
 1055TIP3   OH2 3121   1.725   0.442   2.212
 1055TIP3    H1 3122   1.713   0.494   2.292
 1055TIP3    H2 3123   1.782   0.497   2.157
 1056TIP3   OH2 3124   2.082   6.562   2.821
 1056TIP3    H1 3125   2.093   6.480   2.869
 1056TIP3    H2 3126   1.992   6.589   2.839
 1057TIP3   OH2 3127   1.521   0.611   0.637
 1057TIP3    H1 3128   1.585   0.578   0.574
 1057TIP3    H2 3129   1.453   0.543   0.639
 1058TIP3   OH2 3130   3.467   6.522   5.797
 1058TIP3    H1 3131   3.546   6.478   5.765
 1058TIP3    H2 3132   3.499   6.601   5.840
 1059TIP3   OH2 3133   6.765   1.278   0.992
 1059TIP3    H1 3134   6.841   1.285   0.934
 1059TIP3    H2 3135   6.695   1.323   0.945
 1060TIP3   OH2 3136   1.810   0.978   0.035
 1060TIP3    H1 3137   1.860   0.897   0.043
 1060TIP3    H2 3138   1.719   0.952   0.050
 1061TIP3   OH2 3139   1.043   4.720   2.481
 1061TIP3    H1 3140   1.109   4.763   2.427
 1061TIP3    H2 3141   0.973   4.698   2.421
 1062TIP3   OH2 3142   0.274   3.142   1.092
 1062TIP3    H1 3143   0.367   3.158   1.073
 1062TIP3    H2 3144   0.240   3.228   1.114
 1063TIP3   OH2 3145   6.710   3.601   1.643
 1063TIP3    H1 3146   6.723   3.507   1.640
 1063TIP3    H2 3147   6.645   3.614   1.713
 1064TIP3   OH2 3148   7.662   3.008   4.172
 1064TIP3    H1 3149   7.632   3.075   4.234
 1064TIP3    H2 3150   7.583   2.982   4.125
 1065TIP3   OH2 3151   1.486   1.263   0.843
 1065TIP3    H1 3152   1.413   1.201   0.845
 1065TIP3    H2 3153   1.450   1.344   0.879
 1066TIP3   OH2 3154   5.791   7.006   6.029
 1066TIP3    H1 3155   5.724   6.939   6.023
 1066TIP3    H2 3156   5.842   6.983   6.107
 1067TIP3   OH2 3157   0.579   5.373   0.305
 1067TIP3    H1 3158   0.644   5.425   0.258
 1067TIP3    H2 3159   0.526   5.333   0.237
 1068TIP3   OH2 3160   3.194   4.005   2.258
 1068TIP3    H1 3161   3.242   3.948   2.318
 1068TIP3    H2 3162   3.261   4.038   2.198
 1069TIP3   OH2 3163   4.913   5.850   3.926
 1069TIP3    H1 3164   4.818   5.850   3.927
 1069TIP3    H2 3165   4.937   5.881   4.014
 1070TIP3   OH2 3166   8.221   1.698   2.681
 1070TIP3    H1 3167   8.133   1.662   2.689
 1070TIP3    H2 3168   8.212   1.790   2.709
 1071TIP3   OH2 3169   5.180   4.950   4.729
 1071TIP3    H1 3170   5.228   5.032   4.713
 1071TIP3    H2 3171   5.147   4.925   4.643
 1072TIP3   OH2 3172   3.816   3.609   5.586
 1072TIP3    H1 3173   3.863   3.691   5.576
 1072TIP3    H2 3174   3.817   3.591   5.680
 1073TIP3   OH2 3175   3.597   5.648   0.099
 1073TIP3    H1 3176   3.598   5.611   0.010
 1073TIP3    H2 3177   3.510   5.628   0.132
 1074TIP3   OH2 3178   3.932   2.801   5.006
 1074TIP3    H1 3179   4.009   2.816   4.952
 1074TIP3    H2 3180   3.886   2.729   4.964
 1075TIP3   OH2 3181   7.519   1.323   5.817
 1075TIP3    H1 3182   7.512   1.389   5.748
 1075TIP3    H2 3183   7.498   1.370   5.897
 1076TIP3   OH2 3184   2.106   1.214   0.883
 1076TIP3    H1 3185   2.097   1.164   0.964
 1076TIP3    H2 3186   2.066   1.159   0.816
 1077TIP3   OH2 3187   6.367   2.729   1.002
 1077TIP3    H1 3188   6.333   2.727   1.091
 1077TIP3    H2 3189   6.429   2.802   1.001
 1078TIP3   OH2 3190   3.374   1.798   2.957
 1078TIP3    H1 3191   3.280   1.814   2.952
 1078TIP3    H2 3192   3.413   1.884   2.972
 1079TIP3   OH2 3193   5.667   4.126   3.291
 1079TIP3    H1 3194   5.743   4.138   3.348
 1079TIP3    H2 3195   5.697   4.069   3.221
 1080TIP3   OH2 3196   4.533   2.162   1.739
 1080TIP3    H1 3197   4.483   2.192   1.815
 1080TIP3    H2 3198   4.495   2.208   1.665
 1081TIP3   OH2 3199   1.236   1.118   2.089
 1081TIP3    H1 3200   1.152   1.083   2.059
 1081TIP3    H2 3201   1.299   1.049   2.067
 1082TIP3   OH2 3202   3.400   3.321   6.182
 1082TIP3    H1 3203   3.451   3.266   6.241
 1082TIP3    H2 3204   3.357   3.384   6.239
 1083TIP3   OH2 3205   7.863   5.553   3.087
 1083TIP3    H1 3206   7.882   5.538   3.180
 1083TIP3    H2 3207   7.813   5.634   3.086
 1084TIP3   OH2 3208   1.762   1.297   2.732
 1084TIP3    H1 3209   1.791   1.388   2.731
 1084TIP3    H2 3210   1.824   1.252   2.789
 1085TIP3   OH2 3211   2.281   2.117   4.329
 1085TIP3    H1 3212   2.365   2.157   4.352
 1085TIP3    H2 3213   2.270   2.137   4.236
 1086TIP3   OH2 3214   5.985   4.400   5.216
 1086TIP3    H1 3215   5.975   4.494   5.231
 1086TIP3    H2 3216   5.902   4.372   5.177
 1087TIP3   OH2 3217   0.558   6.042   5.232
 1087TIP3    H1 3218   0.528   5.971   5.175
 1087TIP3    H2 3219   0.580   5.999   5.315
 1088TIP3   OH2 3220   4.118   3.633   3.551
 1088TIP3    H1 3221   4.046   3.580   3.585
 1088TIP3    H2 3222   4.076   3.710   3.513
 1089TIP3   OH2 3223   4.953   6.559   5.358
 1089TIP3    H1 3224   4.962   6.490   5.424
 1089TIP3    H2 3225   5.036   6.558   5.310
 1090TIP3   OH2 3226   7.108   7.225   2.631
 1090TIP3    H1 3227   7.175   7.244   2.565
 1090TIP3    H2 3228   7.036   7.185   2.582
 1091TIP3   OH2 3229   7.380   7.690   1.109
 1091TIP3    H1 3230   7.304   7.647   1.071
 1091TIP3    H2 3231   7.421   7.736   1.036
 1092TIP3   OH2 3232   7.167   3.840   4.331
 1092TIP3    H1 3233   7.230   3.814   4.263
 1092TIP3    H2 3234   7.137   3.757   4.368
 1093TIP3   OH2 3235   6.638   4.772   5.684
 1093TIP3    H1 3236   6.604   4.701   5.629
 1093TIP3    H2 3237   6.721   4.797   5.641
 1094TIP3   OH2 3238   5.409   5.967   3.808
 1094TIP3    H1 3239   5.346   5.972   3.880
 1094TIP3    H2 3240   5.366   5.911   3.743
 1095TIP3   OH2 3241   0.603   6.088   0.196
 1095TIP3    H1 3242   0.527   6.084   0.139
 1095TIP3    H2 3243   0.670   6.133   0.145
 1096TIP3   OH2 3244   4.313   6.397   2.641
 1096TIP3    H1 3245   4.268   6.472   2.604
 1096TIP3    H2 3246   4.322   6.336   2.568
 1097TIP3   OH2 3247   2.526   5.473   3.270
 1097TIP3    H1 3248   2.603   5.424   3.299
 1097TIP3    H2 3249   2.541   5.490   3.177
 1098TIP3   OH2 3250   0.434   2.044   3.244
 1098TIP3    H1 3251   0.523   2.033   3.211
 1098TIP3    H2 3252   0.404   2.127   3.207
 1099TIP3   OH2 3253   0.447   0.683   1.326
 1099TIP3    H1 3254   0.408   0.623   1.389
 1099TIP3    H2 3255   0.540   0.664   1.328
 1100TIP3   OH2 3256   6.531   7.104   6.477
 1100TIP3    H1 3257   6.549   7.081   6.568
 1100TIP3    H2 3258   6.615   7.095   6.433
 1101TIP3   OH2 3259   4.403   4.711   3.763
 1101TIP3    H1 3260   4.441   4.646   3.703
 1101TIP3    H2 3261   4.452   4.701   3.844
 1102TIP3   OH2 3262   6.840   7.787   4.208
 1102TIP3    H1 3263   6.867   7.714   4.265
 1102TIP3    H2 3264   6.911   7.850   4.215
 1103TIP3   OH2 3265   5.742   2.338   2.668
 1103TIP3    H1 3266   5.657   2.297   2.683
 1103TIP3    H2 3267   5.803   2.291   2.725
 1104TIP3   OH2 3268   5.214   5.600   1.542
 1104TIP3    H1 3269   5.145   5.644   1.592
 1104TIP3    H2 3270   5.170   5.570   1.462
 1105TIP3   OH2 3271   7.287   2.118   4.025
 1105TIP3    H1 3272   7.321   2.036   4.061
 1105TIP3    H2 3273   7.356   2.149   3.967
 1106TIP3   OH2 3274   7.664   4.930   4.711
 1106TIP3    H1 3275   7.692   4.896   4.626
 1106TIP3    H2 3276   7.665   5.025   4.700
 1107TIP3   OH2 3277   4.667   4.394   5.845
 1107TIP3    H1 3278   4.620   4.310   5.843
 1107TIP3    H2 3279   4.658   4.423   5.936
 1108TIP3   OH2 3280   4.997   6.965   0.381
 1108TIP3    H1 3281   5.069   7.003   0.431
 1108TIP3    H2 3282   4.938   6.929   0.447
 1109TIP3   OH2 3283   0.453   2.126   0.529
 1109TIP3    H1 3284   0.365   2.098   0.501
 1109TIP3    H2 3285   0.438   2.167   0.615
 1110TIP3   OH2 3286   2.485   6.754   5.032
 1110TIP3    H1 3287   2.427   6.750   4.955
 1110TIP3    H2 3288   2.447   6.691   5.094
 1111TIP3   OH2 3289   7.374   5.298   2.766
 1111TIP3    H1 3290   7.290   5.262   2.739
 1111TIP3    H2 3291   7.439   5.236   2.734
 1112TIP3   OH2 3292   6.849   6.613   6.345
 1112TIP3    H1 3293   6.929   6.639   6.298
 1112TIP3    H2 3294   6.793   6.574   6.277
 1113TIP3   OH2 3295   4.314   3.854   0.255
 1113TIP3    H1 3296   4.246   3.919   0.268
 1113TIP3    H2 3297   4.282   3.799   0.184
 1114TIP3   OH2 3298   7.299   2.492   3.069
 1114TIP3    H1 3299   7.295   2.414   3.125
 1114TIP3    H2 3300   7.231   2.477   3.003
 1115TIP3   OH2 3301   4.324   1.547   0.001
 1115TIP3    H1 3302   4.361   1.608  -0.063
 1115TIP3    H2 3303   4.372   1.564   0.081
 1116TIP3   OH2 3304   0.117   2.615   1.688
 1116TIP3    H1 3305   0.179   2.654   1.626
 1116TIP3    H2 3306   0.069   2.690   1.723
 1117TIP3   OH2 3307   3.658   0.097   1.241
 1117TIP3    H1 3308   3.684   0.140   1.160
 1117TIP3    H2 3309   3.566   0.075   1.228
 1118TIP3   OH2 3310   5.335   2.000   5.144
 1118TIP3    H1 3311   5.392   2.073   5.121
 1118TIP3    H2 3312   5.364   1.973   5.231
 1119TIP3   OH2 3313   5.939   1.925   2.541
 1119TIP3    H1 3314   5.853   1.920   2.499
 1119TIP3    H2 3315   5.991   1.980   2.482
 1120TIP3   OH2 3316   3.241   2.384   5.527
 1120TIP3    H1 3317   3.157   2.347   5.555
 1120TIP3    H2 3318   3.229   2.479   5.539
 1121TIP3   OH2 3319   6.895   5.854   6.301
 1121TIP3    H1 3320   6.931   5.796   6.233
 1121TIP3    H2 3321   6.962   5.922   6.312
 1122TIP3   OH2 3322   1.939   5.728   3.545
 1122TIP3    H1 3323   1.914   5.640   3.518
 1122TIP3    H2 3324   1.933   5.781   3.466
 1123TIP3   OH2 3325   7.160   3.069   4.262
 1123TIP3    H1 3326   7.097   3.026   4.204
 1123TIP3    H2 3327   7.146   3.162   4.247
 1124TIP3   OH2 3328   2.414   3.725   2.821
 1124TIP3    H1 3329   2.332   3.709   2.868
 1124TIP3    H2 3330   2.405   3.672   2.741
 1125TIP3   OH2 3331   4.961   4.331   1.182
 1125TIP3    H1 3332   5.023   4.403   1.197
 1125TIP3    H2 3333   5.004   4.273   1.120
 1126TIP3   OH2 3334   2.582   3.441   2.873
 1126TIP3    H1 3335   2.674   3.418   2.869
 1126TIP3    H2 3336   2.572   3.487   2.956
 1127TIP3   OH2 3337   1.828   0.274   1.938
 1127TIP3    H1 3338   1.800   0.343   1.878
 1127TIP3    H2 3339   1.763   0.275   2.008
 1128TIP3   OH2 3340   0.856   5.901   0.404
 1128TIP3    H1 3341   0.927   5.921   0.465
 1128TIP3    H2 3342   0.780   5.884   0.460
 1129TIP3   OH2 3343   5.591   0.968   3.422
 1129TIP3    H1 3344   5.658   1.008   3.477
 1129TIP3    H2 3345   5.566   0.888   3.470
 1130TIP3   OH2 3346   4.717   1.909   0.757
 1130TIP3    H1 3347   4.654   1.837   0.750
 1130TIP3    H2 3348   4.796   1.877   0.713
 1131TIP3   OH2 3349   7.766   5.345   6.108
 1131TIP3    H1 3350   7.719   5.361   6.190
 1131TIP3    H2 3351   7.792   5.253   6.112
 1132TIP3   OH2 3352   2.109   1.525   6.300
 1132TIP3    H1 3353   2.027   1.541   6.254
 1132TIP3    H2 3354   2.177   1.546   6.236
 1133TIP3   OH2 3355   4.154   7.480   2.772
 1133TIP3    H1 3356   4.123   7.467   2.861
 1133TIP3    H2 3357   4.186   7.394   2.745
 1134TIP3   OH2 3358   6.256   2.154   3.862
 1134TIP3    H1 3359   6.334   2.182   3.814
 1134TIP3    H2 3360   6.183   2.196   3.816
 1135TIP3   OH2 3361  -0.031   5.525   0.150
 1135TIP3    H1 3362   0.031   5.452   0.162
 1135TIP3    H2 3363   0.025   5.600   0.129
 1136TIP3   OH2 3364   0.613   5.396   6.736
 1136TIP3    H1 3365   0.522   5.410   6.710
 1136TIP3    H2 3366   0.628   5.458   6.808
 1137TIP3   OH2 3367   4.365   2.935   5.774
 1137TIP3    H1 3368   4.307   2.859   5.779
 1137TIP3    H2 3369   4.421   2.929   5.851
 1138TIP3   OH2 3370   6.511   1.101   4.108
 1138TIP3    H1 3371   6.439   1.127   4.166
 1138TIP3    H2 3372   6.480   1.023   4.063
 1139TIP3   OH2 3373   2.655   6.282   4.717
 1139TIP3    H1 3374   2.662   6.280   4.621
 1139TIP3    H2 3375   2.562   6.289   4.734
 1140TIP3   OH2 3376   7.759   3.149   4.499
 1140TIP3    H1 3377   7.786   3.088   4.568
 1140TIP3    H2 3378   7.812   3.123   4.423
 1141TIP3   OH2 3379   5.285   6.438   2.209
 1141TIP3    H1 3380   5.271   6.386   2.288
 1141TIP3    H2 3381   5.341   6.510   2.237
 1142TIP3   OH2 3382   0.432   6.714   3.350
 1142TIP3    H1 3383   0.503   6.694   3.411
 1142TIP3    H2 3384   0.361   6.745   3.406
 1143TIP3   OH2 3385   1.712   6.078   1.363
 1143TIP3    H1 3386   1.705   6.155   1.419
 1143TIP3    H2 3387   1.794   6.036   1.389
 1144TIP3   OH2 3388   8.188   4.260   3.312
 1144TIP3    H1 3389   8.277   4.280   3.283
 1144TIP3    H2 3390   8.169   4.173   3.275
 1145TIP3   OH2 3391   3.755   1.353   2.556
 1145TIP3    H1 3392   3.815   1.373   2.628
 1145TIP3    H2 3393   3.763   1.259   2.543
 1146TIP3   OH2 3394   1.234   2.258   0.150
 1146TIP3    H1 3395   1.319   2.233   0.185
 1146TIP3    H2 3396   1.249   2.273   0.057
 1147TIP3   OH2 3397   4.873   1.290   4.328
 1147TIP3    H1 3398   4.918   1.370   4.355
 1147TIP3    H2 3399   4.789   1.320   4.293
 1148TIP3   OH2 3400   3.256   1.055   2.370
 1148TIP3    H1 3401   3.169   1.022   2.391
 1148TIP3    H2 3402   3.240   1.130   2.312
 1149TIP3   OH2 3403   2.705   2.921   5.210
 1149TIP3    H1 3404   2.687   2.830   5.189
 1149TIP3    H2 3405   2.738   2.918   5.300
 1150TIP3   OH2 3406   0.640   7.556   1.543
 1150TIP3    H1 3407   0.660   7.536   1.452
 1150TIP3    H2 3408   0.722   7.540   1.590
 1151TIP3   OH2 3409   1.025   0.963   2.327
 1151TIP3    H1 3410   1.022   1.022   2.402
 1151TIP3    H2 3411   1.077   0.888   2.357
 1152TIP3   OH2 3412   2.891   6.644   2.566
 1152TIP3    H1 3413   2.937   6.700   2.628
 1152TIP3    H2 3414   2.798   6.662   2.581
 1153TIP3   OH2 3415   8.200   4.900   3.410
 1153TIP3    H1 3416   8.283   4.858   3.388
 1153TIP3    H2 3417   8.210   4.990   3.381
 1154TIP3   OH2 3418   7.659   5.009   3.696
 1154TIP3    H1 3419   7.712   5.021   3.774
 1154TIP3    H2 3420   7.569   5.013   3.727
 1155TIP3   OH2 3421   2.040   1.959   5.097
 1155TIP3    H1 3422   2.028   1.904   5.175
 1155TIP3    H2 3423   1.954   1.959   5.054
 1156TIP3   OH2 3424   1.679   6.862   6.670
 1156TIP3    H1 3425   1.765   6.867   6.630
 1156TIP3    H2 3426   1.651   6.772   6.657
 1157TIP3   OH2 3427   6.894   1.643   4.054
 1157TIP3    H1 3428   6.934   1.585   4.119
 1157TIP3    H2 3429   6.928   1.730   4.077
 1158TIP3   OH2 3430   3.431   0.696   3.198
 1158TIP3    H1 3431   3.444   0.601   3.196
 1158TIP3    H2 3432   3.462   0.722   3.285
 1159TIP3   OH2 3433   0.354   6.072   0.063
 1159TIP3    H1 3434   0.306   6.009   0.117
 1159TIP3    H2 3435   0.318   6.061  -0.025
 1160TIP3   OH2 3436   4.960   2.634   2.251
 1160TIP3    H1 3437   4.936   2.724   2.227
 1160TIP3    H2 3438   5.054   2.639   2.270
 1161TIP3   OH2 3439   7.163   7.564   2.735
 1161TIP3    H1 3440   7.092   7.525   2.787
 1161TIP3    H2 3441   7.243   7.533   2.778
 1162TIP3   OH2 3442   4.016   1.326   6.257
 1162TIP3    H1 3443   4.071   1.248   6.254
 1162TIP3    H2 3444   4.076   1.397   6.282
 1163TIP3   OH2 3445   7.935   4.399   4.667
 1163TIP3    H1 3446   7.904   4.382   4.578
 1163TIP3    H2 3447   7.859   4.431   4.714
 1164TIP3   OH2 3448   5.850   5.496   2.452
 1164TIP3    H1 3449   5.799   5.430   2.404
 1164TIP3    H2 3450   5.836   5.474   2.544
 1165TIP3   OH2 3451   4.203   1.790   3.709
 1165TIP3    H1 3452   4.283   1.745   3.681
 1165TIP3    H2 3453   4.146   1.787   3.632
 1166TIP3   OH2 3454   4.165   5.463   1.916
 1166TIP3    H1 3455   4.137   5.377   1.948
 1166TIP3    H2 3456   4.183   5.449   1.823
 1167TIP3   OH2 3457   4.769   2.201   2.033
 1167TIP3    H1 3458   4.686   2.154   2.046
 1167TIP3    H2 3459   4.795   2.227   2.121
 1168TIP3   OH2 3460   2.404   1.366   1.369
 1168TIP3    H1 3461   2.318   1.350   1.407
 1168TIP3    H2 3462   2.437   1.279   1.348
 1169TIP3   OH2 3463   7.641   7.079   5.553
 1169TIP3    H1 3464   7.647   7.174   5.544
 1169TIP3    H2 3465   7.631   7.065   5.647
 1170TIP3   OH2 3466   7.138   0.681   6.210
 1170TIP3    H1 3467   7.151   0.605   6.267
 1170TIP3    H2 3468   7.096   0.746   6.266
 1171TIP3   OH2 3469   7.034   6.693   3.364
 1171TIP3    H1 3470   7.066   6.685   3.454
 1171TIP3    H2 3471   7.087   6.630   3.314
 1172TIP3   OH2 3472   7.609   2.128   6.164
 1172TIP3    H1 3473   7.623   2.221   6.147
 1172TIP3    H2 3474   7.577   2.092   6.082
 1173TIP3   OH2 3475   1.384   3.161   1.747
 1173TIP3    H1 3476   1.374   3.253   1.772
 1173TIP3    H2 3477   1.465   3.158   1.697
 1174TIP3   OH2 3478   6.561   5.430   3.050
 1174TIP3    H1 3479   6.494   5.490   3.017
 1174TIP3    H2 3480   6.513   5.353   3.078
 1175TIP3   OH2 3481   2.108   3.183   1.761
 1175TIP3    H1 3482   2.117   3.087   1.763
 1175TIP3    H2 3483   2.051   3.200   1.687
 1176TIP3   OH2 3484   5.928   0.196   5.063
 1176TIP3    H1 3485   5.912   0.118   5.010
 1176TIP3    H2 3486   5.868   0.262   5.028
 1177TIP3   OH2 3487   2.267   2.653   0.502
 1177TIP3    H1 3488   2.230   2.605   0.576
 1177TIP3    H2 3489   2.255   2.745   0.526
 1178TIP3   OH2 3490   5.023   0.558   0.264
 1178TIP3    H1 3491   4.940   0.520   0.295
 1178TIP3    H2 3492   5.050   0.616   0.335
 1179TIP3   OH2 3493   6.996   3.502   2.715
 1179TIP3    H1 3494   7.018   3.594   2.732
 1179TIP3    H2 3495   6.961   3.502   2.626
 1180TIP3   OH2 3496   4.163   2.998   6.163
 1180TIP3    H1 3497   4.111   3.077   6.147
 1180TIP3    H2 3498   4.140   2.972   6.252
 1181TIP3   OH2 3499   7.575   6.271   5.018
 1181TIP3    H1 3500   7.524   6.312   4.949
 1181TIP3    H2 3501   7.655   6.324   5.024
 1182TIP3   OH2 3502   2.088   7.245   2.972
 1182TIP3    H1 3503   2.015   7.204   2.925
 1182TIP3    H2 3504   2.141   7.287   2.905
 1183TIP3   OH2 3505   0.721   3.064   1.453
 1183TIP3    H1 3506   0.681   3.082   1.538
 1183TIP3    H2 3507   0.813   3.046   1.474
 1184TIP3   OH2 3508   3.012   1.127   5.847
 1184TIP3    H1 3509   2.997   1.122   5.753
 1184TIP3    H2 3510   2.926   1.141   5.885
 1185TIP3   OH2 3511   1.289   3.065   1.472
 1185TIP3    H1 3512   1.273   2.975   1.446
 1185TIP3    H2 3513   1.288   3.064   1.568
 1186TIP3   OH2 3514   5.597   1.098   4.674
 1186TIP3    H1 3515   5.555   1.127   4.592
 1186TIP3    H2 3516   5.560   1.012   4.691
 1187TIP3   OH2 3517   3.526   1.764   2.737
 1187TIP3    H1 3518   3.529   1.669   2.727
 1187TIP3    H2 3519   3.468   1.778   2.813
 1188TIP3   OH2 3520   2.206   2.295   2.824
 1188TIP3    H1 3521   2.231   2.256   2.908
 1188TIP3    H2 3522   2.155   2.373   2.848
 1189TIP3   OH2 3523   7.253   5.869   0.161
 1189TIP3    H1 3524   7.303   5.788   0.166
 1189TIP3    H2 3525   7.226   5.886   0.252
 1190TIP3   OH2 3526   0.160   3.173   5.340
 1190TIP3    H1 3527   0.066   3.158   5.332
 1190TIP3    H2 3528   0.200   3.110   5.280
 1191TIP3   OH2 3529   2.603   1.264   1.099
 1191TIP3    H1 3530   2.521   1.283   1.052
 1191TIP3    H2 3531   2.577   1.205   1.169
 1192TIP3   OH2 3532   2.675   4.636   1.683
 1192TIP3    H1 3533   2.713   4.550   1.667
 1192TIP3    H2 3534   2.582   4.626   1.664
 1193TIP3   OH2 3535   7.414   4.226   3.939
 1193TIP3    H1 3536   7.393   4.145   3.893
 1193TIP3    H2 3537   7.338   4.243   3.994
 1194TIP3   OH2 3538   2.867   3.210   6.280
 1194TIP3    H1 3539   2.836   3.123   6.304
 1194TIP3    H2 3540   2.959   3.196   6.256
 1195TIP3   OH2 3541   7.930   1.934   4.458
 1195TIP3    H1 3542   7.986   1.858   4.442
 1195TIP3    H2 3543   7.968   1.975   4.536
 1196TIP3   OH2 3544   4.661   0.951   1.309
 1196TIP3    H1 3545   4.738   0.896   1.319
 1196TIP3    H2 3546   4.680   1.006   1.233
 1197TIP3   OH2 3547   2.776   7.338   3.774
 1197TIP3    H1 3548   2.775   7.380   3.689
 1197TIP3    H2 3549   2.809   7.405   3.834
 1198TIP3   OH2 3550   3.192   2.395   5.021
 1198TIP3    H1 3551   3.157   2.325   5.076
 1198TIP3    H2 3552   3.166   2.372   4.932
 1199TIP3   OH2 3553   1.001   6.436   2.437
 1199TIP3    H1 3554   1.012   6.512   2.379
 1199TIP3    H2 3555   0.952   6.471   2.511
 1200TIP3   OH2 3556   2.543   3.946   5.734
 1200TIP3    H1 3557   2.567   3.860   5.769
 1200TIP3    H2 3558   2.572   3.943   5.643
 1201TIP3   OH2 3559   7.061   4.071   1.156
 1201TIP3    H1 3560   6.995   4.012   1.193
 1201TIP3    H2 3561   7.120   4.089   1.229
 1202TIP3   OH2 3562   2.048   3.712   5.161
 1202TIP3    H1 3563   1.979   3.710   5.227
 1202TIP3    H2 3564   2.067   3.620   5.144
 1203TIP3   OH2 3565   0.195   4.604   3.380
 1203TIP3    H1 3566   0.240   4.534   3.334
 1203TIP3    H2 3567   0.111   4.613   3.335
 1204TIP3   OH2 3568   6.202   7.609   6.452
 1204TIP3    H1 3569   6.264   7.554   6.499
 1204TIP3    H2 3570   6.200   7.572   6.363
 1205TIP3   OH2 3571   2.825   3.098   5.439
 1205TIP3    H1 3572   2.874   3.130   5.514
 1205TIP3    H2 3573   2.735   3.128   5.454
 1206TIP3   OH2 3574   3.644   2.006   3.485
 1206TIP3    H1 3575   3.738   2.022   3.495
 1206TIP3    H2 3576   3.631   1.995   3.391
 1207TIP3   OH2 3577   4.469   0.288   1.100
 1207TIP3    H1 3578   4.486   0.233   1.175
 1207TIP3    H2 3579   4.484   0.231   1.024
 1208TIP3   OH2 3580   3.017   6.548   0.873
 1208TIP3    H1 3581   2.980   6.625   0.917
 1208TIP3    H2 3582   2.961   6.536   0.796
 1209TIP3   OH2 3583   2.283   5.090   1.219
 1209TIP3    H1 3584   2.337   5.011   1.226
 1209TIP3    H2 3585   2.257   5.092   1.127
 1210TIP3   OH2 3586   2.427   0.550   6.423
 1210TIP3    H1 3587   2.379   0.475   6.390
 1210TIP3    H2 3588   2.387   0.626   6.380
 1211TIP3   OH2 3589   5.248   4.630   2.531
 1211TIP3    H1 3590   5.275   4.648   2.621
 1211TIP3    H2 3591   5.315   4.571   2.497
 1212TIP3   OH2 3592   7.464   5.974   2.505
 1212TIP3    H1 3593   7.500   5.991   2.418
 1212TIP3    H2 3594   7.376   6.010   2.503
 1213TIP3   OH2 3595   7.562   2.853   6.649
 1213TIP3    H1 3596   7.610   2.936   6.637
 1213TIP3    H2 3597   7.626   2.795   6.690
 1214TIP3   OH2 3598   3.782   3.890   0.689
 1214TIP3    H1 3599   3.830   3.818   0.731
 1214TIP3    H2 3600   3.699   3.893   0.736
 1215TIP3   OH2 3601   3.663   4.634   6.619
 1215TIP3    H1 3602   3.572   4.656   6.640
 1215TIP3    H2 3603   3.688   4.698   6.553
 1216TIP3   OH2 3604   5.431   7.146   3.121
 1216TIP3    H1 3605   5.525   7.135   3.106
 1216TIP3    H2 3606   5.407   7.076   3.181
 1217TIP3   OH2 3607   4.085   4.598   0.893
 1217TIP3    H1 3608   4.158   4.659   0.907
 1217TIP3    H2 3609   4.120   4.532   0.833
 1218TIP3   OH2 3610   3.900   7.775   2.072
 1218TIP3    H1 3611   3.809   7.764   2.100
 1218TIP3    H2 3612   3.949   7.711   2.123
 1219TIP3   OH2 3613   0.333   7.162   6.679
 1219TIP3    H1 3614   0.258   7.213   6.710
 1219TIP3    H2 3615   0.298   7.073   6.667
 1220TIP3   OH2 3616   1.470   2.974   3.516
 1220TIP3    H1 3617   1.435   3.063   3.514
 1220TIP3    H2 3618   1.563   2.985   3.497
 1221TIP3   OH2 3619   1.177   4.836   2.223
 1221TIP3    H1 3620   1.164   4.892   2.300
 1221TIP3    H2 3621   1.256   4.871   2.181
 1222TIP3   OH2 3622   3.718   7.425   0.589
 1222TIP3    H1 3623   3.776   7.356   0.622
 1222TIP3    H2 3624   3.777   7.485   0.542
 1223TIP3   OH2 3625   6.549   6.324   1.344
 1223TIP3    H1 3626   6.626   6.270   1.361
 1223TIP3    H2 3627   6.565   6.405   1.392
 1224TIP3   OH2 3628   2.780   4.901   0.150
 1224TIP3    H1 3629   2.832   4.899   0.231
 1224TIP3    H2 3630   2.760   4.809   0.132
 1225TIP3   OH2 3631   0.330   7.486   1.694
 1225TIP3    H1 3632   0.281   7.466   1.774
 1225TIP3    H2 3633   0.269   7.537   1.641
 1226TIP3   OH2 3634   8.134   3.129   1.802
 1226TIP3    H1 3635   8.050   3.107   1.762
 1226TIP3    H2 3636   8.129   3.092   1.890
 1227TIP3   OH2 3637   2.676   3.731   2.477
 1227TIP3    H1 3638   2.635   3.783   2.408
 1227TIP3    H2 3639   2.603   3.689   2.522
 1228TIP3   OH2 3640   2.528   3.490   6.544
 1228TIP3    H1 3641   2.560   3.580   6.557
 1228TIP3    H2 3642   2.606   3.439   6.523
 1229TIP3   OH2 3643   6.738   0.970   3.717
 1229TIP3    H1 3644   6.761   1.063   3.719
 1229TIP3    H2 3645   6.690   0.959   3.635
 1230TIP3   OH2 3646   5.188   7.697   4.439
 1230TIP3    H1 3647   5.244   7.636   4.487
 1230TIP3    H2 3648   5.241   7.723   4.363
 1231TIP3   OH2 3649   1.536   7.154   3.478
 1231TIP3    H1 3650   1.529   7.194   3.564
 1231TIP3    H2 3651   1.625   7.118   3.474
 1232TIP3   OH2 3652   1.482   0.359   6.075
 1232TIP3    H1 3653   1.420   0.400   6.014
 1232TIP3    H2 3654   1.558   0.337   6.021
 1233TIP3   OH2 3655   5.066   2.490   6.638
 1233TIP3    H1 3656   5.113   2.523   6.714
 1233TIP3    H2 3657   5.031   2.569   6.595
 1234TIP3   OH2 3658   0.185   1.510   5.037
 1234TIP3    H1 3659   0.255   1.543   5.093
 1234TIP3    H2 3660   0.139   1.588   5.008
 1235TIP3   OH2 3661   1.161   0.055   0.669
 1235TIP3    H1 3662   1.078   0.103   0.666
 1235TIP3    H2 3663   1.190   0.052   0.578
 1236TIP3   OH2 3664   0.019   6.681   5.623
 1236TIP3    H1 3665   0.030   6.599   5.672
 1236TIP3    H2 3666  -0.035   6.657   5.548
 1237TIP3   OH2 3667   5.387   7.518   0.054
 1237TIP3    H1 3668   5.352   7.557  -0.026
 1237TIP3    H2 3669   5.421   7.433   0.026
 1238TIP3   OH2 3670   7.254   2.816   5.312
 1238TIP3    H1 3671   7.192   2.877   5.352
 1238TIP3    H2 3672   7.276   2.855   5.228
 1239TIP3   OH2 3673   5.625   0.286   0.535
 1239TIP3    H1 3674   5.687   0.305   0.465
 1239TIP3    H2 3675   5.675   0.298   0.616
 1240TIP3   OH2 3676   5.098   4.916   2.593
 1240TIP3    H1 3677   5.183   4.932   2.634
 1240TIP3    H2 3678   5.059   4.846   2.646
 1241TIP3   OH2 3679   0.137   1.149   0.273
 1241TIP3    H1 3680   0.049   1.185   0.262
 1241TIP3    H2 3681   0.129   1.088   0.346
 1242TIP3   OH2 3682   3.603   1.227   2.805
 1242TIP3    H1 3683   3.558   1.190   2.730
 1242TIP3    H2 3684   3.692   1.191   2.800
 1243TIP3   OH2 3685   3.299   0.424   1.811
 1243TIP3    H1 3686   3.330   0.370   1.884
 1243TIP3    H2 3687   3.259   0.500   1.852
 1244TIP3   OH2 3688   7.272   4.149  -0.014
 1244TIP3    H1 3689   7.334   4.079   0.006
 1244TIP3    H2 3690   7.282   4.211   0.058
 1245TIP3   OH2 3691   2.812   0.432   5.719
 1245TIP3    H1 3692   2.793   0.348   5.678
 1245TIP3    H2 3693   2.825   0.411   5.812
 1246TIP3   OH2 3694   3.192   7.673   4.599
 1246TIP3    H1 3695   3.220   7.738   4.535
 1246TIP3    H2 3696   3.108   7.641   4.566
 1247TIP3   OH2 3697   6.962   0.215   3.118
 1247TIP3    H1 3698   7.049   0.212   3.078
 1247TIP3    H2 3699   6.940   0.123   3.134
 1248TIP3   OH2 3700   1.873   3.740   4.140
 1248TIP3    H1 3701   1.932   3.810   4.113
 1248TIP3    H2 3702   1.786   3.770   4.114
 1249TIP3   OH2 3703   4.661   1.546   4.466
 1249TIP3    H1 3704   4.673   1.571   4.374
 1249TIP3    H2 3705   4.605   1.469   4.463
 1250TIP3   OH2 3706   0.127   2.891   4.550
 1250TIP3    H1 3707   0.133   2.963   4.487
 1250TIP3    H2 3708   0.189   2.825   4.518
 1251TIP3   OH2 3709   6.519   4.119   6.285
 1251TIP3    H1 3710   6.545   4.178   6.355
 1251TIP3    H2 3711   6.450   4.167   6.238
 1252TIP3   OH2 3712   3.076   4.096   6.082
 1252TIP3    H1 3713   3.107   4.057   6.164
 1252TIP3    H2 3714   3.014   4.032   6.047
 1253TIP3   OH2 3715   1.317   4.727   3.091
 1253TIP3    H1 3716   1.240   4.773   3.125
 1253TIP3    H2 3717   1.383   4.795   3.079
 1254TIP3   OH2 3718   1.680   7.640   1.184
 1254TIP3    H1 3719   1.622   7.645   1.107
 1254TIP3    H2 3720   1.738   7.715   1.175
 1255TIP3   OH2 3721   6.206   5.442   0.089
 1255TIP3    H1 3722   6.209   5.383   0.013
 1255TIP3    H2 3723   6.291   5.430   0.132
 1256TIP3   OH2 3724   7.618   7.730   4.841
 1256TIP3    H1 3725   7.524   7.744   4.854
 1256TIP3    H2 3726   7.657   7.817   4.852
 1257TIP3   OH2 3727   2.115   7.097   0.655
 1257TIP3    H1 3728   2.026   7.068   0.678
 1257TIP3    H2 3729   2.105   7.135   0.568
 1258TIP3   OH2 3730   6.193   4.604   4.003
 1258TIP3    H1 3731   6.251   4.528   3.994
 1258TIP3    H2 3732   6.112   4.568   4.040
 1259TIP3   OH2 3733   4.018   0.374   4.633
 1259TIP3    H1 3734   3.925   0.395   4.632
 1259TIP3    H2 3735   4.031   0.320   4.554
 1260TIP3   OH2 3736   2.689   2.883   0.244
 1260TIP3    H1 3737   2.603   2.851   0.272
 1260TIP3    H2 3738   2.751   2.822   0.284
 1261TIP3   OH2 3739   5.698   6.255   0.937
 1261TIP3    H1 3740   5.755   6.183   0.964
 1261TIP3    H2 3741   5.751   6.334   0.952
 1262TIP3   OH2 3742   7.217   4.501   0.576
 1262TIP3    H1 3743   7.204   4.534   0.487
 1262TIP3    H2 3744   7.172   4.416   0.577
 1263TIP3   OH2 3745   6.226   2.715   1.546
 1263TIP3    H1 3746   6.183   2.650   1.491
 1263TIP3    H2 3747   6.206   2.799   1.506
 1264TIP3   OH2 3748   2.157   3.813   1.915
 1264TIP3    H1 3749   2.068   3.781   1.904
 1264TIP3    H2 3750   2.199   3.797   1.830
 1265TIP3   OH2 3751   6.259   6.413   3.443
 1265TIP3    H1 3752   6.230   6.452   3.361
 1265TIP3    H2 3753   6.355   6.410   3.437
 1266TIP3   OH2 3754   0.558   0.540   4.125
 1266TIP3    H1 3755   0.533   0.455   4.088
 1266TIP3    H2 3756   0.587   0.592   4.050
 1267TIP3   OH2 3757   6.592   1.240   5.376
 1267TIP3    H1 3758   6.529   1.299   5.333
 1267TIP3    H2 3759   6.568   1.153   5.343
 1268TIP3   OH2 3760   2.284   2.452   2.297
 1268TIP3    H1 3761   2.348   2.381   2.294
 1268TIP3    H2 3762   2.255   2.453   2.388
 1269TIP3   OH2 3763   1.461   6.943   2.065
 1269TIP3    H1 3764   1.412   6.996   2.002
 1269TIP3    H2 3765   1.522   6.893   2.012
 1270TIP3   OH2 3766   2.604   1.845   2.205
 1270TIP3    H1 3767   2.689   1.885   2.186
 1270TIP3    H2 3768   2.561   1.840   2.120
 1271TIP3   OH2 3769   1.562   1.793   1.898
 1271TIP3    H1 3770   1.526   1.712   1.861
 1271TIP3    H2 3771   1.575   1.773   1.991
 1272TIP3   OH2 3772   1.960   7.029   1.063
 1272TIP3    H1 3773   2.044   7.055   1.026
 1272TIP3    H2 3774   1.957   7.074   1.148
 1273TIP3   OH2 3775   2.664   3.175   2.035
 1273TIP3    H1 3776   2.745   3.125   2.049
 1273TIP3    H2 3777   2.604   3.113   1.994
 1274TIP3   OH2 3778   1.653   3.868   4.483
 1274TIP3    H1 3779   1.624   3.850   4.573
 1274TIP3    H2 3780   1.603   3.945   4.456
 1275TIP3   OH2 3781   6.402   2.243   5.276
 1275TIP3    H1 3782   6.436   2.169   5.326
 1275TIP3    H2 3783   6.307   2.238   5.287
 1276TIP3   OH2 3784   2.834   4.879   4.722
 1276TIP3    H1 3785   2.779   4.955   4.704
 1276TIP3    H2 3786   2.827   4.866   4.817
 1277TIP3   OH2 3787   2.433   0.765   5.916
 1277TIP3    H1 3788   2.406   0.719   5.837
 1277TIP3    H2 3789   2.491   0.705   5.961
 1278TIP3   OH2 3790   1.170   5.717   2.896
 1278TIP3    H1 3791   1.204   5.635   2.861
 1278TIP3    H2 3792   1.133   5.762   2.820
 1279TIP3   OH2 3793   3.173   7.548   0.352
 1279TIP3    H1 3794   3.085   7.547   0.315
 1279TIP3    H2 3795   3.214   7.626   0.314
 1280TIP3   OH2 3796   1.564   5.179   6.290
 1280TIP3    H1 3797   1.576   5.154   6.199
 1280TIP3    H2 3798   1.484   5.133   6.317
 1281TIP3   OH2 3799   2.248   1.403   5.349
 1281TIP3    H1 3800   2.182   1.380   5.415
 1281TIP3    H2 3801   2.237   1.498   5.337
 1282TIP3   OH2 3802   3.859   2.019   2.950
 1282TIP3    H1 3803   3.862   1.953   3.019
 1282TIP3    H2 3804   3.907   1.979   2.877
 1283TIP3   OH2 3805   1.313   4.599   2.146
 1283TIP3    H1 3806   1.402   4.611   2.178
 1283TIP3    H2 3807   1.271   4.684   2.159
 1284TIP3   OH2 3808   0.623   4.762   2.864
 1284TIP3    H1 3809   0.616   4.851   2.899
 1284TIP3    H2 3810   0.546   4.753   2.808
 1285TIP3   OH2 3811   0.622   5.428   5.693
 1285TIP3    H1 3812   0.699   5.378   5.668
 1285TIP3    H2 3813   0.550   5.365   5.688
 1286TIP3   OH2 3814   3.991   7.688   6.000
 1286TIP3    H1 3815   3.942   7.722   6.075
 1286TIP3    H2 3816   4.075   7.733   6.004
 1287TIP3   OH2 3817   7.629   1.686   5.091
 1287TIP3    H1 3818   7.606   1.760   5.036
 1287TIP3    H2 3819   7.716   1.660   5.061
 1288TIP3   OH2 3820   6.838   2.023   6.517
 1288TIP3    H1 3821   6.903   1.962   6.552
 1288TIP3    H2 3822   6.887   2.076   6.454
 1289TIP3   OH2 3823   6.823   7.126   0.675
 1289TIP3    H1 3824   6.729   7.133   0.655
 1289TIP3    H2 3825   6.851   7.216   0.689
 1290TIP3   OH2 3826   4.373   7.264   5.439
 1290TIP3    H1 3827   4.458   7.224   5.455
 1290TIP3    H2 3828   4.392   7.355   5.419
 1291TIP3   OH2 3829   5.637   5.994   2.586
 1291TIP3    H1 3830   5.680   6.000   2.671
 1291TIP3    H2 3831   5.704   5.962   2.526
 1292TIP3   OH2 3832   2.776   6.186   0.512
 1292TIP3    H1 3833   2.864   6.197   0.475
 1292TIP3    H2 3834   2.729   6.265   0.483
 1293TIP3   OH2 3835   3.226   6.790   4.460
 1293TIP3    H1 3836   3.185   6.863   4.508
 1293TIP3    H2 3837   3.318   6.817   4.450
 1294TIP3   OH2 3838   4.275   2.295   4.253
 1294TIP3    H1 3839   4.206   2.250   4.300
 1294TIP3    H2 3840   4.351   2.237   4.259
 1295TIP3   OH2 3841   7.291   6.984   6.577
 1295TIP3    H1 3842   7.274   7.062   6.524
 1295TIP3    H2 3843   7.204   6.954   6.604
 1296TIP3   OH2 3844   7.700   2.007   4.332
 1296TIP3    H1 3845   7.724   2.093   4.367
 1296TIP3    H2 3846   7.775   1.951   4.350
 1297TIP3   OH2 3847   6.853   2.920   3.222
 1297TIP3    H1 3848   6.943   2.923   3.188
 1297TIP3    H2 3849   6.799   2.910   3.144
 1298TIP3   OH2 3850   8.029   7.333   0.496
 1298TIP3    H1 3851   7.952   7.308   0.547
 1298TIP3    H2 3852   8.016   7.426   0.476
 1299TIP3   OH2 3853   7.403   3.749   6.107
 1299TIP3    H1 3854   7.353   3.824   6.076
 1299TIP3    H2 3855   7.493   3.767   6.079
 1300TIP3   OH2 3856   7.638   4.756   0.856
 1300TIP3    H1 3857   7.554   4.803   0.856
 1300TIP3    H2 3858   7.701   4.818   0.891
 1301TIP3   OH2 3859   0.498   6.762   2.232
 1301TIP3    H1 3860   0.460   6.753   2.319
 1301TIP3    H2 3861   0.585   6.723   2.239
 1302TIP3   OH2 3862   0.219   2.344   2.768
 1302TIP3    H1 3863   0.253   2.432   2.748
 1302TIP3    H2 3864   0.279   2.285   2.723
 1303TIP3   OH2 3865   0.505   4.357   4.208
 1303TIP3    H1 3866   0.530   4.327   4.121
 1303TIP3    H2 3867   0.431   4.415   4.193
 1304TIP3   OH2 3868   4.268   6.450   1.868
 1304TIP3    H1 3869   4.341   6.466   1.809
 1304TIP3    H2 3870   4.191   6.454   1.812
 1305TIP3   OH2 3871   5.548   4.603   0.389
 1305TIP3    H1 3872   5.548   4.688   0.435
 1305TIP3    H2 3873   5.576   4.540   0.456
 1306TIP3   OH2 3874   6.646   1.691   2.788
 1306TIP3    H1 3875   6.576   1.755   2.777
 1306TIP3    H2 3876   6.685   1.684   2.701
 1307TIP3   OH2 3877   6.791   6.045   0.326
 1307TIP3    H1 3878   6.739   5.972   0.293
 1307TIP3    H2 3879   6.829   6.013   0.408
 1308TIP3   OH2 3880   3.778   3.280   4.970
 1308TIP3    H1 3881   3.690   3.249   4.991
 1308TIP3    H2 3882   3.769   3.375   4.964
 1309TIP3   OH2 3883   2.715   1.066   1.529
 1309TIP3    H1 3884   2.771   0.991   1.509
 1309TIP3    H2 3885   2.698   1.058   1.623
 1310TIP3   OH2 3886   2.175   0.965   2.293
 1310TIP3    H1 3887   2.196   0.990   2.383
 1310TIP3    H2 3888   2.163   0.871   2.296
 1311TIP3   OH2 3889   6.421   1.333   2.763
 1311TIP3    H1 3890   6.372   1.266   2.715
 1311TIP3    H2 3891   6.387   1.327   2.852
 1312TIP3   OH2 3892   4.031   6.340   6.245
 1312TIP3    H1 3893   4.046   6.430   6.216
 1312TIP3    H2 3894   3.947   6.343   6.291
 1313TIP3   OH2 3895   7.898   0.434   2.194
 1313TIP3    H1 3896   7.959   0.507   2.202
 1313TIP3    H2 3897   7.841   0.458   2.121
 1314TIP3   OH2 3898   7.800   5.855   2.492
 1314TIP3    H1 3899   7.749   5.838   2.571
 1314TIP3    H2 3900   7.884   5.813   2.509
 1315TIP3   OH2 3901   5.156   3.890   1.636
 1315TIP3    H1 3902   5.217   3.834   1.683
 1315TIP3    H2 3903   5.073   3.881   1.684
 1316TIP3   OH2 3904   3.560   5.532   4.863
 1316TIP3    H1 3905   3.624   5.484   4.811
 1316TIP3    H2 3906   3.484   5.539   4.806
 1317TIP3   OH2 3907   0.770   5.523   0.953
 1317TIP3    H1 3908   0.826   5.470   1.009
 1317TIP3    H2 3909   0.751   5.466   0.878
 1318TIP3   OH2 3910   8.056   1.574   3.793
 1318TIP3    H1 3911   8.031   1.488   3.828
 1318TIP3    H2 3912   8.050   1.564   3.698
 1319TIP3   OH2 3913   6.734   4.209   0.320
 1319TIP3    H1 3914   6.649   4.239   0.285
 1319TIP3    H2 3915   6.798   4.257   0.268
 1320TIP3   OH2 3916   7.712   2.368   4.849
 1320TIP3    H1 3917   7.668   2.370   4.934
 1320TIP3    H2 3918   7.733   2.460   4.831
 1321TIP3   OH2 3919   7.087   1.807   1.248
 1321TIP3    H1 3920   7.168   1.770   1.283
 1321TIP3    H2 3921   7.092   1.900   1.269
 1322TIP3   OH2 3922   7.069   0.774   2.649
 1322TIP3    H1 3923   7.106   0.729   2.573
 1322TIP3    H2 3924   7.001   0.715   2.681
 1323TIP3   OH2 3925   7.938   3.678   6.602
 1323TIP3    H1 3926   7.886   3.631   6.537
 1323TIP3    H2 3927   7.889   3.670   6.683
 1324TIP3   OH2 3928   2.817   5.932   1.904
 1324TIP3    H1 3929   2.805   5.982   1.985
 1324TIP3    H2 3930   2.739   5.951   1.853
 1325TIP3   OH2 3931   0.296   6.382   3.398
 1325TIP3    H1 3932   0.214   6.404   3.352
 1325TIP3    H2 3933   0.363   6.389   3.331
 1326TIP3   OH2 3934   6.405   4.672   0.604
 1326TIP3    H1 3935   6.426   4.761   0.632
 1326TIP3    H2 3936   6.311   4.663   0.622
 1327TIP3   OH2 3937   6.476   4.192   0.256
 1327TIP3    H1 3938   6.431   4.178   0.339
 1327TIP3    H2 3939   6.437   4.128   0.196
 1328TIP3   OH2 3940   5.273   6.715   5.585
 1328TIP3    H1 3941   5.186   6.717   5.625
 1328TIP3    H2 3942   5.305   6.805   5.594
 1329TIP3   OH2 3943   8.000   6.986   1.299
 1329TIP3    H1 3944   7.990   6.902   1.343
 1329TIP3    H2 3945   7.991   6.966   1.206
 1330TIP3   OH2 3946   1.576   6.728   1.900
 1330TIP3    H1 3947   1.660   6.758   1.864
 1330TIP3    H2 3948   1.549   6.658   1.841
 1331TIP3   OH2 3949   2.723   0.560   6.666
 1331TIP3    H1 3950   2.790   0.521   6.609
 1331TIP3    H2 3951   2.774   0.603   6.735
 1332TIP3   OH2 3952   1.118   1.692   1.280
 1332TIP3    H1 3953   1.044   1.716   1.335
 1332TIP3    H2 3954   1.092   1.719   1.192
 1333TIP3   OH2 3955   2.136   7.652   5.551
 1333TIP3    H1 3956   2.073   7.664   5.480
 1333TIP3    H2 3957   2.082   7.633   5.627
 1334TIP3   OH2 3958   3.063   4.648   2.782
 1334TIP3    H1 3959   3.058   4.555   2.806
 1334TIP3    H2 3960   3.109   4.689   2.855
 1335TIP3   OH2 3961   0.433   3.565   5.145
 1335TIP3    H1 3962   0.461   3.548   5.055
 1335TIP3    H2 3963   0.506   3.614   5.184
 1336TIP3   OH2 3964   1.460   7.635   5.610
 1336TIP3    H1 3965   1.435   7.719   5.649
 1336TIP3    H2 3966   1.418   7.570   5.665
 1337TIP3   OH2 3967   1.579   6.184   2.963
 1337TIP3    H1 3968   1.559   6.198   3.055
 1337TIP3    H2 3969   1.504   6.222   2.916
 1338TIP3   OH2 3970   7.180   5.473   4.355
 1338TIP3    H1 3971   7.246   5.498   4.419
 1338TIP3    H2 3972   7.146   5.390   4.388
 1339TIP3   OH2 3973   5.257   1.642   6.209
 1339TIP3    H1 3974   5.342   1.665   6.246
 1339TIP3    H2 3975   5.193   1.686   6.265
 1340TIP3   OH2 3976   5.490   7.441   0.437
 1340TIP3    H1 3977   5.461   7.518   0.486
 1340TIP3    H2 3978   5.550   7.476   0.371
 1341TIP3   OH2 3979   2.699   2.155   5.511
 1341TIP3    H1 3980   2.704   2.078   5.455
 1341TIP3    H2 3981   2.665   2.224   5.455
 1342TIP3   OH2 3982   1.622   0.816   0.493
 1342TIP3    H1 3983   1.585   0.788   0.577
 1342TIP3    H2 3984   1.554   0.796   0.429
 1343TIP3   OH2 3985   7.716   0.194   1.162
 1343TIP3    H1 3986   7.805   0.214   1.192
 1343TIP3    H2 3987   7.696   0.263   1.098
 1344TIP3   OH2 3988   4.750   6.474   5.647
 1344TIP3    H1 3989   4.838   6.435   5.646
 1344TIP3    H2 3990   4.763   6.563   5.614
 1345TIP3   OH2 3991   6.937   6.498   1.210
 1345TIP3    H1 3992   7.027   6.483   1.239
 1345TIP3    H2 3993   6.930   6.593   1.198
 1346TIP3   OH2 3994   6.372   0.827   1.658
 1346TIP3    H1 3995   6.467   0.825   1.647
 1346TIP3    H2 3996   6.357   0.891   1.727
 1347TIP3   OH2 3997   5.808   3.948   3.616
 1347TIP3    H1 3998   5.844   3.899   3.690
 1347TIP3    H2 3999   5.714   3.956   3.636
 1348TIP3   OH2 4000   1.394   3.726   4.570
 1348TIP3    H1 4001   1.413   3.818   4.555
 1348TIP3    H2 4002   1.308   3.725   4.613
 1349TIP3   OH2 4003   0.687   2.029   1.275
 1349TIP3    H1 4004   0.617   2.051   1.336
 1349TIP3    H2 4005   0.645   2.025   1.190
 1350TIP3   OH2 4006   6.106   3.655   4.179
 1350TIP3    H1 4007   6.066   3.572   4.154
 1350TIP3    H2 4008   6.047   3.690   4.246
 1351TIP3   OH2 4009   2.941   7.716   6.385
 1351TIP3    H1 4010   2.918   7.805   6.357
 1351TIP3    H2 4011   2.866   7.688   6.437
 1352TIP3   OH2 4012   4.811   1.131   3.945
 1352TIP3    H1 4013   4.882   1.142   4.009
 1352TIP3    H2 4014   4.748   1.200   3.967
 1353TIP3   OH2 4015   0.547   6.584   4.262
 1353TIP3    H1 4016   0.592   6.640   4.326
 1353TIP3    H2 4017   0.471   6.550   4.310
 1354TIP3   OH2 4018   5.251   0.953   3.983
 1354TIP3    H1 4019   5.230   0.974   3.892
 1354TIP3    H2 4020   5.313   1.022   4.010
 1355TIP3   OH2 4021   4.933   6.165   1.935
 1355TIP3    H1 4022   4.990   6.110   1.880
 1355TIP3    H2 4023   4.993   6.226   1.978
 1356TIP3   OH2 4024   3.608   5.924   1.517
 1356TIP3    H1 4025   3.641   6.000   1.565
 1356TIP3    H2 4026   3.549   5.961   1.451
 1357TIP3   OH2 4027   4.074   0.152   4.438
 1357TIP3    H1 4028   4.115   0.065   4.442
 1357TIP3    H2 4029   4.119   0.196   4.366
 1358TIP3   OH2 4030   7.494   1.516   3.588
 1358TIP3    H1 4031   7.470   1.449   3.652
 1358TIP3    H2 4032   7.487   1.598   3.636
 1359TIP3   OH2 4033   5.986   2.097   4.030
 1359TIP3    H1 4034   5.967   2.028   4.094
 1359TIP3    H2 4035   6.047   2.057   3.968
 1360TIP3   OH2 4036   3.278   1.917   4.823
 1360TIP3    H1 4037   3.222   1.895   4.748
 1360TIP3    H2 4038   3.228   1.889   4.900
 1361TIP3   OH2 4039   2.354   6.934   0.710
 1361TIP3    H1 4040   2.439   6.973   0.731
 1361TIP3    H2 4041   2.290   7.004   0.728
 1362TIP3   OH2 4042   7.120   5.267   0.368
 1362TIP3    H1 4043   7.087   5.183   0.399
 1362TIP3    H2 4044   7.115   5.324   0.445
 1363TIP3   OH2 4045   2.240   2.744   5.094
 1363TIP3    H1 4046   2.280   2.771   5.012
 1363TIP3    H2 4047   2.159   2.700   5.069
 1364TIP3   OH2 4048   0.195   3.605   6.086
 1364TIP3    H1 4049   0.196   3.613   5.991
 1364TIP3    H2 4050   0.283   3.574   6.109
 1365TIP3   OH2 4051   0.238   2.855   0.396
 1365TIP3    H1 4052   0.181   2.809   0.459
 1365TIP3    H2 4053   0.201   2.833   0.311
 1366TIP3   OH2 4054   8.141   0.038   3.066
 1366TIP3    H1 4055   8.112  -0.033   3.010
 1366TIP3    H2 4056   8.173   0.105   3.005
 1367TIP3   OH2 4057   2.759   0.657   2.011
 1367TIP3    H1 4058   2.784   0.606   1.934
 1367TIP3    H2 4059   2.669   0.683   1.995
 1368TIP3   OH2 4060   7.075   1.776   4.355
 1368TIP3    H1 4061   7.155   1.815   4.320
 1368TIP3    H2 4062   7.097   1.684   4.367
 1369TIP3   OH2 4063   1.565   6.123   4.769
 1369TIP3    H1 4064   1.547   6.032   4.747
 1369TIP3    H2 4065   1.615   6.156   4.694
 1370TIP3   OH2 4066   6.507   5.629   2.383
 1370TIP3    H1 4067   6.509   5.537   2.411
 1370TIP3    H2 4068   6.474   5.676   2.459
 1371TIP3   OH2 4069   7.865   4.834   6.750
 1371TIP3    H1 4070   7.918   4.879   6.815
 1371TIP3    H2 4071   7.855   4.897   6.679
 1372TIP3   OH2 4072   2.633   6.280   3.488
 1372TIP3    H1 4073   2.693   6.290   3.414
 1372TIP3    H2 4074   2.655   6.194   3.525
 1373TIP3   OH2 4075   3.484   0.037   0.490
 1373TIP3    H1 4076   3.521   0.088   0.562
 1373TIP3    H2 4077   3.540   0.057   0.415
 1374TIP3   OH2 4078   5.480   6.158   5.422
 1374TIP3    H1 4079   5.430   6.098   5.366
 1374TIP3    H2 4080   5.521   6.220   5.362
 1375TIP3   OH2 4081   4.559   4.109   5.903
 1375TIP3    H1 4082   4.544   4.041   5.969
 1375TIP3    H2 4083   4.652   4.128   5.910
 1376TIP3   OH2 4084   4.186   2.189   4.615
 1376TIP3    H1 4085   4.161   2.175   4.524
 1376TIP3    H2 4086   4.156   2.277   4.635
 1377TIP3   OH2 4087   6.764   4.898   1.494
 1377TIP3    H1 4088   6.733   4.988   1.482
 1377TIP3    H2 4089   6.686   4.844   1.489
 1378TIP3   OH2 4090   6.279   3.536   3.932
 1378TIP3    H1 4091   6.225   3.589   3.873
 1378TIP3    H2 4092   6.216   3.483   3.981
 1379TIP3   OH2 4093   7.966   1.674   2.175
 1379TIP3    H1 4094   7.877   1.678   2.139
 1379TIP3    H2 4095   8.017   1.735   2.122
 1380TIP3   OH2 4096   4.202   4.501   4.465
 1380TIP3    H1 4097   4.175   4.514   4.374
 1380TIP3    H2 4098   4.250   4.419   4.464
 1381TIP3   OH2 4099   2.476   3.208   3.929
 1381TIP3    H1 4100   2.414   3.138   3.912
 1381TIP3    H2 4101   2.452   3.276   3.866
 1382TIP3   OH2 4102   5.090   0.678   5.585
 1382TIP3    H1 4103   5.087   0.674   5.490
 1382TIP3    H2 4104   5.099   0.587   5.613
 1383TIP3   OH2 4105   7.831   5.539   2.568
 1383TIP3    H1 4106   7.901   5.550   2.632
 1383TIP3    H2 4107   7.753   5.519   2.620
 1384TIP3   OH2 4108   4.295   5.660   3.238
 1384TIP3    H1 4109   4.229   5.647   3.171
 1384TIP3    H2 4110   4.354   5.727   3.201
 1385TIP3   OH2 4111   4.139   6.451   6.736
 1385TIP3    H1 4112   4.165   6.359   6.743
 1385TIP3    H2 4113   4.175   6.492   6.814
 1386TIP3   OH2 4114   3.812   5.673   4.465
 1386TIP3    H1 4115   3.888   5.711   4.510
 1386TIP3    H2 4116   3.743   5.739   4.474
 1387TIP3   OH2 4117   4.625   0.982   5.236
 1387TIP3    H1 4118   4.660   1.034   5.308
 1387TIP3    H2 4119   4.686   0.995   5.164
 1388TIP3   OH2 4120   0.213   3.907   4.639
 1388TIP3    H1 4121   0.282   3.944   4.694
 1388TIP3    H2 4122   0.170   3.842   4.695
 1389TIP3   OH2 4123   5.510   1.527   3.079
 1389TIP3    H1 4124   5.497   1.525   2.984
 1389TIP3    H2 4125   5.427   1.495   3.115
 1390TIP3   OH2 4126   1.697   4.268   2.290
 1390TIP3    H1 4127   1.643   4.304   2.361
 1390TIP3    H2 4128   1.782   4.310   2.301
 1391TIP3   OH2 4129   0.618   3.207   0.534
 1391TIP3    H1 4130   0.564   3.279   0.503
 1391TIP3    H2 4131   0.570   3.128   0.509
 1392TIP3   OH2 4132   7.230   4.101   0.642
 1392TIP3    H1 4133   7.221   4.006   0.633
 1392TIP3    H2 4134   7.323   4.116   0.657
 1393TIP3   OH2 4135   5.793   6.763   4.563
 1393TIP3    H1 4136   5.736   6.691   4.535
 1393TIP3    H2 4137   5.830   6.797   4.482
 1394TIP3   OH2 4138   6.126   2.922   4.580
 1394TIP3    H1 4139   6.177   2.999   4.608
 1394TIP3    H2 4140   6.039   2.937   4.616
 1395TIP3   OH2 4141   8.213   0.370   0.070
 1395TIP3    H1 4142   8.251   0.436   0.129
 1395TIP3    H2 4143   8.249   0.287   0.101
 1396TIP3   OH2 4144   1.400   4.556   4.123
 1396TIP3    H1 4145   1.460   4.495   4.164
 1396TIP3    H2 4146   1.334   4.574   4.190
 1397TIP3   OH2 4147   0.082   4.846   2.438
 1397TIP3    H1 4148   0.062   4.830   2.530
 1397TIP3    H2 4149   0.103   4.939   2.433
 1398TIP3   OH2 4150   3.140   0.208   6.443
 1398TIP3    H1 4151   3.218   0.179   6.492
 1398TIP3    H2 4152   3.140   0.303   6.453
 1399TIP3   OH2 4153   8.228   7.004   4.588
 1399TIP3    H1 4154   8.234   7.039   4.677
 1399TIP3    H2 4155   8.293   6.934   4.585
 1400TIP3   OH2 4156   3.743   4.348   0.247
 1400TIP3    H1 4157   3.810   4.293   0.288
 1400TIP3    H2 4158   3.670   4.347   0.309
 1401TIP3   OH2 4159   0.853   2.019   5.091
 1401TIP3    H1 4160   0.920   1.972   5.140
 1401TIP3    H2 4161   0.770   1.985   5.125
 1402TIP3   OH2 4162   1.042   3.526   2.533
 1402TIP3    H1 4163   1.018   3.615   2.505
 1402TIP3    H2 4164   1.109   3.499   2.470
 1403TIP3   OH2 4165   4.138   2.057   3.755
 1403TIP3    H1 4166   4.076   2.114   3.710
 1403TIP3    H2 4167   4.137   1.976   3.704
 1404TIP3   OH2 4168   1.824   4.927   3.755
 1404TIP3    H1 4169   1.793   5.010   3.719
 1404TIP3    H2 4170   1.837   4.945   3.848
 1405TIP3   OH2 4171   0.418   5.962   6.455
 1405TIP3    H1 4172   0.506   5.938   6.485
 1405TIP3    H2 4173   0.431   6.047   6.411
 1406TIP3   OH2 4174   7.556   0.532   2.131
 1406TIP3    H1 4175   7.590   0.621   2.136
 1406TIP3    H2 4176   7.479   0.532   2.188
 1407TIP3   OH2 4177   5.159   3.968   1.255
 1407TIP3    H1 4178   5.222   3.971   1.328
 1407TIP3    H2 4179   5.120   3.881   1.261
 1408TIP3   OH2 4180   7.112   5.198   4.379
 1408TIP3    H1 4181   7.032   5.168   4.336
 1408TIP3    H2 4182   7.166   5.119   4.386
 1409TIP3   OH2 4183   7.918   1.874   0.718
 1409TIP3    H1 4184   7.988   1.837   0.665
 1409TIP3    H2 4185   7.935   1.968   0.717
 1410TIP3   OH2 4186   5.649   1.557   1.393
 1410TIP3    H1 4187   5.700   1.637   1.382
 1410TIP3    H2 4188   5.652   1.515   1.307
 1411TIP3   OH2 4189   4.584   5.526   4.923
 1411TIP3    H1 4190   4.501   5.573   4.918
 1411TIP3    H2 4191   4.559   5.434   4.919
 1412TIP3   OH2 4192   5.373   2.078   0.936
 1412TIP3    H1 4193   5.336   2.060   1.022
 1412TIP3    H2 4194   5.298   2.079   0.877
 1413TIP3   OH2 4195   6.864   3.078   3.467
 1413TIP3    H1 4196   6.957   3.090   3.483
 1413TIP3    H2 4197   6.859   3.048   3.376
 1414TIP3   OH2 4198   4.331   7.499   5.761
 1414TIP3    H1 4199   4.275   7.455   5.698
 1414TIP3    H2 4200   4.397   7.434   5.785
 1415TIP3   OH2 4201   0.643   2.272   2.346
 1415TIP3    H1 4202   0.612   2.337   2.283
 1415TIP3    H2 4203   0.739   2.277   2.339
 1416TIP3   OH2 4204   2.982   5.355   6.702
 1416TIP3    H1 4205   2.982   5.414   6.777
 1416TIP3    H2 4206   2.900   5.306   6.710
 1417TIP3   OH2 4207   7.268   1.842   2.575
 1417TIP3    H1 4208   7.357   1.810   2.591
 1417TIP3    H2 4209   7.264   1.925   2.623
 1418TIP3   OH2 4210   3.102   4.301   5.623
 1418TIP3    H1 4211   3.043   4.226   5.628
 1418TIP3    H2 4212   3.165   4.288   5.694
 1419TIP3   OH2 4213   3.385   5.413   2.003
 1419TIP3    H1 4214   3.382   5.420   2.098
 1419TIP3    H2 4215   3.297   5.384   1.978
 1420TIP3   OH2 4216   5.548   5.351   5.783
 1420TIP3    H1 4217   5.523   5.389   5.698
 1420TIP3    H2 4218   5.582   5.426   5.833
 1421TIP3   OH2 4219   6.706   6.377   4.300
 1421TIP3    H1 4220   6.719   6.460   4.347
 1421TIP3    H2 4221   6.766   6.316   4.341
 1422TIP3   OH2 4222   5.525   0.477   5.395
 1422TIP3    H1 4223   5.565   0.507   5.476
 1422TIP3    H2 4224   5.599   0.467   5.334
 1423TIP3   OH2 4225   5.165   3.646   5.949
 1423TIP3    H1 4226   5.192   3.719   6.005
 1423TIP3    H2 4227   5.218   3.572   5.978
 1424TIP3   OH2 4228   0.140   1.211   3.966
 1424TIP3    H1 4229   0.077   1.283   3.970
 1424TIP3    H2 4230   0.224   1.251   3.988
 1425TIP3   OH2 4231   6.027   3.368   1.046
 1425TIP3    H1 4232   6.114   3.328   1.055
 1425TIP3    H2 4233   5.974   3.303   1.001
 1426TIP3   OH2 4234   0.088   6.523   3.279
 1426TIP3    H1 4235   0.024   6.567   3.335
 1426TIP3    H2 4236   0.035   6.478   3.213
 1427TIP3   OH2 4237   0.553   1.404   1.300
 1427TIP3    H1 4238   0.562   1.444   1.386
 1427TIP3    H2 4239   0.458   1.391   1.289
 1428TIP3   OH2 4240   2.731   3.500   1.885
 1428TIP3    H1 4241   2.709   3.591   1.904
 1428TIP3    H2 4242   2.808   3.482   1.937
 1429TIP3   OH2 4243   2.627   3.691   1.382
 1429TIP3    H1 4244   2.675   3.655   1.457
 1429TIP3    H2 4245   2.691   3.691   1.310
 1430TIP3   OH2 4246   1.130   5.795   5.568
 1430TIP3    H1 4247   1.118   5.763   5.479
 1430TIP3    H2 4248   1.198   5.862   5.561
 1431TIP3   OH2 4249   0.809   2.583   2.413
 1431TIP3    H1 4250   0.825   2.671   2.446
 1431TIP3    H2 4251   0.870   2.572   2.340
 1432TIP3   OH2 4252   7.858   2.991   2.595
 1432TIP3    H1 4253   7.939   2.959   2.555
 1432TIP3    H2 4254   7.815   2.912   2.629
 1433TIP3   OH2 4255   5.396   3.897   6.024
 1433TIP3    H1 4256   5.361   3.973   5.978
 1433TIP3    H2 4257   5.367   3.908   6.115
 1434TIP3   OH2 4258   3.657   0.676   1.920
 1434TIP3    H1 4259   3.743   0.718   1.915
 1434TIP3    H2 4260   3.665   0.615   1.994
 1435TIP3   OH2 4261   2.174   3.903   0.039
 1435TIP3    H1 4262   2.079   3.892   0.037
 1435TIP3    H2 4263   2.192   3.962  -0.034
 1436TIP3   OH2 4264   6.190   4.492   6.420
 1436TIP3    H1 4265   6.151   4.412   6.386
 1436TIP3    H2 4266   6.254   4.518   6.354
 1437TIP3   OH2 4267   1.853   7.054   0.813
 1437TIP3    H1 4268   1.891   7.003   0.885
 1437TIP3    H2 4269   1.811   7.128   0.856
 1438TIP3   OH2 4270   4.207   5.465   4.730
 1438TIP3    H1 4271   4.115   5.438   4.719
 1438TIP3    H2 4272   4.219   5.468   4.825
 1439TIP3   OH2 4273   4.174   3.227   4.059
 1439TIP3    H1 4274   4.151   3.156   3.999
 1439TIP3    H2 4275   4.093   3.276   4.070
 1440TIP3   OH2 4276   2.048   1.756   0.688
 1440TIP3    H1 4277   2.051   1.837   0.637
 1440TIP3    H2 4278   1.955   1.737   0.698
 1441TIP3   OH2 4279   3.218   4.690   5.229
 1441TIP3    H1 4280   3.176   4.748   5.292
 1441TIP3    H2 4281   3.312   4.709   5.237
 1442TIP3   OH2 4282   6.859   5.489   5.606
 1442TIP3    H1 4283   6.883   5.443   5.687
 1442TIP3    H2 4284   6.764   5.479   5.600
 1443TIP3   OH2 4285   6.626   0.201   6.068
 1443TIP3    H1 4286   6.649   0.166   5.982
 1443TIP3    H2 4287   6.575   0.132   6.110
 1444TIP3   OH2 4288   7.381   6.304   2.409
 1444TIP3    H1 4289   7.386   6.314   2.505
 1444TIP3    H2 4290   7.401   6.391   2.375
 1445TIP3   OH2 4291   0.816   0.442   2.701
 1445TIP3    H1 4292   0.823   0.474   2.611
 1445TIP3    H2 4293   0.848   0.515   2.755
 1446TIP3   OH2 4294   6.291   0.543   0.338
 1446TIP3    H1 4295   6.208   0.496   0.352
 1446TIP3    H2 4296   6.291   0.610   0.407
 1447TIP3   OH2 4297   7.847   0.077   0.682
 1447TIP3    H1 4298   7.776   0.121   0.729
 1447TIP3    H2 4299   7.803   0.007   0.634
 1448TIP3   OH2 4300   0.895   6.161   5.377
 1448TIP3    H1 4301   0.890   6.066   5.367
 1448TIP3    H2 4302   0.853   6.196   5.299
 1449TIP3   OH2 4303   4.544   0.535   2.675
 1449TIP3    H1 4304   4.468   0.565   2.625
 1449TIP3    H2 4305   4.546   0.440   2.661
 1450TIP3   OH2 4306   4.952   3.795   5.184
 1450TIP3    H1 4307   5.038   3.835   5.176
 1450TIP3    H2 4308   4.944   3.774   5.278
 1451TIP3   OH2 4309   6.042   4.328   1.015
 1451TIP3    H1 4310   5.968   4.269   1.005
 1451TIP3    H2 4311   6.066   4.322   1.107
 1452TIP3   OH2 4312   2.285   6.255   2.084
 1452TIP3    H1 4313   2.261   6.219   1.999
 1452TIP3    H2 4314   2.371   6.295   2.070
 1453TIP3   OH2 4315   6.060   0.135   2.503
 1453TIP3    H1 4316   6.095   0.071   2.566
 1453TIP3    H2 4317   5.967   0.115   2.499
 1454TIP3   OH2 4318   4.068   3.898   4.721
 1454TIP3    H1 4319   4.011   3.890   4.645
 1454TIP3    H2 4320   4.149   3.855   4.695
 1455TIP3   OH2 4321   7.461   4.252   5.361
 1455TIP3    H1 4322   7.369   4.225   5.360
 1455TIP3    H2 4323   7.510   4.171   5.347
 1456TIP3   OH2 4324   3.094   7.076   2.594
 1456TIP3    H1 4325   3.002   7.061   2.619
 1456TIP3    H2 4326   3.123   7.147   2.650
 1457TIP3   OH2 4327   4.006   0.306   5.991
 1457TIP3    H1 4328   4.015   0.401   5.997
 1457TIP3    H2 4329   3.977   0.290   5.901
 1458TIP3   OH2 4330   5.069   2.352   2.539
 1458TIP3    H1 4331   5.156   2.389   2.557
 1458TIP3    H2 4332   5.025   2.353   2.624
 1459TIP3   OH2 4333   0.916   0.371   4.137
 1459TIP3    H1 4334   0.969   0.324   4.202
 1459TIP3    H2 4335   0.853   0.421   4.190
 1460TIP3   OH2 4336   6.008   1.672   3.182
 1460TIP3    H1 4337   6.030   1.680   3.089
 1460TIP3    H2 4338   5.988   1.762   3.209
 1461TIP3   OH2 4339   1.985   3.722   0.538
 1461TIP3    H1 4340   2.030   3.647   0.500
 1461TIP3    H2 4341   1.900   3.689   0.566
 1462TIP3   OH2 4342   3.569   0.962   3.089
 1462TIP3    H1 4343   3.535   0.877   3.117
 1462TIP3    H2 4344   3.491   1.018   3.081
 1463TIP3   OH2 4345   1.248   5.493   1.845
 1463TIP3    H1 4346   1.289   5.533   1.922
 1463TIP3    H2 4347   1.155   5.492   1.866
 1464TIP3   OH2 4348   3.943   3.376   2.855
 1464TIP3    H1 4349   3.943   3.399   2.948
 1464TIP3    H2 4350   3.852   3.356   2.835
 1465TIP3   OH2 4351   3.556   2.074   3.923
 1465TIP3    H1 4352   3.604   1.991   3.920
 1465TIP3    H2 4353   3.592   2.120   3.999
 1466TIP3   OH2 4354   8.068   4.372   2.110
 1466TIP3    H1 4355   7.992   4.430   2.100
 1466TIP3    H2 4356   8.047   4.318   2.186
 1467TIP3   OH2 4357   2.256   0.463   3.038
 1467TIP3    H1 4358   2.170   0.430   3.012
 1467TIP3    H2 4359   2.266   0.546   2.991
 1468TIP3   OH2 4360   1.272   5.011   3.438
 1468TIP3    H1 4361   1.281   5.063   3.358
 1468TIP3    H2 4362   1.357   4.968   3.448
 1469TIP3   OH2 4363   4.577   0.485   4.725
 1469TIP3    H1 4364   4.578   0.524   4.638
 1469TIP3    H2 4365   4.583   0.391   4.710
 1470TIP3   OH2 4366   7.467   0.724   5.572
 1470TIP3    H1 4367   7.379   0.699   5.600
 1470TIP3    H2 4368   7.494   0.793   5.633
 1471TIP3   OH2 4369   4.458   5.473   6.566
 1471TIP3    H1 4370   4.392   5.442   6.627
 1471TIP3    H2 4371   4.533   5.495   6.621
 1472TIP3   OH2 4372   1.846   3.250   1.912
 1472TIP3    H1 4373   1.890   3.182   1.862
 1472TIP3    H2 4374   1.777   3.282   1.854
 1473TIP3   OH2 4375   1.449   7.529   6.417
 1473TIP3    H1 4376   1.411   7.613   6.390
 1473TIP3    H2 4377   1.377   7.466   6.410
 1474TIP3   OH2 4378   7.457   3.985   6.350
 1474TIP3    H1 4379   7.366   3.954   6.352
 1474TIP3    H2 4380   7.457   4.061   6.409
 1475TIP3   OH2 4381   0.458   5.581   2.472
 1475TIP3    H1 4382   0.510   5.539   2.404
 1475TIP3    H2 4383   0.429   5.663   2.433
 1476TIP3   OH2 4384   3.651   2.353   1.127
 1476TIP3    H1 4385   3.567   2.396   1.112
 1476TIP3    H2 4386   3.675   2.317   1.041
 1477TIP3   OH2 4387   2.177   6.610   5.818
 1477TIP3    H1 4388   2.092   6.572   5.840
 1477TIP3    H2 4389   2.159   6.703   5.806
 1478TIP3   OH2 4390   6.025   1.966   3.112
 1478TIP3    H1 4391   5.944   2.017   3.117
 1478TIP3    H2 4392   6.049   1.950   3.203
 1479TIP3   OH2 4393   7.385   1.869   2.009
 1479TIP3    H1 4394   7.447   1.812   2.055
 1479TIP3    H2 4395   7.373   1.944   2.067
 1480TIP3   OH2 4396   5.646   5.778   3.103
 1480TIP3    H1 4397   5.609   5.865   3.091
 1480TIP3    H2 4398   5.736   5.794   3.131
 1481TIP3   OH2 4399   6.621   4.484   0.511
 1481TIP3    H1 4400   6.574   4.424   0.452
 1481TIP3    H2 4401   6.553   4.539   0.548
 1482TIP3   OH2 4402   5.745   0.294   2.619
 1482TIP3    H1 4403   5.754   0.216   2.563
 1482TIP3    H2 4404   5.661   0.282   2.663
 1483TIP3   OH2 4405   8.147   1.986   0.939
 1483TIP3    H1 4406   8.126   1.943   1.022
 1483TIP3    H2 4407   8.171   2.075   0.964
 1484TIP3   OH2 4408   4.082   1.968   1.584
 1484TIP3    H1 4409   4.115   1.904   1.521
 1484TIP3    H2 4410   4.012   2.014   1.536
 1485TIP3   OH2 4411   3.831   6.289   3.243
 1485TIP3    H1 4412   3.914   6.310   3.288
 1485TIP3    H2 4413   3.764   6.329   3.298
 1486TIP3   OH2 4414   1.834   2.412   2.447
 1486TIP3    H1 4415   1.854   2.498   2.485
 1486TIP3    H2 4416   1.840   2.351   2.521
 1487TIP3   OH2 4417   5.470   7.728   4.718
 1487TIP3    H1 4418   5.426   7.691   4.642
 1487TIP3    H2 4419   5.426   7.811   4.734
 1488TIP3   OH2 4420   1.067   0.247   1.973
 1488TIP3    H1 4421   1.138   0.214   1.919
 1488TIP3    H2 4422   1.028   0.169   2.012
 1489TIP3   OH2 4423   2.901   0.291   3.788
 1489TIP3    H1 4424   2.942   0.276   3.703
 1489TIP3    H2 4425   2.934   0.376   3.817
 1490TIP3   OH2 4426   8.207   0.837   6.606
 1490TIP3    H1 4427   8.149   0.887   6.549
 1490TIP3    H2 4428   8.174   0.747   6.600
 1491TIP3   OH2 4429   4.402   5.804   6.636
 1491TIP3    H1 4430   4.327   5.745   6.631
 1491TIP3    H2 4431   4.369   5.883   6.679
 1492TIP3   OH2 4432   5.520   6.457   1.374
 1492TIP3    H1 4433   5.442   6.460   1.429
 1492TIP3    H2 4434   5.566   6.378   1.402
 1493TIP3   OH2 4435   7.919   3.376   3.293
 1493TIP3    H1 4436   7.832   3.337   3.289
 1493TIP3    H2 4437   7.923   3.418   3.379
 1494TIP3   OH2 4438   0.072   7.338   3.173
 1494TIP3    H1 4439   0.010   7.411   3.181
 1494TIP3    H2 4440   0.158   7.380   3.181
 1495TIP3   OH2 4441   7.145   5.458   0.566
 1495TIP3    H1 4442   7.214   5.507   0.610
 1495TIP3    H2 4443   7.108   5.402   0.634
 1496TIP3   OH2 4444   0.171   5.404   5.209
 1496TIP3    H1 4445   0.259   5.379   5.237
 1496TIP3    H2 4446   0.124   5.422   5.290
 1497TIP3   OH2 4447   0.076   0.313   2.881
 1497TIP3    H1 4448   0.090   0.294   2.974
 1497TIP3    H2 4449  -0.017   0.338   2.875
 1498TIP3   OH2 4450   6.039   6.538   3.594
 1498TIP3    H1 4451   5.964   6.558   3.539
 1498TIP3    H2 4452   6.088   6.472   3.544
 1499TIP3   OH2 4453   3.206   1.978   2.500
 1499TIP3    H1 4454   3.300   1.989   2.513
 1499TIP3    H2 4455   3.198   1.896   2.452
 1500TIP3   OH2 4456   5.828   5.944   0.547
 1500TIP3    H1 4457   5.796   5.997   0.473
 1500TIP3    H2 4458   5.773   5.970   0.620
 1501TIP3   OH2 4459   7.335   5.106   3.071
 1501TIP3    H1 4460   7.390   5.050   3.016
 1501TIP3    H2 4461   7.378   5.106   3.156
 1502TIP3   OH2 4462   3.917   6.039   5.812
 1502TIP3    H1 4463   4.006   6.058   5.841
 1502TIP3    H2 4464   3.925   6.029   5.717
 1503TIP3   OH2 4465   0.639   4.681   4.572
 1503TIP3    H1 4466   0.560   4.633   4.596
 1503TIP3    H2 4467   0.651   4.662   4.479
 1504TIP3   OH2 4468   1.122   2.900   1.115
 1504TIP3    H1 4469   1.098   2.947   1.035
 1504TIP3    H2 4470   1.211   2.929   1.135
 1505TIP3   OH2 4471   4.287   7.040   3.233
 1505TIP3    H1 4472   4.232   7.025   3.309
 1505TIP3    H2 4473   4.234   7.095   3.175
 1506TIP3   OH2 4474   7.405   2.387   4.291
 1506TIP3    H1 4475   7.350   2.365   4.216
 1506TIP3    H2 4476   7.440   2.304   4.321
 1507TIP3   OH2 4477   6.508   1.714   5.804
 1507TIP3    H1 4478   6.562   1.636   5.789
 1507TIP3    H2 4479   6.572   1.785   5.817
 1508TIP3   OH2 4480   1.836   1.446   2.133
 1508TIP3    H1 4481   1.929   1.434   2.113
 1508TIP3    H2 4482   1.832   1.452   2.228
 1509TIP3   OH2 4483   5.722   6.360   4.946
 1509TIP3    H1 4484   5.674   6.330   4.869
 1509TIP3    H2 4485   5.661   6.418   4.991
 1510TIP3   OH2 4486   0.998   1.582   2.948
 1510TIP3    H1 4487   1.028   1.498   2.914
 1510TIP3    H2 4488   1.025   1.645   2.881
 1511TIP3   OH2 4489   0.787   5.683   6.684
 1511TIP3    H1 4490   0.862   5.643   6.640
 1511TIP3    H2 4491   0.735   5.608   6.714
 1512TIP3   OH2 4492   3.370  -0.001   1.195
 1512TIP3    H1 4493   3.365   0.021   1.102
 1512TIP3    H2 4494   3.279  -0.011   1.222
 1513TIP3   OH2 4495   0.185   0.042   5.985
 1513TIP3    H1 4496   0.183  -0.015   5.908
 1513TIP3    H2 4497   0.095   0.072   5.995
 1514TIP3   OH2 4498   0.961   6.468   4.639
 1514TIP3    H1 4499   0.887   6.486   4.581
 1514TIP3    H2 4500   1.034   6.448   4.580
 1515TIP3   OH2 4501   4.905   1.145   1.371
 1515TIP3    H1 4502   4.926   1.212   1.306
 1515TIP3    H2 4503   4.855   1.192   1.438
 1516TIP3   OH2 4504   1.610   2.999   5.476
 1516TIP3    H1 4505   1.658   3.006   5.558
 1516TIP3    H2 4506   1.644   3.070   5.421
 1517TIP3   OH2 4507   5.279   2.005   6.722
 1517TIP3    H1 4508   5.252   1.977   6.809
 1517TIP3    H2 4509   5.202   2.050   6.686
 1518TIP3   OH2 4510   1.369   3.746   5.816
 1518TIP3    H1 4511   1.367   3.788   5.730
 1518TIP3    H2 4512   1.452   3.698   5.816
 1519TIP3   OH2 4513   6.172   7.663   3.962
 1519TIP3    H1 4514   6.183   7.755   3.985
 1519TIP3    H2 4515   6.196   7.615   4.042
 1520TIP3   OH2 4516   7.680   1.025   5.488
 1520TIP3    H1 4517   7.658   1.111   5.453
 1520TIP3    H2 4518   7.682   0.968   5.411
 1521TIP3   OH2 4519   1.178   4.145   3.477
 1521TIP3    H1 4520   1.271   4.131   3.459
 1521TIP3    H2 4521   1.175   4.221   3.535
 1522TIP3   OH2 4522   5.440   6.170   0.368
 1522TIP3    H1 4523   5.356   6.201   0.401
 1522TIP3    H2 4524   5.459   6.227   0.293
 1523TIP3   OH2 4525   6.729   3.430   3.593
 1523TIP3    H1 4526   6.640   3.414   3.562
 1523TIP3    H2 4527   6.758   3.507   3.545
 1524TIP3   OH2 4528   0.956   4.566   3.525
 1524TIP3    H1 4529   0.885   4.579   3.461
 1524TIP3    H2 4530   1.033   4.603   3.483
 1525TIP3   OH2 4531   7.172   7.004   4.736
 1525TIP3    H1 4532   7.200   6.960   4.816
 1525TIP3    H2 4533   7.122   7.080   4.766
 1526TIP3   OH2 4534   4.573   1.371   6.405
 1526TIP3    H1 4535   4.496   1.335   6.450
 1526TIP3    H2 4536   4.555   1.464   6.398
 1527TIP3   OH2 4537   4.092   6.184   2.562
 1527TIP3    H1 4538   4.056   6.232   2.488
 1527TIP3    H2 4539   4.185   6.207   2.562
 1528TIP3   OH2 4540   0.034   1.327   2.449
 1528TIP3    H1 4541   0.068   1.405   2.492
 1528TIP3    H2 4542  -0.018   1.360   2.376
 1529TIP3   OH2 4543   0.821   0.618   1.688
 1529TIP3    H1 4544   0.878   0.691   1.665
 1529TIP3    H2 4545   0.868   0.540   1.658
 1530TIP3   OH2 4546   3.661   2.742   0.935
 1530TIP3    H1 4547   3.598   2.769   0.868
 1530TIP3    H2 4548   3.619   2.765   1.018
 1531TIP3   OH2 4549   5.678   1.539   6.309
 1531TIP3    H1 4550   5.593   1.541   6.353
 1531TIP3    H2 4551   5.711   1.450   6.324
 1532TIP3   OH2 4552   3.354   4.420   4.570
 1532TIP3    H1 4553   3.391   4.345   4.522
 1532TIP3    H2 4554   3.280   4.383   4.618
 1533TIP3   OH2 4555   5.747   0.274   1.114
 1533TIP3    H1 4556   5.814   0.343   1.117
 1533TIP3    H2 4557   5.745   0.239   1.203
 1534TIP3   OH2 4558   7.400   5.147   5.620
 1534TIP3    H1 4559   7.318   5.099   5.606
 1534TIP3    H2 4560   7.458   5.083   5.662
 1535TIP3   OH2 4561   7.631   1.096   0.060
 1535TIP3    H1 4562   7.580   1.151   0.120
 1535TIP3    H2 4563   7.574   1.021   0.043
 1536TIP3   OH2 4564   5.634   6.189   6.570
 1536TIP3    H1 4565   5.652   6.193   6.476
 1536TIP3    H2 4566   5.575   6.262   6.587
 1537TIP3   OH2 4567   5.868   7.365   0.182
 1537TIP3    H1 4568   5.901   7.454   0.191
 1537TIP3    H2 4569   5.926   7.313   0.238
 1538TIP3   OH2 4570   1.608   5.417   2.685
 1538TIP3    H1 4571   1.554   5.344   2.718
 1538TIP3    H2 4572   1.643   5.458   2.763
 1539TIP3   OH2 4573   7.587   0.518   2.724
 1539TIP3    H1 4574   7.576   0.519   2.629
 1539TIP3    H2 4575   7.659   0.578   2.741
 1540TIP3   OH2 4576   1.140   3.339   2.037
 1540TIP3    H1 4577   1.137   3.371   2.127
 1540TIP3    H2 4578   1.223   3.292   2.031
 1541TIP3   OH2 4579   1.827   4.643   5.951
 1541TIP3    H1 4580   1.795   4.595   6.028
 1541TIP3    H2 4581   1.853   4.729   5.985
 1542TIP3   OH2 4582   1.128   3.049   5.909
 1542TIP3    H1 4583   1.051   3.059   5.853
 1542TIP3    H2 4584   1.176   3.131   5.898
 1543TIP3   OH2 4585   1.560   3.106   0.123
 1543TIP3    H1 4586   1.556   3.129   0.216
 1543TIP3    H2 4587   1.574   3.011   0.123
 1544TIP3   OH2 4588   7.502   2.533   5.951
 1544TIP3    H1 4589   7.557   2.610   5.967
 1544TIP3    H2 4590   7.435   2.537   6.020
 1545TIP3   OH2 4591   4.550   5.101   2.520
 1545TIP3    H1 4592   4.459   5.074   2.513
 1545TIP3    H2 4593   4.550   5.193   2.494
 1546TIP3   OH2 4594   3.905   1.502   5.696
 1546TIP3    H1 4595   3.972   1.452   5.742
 1546TIP3    H2 4596   3.828   1.497   5.753
 1547TIP3   OH2 4597   7.301   6.839   1.996
 1547TIP3    H1 4598   7.251   6.758   2.010
 1547TIP3    H2 4599   7.390   6.809   1.976
 1548TIP3   OH2 4600   7.074   7.736   4.709
 1548TIP3    H1 4601   6.982   7.756   4.726
 1548TIP3    H2 4602   7.089   7.766   4.619
 1549TIP3   OH2 4603   7.261   0.777   3.036
 1549TIP3    H1 4604   7.199   0.764   3.108
 1549TIP3    H2 4605   7.217   0.837   2.976
 1550TIP3   OH2 4606   6.918   4.283   0.101
 1550TIP3    H1 4607   6.868   4.217   0.052
 1550TIP3    H2 4608   6.985   4.232   0.148
 1551TIP3   OH2 4609   1.539   6.313   1.009
 1551TIP3    H1 4610   1.626   6.278   0.989
 1551TIP3    H2 4611   1.557   6.391   1.062
 1552TIP3   OH2 4612   4.831   1.441   1.935
 1552TIP3    H1 4613   4.738   1.447   1.957
 1552TIP3    H2 4614   4.872   1.510   1.987
 1553TIP3   OH2 4615   7.854   6.314   1.981
 1553TIP3    H1 4616   7.917   6.266   2.034
 1553TIP3    H2 4617   7.780   6.254   1.973
 1554TIP3   OH2 4618   1.861   4.890   6.074
 1554TIP3    H1 4619   1.886   4.881   6.166
 1554TIP3    H2 4620   1.937   4.933   6.033
 1555TIP3   OH2 4621   5.757   6.920   2.100
 1555TIP3    H1 4622   5.689   6.988   2.108
 1555TIP3    H2 4623   5.758   6.877   2.186
 1556TIP3   OH2 4624   7.287   3.076   2.524
 1556TIP3    H1 4625   7.353   3.116   2.467
 1556TIP3    H2 4626   7.302   3.117   2.610
 1557TIP3   OH2 4627   3.443   0.426   3.819
 1557TIP3    H1 4628   3.420   0.480   3.895
 1557TIP3    H2 4629   3.508   0.364   3.851
 1558TIP3   OH2 4630   4.633   6.426   5.369
 1558TIP3    H1 4631   4.716   6.393   5.336
 1558TIP3    H2 4632   4.641   6.423   5.465
 1559TIP3   OH2 4633   0.533   3.297   1.904
 1559TIP3    H1 4634   0.472   3.247   1.958
 1559TIP3    H2 4635   0.479   3.366   1.865
 1560TIP3   OH2 4636   7.124   4.959   3.830
 1560TIP3    H1 4637   7.028   4.963   3.829
 1560TIP3    H2 4638   7.145   4.889   3.767
 1561TIP3   OH2 4639   2.142   6.331   2.962
 1561TIP3    H1 4640   2.195   6.262   3.000
 1561TIP3    H2 4641   2.052   6.308   2.986
 1562TIP3   OH2 4642   5.287   6.313   0.804
 1562TIP3    H1 4643   5.341   6.334   0.727
 1562TIP3    H2 4644   5.267   6.398   0.842
 1563TIP3   OH2 4645   4.313   6.440   4.767
 1563TIP3    H1 4646   4.236   6.482   4.806
 1563TIP3    H2 4647   4.282   6.410   4.682
 1564TIP3   OH2 4648   1.233   1.334   5.852
 1564TIP3    H1 4649   1.196   1.312   5.937
 1564TIP3    H2 4650   1.324   1.306   5.857
 1565TIP3   OH2 4651   3.792   3.483   4.484
 1565TIP3    H1 4652   3.791   3.522   4.397
 1565TIP3    H2 4653   3.794   3.558   4.544
 1566TIP3   OH2 4654   1.230   5.054   1.358
 1566TIP3    H1 4655   1.284   5.064   1.279
 1566TIP3    H2 4656   1.195   5.142   1.374
 1567TIP3   OH2 4657   0.085   5.202   1.286
 1567TIP3    H1 4658  -0.009   5.201   1.302
 1567TIP3    H2 4659   0.123   5.229   1.369
 1568TIP3   OH2 4660   7.141   0.495   6.421
 1568TIP3    H1 4661   7.055   0.466   6.451
 1568TIP3    H2 4662   7.165   0.566   6.480
 1569TIP3   OH2 4663   5.920   4.093   3.941
 1569TIP3    H1 4664   5.832   4.072   3.973
 1569TIP3    H2 4665   5.949   4.013   3.898
 1570TIP3   OH2 4666   4.870   4.278   3.623
 1570TIP3    H1 4667   4.916   4.328   3.556
 1570TIP3    H2 4668   4.805   4.339   3.658
 1571TIP3   OH2 4669   1.783   6.614   4.910
 1571TIP3    H1 4670   1.735   6.542   4.950
 1571TIP3    H2 4671   1.852   6.571   4.858
 1572TIP3   OH2 4672   3.547   2.978   6.672
 1572TIP3    H1 4673   3.587   2.907   6.722
 1572TIP3    H2 4674   3.504   2.934   6.598
 1573TIP3   OH2 4675   2.183   6.055   3.852
 1573TIP3    H1 4676   2.158   5.981   3.908
 1573TIP3    H2 4677   2.100   6.093   3.823
 1574TIP3   OH2 4678   0.768   4.343   3.225
 1574TIP3    H1 4679   0.741   4.418   3.278
 1574TIP3    H2 4680   0.862   4.335   3.242
 1575TIP3   OH2 4681   2.639   1.883   6.350
 1575TIP3    H1 4682   2.599   1.854   6.432
 1575TIP3    H2 4683   2.566   1.893   6.289
 1576TIP3   OH2 4684   6.655   3.556   2.790
 1576TIP3    H1 4685   6.747   3.535   2.775
 1576TIP3    H2 4686   6.618   3.566   2.703
 1577TIP3   OH2 4687   6.418   2.656   0.250
 1577TIP3    H1 4688   6.456   2.635   0.335
 1577TIP3    H2 4689   6.327   2.626   0.256
 1578TIP3   OH2 4690   6.169   6.246   2.288
 1578TIP3    H1 4691   6.264   6.239   2.284
 1578TIP3    H2 4692   6.138   6.156   2.282
 1579TIP3   OH2 4693   5.187   2.995   5.658
 1579TIP3    H1 4694   5.098   3.005   5.624
 1579TIP3    H2 4695   5.236   2.958   5.585
 1580TIP3   OH2 4696   0.179   0.237   5.068
 1580TIP3    H1 4697   0.239   0.191   5.127
 1580TIP3    H2 4698   0.235   0.275   5.001
 1581TIP3   OH2 4699   6.066   5.355   1.032
 1581TIP3    H1 4700   6.045   5.448   1.029
 1581TIP3    H2 4701   6.162   5.351   1.032
 1582TIP3   OH2 4702   3.022   2.619   2.900
 1582TIP3    H1 4703   2.984   2.660   2.821
 1582TIP3    H2 4704   3.061   2.692   2.948
 1583TIP3   OH2 4705   4.748   2.528   4.575
 1583TIP3    H1 4706   4.801   2.478   4.636
 1583TIP3    H2 4707   4.688   2.464   4.536
 1584TIP3   OH2 4708   4.267   1.586   1.079
 1584TIP3    H1 4709   4.184   1.539   1.080
 1584TIP3    H2 4710   4.243   1.676   1.060
 1585TIP3   OH2 4711   0.660   6.907   1.676
 1585TIP3    H1 4712   0.586   6.929   1.734
 1585TIP3    H2 4713   0.658   6.812   1.671
 1586TIP3   OH2 4714   1.371   3.196   6.476
 1586TIP3    H1 4715   1.374   3.173   6.383
 1586TIP3    H2 4716   1.279   3.218   6.492
 1587TIP3   OH2 4717   6.511   0.802   3.845
 1587TIP3    H1 4718   6.491   0.799   3.752
 1587TIP3    H2 4719   6.606   0.811   3.850
 1588TIP3   OH2 4720   3.499   3.617   1.872
 1588TIP3    H1 4721   3.525   3.593   1.961
 1588TIP3    H2 4722   3.488   3.712   1.875
 1589TIP3   OH2 4723   6.878   5.994   0.598
 1589TIP3    H1 4724   6.786   6.015   0.614
 1589TIP3    H2 4725   6.893   5.915   0.650
 1590TIP3   OH2 4726   2.088   2.748   1.326
 1590TIP3    H1 4727   2.083   2.696   1.246
 1590TIP3    H2 4728   2.119   2.834   1.298
 1591TIP3   OH2 4729   4.053   5.361   2.779
 1591TIP3    H1 4730   4.022   5.396   2.696
 1591TIP3    H2 4731   4.049   5.266   2.769
 1592TIP3   OH2 4732   5.982   5.560   2.128
 1592TIP3    H1 4733   6.020   5.584   2.212
 1592TIP3    H2 4734   5.899   5.517   2.151
 1593TIP3   OH2 4735   0.732   5.903   1.906
 1593TIP3    H1 4736   0.826   5.916   1.899
 1593TIP3    H2 4737   0.718   5.873   1.996
 1594TIP3   OH2 4738   3.307   5.354   3.505
 1594TIP3    H1 4739   3.384   5.298   3.512
 1594TIP3    H2 4740   3.324   5.425   3.566
 1595TIP3   OH2 4741   3.798   2.705   4.101
 1595TIP3    H1 4742   3.805   2.707   4.196
 1595TIP3    H2 4743   3.825   2.792   4.072
 1596TIP3   OH2 4744   0.747   3.238   5.206
 1596TIP3    H1 4745   0.668   3.232   5.260
 1596TIP3    H2 4746   0.714   3.234   5.116
 1597TIP3   OH2 4747   1.993   2.690   0.187
 1597TIP3    H1 4748   2.026   2.622   0.245
 1597TIP3    H2 4749   2.036   2.770   0.217
 1598TIP3   OH2 4750   4.768   1.343   6.716
 1598TIP3    H1 4751   4.696   1.403   6.735
 1598TIP3    H2 4752   4.840   1.401   6.691
 1599TIP3   OH2 4753   2.872   7.027   0.055
 1599TIP3    H1 4754   2.965   7.009   0.071
 1599TIP3    H2 4755   2.871   7.116   0.019
 1600TIP3   OH2 4756   1.963   4.652   1.861
 1600TIP3    H1 4757   2.049   4.611   1.855
 1600TIP3    H2 4758   1.908   4.584   1.900
 1601TIP3   OH2 4759   0.167   1.035   2.830
 1601TIP3    H1 4760   0.249   1.035   2.879
 1601TIP3    H2 4761   0.149   1.128   2.816
 1602TIP3   OH2 4762   5.763   2.487   3.349
 1602TIP3    H1 4763   5.734   2.552   3.285
 1602TIP3    H2 4764   5.855   2.507   3.364
 1603TIP3   OH2 4765   3.121   2.737   6.343
 1603TIP3    H1 4766   3.157   2.649   6.330
 1603TIP3    H2 4767   3.026   2.723   6.351
 1604TIP3   OH2 4768   1.590   3.586   3.416
 1604TIP3    H1 4769   1.650   3.628   3.478
 1604TIP3    H2 4770   1.519   3.648   3.405
 1605TIP3   OH2 4771   5.000   4.553   3.237
 1605TIP3    H1 4772   5.063   4.562   3.166
 1605TIP3    H2 4773   4.915   4.551   3.193
 1606TIP3   OH2 4774   0.780   2.776   4.411
 1606TIP3    H1 4775   0.831   2.705   4.373
 1606TIP3    H2 4776   0.709   2.732   4.459
 1607TIP3   OH2 4777   4.059   3.529   1.591
 1607TIP3    H1 4778   4.032   3.438   1.601
 1607TIP3    H2 4779   3.979   3.580   1.605
 1608TIP3   OH2 4780   0.499   2.270   5.994
 1608TIP3    H1 4781   0.555   2.222   5.934
 1608TIP3    H2 4782   0.539   2.259   6.080
 1609TIP3   OH2 4783   2.444   7.203   3.328
 1609TIP3    H1 4784   2.484   7.176   3.245
 1609TIP3    H2 4785   2.505   7.266   3.365
 1610TIP3   OH2 4786   5.694   4.501   4.557
 1610TIP3    H1 4787   5.669   4.466   4.642
 1610TIP3    H2 4788   5.788   4.519   4.565
 1611TIP3   OH2 4789   5.729   6.143   0.008
 1611TIP3    H1 4790   5.644   6.178  -0.021
 1611TIP3    H2 4791   5.783   6.221   0.020
 1612TIP3   OH2 4792   3.111   0.066   5.282
 1612TIP3    H1 4793   3.059   0.123   5.227
 1612TIP3    H2 4794   3.171   0.021   5.222
 1613TIP3   OH2 4795   7.608   6.894   5.367
 1613TIP3    H1 4796   7.561   6.939   5.296
 1613TIP3    H2 4797   7.617   6.961   5.435
 1614TIP3   OH2 4798   1.288   4.736   1.838
 1614TIP3    H1 4799   1.202   4.701   1.864
 1614TIP3    H2 4800   1.272   4.830   1.824
 1615TIP3   OH2 4801   4.800   6.873   0.578
 1615TIP3    H1 4802   4.768   6.962   0.588
 1615TIP3    H2 4803   4.832   6.849   0.666
 1616TIP3   OH2 4804   3.055   5.172   5.477
 1616TIP3    H1 4805   3.150   5.182   5.483
 1616TIP3    H2 4806   3.036   5.183   5.384
 1617TIP3   OH2 4807   3.546   5.739   0.761
 1617TIP3    H1 4808   3.568   5.666   0.702
 1617TIP3    H2 4809   3.556   5.702   0.849
 1618TIP3   OH2 4810   0.665   2.793   5.300
 1618TIP3    H1 4811   0.579   2.755   5.281
 1618TIP3    H2 4812   0.719   2.717   5.323
 1619TIP3   OH2 4813   7.538   1.573   1.251
 1619TIP3    H1 4814   7.606   1.618   1.300
 1619TIP3    H2 4815   7.562   1.481   1.254
 1620TIP3   OH2 4816   1.239   2.179   3.501
 1620TIP3    H1 4817   1.189   2.232   3.439
 1620TIP3    H2 4818   1.264   2.101   3.451
 1621TIP3   OH2 4819   7.964   3.010   0.124
 1621TIP3    H1 4820   7.899   2.980   0.187
 1621TIP3    H2 4821   7.929   2.982   0.039
 1622TIP3   OH2 4822   3.693   0.199   5.948
 1622TIP3    H1 4823   3.749   0.131   5.986
 1622TIP3    H2 4824   3.691   0.179   5.854
 1623TIP3   OH2 4825   2.826   7.353   2.715
 1623TIP3    H1 4826   2.787   7.408   2.783
 1623TIP3    H2 4827   2.829   7.409   2.638
 1624TIP3   OH2 4828   5.478   0.868   4.680
 1624TIP3    H1 4829   5.471   0.792   4.738
 1624TIP3    H2 4830   5.511   0.832   4.597
 1625TIP3   OH2 4831   4.959   5.351   5.933
 1625TIP3    H1 4832   4.989   5.338   6.023
 1625TIP3    H2 4833   5.034   5.325   5.879
 1626TIP3   OH2 4834   3.016   0.944   0.581
 1626TIP3    H1 4835   2.949   0.941   0.512
 1626TIP3    H2 4836   2.974   0.989   0.654
 1627TIP3   OH2 4837   6.413   6.184   5.466
 1627TIP3    H1 4838   6.323   6.157   5.447
 1627TIP3    H2 4839   6.460   6.169   5.384
 1628TIP3   OH2 4840   2.197   0.487   5.171
 1628TIP3    H1 4841   2.203   0.450   5.259
 1628TIP3    H2 4842   2.285   0.477   5.135
 1629TIP3   OH2 4843   0.309   5.565   0.373
 1629TIP3    H1 4844   0.237   5.503   0.374
 1629TIP3    H2 4845   0.387   5.513   0.393
 1630TIP3   OH2 4846   7.382   4.746   4.966
 1630TIP3    H1 4847   7.462   4.758   5.017
 1630TIP3    H2 4848   7.355   4.835   4.942
 1631TIP3   OH2 4849   8.156   7.132   6.282
 1631TIP3    H1 4850   8.229   7.192   6.268
 1631TIP3    H2 4851   8.079   7.189   6.280
 1632TIP3   OH2 4852   8.139   5.578   5.506
 1632TIP3    H1 4853   8.086   5.622   5.572
 1632TIP3    H2 4854   8.122   5.626   5.425
 1633TIP3   OH2 4855   1.583   7.791   0.394
 1633TIP3    H1 4856   1.491   7.764   0.397
 1633TIP3    H2 4857   1.604   7.795   0.301
 1634TIP3   OH2 4858   4.555   7.378   0.967
 1634TIP3    H1 4859   4.512   7.440   1.027
 1634TIP3    H2 4860   4.490   7.310   0.951
 1635TIP3   OH2 4861   6.289   0.967   2.383
 1635TIP3    H1 4862   6.312   1.038   2.323
 1635TIP3    H2 4863   6.194   0.959   2.377
 1636TIP3   OH2 4864   1.658   0.477   1.855
 1636TIP3    H1 4865   1.723   0.527   1.905
 1636TIP3    H2 4866   1.577   0.487   1.904
 1637TIP3   OH2 4867   4.184   2.978   3.612
 1637TIP3    H1 4868   4.188   2.889   3.646
 1637TIP3    H2 4869   4.132   2.970   3.532
 1638TIP3   OH2 4870   2.706   7.471   1.922
 1638TIP3    H1 4871   2.641   7.448   1.987
 1638TIP3    H2 4872   2.668   7.443   1.839
 1639TIP3   OH2 4873   8.272   5.115   0.386
 1639TIP3    H1 4874   8.314   5.197   0.409
 1639TIP3    H2 4875   8.215   5.095   0.460
 1640TIP3   OH2 4876   8.040   0.262   0.610
 1640TIP3    H1 4877   8.067   0.241   0.520
 1640TIP3    H2 4878   7.964   0.206   0.626
 1641TIP3   OH2 4879   2.002   6.875   2.853
 1641TIP3    H1 4880   1.957   6.957   2.832
 1641TIP3    H2 4881   1.938   6.806   2.836
 1642TIP3   OH2 4882   0.402   0.709   5.845
 1642TIP3    H1 4883   0.492   0.685   5.868
 1642TIP3    H2 4884   0.407   0.735   5.753
 1643TIP3   OH2 4885   5.193   7.296   6.136
 1643TIP3    H1 4886   5.142   7.242   6.076
 1643TIP3    H2 4887   5.155   7.384   6.128
 1644TIP3   OH2 4888   1.731   0.326   5.904
 1644TIP3    H1 4889   1.698   0.397   5.849
 1644TIP3    H2 4890   1.822   0.349   5.920
 1645TIP3   OH2 4891   4.401   1.018   5.097
 1645TIP3    H1 4892   4.362   1.091   5.144
 1645TIP3    H2 4893   4.477   0.993   5.150
 1646TIP3   OH2 4894   3.963   0.226   3.275
 1646TIP3    H1 4895   4.051   0.228   3.236
 1646TIP3    H2 4896   3.962   0.299   3.337
 1647TIP3   OH2 4897   7.460   2.110   3.356
 1647TIP3    H1 4898   7.418   2.083   3.274
 1647TIP3    H2 4899   7.461   2.206   3.353
 1648TIP3   OH2 4900   6.532   1.789   6.759
 1648TIP3    H1 4901   6.498   1.783   6.670
 1648TIP3    H2 4902   6.459   1.822   6.810
 1649TIP3   OH2 4903   4.746   4.104   2.079
 1649TIP3    H1 4904   4.679   4.145   2.024
 1649TIP3    H2 4905   4.749   4.158   2.158
 1650TIP3   OH2 4906   6.949   7.041   0.324
 1650TIP3    H1 4907   6.870   7.084   0.358
 1650TIP3    H2 4908   7.015   7.057   0.391
 1651TIP3   OH2 4909   4.119   5.593   3.025
 1651TIP3    H1 4910   4.033   5.564   3.055
 1651TIP3    H2 4911   4.101   5.669   2.970
 1652TIP3   OH2 4912   5.218   0.034   4.560
 1652TIP3    H1 4913   5.278   0.085   4.506
 1652TIP3    H2 4914   5.249  -0.056   4.553
 1653TIP3   OH2 4915   7.208   2.711   6.380
 1653TIP3    H1 4916   7.279   2.695   6.319
 1653TIP3    H2 4917   7.214   2.804   6.401
 1654TIP3   OH2 4918   0.910   2.264   4.114
 1654TIP3    H1 4919   0.977   2.313   4.161
 1654TIP3    H2 4920   0.903   2.181   4.161
 1655TIP3   OH2 4921   2.175   4.544   5.596
 1655TIP3    H1 4922   2.257   4.495   5.603
 1655TIP3    H2 4923   2.153   4.541   5.503
 1656TIP3   OH2 4924   2.536   6.452   5.894
 1656TIP3    H1 4925   2.608   6.515   5.903
 1656TIP3    H2 4926   2.470   6.482   5.956
 1657TIP3   OH2 4927   6.903   7.780   3.575
 1657TIP3    H1 4928   6.875   7.863   3.614
 1657TIP3    H2 4929   6.847   7.770   3.498
 1658TIP3   OH2 4930   0.530   6.110   3.653
 1658TIP3    H1 4931   0.594   6.128   3.584
 1658TIP3    H2 4932   0.482   6.192   3.663
 1659TIP3   OH2 4933   6.400   7.230   5.324
 1659TIP3    H1 4934   6.482   7.258   5.365
 1659TIP3    H2 4935   6.398   7.135   5.339
 1660TIP3   OH2 4936   8.116   1.441   4.897
 1660TIP3    H1 4937   8.145   1.365   4.947
 1660TIP3    H2 4938   8.164   1.514   4.936
 1661TIP3   OH2 4939   0.988   4.646   4.054
 1661TIP3    H1 4940   0.906   4.602   4.078
 1661TIP3    H2 4941   0.993   4.639   3.959
 1662TIP3   OH2 4942   4.774   4.053   0.642
 1662TIP3    H1 4943   4.857   4.079   0.603
 1662TIP3    H2 4944   4.799   3.991   0.712
 1663TIP3   OH2 4945   0.700   6.278   6.693
 1663TIP3    H1 4946   0.661   6.226   6.764
 1663TIP3    H2 4947   0.666   6.366   6.706
 1664TIP3   OH2 4948   3.204   0.309   2.115
 1664TIP3    H1 4949   3.123   0.359   2.127
 1664TIP3    H2 4950   3.228   0.280   2.203
 1665TIP3   OH2 4951   7.176   4.335   4.263
 1665TIP3    H1 4952   7.177   4.276   4.338
 1665TIP3    H2 4953   7.145   4.281   4.190
 1666TIP3   OH2 4954   6.580   6.914   1.341
 1666TIP3    H1 4955   6.501   6.927   1.393
 1666TIP3    H2 4956   6.560   6.838   1.286
 1667TIP3   OH2 4957   0.436   0.096   2.256
 1667TIP3    H1 4958   0.410   0.142   2.176
 1667TIP3    H2 4959   0.417   0.004   2.238
 1668TIP3   OH2 4960   7.758   5.254   4.308
 1668TIP3    H1 4961   7.718   5.181   4.260
 1668TIP3    H2 4962   7.820   5.293   4.246
 1669TIP3   OH2 4963   1.029   6.086   5.083
 1669TIP3    H1 4964   0.935   6.099   5.080
 1669TIP3    H2 4965   1.066   6.163   5.040
 1670TIP3   OH2 4966   4.969   0.013   3.423
 1670TIP3    H1 4967   4.987   0.066   3.501
 1670TIP3    H2 4968   5.052  -0.029   3.402
 1671TIP3   OH2 4969   0.569   2.204   5.290
 1671TIP3    H1 4970   0.515   2.278   5.263
 1671TIP3    H2 4971   0.655   2.243   5.311
 1672TIP3   OH2 4972   8.250   6.850   6.319
 1672TIP3    H1 4973   8.236   6.933   6.274
 1672TIP3    H2 4974   8.174   6.797   6.298
 1673TIP3   OH2 4975   3.132   5.047   2.596
 1673TIP3    H1 4976   3.191   5.027   2.669
 1673TIP3    H2 4977   3.091   4.963   2.575
 1674TIP3   OH2 4978   7.741   1.530   6.624
 1674TIP3    H1 4979   7.827   1.562   6.652
 1674TIP3    H2 4980   7.755   1.503   6.533
 1675TIP3   OH2 4981   5.182   5.546   4.200
 1675TIP3    H1 4982   5.218   5.634   4.208
 1675TIP3    H2 4983   5.107   5.556   4.142
 1676TIP3   OH2 4984   6.011   1.433   6.338
 1676TIP3    H1 4985   6.003   1.487   6.260
 1676TIP3    H2 4986   5.945   1.365   6.327
 1677TIP3   OH2 4987   5.927   2.554   5.113
 1677TIP3    H1 4988   5.925   2.624   5.048
 1677TIP3    H2 4989   6.017   2.522   5.112
 1678TIP3   OH2 4990   0.254   6.616   2.751
 1678TIP3    H1 4991   0.165   6.624   2.717
 1678TIP3    H2 4992   0.286   6.706   2.756
 1679TIP3   OH2 4993   4.975   5.713   2.411
 1679TIP3    H1 4994   4.983   5.724   2.316
 1679TIP3    H2 4995   4.932   5.628   2.422
 1680TIP3   OH2 4996   3.508   4.303   3.263
 1680TIP3    H1 4997   3.422   4.273   3.292
 1680TIP3    H2 4998   3.569   4.238   3.297
 1681TIP3   OH2 4999   6.936   5.351   4.548
 1681TIP3    H1 5000   6.989   5.365   4.627
 1681TIP3    H2 5001   6.980   5.280   4.502
 1682TIP3   OH2 5002   4.470   0.203   4.872
 1682TIP3    H1 5003   4.494   0.252   4.951
 1682TIP3    H2 5004   4.470   0.112   4.898
 1683TIP3   OH2 5005   1.131   5.145   5.797
 1683TIP3    H1 5006   1.173   5.200   5.863
 1683TIP3    H2 5007   1.045   5.124   5.834
 1684TIP3   OH2 5008   4.935   5.701   5.412
 1684TIP3    H1 5009   4.924   5.751   5.331
 1684TIP3    H2 5010   4.879   5.625   5.401
 1685TIP3   OH2 5011   0.694   4.499   1.653
 1685TIP3    H1 5012   0.764   4.564   1.644
 1685TIP3    H2 5013   0.709   4.460   1.739
 1686TIP3   OH2 5014   5.222   7.715   5.920
 1686TIP3    H1 5015   5.202   7.708   5.827
 1686TIP3    H2 5016   5.289   7.648   5.935
 1687TIP3   OH2 5017   1.211   5.786   4.315
 1687TIP3    H1 5018   1.163   5.855   4.270
 1687TIP3    H2 5019   1.295   5.827   4.340
 1688TIP3   OH2 5020   5.251   3.767   4.914
 1688TIP3    H1 5021   5.166   3.750   4.954
 1688TIP3    H2 5022   5.233   3.772   4.820
 1689TIP3   OH2 5023   4.720   7.130   0.592
 1689TIP3    H1 5024   4.717   7.178   0.509
 1689TIP3    H2 5025   4.632   7.139   0.628
 1690TIP3   OH2 5026   6.584   7.050   5.072
 1690TIP3    H1 5027   6.619   7.008   5.150
 1690TIP3    H2 5028   6.638   7.128   5.059
 1691TIP3   OH2 5029   5.494   7.620   1.296
 1691TIP3    H1 5030   5.547   7.605   1.374
 1691TIP3    H2 5031   5.536   7.694   1.253
 1692TIP3   OH2 5032   1.368   6.863   3.123
 1692TIP3    H1 5033   1.353   6.796   3.056
 1692TIP3    H2 5034   1.291   6.919   3.118
 1693TIP3   OH2 5035   7.792   2.608   4.187
 1693TIP3    H1 5036   7.800   2.514   4.171
 1693TIP3    H2 5037   7.705   2.631   4.155
 1694TIP3   OH2 5038   6.942   5.768   4.928
 1694TIP3    H1 5039   7.035   5.774   4.905
 1694TIP3    H2 5040   6.939   5.797   5.020
 1695TIP3   OH2 5041   6.592   5.916   1.544
 1695TIP3    H1 5042   6.678   5.879   1.566
 1695TIP3    H2 5043   6.572   5.973   1.618
 1696TIP3   OH2 5044   3.310   3.398   3.695
 1696TIP3    H1 5045   3.254   3.475   3.692
 1696TIP3    H2 5046   3.280   3.344   3.622
 1697TIP3   OH2 5047   3.033   5.352   2.555
 1697TIP3    H1 5048   2.957   5.318   2.604
 1697TIP3    H2 5049   3.036   5.298   2.476
 1698TIP3   OH2 5050   5.917   1.888   4.201
 1698TIP3    H1 5051   5.839   1.832   4.195
 1698TIP3    H2 5052   5.976   1.840   4.258
 1699TIP3   OH2 5053   7.922   1.647   4.038
 1699TIP3    H1 5054   7.849   1.615   3.986
 1699TIP3    H2 5055   7.980   1.689   3.974
 1700TIP3   OH2 5056   5.959   6.430   5.047
 1700TIP3    H1 5057   5.942   6.523   5.061
 1700TIP3    H2 5058   5.889   6.402   4.987
 1701TIP3   OH2 5059   5.588   3.311   1.609
 1701TIP3    H1 5060   5.606   3.305   1.515
 1701TIP3    H2 5061   5.668   3.351   1.645
 1702TIP3   OH2 5062   3.233   1.665   0.828
 1702TIP3    H1 5063   3.259   1.595   0.769
 1702TIP3    H2 5064   3.293   1.657   0.903
 1703TIP3   OH2 5065   5.519   2.908   0.627
 1703TIP3    H1 5066   5.424   2.895   0.627
 1703TIP3    H2 5067   5.552   2.841   0.566
 1704TIP3   OH2 5068   3.296   1.338   2.277
 1704TIP3    H1 5069   3.265   1.351   2.366
 1704TIP3    H2 5070   3.387   1.309   2.287
 1705TIP3   OH2 5071   5.483   4.846   4.787
 1705TIP3    H1 5072   5.414   4.807   4.731
 1705TIP3    H2 5073   5.441   4.856   4.872
 1706TIP3   OH2 5074   5.482   6.412   6.585
 1706TIP3    H1 5075   5.461   6.476   6.653
 1706TIP3    H2 5076   5.409   6.416   6.524
 1707TIP3   OH2 5077   1.383   5.870   4.713
 1707TIP3    H1 5078   1.307   5.860   4.656
 1707TIP3    H2 5079   1.346   5.875   4.801
 1708TIP3   OH2 5080   4.750   1.744   1.509
 1708TIP3    H1 5081   4.831   1.753   1.560
 1708TIP3    H2 5082   4.768   1.791   1.428
 1709TIP3   OH2 5083   5.746   1.015   1.400
 1709TIP3    H1 5084   5.784   0.928   1.393
 1709TIP3    H2 5085   5.757   1.053   1.312
 1710TIP3   OH2 5086   6.449   5.071   4.517
 1710TIP3    H1 5087   6.414   4.988   4.550
 1710TIP3    H2 5088   6.542   5.068   4.537
 1711TIP3   OH2 5089   6.644   0.918   6.052
 1711TIP3    H1 5090   6.637   0.877   5.966
 1711TIP3    H2 5091   6.730   0.891   6.084
 1712TIP3   OH2 5092   7.340   4.145   1.890
 1712TIP3    H1 5093   7.275   4.079   1.865
 1712TIP3    H2 5094   7.291   4.207   1.944
 1713TIP3   OH2 5095   0.354   7.449   0.053
 1713TIP3    H1 5096   0.425   7.388   0.031
 1713TIP3    H2 5097   0.299   7.401   0.114
 1714TIP3   OH2 5098   6.125   1.991   5.535
 1714TIP3    H1 5099   6.191   1.925   5.559
 1714TIP3    H2 5100   6.059   1.942   5.486
 1715TIP3   OH2 5101   2.194   3.646   4.709
 1715TIP3    H1 5102   2.101   3.627   4.695
 1715TIP3    H2 5103   2.204   3.645   4.804
 1716TIP3   OH2 5104   7.311   4.194   4.846
 1716TIP3    H1 5105   7.306   4.099   4.855
 1716TIP3    H2 5106   7.384   4.220   4.903
 1717TIP3   OH2 5107   6.925   4.322   1.106
 1717TIP3    H1 5108   6.980   4.368   1.043
 1717TIP3    H2 5109   6.962   4.234   1.109
 1718TIP3   OH2 5110   3.171   6.422   3.505
 1718TIP3    H1 5111   3.161   6.387   3.593
 1718TIP3    H2 5112   3.175   6.344   3.448
 1719TIP3   OH2 5113   2.954   5.545   4.094
 1719TIP3    H1 5114   3.022   5.483   4.120
 1719TIP3    H2 5115   2.873   5.508   4.130
 1720TIP3   OH2 5116   3.482   0.327   1.036
 1720TIP3    H1 5117   3.487   0.234   1.014
 1720TIP3    H2 5118   3.556   0.366   0.990
 1721TIP3   OH2 5119   5.819   6.671   5.004
 1721TIP3    H1 5120   5.846   6.631   4.922
 1721TIP3    H2 5121   5.873   6.749   5.013
 1722TIP3   OH2 5122   7.314   4.053   1.316
 1722TIP3    H1 5123   7.362   4.135   1.315
 1722TIP3    H2 5124   7.375   3.988   1.280
 1723TIP3   OH2 5125   5.435   4.195   6.275
 1723TIP3    H1 5126   5.461   4.210   6.184
 1723TIP3    H2 5127   5.341   4.216   6.276
 1724TIP3   OH2 5128   7.444   0.615   5.023
 1724TIP3    H1 5129   7.496   0.536   5.038
 1724TIP3    H2 5130   7.394   0.627   5.104
 1725TIP3   OH2 5131   7.725   7.007   5.120
 1725TIP3    H1 5132   7.752   6.942   5.185
 1725TIP3    H2 5133   7.661   6.961   5.065
 1726TIP3   OH2 5134   1.428   0.598   1.513
 1726TIP3    H1 5135   1.432   0.693   1.504
 1726TIP3    H2 5136   1.445   0.582   1.606
 1727TIP3   OH2 5137   2.562   4.946   4.846
 1727TIP3    H1 5138   2.536   4.926   4.756
 1727TIP3    H2 5139   2.494   4.904   4.900
 1728TIP3   OH2 5140   6.382   5.460   2.630
 1728TIP3    H1 5141   6.306   5.508   2.596
 1728TIP3    H2 5142   6.403   5.397   2.561
 1729TIP3   OH2 5143   1.667   6.549   5.921
 1729TIP3    H1 5144   1.741   6.604   5.898
 1729TIP3    H2 5145   1.641   6.507   5.838
 1730TIP3   OH2 5146   2.005   4.242   1.595
 1730TIP3    H1 5147   1.990   4.172   1.532
 1730TIP3    H2 5148   1.973   4.207   1.678
 1731TIP3   OH2 5149   6.099   5.171   3.047
 1731TIP3    H1 5150   6.110   5.125   2.964
 1731TIP3    H2 5151   6.082   5.101   3.110
 1732TIP3   OH2 5152   2.875   7.146   2.183
 1732TIP3    H1 5153   2.947   7.194   2.225
 1732TIP3    H2 5154   2.796   7.181   2.223
 1733TIP3   OH2 5155   8.200   1.209   1.282
 1733TIP3    H1 5156   8.277   1.153   1.271
 1733TIP3    H2 5157   8.236   1.297   1.287
 1734TIP3   OH2 5158   5.756   7.366   2.617
 1734TIP3    H1 5159   5.766   7.319   2.534
 1734TIP3    H2 5160   5.691   7.435   2.597
 1735TIP3   OH2 5161   6.992   6.853   5.271
 1735TIP3    H1 5162   7.063   6.857   5.335
 1735TIP3    H2 5163   6.927   6.794   5.310
 1736TIP3   OH2 5164   2.528   3.330   1.831
 1736TIP3    H1 5165   2.526   3.292   1.919
 1736TIP3    H2 5166   2.592   3.401   1.837
 1737TIP3   OH2 5167   0.169   0.666   5.388
 1737TIP3    H1 5168   0.108   0.592   5.392
 1737TIP3    H2 5169   0.213   0.657   5.303
 1738TIP3   OH2 5170   1.827   1.385   4.583
 1738TIP3    H1 5171   1.884   1.345   4.517
 1738TIP3    H2 5172   1.814   1.474   4.551
 1739TIP3   OH2 5173   6.266   2.067   0.085
 1739TIP3    H1 5174   6.202   2.028   0.025
 1739TIP3    H2 5175   6.351   2.036   0.053
 1740TIP3   OH2 5176   4.349   5.676   4.934
 1740TIP3    H1 5177   4.256   5.683   4.955
 1740TIP3    H2 5178   4.389   5.753   4.974
 1741TIP3   OH2 5179   0.451   1.418   3.904
 1741TIP3    H1 5180   0.519   1.362   3.866
 1741TIP3    H2 5181   0.428   1.479   3.835
 1742TIP3   OH2 5182   7.526   0.934   6.005
 1742TIP3    H1 5183   7.457   0.982   6.050
 1742TIP3    H2 5184   7.565   0.880   6.073
 1743TIP3   OH2 5185   1.196   3.491   4.279
 1743TIP3    H1 5186   1.289   3.496   4.258
 1743TIP3    H2 5187   1.193   3.455   4.367
 1744TIP3   OH2 5188   4.007   0.201   6.737
 1744TIP3    H1 5189   4.068   0.134   6.704
 1744TIP3    H2 5190   3.921   0.159   6.733
 1745TIP3   OH2 5191   0.984   2.098   5.691
 1745TIP3    H1 5192   1.033   2.129   5.767
 1745TIP3    H2 5193   0.912   2.160   5.681
 1746TIP3   OH2 5194   7.110   7.418   5.371
 1746TIP3    H1 5195   7.188   7.425   5.315
 1746TIP3    H2 5196   7.145   7.390   5.456
 1747TIP3   OH2 5197   6.145   2.550   6.743
 1747TIP3    H1 5198   6.198   2.476   6.773
 1747TIP3    H2 5199   6.208   2.611   6.704
 1748TIP3   OH2 5200   1.943   6.200   3.438
 1748TIP3    H1 5201   1.986   6.115   3.440
 1748TIP3    H2 5202   1.871   6.190   3.375
 1749TIP3   OH2 5203   0.171   4.956   6.752
 1749TIP3    H1 5204   0.244   4.957   6.691
 1749TIP3    H2 5205   0.157   5.049   6.774
 1750TIP3   OH2 5206   7.142   5.249   3.244
 1750TIP3    H1 5207   7.154   5.200   3.325
 1750TIP3    H2 5208   7.063   5.301   3.259
 1751TIP3   OH2 5209   2.372   2.718   2.017
 1751TIP3    H1 5210   2.316   2.643   2.037
 1751TIP3    H2 5211   2.399   2.704   1.926
 1752TIP3   OH2 5212   1.764   0.815   5.542
 1752TIP3    H1 5213   1.713   0.774   5.473
 1752TIP3    H2 5214   1.816   0.743   5.579
 1753TIP3   OH2 5215   6.947   7.383   2.394
 1753TIP3    H1 5216   7.034   7.344   2.390
 1753TIP3    H2 5217   6.899   7.330   2.457
 1754TIP3   OH2 5218   7.646   0.563   1.456
 1754TIP3    H1 5219   7.658   0.576   1.550
 1754TIP3    H2 5220   7.572   0.502   1.450
 1755TIP3   OH2 5221   5.280   4.345   6.769
 1755TIP3    H1 5222   5.301   4.376   6.681
 1755TIP3    H2 5223   5.337   4.270   6.782
 1756TIP3   OH2 5224   3.101   3.919   1.938
 1756TIP3    H1 5225   3.057   3.898   1.855
 1756TIP3    H2 5226   3.076   3.848   1.997
 1757TIP3   OH2 5227   6.828   0.001   0.350
 1757TIP3    H1 5228   6.851   0.003   0.443
 1757TIP3    H2 5229   6.735   0.024   0.347
 1758TIP3   OH2 5230   7.406   2.141   1.258
 1758TIP3    H1 5231   7.453   2.222   1.238
 1758TIP3    H2 5232   7.425   2.125   1.350
 1759TIP3   OH2 5233   3.227   7.230   1.914
 1759TIP3    H1 5234   3.247   7.317   1.878
 1759TIP3    H2 5235   3.139   7.239   1.951
 1760TIP3   OH2 5236   6.365   3.342   0.789
 1760TIP3    H1 5237   6.371   3.347   0.693
 1760TIP3    H2 5238   6.418   3.266   0.813
 1761TIP3   OH2 5239   5.268   7.356   6.614
 1761TIP3    H1 5240   5.258   7.374   6.707
 1761TIP3    H2 5241   5.287   7.262   6.610
 1762TIP3   OH2 5242   0.433   0.032   6.294
 1762TIP3    H1 5243   0.459  -0.053   6.257
 1762TIP3    H2 5244   0.408   0.084   6.217
 1763TIP3   OH2 5245   7.739   5.665   3.828
 1763TIP3    H1 5246   7.650   5.632   3.816
 1763TIP3    H2 5247   7.728   5.752   3.866
 1764TIP3   OH2 5248   6.574   3.064   2.281
 1764TIP3    H1 5249   6.627   3.021   2.215
 1764TIP3    H2 5250   6.634   3.125   2.324
 1765TIP3   OH2 5251   0.783   6.757   0.391
 1765TIP3    H1 5252   0.794   6.662   0.380
 1765TIP3    H2 5253   0.716   6.780   0.327
 1766TIP3   OH2 5254   7.237   0.421   5.501
 1766TIP3    H1 5255   7.225   0.499   5.556
 1766TIP3    H2 5256   7.300   0.368   5.548
 1767TIP3   OH2 5257   8.321   1.446   0.450
 1767TIP3    H1 5258   8.246   1.451   0.510
 1767TIP3    H2 5259   8.290   1.390   0.379
 1768TIP3   OH2 5260   1.078   3.550   1.807
 1768TIP3    H1 5261   1.022   3.506   1.870
 1768TIP3    H2 5262   1.138   3.602   1.860
 1769TIP3   OH2 5263   7.872   4.106   1.752
 1769TIP3    H1 5264   7.901   4.115   1.662
 1769TIP3    H2 5265   7.800   4.168   1.761
 1770TIP3   OH2 5266   2.850   3.629   6.333
 1770TIP3    H1 5267   2.814   3.701   6.281
 1770TIP3    H2 5268   2.832   3.652   6.424
 1771TIP3   OH2 5269   3.619   3.882   1.756
 1771TIP3    H1 5270   3.543   3.939   1.764
 1771TIP3    H2 5271   3.693   3.941   1.748
 1772TIP3   OH2 5272   5.028   3.279   2.316
 1772TIP3    H1 5273   5.119   3.256   2.299
 1772TIP3    H2 5274   4.999   3.216   2.381
 1773TIP3   OH2 5275   0.503   0.061   1.310
 1773TIP3    H1 5276   0.524   0.143   1.355
 1773TIP3    H2 5277   0.547  -0.007   1.362
 1774TIP3   OH2 5278   6.849   6.583   5.789
 1774TIP3    H1 5279   6.791   6.599   5.715
 1774TIP3    H2 5280   6.805   6.513   5.839
 1775TIP3   OH2 5281   4.713   7.486   4.719
 1775TIP3    H1 5282   4.795   7.436   4.727
 1775TIP3    H2 5283   4.648   7.430   4.761
 1776TIP3   OH2 5284   6.622   5.995   6.335
 1776TIP3    H1 5285   6.575   5.933   6.392
 1776TIP3    H2 5286   6.714   5.970   6.344
 1777TIP3   OH2 5287   0.956   4.377   5.697
 1777TIP3    H1 5288   1.052   4.375   5.697
 1777TIP3    H2 5289   0.931   4.293   5.658
 1778TIP3   OH2 5290   4.903   4.867   3.327
 1778TIP3    H1 5291   4.945   4.837   3.408
 1778TIP3    H2 5292   4.973   4.912   3.279
 1779TIP3   OH2 5293   5.128   0.093   5.824
 1779TIP3    H1 5294   5.062   0.095   5.755
 1779TIP3    H2 5295   5.205   0.133   5.783
 1780TIP3   OH2 5296   0.247   4.597   3.915
 1780TIP3    H1 5297   0.280   4.604   3.825
 1780TIP3    H2 5298   0.217   4.685   3.936
 1781TIP3   OH2 5299   7.029   1.687   2.551
 1781TIP3    H1 5300   7.035   1.592   2.564
 1781TIP3    H2 5301   7.118   1.719   2.568
 1782TIP3   OH2 5302   2.212   1.599   3.593
 1782TIP3    H1 5303   2.137   1.540   3.581
 1782TIP3    H2 5304   2.201   1.635   3.681
 1783TIP3   OH2 5305   2.223   7.299   5.050
 1783TIP3    H1 5306   2.188   7.289   4.962
 1783TIP3    H2 5307   2.299   7.241   5.053
 1784TIP3   OH2 5308   6.279   0.337   2.577
 1784TIP3    H1 5309   6.218   0.309   2.509
 1784TIP3    H2 5310   6.244   0.299   2.658
 1785TIP3   OH2 5311   3.880   5.420   5.960
 1785TIP3    H1 5312   3.826   5.470   5.900
 1785TIP3    H2 5313   3.932   5.362   5.904
 1786TIP3   OH2 5314   6.596   0.854   2.382
 1786TIP3    H1 5315   6.550   0.919   2.436
 1786TIP3    H2 5316   6.540   0.842   2.306
 1787TIP3   OH2 5317   2.770   0.687   2.839
 1787TIP3    H1 5318   2.809   0.624   2.778
 1787TIP3    H2 5319   2.693   0.642   2.875
 1788TIP3   OH2 5320   5.554   7.007   4.945
 1788TIP3    H1 5321   5.580   6.967   5.028
 1788TIP3    H2 5322   5.530   7.097   4.968
 1789TIP3   OH2 5323   6.267   5.656   1.650
 1789TIP3    H1 5324   6.217   5.726   1.608
 1789TIP3    H2 5325   6.229   5.647   1.737
 1790TIP3   OH2 5326   0.613   6.877   2.965
 1790TIP3    H1 5327   0.533   6.825   2.972
 1790TIP3    H2 5328   0.593   6.943   2.898
 1791TIP3   OH2 5329   6.492   5.655   5.250
 1791TIP3    H1 5330   6.508   5.689   5.338
 1791TIP3    H2 5331   6.513   5.729   5.192
 1792TIP3   OH2 5332   0.898   7.824   2.788
 1792TIP3    H1 5333   0.851   7.741   2.798
 1792TIP3    H2 5334   0.955   7.809   2.712
 1793TIP3   OH2 5335   4.151   1.403   2.306
 1793TIP3    H1 5336   4.097   1.474   2.340
 1793TIP3    H2 5337   4.213   1.446   2.247
 1794TIP3   OH2 5338   1.565   1.910   4.827
 1794TIP3    H1 5339   1.514   1.829   4.826
 1794TIP3    H2 5340   1.655   1.883   4.808
 1795TIP3   OH2 5341   6.713   3.975   0.853
 1795TIP3    H1 5342   6.654   3.996   0.781
 1795TIP3    H2 5343   6.800   3.973   0.813
 1796TIP3   OH2 5344   5.130   1.919   0.970
 1796TIP3    H1 5345   5.050   1.972   0.976
 1796TIP3    H2 5346   5.181   1.945   1.046
 1797TIP3   OH2 5347   2.960   5.524   0.616
 1797TIP3    H1 5348   3.020   5.599   0.606
 1797TIP3    H2 5349   2.955   5.511   0.711
 1798TIP3   OH2 5350   7.740   3.846   3.617
 1798TIP3    H1 5351   7.680   3.772   3.625
 1798TIP3    H2 5352   7.810   3.827   3.680
 1799TIP3   OH2 5353   2.251   3.323   0.719
 1799TIP3    H1 5354   2.229   3.267   0.644
 1799TIP3    H2 5355   2.347   3.328   0.718
 1800TIP3   OH2 5356   3.081   2.830   2.059
 1800TIP3    H1 5357   3.011   2.834   2.124
 1800TIP3    H2 5358   3.089   2.920   2.027
 1801TIP3   OH2 5359   2.239   7.689   4.759
 1801TIP3    H1 5360   2.224   7.781   4.782
 1801TIP3    H2 5361   2.211   7.682   4.668
 1802TIP3   OH2 5362   0.935   3.449   5.224
 1802TIP3    H1 5363   0.856   3.397   5.244
 1802TIP3    H2 5364   0.955   3.493   5.307
 1803TIP3   OH2 5365   1.147   1.661   4.488
 1803TIP3    H1 5366   1.182   1.656   4.399
 1803TIP3    H2 5367   1.131   1.570   4.513
 1804TIP3   OH2 5368   7.262   5.680   0.668
 1804TIP3    H1 5369   7.321   5.743   0.626
 1804TIP3    H2 5370   7.275   5.693   0.762
 1805TIP3   OH2 5371   2.844   4.961   3.708
 1805TIP3    H1 5372   2.813   4.901   3.776
 1805TIP3    H2 5373   2.916   4.915   3.666
 1806TIP3   OH2 5374   8.049   7.089   4.396
 1806TIP3    H1 5375   8.089   7.037   4.465
 1806TIP3    H2 5376   8.025   7.171   4.439
 1807TIP3   OH2 5377   1.127   6.252   0.814
 1807TIP3    H1 5378   1.047   6.208   0.783
 1807TIP3    H2 5379   1.165   6.291   0.736
 1808TIP3   OH2 5380   2.257   6.880   1.494
 1808TIP3    H1 5381   2.347   6.912   1.488
 1808TIP3    H2 5382   2.216   6.938   1.558
 1809TIP3   OH2 5383   1.059   4.625   6.546
 1809TIP3    H1 5384   0.986   4.671   6.587
 1809TIP3    H2 5385   1.030   4.534   6.540
 1810TIP3   OH2 5386   6.998   0.316   4.738
 1810TIP3    H1 5387   7.034   0.284   4.656
 1810TIP3    H2 5388   6.933   0.381   4.712
 1811TIP3   OH2 5389   3.033   7.034   1.395
 1811TIP3    H1 5390   3.111   6.984   1.419
 1811TIP3    H2 5391   3.061   7.125   1.402
 1812TIP3   OH2 5392   5.194   6.420   3.237
 1812TIP3    H1 5393   5.111   6.387   3.205
 1812TIP3    H2 5394   5.233   6.347   3.285
 1813TIP3   OH2 5395   1.752   2.817   5.159
 1813TIP3    H1 5396   1.673   2.789   5.205
 1813TIP3    H2 5397   1.721   2.857   5.079
 1814TIP3   OH2 5398   1.006   3.959   3.604
 1814TIP3    H1 5399   0.992   4.034   3.663
 1814TIP3    H2 5400   1.075   3.989   3.544
 1815TIP3   OH2 5401   5.216   4.686   6.045
 1815TIP3    H1 5402   5.202   4.685   6.139
 1815TIP3    H2 5403   5.138   4.729   6.010
 1816TIP3   OH2 5404   3.753   1.492   1.900
 1816TIP3    H1 5405   3.706   1.569   1.934
 1816TIP3    H2 5406   3.688   1.422   1.900
 1817TIP3   OH2 5407   3.032   5.210   3.496
 1817TIP3    H1 5408   3.090   5.284   3.476
 1817TIP3    H2 5409   3.092   5.136   3.510
 1818TIP3   OH2 5410   0.156   2.251   1.149
 1818TIP3    H1 5411   0.225   2.185   1.155
 1818TIP3    H2 5412   0.164   2.302   1.230
 1819TIP3   OH2 5413   6.014   6.058   3.640
 1819TIP3    H1 5414   6.094   6.108   3.658
 1819TIP3    H2 5415   6.042   5.967   3.637
 1820TIP3   OH2 5416   4.367   3.421   2.167
 1820TIP3    H1 5417   4.324   3.379   2.093
 1820TIP3    H2 5418   4.456   3.385   2.168
 1821TIP3   OH2 5419   7.373   6.967   3.792
 1821TIP3    H1 5420   7.291   6.965   3.840
 1821TIP3    H2 5421   7.360   7.035   3.726
 1822TIP3   OH2 5422   1.668   2.536   1.401
 1822TIP3    H1 5423   1.727   2.585   1.343
 1822TIP3    H2 5424   1.696   2.560   1.489
 1823TIP3   OH2 5425   5.469   6.868   0.076
 1823TIP3    H1 5426   5.538   6.802   0.073
 1823TIP3    H2 5427   5.430   6.866  -0.011
 1824TIP3   OH2 5428   1.222   0.251   1.342
 1824TIP3    H1 5429   1.204   0.160   1.365
 1824TIP3    H2 5430   1.226   0.252   1.247
 1825TIP3   OH2 5431   6.434   4.016   3.822
 1825TIP3    H1 5432   6.375   3.986   3.891
 1825TIP3    H2 5433   6.521   3.992   3.853
 1826TIP3   OH2 5434   8.239   2.502   0.735
 1826TIP3    H1 5435   8.147   2.497   0.709
 1826TIP3    H2 5436   8.283   2.539   0.658
 1827TIP3   OH2 5437   2.203   2.841   6.593
 1827TIP3    H1 5438   2.232   2.792   6.669
 1827TIP3    H2 5439   2.165   2.775   6.535
 1828TIP3   OH2 5440   4.412   7.169   6.455
 1828TIP3    H1 5441   4.418   7.098   6.518
 1828TIP3    H2 5442   4.497   7.213   6.459
 1829TIP3   OH2 5443   1.623   4.046   4.258
 1829TIP3    H1 5444   1.656   3.966   4.300
 1829TIP3    H2 5445   1.687   4.065   4.190
 1830TIP3   OH2 5446   7.049   3.894   1.491
 1830TIP3    H1 5447   7.114   3.962   1.476
 1830TIP3    H2 5448   6.968   3.930   1.454
 1831TIP3   OH2 5449   3.752   7.764   4.289
 1831TIP3    H1 5450   3.672   7.737   4.244
 1831TIP3    H2 5451   3.722   7.819   4.361
 1832TIP3   OH2 5452   0.161   1.243   6.064
 1832TIP3    H1 5453   0.117   1.251   6.149
 1832TIP3    H2 5454   0.246   1.285   6.077
 1833TIP3   OH2 5455   2.939   5.532   3.440
 1833TIP3    H1 5456   2.871   5.597   3.420
 1833TIP3    H2 5457   2.897   5.448   3.426
 1834TIP3   OH2 5458   7.356   3.684   2.010
 1834TIP3    H1 5459   7.429   3.709   2.068
 1834TIP3    H2 5460   7.387   3.706   1.922
 1835TIP3   OH2 5461   7.885   2.085   3.341
 1835TIP3    H1 5462   7.847   2.122   3.261
 1835TIP3    H2 5463   7.919   2.000   3.313
 1836TIP3   OH2 5464   3.851   0.190   6.186
 1836TIP3    H1 5465   3.917   0.162   6.249
 1836TIP3    H2 5466   3.901   0.227   6.113
 1837TIP3   OH2 5467   3.941   2.173   1.478
 1837TIP3    H1 5468   3.863   2.227   1.469
 1837TIP3    H2 5469   4.013   2.235   1.487
 1838TIP3   OH2 5470   1.192   0.511   0.297
 1838TIP3    H1 5471   1.119   0.563   0.331
 1838TIP3    H2 5472   1.178   0.510   0.202
 1839TIP3   OH2 5473   0.463   5.142   1.251
 1839TIP3    H1 5474   0.527   5.071   1.256
 1839TIP3    H2 5475   0.425   5.133   1.163
 1840TIP3   OH2 5476   1.334   2.342   3.924
 1840TIP3    H1 5477   1.273   2.405   3.885
 1840TIP3    H2 5478   1.368   2.294   3.849
 1841TIP3   OH2 5479   5.681   5.162   2.827
 1841TIP3    H1 5480   5.727   5.225   2.882
 1841TIP3    H2 5481   5.646   5.215   2.755
 1842TIP3   OH2 5482   6.896   6.688   0.845
 1842TIP3    H1 5483   6.909   6.688   0.939
 1842TIP3    H2 5484   6.834   6.759   0.828
 1843TIP3   OH2 5485   3.949   4.705   6.704
 1843TIP3    H1 5486   4.013   4.647   6.746
 1843TIP3    H2 5487   3.872   4.649   6.691
 1844TIP3   OH2 5488   4.920   5.340   5.031
 1844TIP3    H1 5489   5.003   5.315   4.991
 1844TIP3    H2 5490   4.854   5.288   4.985
 1845TIP3   OH2 5491   4.932   2.386   2.799
 1845TIP3    H1 5492   5.003   2.418   2.854
 1845TIP3    H2 5493   4.878   2.463   2.783
 1846TIP3   OH2 5494   5.435   6.293   3.055
 1846TIP3    H1 5495   5.382   6.266   2.980
 1846TIP3    H2 5496   5.374   6.337   3.114
 1847TIP3   OH2 5497   5.547   3.973   3.696
 1847TIP3    H1 5498   5.490   3.901   3.669
 1847TIP3    H2 5499   5.491   4.051   3.693
 1848TIP3   OH2 5500   0.333   3.757   4.144
 1848TIP3    H1 5501   0.353   3.704   4.067
 1848TIP3    H2 5502   0.361   3.845   4.121
 1849TIP3   OH2 5503   6.881   3.770   5.038
 1849TIP3    H1 5504   6.847   3.691   5.080
 1849TIP3    H2 5505   6.976   3.758   5.039
 1850TIP3   OH2 5506   7.184   0.129   3.602
 1850TIP3    H1 5507   7.213   0.213   3.566
 1850TIP3    H2 5508   7.127   0.093   3.535
 1851TIP3   OH2 5509   6.904   4.479   6.387
 1851TIP3    H1 5510   6.973   4.414   6.403
 1851TIP3    H2 5511   6.902   4.488   6.291
 1852TIP3   OH2 5512   1.561   1.027   4.194
 1852TIP3    H1 5513   1.550   1.084   4.270
 1852TIP3    H2 5514   1.570   1.088   4.120
 1853TIP3   OH2 5515   5.531   6.839   4.389
 1853TIP3    H1 5516   5.596   6.824   4.320
 1853TIP3    H2 5517   5.454   6.790   4.361
 1854TIP3   OH2 5518   6.038   0.404   2.193
 1854TIP3    H1 5519   6.098   0.445   2.131
 1854TIP3    H2 5520   5.955   0.398   2.146
 1855TIP3   OH2 5521   4.721   0.238   5.444
 1855TIP3    H1 5522   4.707   0.268   5.534
 1855TIP3    H2 5523   4.661   0.164   5.434
 1856TIP3   OH2 5524   6.674   0.224   3.516
 1856TIP3    H1 5525   6.691   0.156   3.452
 1856TIP3    H2 5526   6.691   0.306   3.469
 1857TIP3   OH2 5527   7.920   3.499   3.545
 1857TIP3    H1 5528   7.901   3.575   3.490
 1857TIP3    H2 5529   7.883   3.522   3.630
 1858TIP3   OH2 5530   3.386   1.897   3.723
 1858TIP3    H1 5531   3.408   1.856   3.807
 1858TIP3    H2 5532   3.470   1.919   3.684
 1859TIP3   OH2 5533   2.893   7.675   2.683
 1859TIP3    H1 5534   2.978   7.709   2.710
 1859TIP3    H2 5535   2.831   7.742   2.710
 1860TIP3   OH2 5536   0.649   3.880   3.167
 1860TIP3    H1 5537   0.741   3.887   3.139
 1860TIP3    H2 5538   0.618   3.971   3.168
 1861TIP3   OH2 5539   2.675   6.825   0.683
 1861TIP3    H1 5540   2.639   6.745   0.723
 1861TIP3    H2 5541   2.720   6.869   0.755
 1862TIP3   OH2 5542   2.538   7.485   2.502
 1862TIP3    H1 5543   2.627   7.476   2.467
 1862TIP3    H2 5544   2.549   7.536   2.582
 1863TIP3   OH2 5545   2.921   5.193   2.915
 1863TIP3    H1 5546   2.966   5.277   2.915
 1863TIP3    H2 5547   2.932   5.160   3.004
 1864TIP3   OH2 5548   2.325   0.332   1.607
 1864TIP3    H1 5549   2.404   0.306   1.654
 1864TIP3    H2 5550   2.254   0.288   1.653
 1865TIP3   OH2 5551   0.096   6.393   3.602
 1865TIP3    H1 5552   0.113   6.485   3.620
 1865TIP3    H2 5553   0.164   6.367   3.540
 1866TIP3   OH2 5554   3.799   4.356   2.245
 1866TIP3    H1 5555   3.793   4.371   2.151
 1866TIP3    H2 5556   3.791   4.443   2.285
 1867TIP3   OH2 5557   7.832   2.592   2.937
 1867TIP3    H1 5558   7.785   2.522   2.892
 1867TIP3    H2 5559   7.924   2.566   2.931
 1868TIP3   OH2 5560   4.702   0.072   4.417
 1868TIP3    H1 5561   4.796   0.084   4.433
 1868TIP3    H2 5562   4.696  -0.013   4.374
 1869TIP3   OH2 5563   7.591   4.007   0.918
 1869TIP3    H1 5564   7.657   3.939   0.904
 1869TIP3    H2 5565   7.626   4.060   0.990
 1870TIP3   OH2 5566   4.151   1.269   2.528
 1870TIP3    H1 5567   4.135   1.282   2.435
 1870TIP3    H2 5568   4.146   1.174   2.540
 1871TIP3   OH2 5569   2.192   0.865   4.244
 1871TIP3    H1 5570   2.275   0.906   4.219
 1871TIP3    H2 5571   2.125   0.921   4.205
 1872TIP3   OH2 5572   7.046   6.433   2.658
 1872TIP3    H1 5573   6.956   6.427   2.627
 1872TIP3    H2 5574   7.038   6.453   2.752
 1873TIP3   OH2 5575   0.341   5.588   4.157
 1873TIP3    H1 5576   0.385   5.630   4.084
 1873TIP3    H2 5577   0.266   5.543   4.118
 1874TIP3   OH2 5578   6.381   0.772   2.701
 1874TIP3    H1 5579   6.436   0.712   2.652
 1874TIP3    H2 5580   6.323   0.716   2.753
 1875TIP3   OH2 5581   2.653   2.644   4.487
 1875TIP3    H1 5582   2.681   2.560   4.523
 1875TIP3    H2 5583   2.697   2.709   4.541
 1876TIP3   OH2 5584   3.532   2.926   3.735
 1876TIP3    H1 5585   3.468   2.886   3.676
 1876TIP3    H2 5586   3.508   3.018   3.737
 1877TIP3   OH2 5587   6.253   5.898   3.797
 1877TIP3    H1 5588   6.338   5.918   3.759
 1877TIP3    H2 5589   6.238   5.967   3.861
 1878TIP3   OH2 5590   7.020   2.551   3.948
 1878TIP3    H1 5591   7.012   2.500   3.867
 1878TIP3    H2 5592   6.953   2.514   4.006
 1879TIP3   OH2 5593   2.601   2.351   3.949
 1879TIP3    H1 5594   2.668   2.301   3.997
 1879TIP3    H2 5595   2.539   2.285   3.918
 1880TIP3   OH2 5596   5.860   2.824   4.234
 1880TIP3    H1 5597   5.815   2.874   4.166
 1880TIP3    H2 5598   5.822   2.736   4.229
 1881TIP3   OH2 5599   1.836   3.194   3.416
 1881TIP3    H1 5600   1.745   3.198   3.445
 1881TIP3    H2 5601   1.833   3.220   3.324
 1882TIP3   OH2 5602   7.037   0.474   3.003
 1882TIP3    H1 5603   6.973   0.415   3.042
 1882TIP3    H2 5604   6.995   0.560   3.004
 1883TIP3   OH2 5605   5.453   4.284   2.017
 1883TIP3    H1 5606   5.445   4.376   1.990
 1883TIP3    H2 5607   5.365   4.249   2.008
 1884TIP3   OH2 5608   0.875   7.097   1.324
 1884TIP3    H1 5609   0.819   7.115   1.399
 1884TIP3    H2 5610   0.816   7.067   1.255
 1885TIP3   OH2 5611   5.927   6.194   0.704
 1885TIP3    H1 5612   5.950   6.221   0.615
 1885TIP3    H2 5613   5.858   6.255   0.730
 1886TIP3   OH2 5614   1.602   6.662   2.769
 1886TIP3    H1 5615   1.592   6.753   2.796
 1886TIP3    H2 5616   1.607   6.613   2.852
 1887TIP3   OH2 5617   5.757   3.405   4.219
 1887TIP3    H1 5618   5.732   3.322   4.260
 1887TIP3    H2 5619   5.730   3.472   4.281
 1888TIP3   OH2 5620   7.012   3.231   6.407
 1888TIP3    H1 5621   7.046   3.199   6.324
 1888TIP3    H2 5622   7.070   3.304   6.430
 1889TIP3   OH2 5623   2.485   2.277   4.616
 1889TIP3    H1 5624   2.472   2.208   4.682
 1889TIP3    H2 5625   2.496   2.229   4.534
 1890TIP3   OH2 5626   6.443   2.431   2.881
 1890TIP3    H1 5627   6.456   2.341   2.911
 1890TIP3    H2 5628   6.369   2.426   2.821
 1891TIP3   OH2 5629   7.991   2.046   5.697
 1891TIP3    H1 5630   8.011   2.013   5.784
 1891TIP3    H2 5631   8.049   2.121   5.686
 1892TIP3   OH2 5632   0.919   4.844   5.042
 1892TIP3    H1 5633   0.915   4.931   5.081
 1892TIP3    H2 5634   0.879   4.854   4.955
 1893TIP3   OH2 5635   6.302   0.393   6.199
 1893TIP3    H1 5636   6.284   0.399   6.105
 1893TIP3    H2 5637   6.244   0.323   6.230
 1894TIP3   OH2 5638   3.941   6.070   1.824
 1894TIP3    H1 5639   3.948   6.151   1.875
 1894TIP3    H2 5640   3.914   6.004   1.889
 1895TIP3   OH2 5641   5.171   5.571   4.499
 1895TIP3    H1 5642   5.129   5.555   4.414
 1895TIP3    H2 5643   5.264   5.554   4.483
 1896TIP3   OH2 5644   3.009   2.332   1.143
 1896TIP3    H1 5645   2.952   2.260   1.116
 1896TIP3    H2 5646   3.002   2.396   1.072
 1897TIP3   OH2 5647   2.297   0.132   2.878
 1897TIP3    H1 5648   2.313   0.167   2.791
 1897TIP3    H2 5649   2.239   0.196   2.920
 1898TIP3   OH2 5650   3.417   4.543   5.657
 1898TIP3    H1 5651   3.393   4.462   5.703
 1898TIP3    H2 5652   3.432   4.515   5.567
 1899TIP3   OH2 5653   1.038   4.343   6.434
 1899TIP3    H1 5654   0.974   4.350   6.362
 1899TIP3    H2 5655   1.029   4.252   6.464
 1900TIP3   OH2 5656   1.809   7.308   2.337
 1900TIP3    H1 5657   1.746   7.352   2.278
 1900TIP3    H2 5658   1.886   7.365   2.335
 1901TIP3   OH2 5659   1.098   7.491   1.960
 1901TIP3    H1 5660   1.054   7.553   2.017
 1901TIP3    H2 5661   1.028   7.436   1.925
 1902TIP3   OH2 5662   5.905   3.707   6.544
 1902TIP3    H1 5663   5.960   3.769   6.496
 1902TIP3    H2 5664   5.891   3.636   6.481
 1903TIP3   OH2 5665   5.623   1.704   3.248
 1903TIP3    H1 5666   5.658   1.637   3.307
 1903TIP3    H2 5667   5.600   1.657   3.168
 1904TIP3   OH2 5668   2.771   3.856   1.887
 1904TIP3    H1 5669   2.834   3.804   1.938
 1904TIP3    H2 5670   2.815   3.873   1.804
 1905TIP3   OH2 5671   2.577   0.367   3.525
 1905TIP3    H1 5672   2.536   0.452   3.513
 1905TIP3    H2 5673   2.637   0.379   3.599
 1906TIP3   OH2 5674   7.904   4.011   5.696
 1906TIP3    H1 5675   7.973   4.078   5.700
 1906TIP3    H2 5676   7.906   3.982   5.605
 1907TIP3   OH2 5677   7.326   2.198   5.378
 1907TIP3    H1 5678   7.272   2.276   5.374
 1907TIP3    H2 5679   7.416   2.230   5.379
 1908TIP3   OH2 5680   4.646   4.503   6.083
 1908TIP3    H1 5681   4.563   4.473   6.121
 1908TIP3    H2 5682   4.649   4.596   6.103
 1909TIP3   OH2 5683   6.977   5.092   4.643
 1909TIP3    H1 5684   7.043   5.036   4.684
 1909TIP3    H2 5685   6.961   5.161   4.707
 1910TIP3   OH2 5686   0.199   6.145   5.348
 1910TIP3    H1 5687   0.219   6.052   5.341
 1910TIP3    H2 5688   0.223   6.168   5.438
 1911TIP3   OH2 5689   0.419   2.906   1.655
 1911TIP3    H1 5690   0.422   3.001   1.667
 1911TIP3    H2 5691   0.355   2.876   1.720
 1912TIP3   OH2 5692   6.708   3.936   6.636
 1912TIP3    H1 5693   6.715   3.862   6.575
 1912TIP3    H2 5694   6.642   3.908   6.699
 1913TIP3   OH2 5695   6.405   6.943   4.409
 1913TIP3    H1 5696   6.499   6.943   4.392
 1913TIP3    H2 5697   6.387   7.026   4.453
 1914TIP3   OH2 5698   1.923   7.280   0.401
 1914TIP3    H1 5699   1.836   7.286   0.363
 1914TIP3    H2 5700   1.927   7.192   0.439
 1915TIP3   OH2 5701   1.045   1.158   0.217
 1915TIP3    H1 5702   0.982   1.137   0.148
 1915TIP3    H2 5703   1.076   1.072   0.248
 1916TIP3   OH2 5704   3.637   7.338   4.803
 1916TIP3    H1 5705   3.613   7.362   4.893
 1916TIP3    H2 5706   3.633   7.420   4.754
 1917TIP3   OH2 5707   2.566   1.744   5.676
 1917TIP3    H1 5708   2.499   1.810   5.656
 1917TIP3    H2 5709   2.559   1.731   5.771
 1918TIP3   OH2 5710   4.779   3.501   2.731
 1918TIP3    H1 5711   4.794   3.477   2.639
 1918TIP3    H2 5712   4.722   3.432   2.765
 1919TIP3   OH2 5713   4.074   1.959   0.391
 1919TIP3    H1 5714   4.040   1.879   0.433
 1919TIP3    H2 5715   4.001   1.990   0.337
 1920TIP3   OH2 5716   2.385   0.697   1.084
 1920TIP3    H1 5717   2.422   0.619   1.042
 1920TIP3    H2 5718   2.400   0.767   1.020
 1921TIP3   OH2 5719   1.329   0.804   5.148
 1921TIP3    H1 5720   1.275   0.880   5.126
 1921TIP3    H2 5721   1.366   0.777   5.065
 1922TIP3   OH2 5722   0.119   0.918   0.089
 1922TIP3    H1 5723   0.198   0.871   0.063
 1922TIP3    H2 5724   0.125   1.002   0.043
 1923TIP3   OH2 5725   7.842   2.835   6.497
 1923TIP3    H1 5726   7.822   2.913   6.549
 1923TIP3    H2 5727   7.937   2.824   6.506
 1924TIP3   OH2 5728   7.425   1.489   4.833
 1924TIP3    H1 5729   7.456   1.407   4.870
 1924TIP3    H2 5730   7.504   1.542   4.822
 1925TIP3   OH2 5731   3.889   5.898   5.564
 1925TIP3    H1 5732   3.933   5.819   5.594
 1925TIP3    H2 5733   3.803   5.868   5.534
 1926TIP3   OH2 5734   3.050   0.807   1.162
 1926TIP3    H1 5735   3.019   0.857   1.238
 1926TIP3    H2 5736   3.003   0.724   1.168
 1927TIP3   OH2 5737   5.017   4.799   5.888
 1927TIP3    H1 5738   4.941   4.795   5.946
 1927TIP3    H2 5739   4.985   4.768   5.804
 1928TIP3   OH2 5740   0.459   0.906   4.050
 1928TIP3    H1 5741   0.388   0.873   3.995
 1928TIP3    H2 5742   0.420   0.916   4.137
 1929TIP3   OH2 5743   2.749   2.053   1.412
 1929TIP3    H1 5744   2.707   1.967   1.420
 1929TIP3    H2 5745   2.841   2.034   1.396
 1930TIP3   OH2 5746   6.118   4.950   0.496
 1930TIP3    H1 5747   6.194   5.005   0.518
 1930TIP3    H2 5748   6.051   5.013   0.467
 1931TIP3   OH2 5749   5.838   2.871   1.117
 1931TIP3    H1 5750   5.892   2.801   1.083
 1931TIP3    H2 5751   5.749   2.835   1.118
 1932TIP3   OH2 5752   6.906   5.966   4.563
 1932TIP3    H1 5753   6.919   5.913   4.641
 1932TIP3    H2 5754   6.986   6.017   4.555
 1933TIP3   OH2 5755   7.163   6.219   0.879
 1933TIP3    H1 5756   7.152   6.314   0.884
 1933TIP3    H2 5757   7.243   6.202   0.928
 1934TIP3   OH2 5758   5.619   0.344   4.115
 1934TIP3    H1 5759   5.676   0.285   4.165
 1934TIP3    H2 5760   5.628   0.315   4.024
 1935TIP3   OH2 5761   1.710   7.427   1.858
 1935TIP3    H1 5762   1.630   7.447   1.809
 1935TIP3    H2 5763   1.702   7.334   1.879
 1936TIP3   OH2 5764   5.861   7.642   0.729
 1936TIP3    H1 5765   5.802   7.580   0.771
 1936TIP3    H2 5766   5.807   7.721   0.716
 1937TIP3   OH2 5767   6.766   6.595   3.321
 1937TIP3    H1 5768   6.720   6.628   3.243
 1937TIP3    H2 5769   6.857   6.621   3.308
 1938TIP3   OH2 5770   3.876   0.004   0.430
 1938TIP3    H1 5771   3.843   0.056   0.356
 1938TIP3    H2 5772   3.805  -0.057   0.449
 1939TIP3   OH2 5773   2.903   5.009   5.636
 1939TIP3    H1 5774   2.823   4.989   5.588
 1939TIP3    H2 5775   2.963   5.043   5.570
 1940TIP3   OH2 5776   4.343   1.051   0.409
 1940TIP3    H1 5777   4.385   1.118   0.464
 1940TIP3    H2 5778   4.275   1.014   0.466
 1941TIP3   OH2 5779   1.898   4.421   3.237
 1941TIP3    H1 5780   1.875   4.508   3.272
 1941TIP3    H2 5781   1.908   4.436   3.143
 1942TIP3   OH2 5782   8.092   2.942   2.446
 1942TIP3    H1 5783   8.078   3.035   2.428
 1942TIP3    H2 5784   8.169   2.920   2.393
 1943TIP3   OH2 5785   0.404   1.072   5.146
 1943TIP3    H1 5786   0.388   1.157   5.186
 1943TIP3    H2 5787   0.470   1.031   5.202
 1944TIP3   OH2 5788   1.656   1.135   4.427
 1944TIP3    H1 5789   1.664   1.138   4.523
 1944TIP3    H2 5790   1.709   1.209   4.397
 1945TIP3   OH2 5791   1.293   6.510   1.160
 1945TIP3    H1 5792   1.260   6.531   1.247
 1945TIP3    H2 5793   1.258   6.422   1.142
 1946TIP3   OH2 5794   7.293   1.522   5.541
 1946TIP3    H1 5795   7.242   1.603   5.539
 1946TIP3    H2 5796   7.230   1.454   5.515
 1947TIP3   OH2 5797   2.907   2.983   4.285
 1947TIP3    H1 5798   2.851   3.060   4.293
 1947TIP3    H2 5799   2.847   2.909   4.298
 1948TIP3   OH2 5800   0.029   3.580   1.044
 1948TIP3    H1 5801   0.100   3.530   1.005
 1948TIP3    H2 5802  -0.046   3.521   1.041
 1949TIP3   OH2 5803   0.480   3.409   2.339
 1949TIP3    H1 5804   0.475   3.461   2.260
 1949TIP3    H2 5805   0.560   3.439   2.382
 1950TIP3   OH2 5806   7.495   6.536   2.277
 1950TIP3    H1 5807   7.516   6.524   2.184
 1950TIP3    H2 5808   7.578   6.522   2.322
 1951TIP3   OH2 5809   2.605   1.126   2.560
 1951TIP3    H1 5810   2.627   1.111   2.468
 1951TIP3    H2 5811   2.597   1.038   2.598
 1952TIP3   OH2 5812   0.605   4.580   2.565
 1952TIP3    H1 5813   0.635   4.575   2.656
 1952TIP3    H2 5814   0.674   4.537   2.515
 1953TIP3   OH2 5815   2.843   7.343   4.691
 1953TIP3    H1 5816   2.922   7.349   4.637
 1953TIP3    H2 5817   2.848   7.418   4.750
 1954TIP3   OH2 5818   6.939   3.924   3.659
 1954TIP3    H1 5819   6.988   3.940   3.578
 1954TIP3    H2 5820   6.861   3.979   3.650
 1955TIP3   OH2 5821   8.077   0.952   1.543
 1955TIP3    H1 5822   8.092   1.036   1.586
 1955TIP3    H2 5823   8.158   0.935   1.495
 1956TIP3   OH2 5824   7.801   2.643   2.057
 1956TIP3    H1 5825   7.824   2.657   2.148
 1956TIP3    H2 5826   7.801   2.548   2.046
 1957TIP3   OH2 5827   2.157   1.903   0.889
 1957TIP3    H1 5828   2.101   1.840   0.843
 1957TIP3    H2 5829   2.139   1.887   0.981
 1958TIP3   OH2 5830   0.191   7.518   1.934
 1958TIP3    H1 5831   0.206   7.599   1.886
 1958TIP3    H2 5832   0.096   7.514   1.946
 1959TIP3   OH2 5833   0.254   5.089   1.710
 1959TIP3    H1 5834   0.190   5.080   1.639
 1959TIP3    H2 5835   0.218   5.039   1.782
 1960TIP3   OH2 5836   2.084   2.606   6.492
 1960TIP3    H1 5837   2.168   2.586   6.452
 1960TIP3    H2 5838   2.029   2.636   6.419
 1961TIP3   OH2 5839   2.947   7.723   2.079
 1961TIP3    H1 5840   3.029   7.772   2.068
 1961TIP3    H2 5841   2.951   7.654   2.013
 1962TIP3   OH2 5842   5.450   5.900   2.112
 1962TIP3    H1 5843   5.478   5.905   2.203
 1962TIP3    H2 5844   5.363   5.860   2.115
 1963TIP3   OH2 5845   1.093   7.479   5.059
 1963TIP3    H1 5846   1.103   7.439   4.973
 1963TIP3    H2 5847   1.103   7.573   5.044
 1964TIP3   OH2 5848   8.246   3.107   1.386
 1964TIP3    H1 5849   8.267   3.193   1.349
 1964TIP3    H2 5850   8.313   3.049   1.350
 1965TIP3   OH2 5851   6.629   7.389   2.343
 1965TIP3    H1 5852   6.700   7.342   2.298
 1965TIP3    H2 5853   6.552   7.335   2.327
 1966TIP3   OH2 5854   1.265   3.790   1.304
 1966TIP3    H1 5855   1.237   3.880   1.286
 1966TIP3    H2 5856   1.351   3.800   1.344
 1967TIP3   OH2 5857   1.506   2.621   5.237
 1967TIP3    H1 5858   1.530   2.583   5.321
 1967TIP3    H2 5859   1.417   2.655   5.250
 1968TIP3   OH2 5860   7.486   3.294   5.266
 1968TIP3    H1 5861   7.567   3.259   5.229
 1968TIP3    H2 5862   7.456   3.226   5.326
 1969TIP3   OH2 5863   4.677   2.728   4.741
 1969TIP3    H1 5864   4.725   2.705   4.821
 1969TIP3    H2 5865   4.686   2.650   4.685
 1970TIP3   OH2 5866   2.459   0.679   0.540
 1970TIP3    H1 5867   2.369   0.703   0.518
 1970TIP3    H2 5868   2.477   0.601   0.487
 1971TIP3   OH2 5869   5.325   4.055   6.592
 1971TIP3    H1 5870   5.316   4.028   6.684
 1971TIP3    H2 5871   5.414   4.029   6.568
 1972TIP3   OH2 5872   7.007   7.191   1.253
 1972TIP3    H1 5873   7.045   7.116   1.299
 1972TIP3    H2 5874   7.060   7.266   1.280
 1973TIP3   OH2 5875   7.586   6.046   6.060
 1973TIP3    H1 5876   7.579   5.960   6.101
 1973TIP3    H2 5877   7.569   6.108   6.132
 1974TIP3   OH2 5878   1.951   2.239   4.141
 1974TIP3    H1 5879   1.883   2.306   4.140
 1974TIP3    H2 5880   2.032   2.287   4.158
 1975TIP3   OH2 5881   6.932   4.622   0.916
 1975TIP3    H1 5882   6.871   4.597   0.846
 1975TIP3    H2 5883   6.879   4.620   0.995
 1976TIP3   OH2 5884   3.322   6.063   1.686
 1976TIP3    H1 5885   3.313   5.988   1.745
 1976TIP3    H2 5886   3.247   6.057   1.627
 1977TIP3   OH2 5887   2.803   0.399   2.197
 1977TIP3    H1 5888   2.815   0.304   2.196
 1977TIP3    H2 5889   2.849   0.428   2.275
 1978TIP3   OH2 5890   5.044   0.314   6.081
 1978TIP3    H1 5891   5.012   0.226   6.058
 1978TIP3    H2 5892   4.977   0.373   6.047
 1979TIP3   OH2 5893   5.390   0.288   0.409
 1979TIP3    H1 5894   5.383   0.195   0.390
 1979TIP3    H2 5895   5.480   0.300   0.442
 1980TIP3   OH2 5896   6.859   5.206   1.278
 1980TIP3    H1 5897   6.778   5.216   1.227
 1980TIP3    H2 5898   6.829   5.202   1.369
 1981TIP3   OH2 5899   8.078   4.557   0.100
 1981TIP3    H1 5900   8.112   4.495   0.165
 1981TIP3    H2 5901   8.131   4.541   0.022
 1982TIP3   OH2 5902   0.762   2.958   6.589
 1982TIP3    H1 5903   0.830   2.974   6.523
 1982TIP3    H2 5904   0.802   2.988   6.671
 1983TIP3   OH2 5905   3.898   7.456   3.657
 1983TIP3    H1 5906   3.957   7.529   3.673
 1983TIP3    H2 5907   3.815   7.496   3.631
 1984TIP3   OH2 5908   3.867   5.810   0.191
 1984TIP3    H1 5909   3.909   5.883   0.238
 1984TIP3    H2 5910   3.864   5.840   0.100
 1985TIP3   OH2 5911   4.396   2.748   2.469
 1985TIP3    H1 5912   4.372   2.674   2.414
 1985TIP3    H2 5913   4.313   2.790   2.491
 1986TIP3   OH2 5914   4.203   1.844   1.032
 1986TIP3    H1 5915   4.123   1.896   1.033
 1986TIP3    H2 5916   4.269   1.903   0.996
 1987TIP3   OH2 5917   5.154   2.868   0.962
 1987TIP3    H1 5918   5.246   2.865   0.988
 1987TIP3    H2 5919   5.107   2.895   1.041
 1988TIP3   OH2 5920   6.059   1.661   5.172
 1988TIP3    H1 5921   6.149   1.693   5.167
 1988TIP3    H2 5922   6.058   1.583   5.118
 1989TIP3   OH2 5923   2.579   3.773   6.566
 1989TIP3    H1 5924   2.599   3.800   6.476
 1989TIP3    H2 5925   2.574   3.856   6.615
 1990TIP3   OH2 5926   5.364   2.216   3.207
 1990TIP3    H1 5927   5.323   2.287   3.158
 1990TIP3    H2 5928   5.293   2.181   3.261
 1991TIP3   OH2 5929   8.262   6.121   4.650
 1991TIP3    H1 5930   8.291   6.136   4.739
 1991TIP3    H2 5931   8.313   6.182   4.597
 1992TIP3   OH2 5932   6.591   6.257   5.668
 1992TIP3    H1 5933   6.522   6.244   5.602
 1992TIP3    H2 5934   6.670   6.276   5.616
 1993TIP3   OH2 5935   4.714   4.054   1.174
 1993TIP3    H1 5936   4.767   4.098   1.241
 1993TIP3    H2 5937   4.695   4.122   1.110
 1994TIP3   OH2 5938   2.274   7.474   5.973
 1994TIP3    H1 5939   2.245   7.495   5.884
 1994TIP3    H2 5940   2.325   7.550   6.000
 1995TIP3   OH2 5941   4.999   7.113   6.050
 1995TIP3    H1 5942   5.055   7.050   6.096
 1995TIP3    H2 5943   4.946   7.152   6.120
 1996TIP3   OH2 5944   8.012   6.985   5.193
 1996TIP3    H1 5945   8.071   7.042   5.143
 1996TIP3    H2 5946   8.021   7.013   5.284
 1997TIP3   OH2 5947   8.224   1.151   4.186
 1997TIP3    H1 5948   8.238   1.192   4.100
 1997TIP3    H2 5949   8.228   1.224   4.248
 1998TIP3   OH2 5950   3.792   4.668   2.316
 1998TIP3    H1 5951   3.701   4.670   2.284
 1998TIP3    H2 5952   3.810   4.759   2.341
 1999TIP3   OH2 5953   5.181   2.302   1.175
 1999TIP3    H1 5954   5.151   2.331   1.261
 1999TIP3    H2 5955   5.134   2.358   1.113
 2000TIP3   OH2 5956   4.406   5.324   1.463
 2000TIP3    H1 5957   4.342   5.300   1.396
 2000TIP3    H2 5958   4.491   5.303   1.424
 2001TIP3   OH2 5959   0.251   5.114   5.050
 2001TIP3    H1 5960   0.332   5.065   5.032
 2001TIP3    H2 5961   0.217   5.073   5.130
 2002TIP3   OH2 5962   6.767   3.217   0.102
 2002TIP3    H1 5963   6.810   3.285   0.051
 2002TIP3    H2 5964   6.712   3.170   0.040
 2003TIP3   OH2 5965   1.214   7.347   1.722
 2003TIP3    H1 5966   1.211   7.407   1.797
 2003TIP3    H2 5967   1.149   7.280   1.742
 2004TIP3   OH2 5968   7.747   2.764   2.375
 2004TIP3    H1 5969   7.762   2.748   2.468
 2004TIP3    H2 5970   7.652   2.756   2.364
 2005TIP3   OH2 5971   5.567   0.244   0.072
 2005TIP3    H1 5972   5.586   0.240  -0.022
 2005TIP3    H2 5973   5.475   0.271   0.077
 2006TIP3   OH2 5974   6.084   0.865   0.387
 2006TIP3    H1 5975   6.048   0.869   0.298
 2006TIP3    H2 5976   6.179   0.866   0.375
 2007TIP3   OH2 5977   1.145   7.272   2.309
 2007TIP3    H1 5978   1.162   7.308   2.221
 2007TIP3    H2 5979   1.216   7.306   2.363
 2008TIP3   OH2 5980   0.735   5.809   6.258
 2008TIP3    H1 5981   0.721   5.724   6.216
 2008TIP3    H2 5982   0.670   5.867   6.218
 2009TIP3   OH2 5983   4.401   6.218   6.076
 2009TIP3    H1 5984   4.379   6.138   6.028
 2009TIP3    H2 5985   4.496   6.227   6.062
 2010TIP3   OH2 5986   6.587   1.883   4.008
 2010TIP3    H1 5987   6.607   1.802   3.961
 2010TIP3    H2 5988   6.509   1.863   4.058
 2011TIP3   OH2 5989   1.047   6.298   3.225
 2011TIP3    H1 5990   1.029   6.278   3.317
 2011TIP3    H2 5991   1.011   6.223   3.177
 2012TIP3   OH2 5992   1.159   2.702   0.713
 2012TIP3    H1 5993   1.069   2.730   0.702
 2012TIP3    H2 5994   1.159   2.609   0.690
 2013TIP3   OH2 5995   5.707   7.635   1.753
 2013TIP3    H1 5996   5.735   7.547   1.725
 2013TIP3    H2 5997   5.766   7.695   1.707
 2014TIP3   OH2 5998   7.074   1.176   2.838
 2014TIP3    H1 5999   7.046   1.142   2.753
 2014TIP3    H2 6000   7.166   1.198   2.825
 2015TIP3   OH2 6001   0.407   0.993   0.286
 2015TIP3    H1 6002   0.389   0.909   0.244
 2015TIP3    H2 6003   0.327   1.044   0.272
 2016TIP3   OH2 6004   5.670   0.640   0.030
 2016TIP3    H1 6005   5.755   0.604   0.055
 2016TIP3    H2 6006   5.676   0.650  -0.065
 2017TIP3   OH2 6007   6.233   2.441   3.485
 2017TIP3    H1 6008   6.287   2.494   3.544
 2017TIP3    H2 6009   6.274   2.354   3.487
 2018TIP3   OH2 6010   6.030   4.581   1.824
 2018TIP3    H1 6011   6.062   4.554   1.909
 2018TIP3    H2 6012   6.009   4.499   1.779
 2019TIP3   OH2 6013   3.180   2.854   2.986
 2019TIP3    H1 6014   3.169   2.902   3.069
 2019TIP3    H2 6015   3.219   2.918   2.927
 2020TIP3   OH2 6016   5.037   5.311   2.463
 2020TIP3    H1 6017   4.948   5.332   2.437
 2020TIP3    H2 6018   5.091   5.378   2.421
 2021TIP3   OH2 6019   0.942   7.616   3.002
 2021TIP3    H1 6020   0.980   7.556   2.937
 2021TIP3    H2 6021   1.017   7.664   3.038
 2022TIP3   OH2 6022   4.299   0.760   4.735
 2022TIP3    H1 6023   4.234   0.711   4.684
 2022TIP3    H2 6024   4.375   0.767   4.677
 2023TIP3   OH2 6025   0.206   1.243   5.621
 2023TIP3    H1 6026   0.189   1.149   5.610
 2023TIP3    H2 6027   0.154   1.285   5.553
 2024TIP3   OH2 6028   5.868   7.333   1.380
 2024TIP3    H1 6029   5.946   7.333   1.436
 2024TIP3    H2 6030   5.831   7.246   1.391
 2025TIP3   OH2 6031   4.188   7.412   6.391
 2025TIP3    H1 6032   4.244   7.361   6.450
 2025TIP3    H2 6033   4.209   7.503   6.410
 2026TIP3   OH2 6034   0.564   6.817   0.230
 2026TIP3    H1 6035   0.487   6.763   0.248
 2026TIP3    H2 6036   0.530   6.895   0.187
 2027TIP3   OH2 6037   7.762   4.615   2.448
 2027TIP3    H1 6038   7.727   4.634   2.535
 2027TIP3    H2 6039   7.732   4.688   2.394
 2028TIP3   OH2 6040   3.053   3.408   1.196
 2028TIP3    H1 6041   3.029   3.316   1.210
 2028TIP3    H2 6042   3.079   3.439   1.283
 2029TIP3   OH2 6043   6.014   7.533   5.209
 2029TIP3    H1 6044   6.007   7.497   5.120
 2029TIP3    H2 6045   5.964   7.615   5.205
 2030TIP3   OH2 6046   1.607   4.244   1.264
 2030TIP3    H1 6047   1.648   4.267   1.347
 2030TIP3    H2 6048   1.564   4.325   1.235
 2031TIP3   OH2 6049   7.364   4.661   2.802
 2031TIP3    H1 6050   7.287   4.702   2.762
 2031TIP3    H2 6051   7.347   4.667   2.896
 2032TIP3   OH2 6052   6.650   0.909   1.363
 2032TIP3    H1 6053   6.640   0.897   1.458
 2032TIP3    H2 6054   6.685   0.826   1.331
 2033TIP3   OH2 6055   5.519   0.081   5.364
 2033TIP3    H1 6056   5.480   0.123   5.288
 2033TIP3    H2 6057   5.595   0.135   5.385
 2034TIP3   OH2 6058   1.578   7.255   2.741
 2034TIP3    H1 6059   1.541   7.344   2.738
 2034TIP3    H2 6060   1.637   7.252   2.666
 2035TIP3   OH2 6061   4.907   6.431   6.049
 2035TIP3    H1 6062   4.817   6.459   6.033
 2035TIP3    H2 6063   4.910   6.341   6.017
 2036TIP3   OH2 6064   1.891   4.942   1.027
 2036TIP3    H1 6065   1.933   5.023   1.054
 2036TIP3    H2 6066   1.817   4.969   0.973
 2037TIP3   OH2 6067   6.181   5.456   4.571
 2037TIP3    H1 6068   6.198   5.372   4.529
 2037TIP3    H2 6069   6.230   5.520   4.519
 2038TIP3   OH2 6070   3.085   7.645   1.522
 2038TIP3    H1 6071   3.129   7.605   1.447
 2038TIP3    H2 6072   2.992   7.630   1.506
 2039TIP3   OH2 6073   3.607   7.341   6.170
 2039TIP3    H1 6074   3.637   7.351   6.260
 2039TIP3    H2 6075   3.595   7.247   6.159
 2040TIP3   OH2 6076   5.689   3.037   4.097
 2040TIP3    H1 6077   5.739   3.072   4.171
 2040TIP3    H2 6078   5.597   3.054   4.120
 2041TIP3   OH2 6079   4.178   5.168   6.285
 2041TIP3    H1 6080   4.097   5.162   6.336
 2041TIP3    H2 6081   4.248   5.166   6.351
 2042TIP3   OH2 6082   7.010   2.332   3.737
 2042TIP3    H1 6083   7.082   2.312   3.677
 2042TIP3    H2 6084   6.964   2.249   3.747
 2043TIP3   OH2 6085   6.928   4.021   6.506
 2043TIP3    H1 6086   6.840   3.998   6.535
 2043TIP3    H2 6087   6.980   4.027   6.586
 2044TIP3   OH2 6088   4.352   1.308   6.597
 2044TIP3    H1 6089   4.345   1.351   6.683
 2044TIP3    H2 6090   4.398   1.226   6.616
 2045TIP3   OH2 6091   5.959   2.318   4.593
 2045TIP3    H1 6092   5.958   2.407   4.628
 2045TIP3    H2 6093   5.992   2.264   4.666
 2046TIP3   OH2 6094   7.700   3.397   6.628
 2046TIP3    H1 6095   7.660   3.450   6.559
 2046TIP3    H2 6096   7.634   3.393   6.697
 2047TIP3   OH2 6097   5.138   5.730   6.705
 2047TIP3    H1 6098   5.133   5.824   6.684
 2047TIP3    H2 6099   5.140   5.686   6.620
 2048TIP3   OH2 6100   6.979   7.388   3.466
 2048TIP3    H1 6101   6.978   7.332   3.544
 2048TIP3    H2 6102   7.071   7.393   3.442
 2049TIP3   OH2 6103   0.800   7.126   2.128
 2049TIP3    H1 6104   0.842   7.048   2.163
 2049TIP3    H2 6105   0.706   7.106   2.131
 2050TIP3   OH2 6106   4.401   0.671   0.758
 2050TIP3    H1 6107   4.468   0.736   0.736
 2050TIP3    H2 6108   4.375   0.633   0.674
 2051TIP3   OH2 6109   6.836   2.893   1.307
 2051TIP3    H1 6110   6.890   2.959   1.263
 2051TIP3    H2 6111   6.764   2.943   1.345
 2052TIP3   OH2 6112   7.792   1.839   2.872
 2052TIP3    H1 6113   7.884   1.840   2.898
 2052TIP3    H2 6114   7.764   1.749   2.886
 2053TIP3   OH2 6115   6.098   4.117   2.883
 2053TIP3    H1 6116   6.088   4.139   2.976
 2053TIP3    H2 6117   6.188   4.143   2.862
 2054TIP3   OH2 6118   7.940   0.295   3.678
 2054TIP3    H1 6119   7.977   0.249   3.754
 2054TIP3    H2 6120   7.861   0.337   3.712
 2055TIP3   OH2 6121   3.090   6.274   0.074
 2055TIP3    H1 6122   3.080   6.199   0.015
 2055TIP3    H2 6123   3.085   6.350   0.017
 2056TIP3   OH2 6124   5.557   2.120   3.580
 2056TIP3    H1 6125   5.587   2.061   3.511
 2056TIP3    H2 6126   5.599   2.087   3.660
 2057TIP3   OH2 6127   7.371   3.078   3.442
 2057TIP3    H1 6128   7.445   3.131   3.473
 2057TIP3    H2 6129   7.352   3.112   3.355
 2058TIP3   OH2 6130   5.710   7.052   3.024
 2058TIP3    H1 6131   5.665   7.000   2.957
 2058TIP3    H2 6132   5.734   7.133   2.979
 2059TIP3   OH2 6133   5.955   7.242   6.575
 2059TIP3    H1 6134   5.951   7.307   6.645
 2059TIP3    H2 6135   5.909   7.282   6.501
 2060TIP3   OH2 6136   0.526   7.705   0.017
 2060TIP3    H1 6137   0.546   7.684   0.109
 2060TIP3    H2 6138   0.597   7.762  -0.010
 2061TIP3   OH2 6139   7.029   2.453   1.484
 2061TIP3    H1 6140   7.116   2.483   1.457
 2061TIP3    H2 6141   6.978   2.534   1.492
 2062TIP3   OH2 6142   0.546   1.791   6.182
 2062TIP3    H1 6143   0.608   1.754   6.120
 2062TIP3    H2 6144   0.559   1.885   6.177
 2063TIP3   OH2 6145   6.632   1.039   0.047
 2063TIP3    H1 6146   6.697   1.024   0.116
 2063TIP3    H2 6147   6.577   0.961   0.049
 2064TIP3   OH2 6148   1.407   5.407   6.349
 2064TIP3    H1 6149   1.363   5.374   6.427
 2064TIP3    H2 6150   1.444   5.329   6.307
 2065TIP3   OH2 6151   6.136   0.620   3.144
 2065TIP3    H1 6152   6.079   0.695   3.161
 2065TIP3    H2 6153   6.206   0.628   3.209
 2066TIP3   OH2 6154   7.437   7.437   6.493
 2066TIP3    H1 6155   7.467   7.512   6.545
 2066TIP3    H2 6156   7.364   7.471   6.442
 2067TIP3   OH2 6157   0.850   4.337   5.406
 2067TIP3    H1 6158   0.799   4.256   5.399
 2067TIP3    H2 6159   0.784   4.406   5.410
 2068TIP3   OH2 6160   3.235   6.690   1.773
 2068TIP3    H1 6161   3.319   6.702   1.818
 2068TIP3    H2 6162   3.245   6.737   1.690
 2069TIP3   OH2 6163   3.830   4.170   5.902
 2069TIP3    H1 6164   3.901   4.229   5.876
 2069TIP3    H2 6165   3.754   4.203   5.854
 2070TIP3   OH2 6166   7.743   0.263   4.721
 2070TIP3    H1 6167   7.734   0.204   4.796
 2070TIP3    H2 6168   7.664   0.249   4.670
 2071TIP3   OH2 6169   1.012   4.784   1.170
 2071TIP3    H1 6170   0.938   4.735   1.207
 2071TIP3    H2 6171   1.066   4.808   1.246
 2072TIP3   OH2 6172   6.400   7.325   0.440
 2072TIP3    H1 6173   6.413   7.232   0.422
 2072TIP3    H2 6174   6.389   7.329   0.535
 2073TIP3   OH2 6175   8.292   1.357   0.901
 2073TIP3    H1 6176   8.274   1.446   0.931
 2073TIP3    H2 6177   8.253   1.353   0.814
 2074TIP3   OH2 6178   1.773   2.858   0.112
 2074TIP3    H1 6179   1.856   2.814   0.126
 2074TIP3    H2 6180   1.748   2.835   0.023
 2075TIP3   OH2 6181   5.226   7.206   1.491
 2075TIP3    H1 6182   5.210   7.154   1.411
 2075TIP3    H2 6183   5.255   7.291   1.458
 2076TIP3   OH2 6184   7.449   0.258   1.792
 2076TIP3    H1 6185   7.517   0.291   1.732
 2076TIP3    H2 6186   7.383   0.219   1.735
 2077TIP3   OH2 6187   7.276   2.405   2.253
 2077TIP3    H1 6188   7.253   2.411   2.345
 2077TIP3    H2 6189   7.214   2.463   2.209
 2078TIP3   OH2 6190   8.205   5.470   2.570
 2078TIP3    H1 6191   8.288   5.475   2.522
 2078TIP3    H2 6192   8.160   5.552   2.548
 2079TIP3   OH2 6193   2.019   1.854   2.197
 2079TIP3    H1 6194   2.107   1.837   2.165
 2079TIP3    H2 6195   1.981   1.915   2.133
 2080TIP3   OH2 6196   2.617   1.383   3.900
 2080TIP3    H1 6197   2.616   1.461   3.956
 2080TIP3    H2 6198   2.681   1.404   3.832
 2081TIP3   OH2 6199   7.125   2.022   1.567
 2081TIP3    H1 6200   7.142   1.929   1.576
 2081TIP3    H2 6201   7.087   2.031   1.479
 2082TIP3   OH2 6202   7.414   3.161   2.748
 2082TIP3    H1 6203   7.435   3.247   2.784
 2082TIP3    H2 6204   7.493   3.133   2.702
 2083TIP3   OH2 6205   3.580   2.064   4.477
 2083TIP3    H1 6206   3.553   2.034   4.564
 2083TIP3    H2 6207   3.664   2.019   4.462
 2084TIP3   OH2 6208   3.588   2.064   3.212
 2084TIP3    H1 6209   3.561   2.073   3.120
 2084TIP3    H2 6210   3.669   2.115   3.218
 2085TIP3   OH2 6211   0.963   7.225   0.754
 2085TIP3    H1 6212   1.048   7.193   0.783
 2085TIP3    H2 6213   0.957   7.197   0.662
 2086TIP3   OH2 6214   3.335   3.721   1.161
 2086TIP3    H1 6215   3.282   3.778   1.217
 2086TIP3    H2 6216   3.321   3.633   1.196
 2087TIP3   OH2 6217   4.533   7.768   3.078
 2087TIP3    H1 6218   4.464   7.702   3.086
 2087TIP3    H2 6219   4.503   7.841   3.131
 2088TIP3   OH2 6220   6.745   3.552   0.743
 2088TIP3    H1 6221   6.759   3.548   0.648
 2088TIP3    H2 6222   6.832   3.548   0.781
 2089TIP3   OH2 6223   3.565   7.325   0.950
 2089TIP3    H1 6224   3.600   7.262   0.887
 2089TIP3    H2 6225   3.608   7.305   1.032
 2090TIP3   OH2 6226   1.524   1.115   2.864
 2090TIP3    H1 6227   1.610   1.106   2.905
 2090TIP3    H2 6228   1.514   1.209   2.848
 2091TIP3   OH2 6229   7.508   7.562   1.678
 2091TIP3    H1 6230   7.510   7.629   1.746
 2091TIP3    H2 6231   7.571   7.497   1.707
 2092TIP3   OH2 6232   5.474   0.868   1.805
 2092TIP3    H1 6233   5.527   0.820   1.742
 2092TIP3    H2 6234   5.430   0.935   1.753
 2093TIP3   OH2 6235   5.243   5.382   5.872
 2093TIP3    H1 6236   5.293   5.314   5.825
 2093TIP3    H2 6237   5.267   5.368   5.964
 2094TIP3   OH2 6238   8.092   7.640   1.402
 2094TIP3    H1 6239   8.140   7.602   1.328
 2094TIP3    H2 6240   8.135   7.603   1.479
 2095TIP3   OH2 6241   4.711   3.312   4.547
 2095TIP3    H1 6242   4.657   3.267   4.612
 2095TIP3    H2 6243   4.649   3.358   4.491
 2096TIP3   OH2 6244   1.414   2.946   5.283
 2096TIP3    H1 6245   1.358   3.015   5.318
 2096TIP3    H2 6246   1.491   2.947   5.339
 2097TIP3   OH2 6247   0.443   3.702   1.504
 2097TIP3    H1 6248   0.484   3.751   1.433
 2097TIP3    H2 6249   0.512   3.645   1.537
 2098TIP3   OH2 6250   5.364   3.691   0.398
 2098TIP3    H1 6251   5.458   3.704   0.411
 2098TIP3    H2 6252   5.332   3.658   0.482
 2099TIP3   OH2 6253   3.540   5.703   2.221
 2099TIP3    H1 6254   3.556   5.778   2.164
 2099TIP3    H2 6255   3.617   5.700   2.278
 2100TIP3   OH2 6256   0.156   5.018   4.726
 2100TIP3    H1 6257   0.114   4.937   4.699
 2100TIP3    H2 6258   0.242   4.992   4.758
 2101TIP3   OH2 6259   3.270   5.063   6.030
 2101TIP3    H1 6260   3.306   5.096   5.948
 2101TIP3    H2 6261   3.175   5.060   6.014
 2102TIP3   OH2 6262   7.991   0.557   1.895
 2102TIP3    H1 6263   8.035   0.627   1.944
 2102TIP3    H2 6264   8.047   0.480   1.907
 2103TIP3   OH2 6265   1.813   2.267   2.694
 2103TIP3    H1 6266   1.883   2.203   2.683
 2103TIP3    H2 6267   1.828   2.305   2.780
 2104TIP3   OH2 6268   4.386   1.279   5.871
 2104TIP3    H1 6269   4.408   1.312   5.958
 2104TIP3    H2 6270   4.395   1.184   5.878
 2105TIP3   OH2 6271   7.555   5.186   1.428
 2105TIP3    H1 6272   7.492   5.156   1.362
 2105TIP3    H2 6273   7.513   5.263   1.467
 2106TIP3   OH2 6274   6.421   1.411   5.257
 2106TIP3    H1 6275   6.363   1.375   5.190
 2106TIP3    H2 6276   6.474   1.476   5.210
 2107TIP3   OH2 6277   4.594   4.698   5.700
 2107TIP3    H1 6278   4.520   4.644   5.728
 2107TIP3    H2 6279   4.554   4.772   5.654
 2108TIP3   OH2 6280   6.005   1.161   1.614
 2108TIP3    H1 6281   5.943   1.102   1.657
 2108TIP3    H2 6282   6.051   1.106   1.551
 2109TIP3   OH2 6283   6.077   5.768   5.277
 2109TIP3    H1 6284   6.093   5.739   5.187
 2109TIP3    H2 6285   6.116   5.700   5.332
 2110TIP3   OH2 6286   5.612   0.548   1.838
 2110TIP3    H1 6287   5.588   0.538   1.745
 2110TIP3    H2 6288   5.659   0.468   1.859
 2111TIP3   OH2 6289   0.741   5.570   2.061
 2111TIP3    H1 6290   0.745   5.658   2.097
 2111TIP3    H2 6291   0.830   5.536   2.071
 2112TIP3   OH2 6292   0.514   1.646   2.715
 2112TIP3    H1 6293   0.451   1.717   2.726
 2112TIP3    H2 6294   0.555   1.663   2.630
 2113TIP3   OH2 6295   0.786   3.558   4.804
 2113TIP3    H1 6296   0.830   3.602   4.731
 2113TIP3    H2 6297   0.858   3.523   4.857
 2114TIP3   OH2 6298   4.476   0.017   5.913
 2114TIP3    H1 6299   4.439   0.103   5.895
 2114TIP3    H2 6300   4.401  -0.041   5.924
 2115TIP3   OH2 6301   6.919   1.802   5.718
 2115TIP3    H1 6302   6.900   1.744   5.792
 2115TIP3    H2 6303   6.860   1.772   5.649
 2116TIP3   OH2 6304   5.305   3.068   4.741
 2116TIP3    H1 6305   5.252   3.046   4.819
 2116TIP3    H2 6306   5.343   2.984   4.714
 2117TIP3   OH2 6307   4.921   3.104   4.169
 2117TIP3    H1 6308   4.846   3.071   4.121
 2117TIP3    H2 6309   4.895   3.099   4.261
 2118TIP3   OH2 6310   2.907   5.533   3.111
 2118TIP3    H1 6311   2.870   5.607   3.064
 2118TIP3    H2 6312   2.971   5.571   3.172
 2119TIP3   OH2 6313   0.820   1.808   5.797
 2119TIP3    H1 6314   0.780   1.849   5.720
 2119TIP3    H2 6315   0.892   1.866   5.822
 2120TIP3   OH2 6316   5.703   2.597   2.772
 2120TIP3    H1 6317   5.700   2.527   2.708
 2120TIP3    H2 6318   5.750   2.559   2.847
 2121TIP3   OH2 6319   2.584   5.606   2.437
 2121TIP3    H1 6320   2.572   5.698   2.416
 2121TIP3    H2 6321   2.497   5.567   2.426
 2122TIP3   OH2 6322   4.296   5.657   6.381
 2122TIP3    H1 6323   4.353   5.627   6.452
 2122TIP3    H2 6324   4.207   5.638   6.413
 2123TIP3   OH2 6325   1.415   0.516   2.294
 2123TIP3    H1 6326   1.489   0.574   2.314
 2123TIP3    H2 6327   1.397   0.472   2.377
 2124TIP3   OH2 6328   6.343   3.789   0.673
 2124TIP3    H1 6329   6.380   3.744   0.596
 2124TIP3    H2 6330   6.293   3.721   0.718
 2125TIP3   OH2 6331   1.009   6.238   2.717
 2125TIP3    H1 6332   1.009   6.320   2.668
 2125TIP3    H2 6333   0.998   6.265   2.808
 2126TIP3   OH2 6334   2.904   3.812   2.778
 2126TIP3    H1 6335   2.958   3.790   2.702
 2126TIP3    H2 6336   2.894   3.730   2.826
 2127TIP3   OH2 6337   5.964   0.743   2.139
 2127TIP3    H1 6338   6.042   0.786   2.103
 2127TIP3    H2 6339   5.952   0.665   2.084
 2128TIP3   OH2 6340   1.175   7.097   4.319
 2128TIP3    H1 6341   1.205   7.152   4.246
 2128TIP3    H2 6342   1.210   7.010   4.299
 2129TIP3   OH2 6343   0.102   1.128   2.279
 2129TIP3    H1 6344   0.146   1.199   2.231
 2129TIP3    H2 6345   0.054   1.173   2.349
 2130TIP3   OH2 6346   3.745   5.254   2.953
 2130TIP3    H1 6347   3.737   5.233   2.860
 2130TIP3    H2 6348   3.713   5.176   2.998
 2131TIP3   OH2 6349   5.724   3.188   1.142
 2131TIP3    H1 6350   5.629   3.181   1.132
 2131TIP3    H2 6351   5.757   3.191   1.052
 2132TIP3   OH2 6352   2.634   1.382   3.475
 2132TIP3    H1 6353   2.634   1.476   3.492
 2132TIP3    H2 6354   2.585   1.345   3.549
 2133TIP3   OH2 6355   6.743   1.488   6.470
 2133TIP3    H1 6356   6.780   1.463   6.554
 2133TIP3    H2 6357   6.816   1.482   6.409
 2134TIP3   OH2 6358   7.936   4.865   5.245
 2134TIP3    H1 6359   7.989   4.819   5.181
 2134TIP3    H2 6360   7.980   4.949   5.256
 2135TIP3   OH2 6361   5.832   0.913   0.973
 2135TIP3    H1 6362   5.902   0.848   0.978
 2135TIP3    H2 6363   5.840   0.948   0.884
 2136TIP3   OH2 6364   5.536   0.745   3.983
 2136TIP3    H1 6365   5.518   0.780   3.896
 2136TIP3    H2 6366   5.456   0.698   4.007
 2137TIP3   OH2 6367   0.613   5.348   0.762
 2137TIP3    H1 6368   0.523   5.317   0.771
 2137TIP3    H2 6369   0.618   5.384   0.674
 2138TIP3   OH2 6370   0.113   0.715   4.336
 2138TIP3    H1 6371   0.046   0.686   4.274
 2138TIP3    H2 6372   0.098   0.662   4.414
 2139TIP3   OH2 6373   2.660   5.222   3.896
 2139TIP3    H1 6374   2.719   5.169   3.843
 2139TIP3    H2 6375   2.713   5.246   3.973
 2140TIP3   OH2 6376   1.419   7.472   2.803
 2140TIP3    H1 6377   1.426   7.503   2.894
 2140TIP3    H2 6378   1.349   7.406   2.806
 2141TIP3   OH2 6379   3.826   2.285   4.956
 2141TIP3    H1 6380   3.768   2.267   4.882
 2141TIP3    H2 6381   3.825   2.204   5.007
 2142TIP3   OH2 6382   0.509   0.607   4.396
 2142TIP3    H1 6383   0.535   0.569   4.313
 2142TIP3    H2 6384   0.482   0.696   4.374
 2143TIP3   OH2 6385   0.016   4.434   1.955
 2143TIP3    H1 6386   0.094   4.427   2.011
 2143TIP3    H2 6387  -0.054   4.396   2.008
 2144TIP3   OH2 6388   6.254   3.251   1.942
 2144TIP3    H1 6389   6.300   3.257   2.025
 2144TIP3    H2 6390   6.265   3.337   1.902
 2145TIP3   OH2 6391   4.177   0.902   1.993
 2145TIP3    H1 6392   4.257   0.878   1.946
 2145TIP3    H2 6393   4.198   0.986   2.035
 2146TIP3   OH2 6394   0.142   7.418   4.731
 2146TIP3    H1 6395   0.052   7.444   4.709
 2146TIP3    H2 6396   0.163   7.349   4.668
 2147TIP3   OH2 6397   4.258   2.040   2.224
 2147TIP3    H1 6398   4.253   2.006   2.313
 2147TIP3    H2 6399   4.201   2.116   2.223
 2148TIP3   OH2 6400   5.650   2.200   3.855
 2148TIP3    H1 6401   5.569   2.247   3.835
 2148TIP3    H2 6402   5.708   2.267   3.891
 2149TIP3   OH2 6403   4.933   2.896   3.167
 2149TIP3    H1 6404   4.876   2.952   3.114
 2149TIP3    H2 6405   4.878   2.869   3.240
 2150TIP3   OH2 6406   1.902   0.487   0.693
 2150TIP3    H1 6407   1.879   0.569   0.736
 2150TIP3    H2 6408   1.966   0.446   0.752
 2151TIP3   OH2 6409   1.236   1.361   6.468
 2151TIP3    H1 6410   1.165   1.300   6.488
 2151TIP3    H2 6411   1.247   1.411   6.549
 2152TIP3   OH2 6412   5.551   0.475   5.992
 2152TIP3    H1 6413   5.575   0.560   6.029
 2152TIP3    H2 6414   5.496   0.496   5.917
 2153TIP3   OH2 6415   0.764   7.711   3.286
 2153TIP3    H1 6416   0.762   7.622   3.253
 2153TIP3    H2 6417   0.845   7.748   3.251
 2154TIP3   OH2 6418   5.364   2.468   2.759
 2154TIP3    H1 6419   5.330   2.476   2.669
 2154TIP3    H2 6420   5.396   2.556   2.780
 2155TIP3   OH2 6421   1.058   6.988   2.298
 2155TIP3    H1 6422   1.127   7.055   2.297
 2155TIP3    H2 6423   1.083   6.928   2.228
 2156TIP3   OH2 6424   1.408   3.762   2.815
 2156TIP3    H1 6425   1.396   3.832   2.879
 2156TIP3    H2 6426   1.379   3.682   2.860
 2157TIP3   OH2 6427   7.103   4.523   5.417
 2157TIP3    H1 6428   7.065   4.605   5.384
 2157TIP3    H2 6429   7.083   4.459   5.349
 2158TIP3   OH2 6430   2.017   0.321   3.036
 2158TIP3    H1 6431   1.947   0.285   3.091
 2158TIP3    H2 6432   1.982   0.318   2.947
 2159TIP3   OH2 6433   4.225   0.307   3.062
 2159TIP3    H1 6434   4.294   0.341   3.119
 2159TIP3    H2 6435   4.149   0.361   3.081
 2160TIP3   OH2 6436   3.992   4.882   0.366
 2160TIP3    H1 6437   3.922   4.831   0.407
 2160TIP3    H2 6438   3.946   4.949   0.315
 2161TIP3   OH2 6439   1.838   5.085   0.770
 2161TIP3    H1 6440   1.752   5.122   0.789
 2161TIP3    H2 6441   1.894   5.162   0.756
 2162TIP3   OH2 6442   2.414   5.955   5.569
 2162TIP3    H1 6443   2.416   5.921   5.659
 2162TIP3    H2 6444   2.325   5.989   5.559
 2163TIP3   OH2 6445   8.058   0.935   6.387
 2163TIP3    H1 6446   7.987   0.879   6.418
 2163TIP3    H2 6447   8.017   0.995   6.326
 2164TIP3   OH2 6448   6.908   0.243   2.704
 2164TIP3    H1 6449   6.871   0.301   2.638
 2164TIP3    H2 6450   6.853   0.255   2.781
 2165TIP3   OH2 6451   2.114   2.110   1.233
 2165TIP3    H1 6452   2.022   2.131   1.217
 2165TIP3    H2 6453   2.160   2.193   1.221
 2166TIP3   OH2 6454   7.498   7.440   0.559
 2166TIP3    H1 6455   7.568   7.494   0.596
 2166TIP3    H2 6456   7.532   7.410   0.475
 2167TIP3   OH2 6457   3.596   0.698   0.777
 2167TIP3    H1 6458   3.501   0.708   0.768
 2167TIP3    H2 6459   3.623   0.779   0.820
 2168TIP3   OH2 6460   0.701   0.884   5.803
 2168TIP3    H1 6461   0.675   0.873   5.894
 2168TIP3    H2 6462   0.623   0.920   5.760
 2169TIP3   OH2 6463   4.815   0.386   3.994
 2169TIP3    H1 6464   4.727   0.405   3.960
 2169TIP3    H2 6465   4.857   0.471   4.000
 2170TIP3   OH2 6466   3.696   5.918   4.516
 2170TIP3    H1 6467   3.670   5.975   4.443
 2170TIP3    H2 6468   3.718   5.979   4.587
 2171TIP3   OH2 6469   8.069   6.943   0.720
 2171TIP3    H1 6470   8.014   6.885   0.773
 2171TIP3    H2 6471   8.076   7.023   0.772
 2172TIP3   OH2 6472   7.602   3.205   2.103
 2172TIP3    H1 6473   7.675   3.193   2.042
 2172TIP3    H2 6474   7.524   3.191   2.050
 2173TIP3   OH2 6475   4.584   1.589   5.618
 2173TIP3    H1 6476   4.643   1.658   5.589
 2173TIP3    H2 6477   4.627   1.551   5.694
 2174TIP3   OH2 6478   6.436   1.077   6.081
 2174TIP3    H1 6479   6.496   1.005   6.063
 2174TIP3    H2 6480   6.466   1.148   6.024
 2175TIP3   OH2 6481   5.456   6.819   1.073
 2175TIP3    H1 6482   5.426   6.879   1.004
 2175TIP3    H2 6483   5.522   6.869   1.120
 2176TIP3   OH2 6484   4.467   6.920   6.041
 2176TIP3    H1 6485   4.465   6.869   6.121
 2176TIP3    H2 6486   4.477   6.855   5.971
 2177TIP3   OH2 6487   3.853   5.690   0.511
 2177TIP3    H1 6488   3.858   5.748   0.435
 2177TIP3    H2 6489   3.942   5.690   0.546
 2178TIP3   OH2 6490   3.984   7.059   0.131
 2178TIP3    H1 6491   3.967   7.124   0.064
 2178TIP3    H2 6492   4.068   7.084   0.168
 2179TIP3   OH2 6493   2.719   7.005   2.019
 2179TIP3    H1 6494   2.731   7.057   1.940
 2179TIP3    H2 6495   2.789   7.032   2.077
 2180TIP3   OH2 6496   2.283   0.179   6.021
 2180TIP3    H1 6497   2.245   0.155   5.936
 2180TIP3    H2 6498   2.270   0.274   6.027
 2181TIP3   OH2 6499   0.556   1.363   0.083
 2181TIP3    H1 6500   0.515   1.440   0.123
 2181TIP3    H2 6501   0.489   1.295   0.088
 2182TIP3   OH2 6502   3.021   7.488   5.114
 2182TIP3    H1 6503   3.010   7.582   5.131
 2182TIP3    H2 6504   3.098   7.463   5.165
 2183TIP3   OH2 6505   0.189   0.171   6.515
 2183TIP3    H1 6506   0.194   0.255   6.470
 2183TIP3    H2 6507   0.128   0.186   6.588
 2184TIP3   OH2 6508   1.507   0.109   6.343
 2184TIP3    H1 6509   1.461   0.153   6.272
 2184TIP3    H2 6510   1.496   0.015   6.324
 2185TIP3   OH2 6511   1.392   6.723   0.129
 2185TIP3    H1 6512   1.381   6.794   0.192
 2185TIP3    H2 6513   1.485   6.700   0.135
 2186TIP3   OH2 6514   1.592   1.253   4.034
 2186TIP3    H1 6515   1.567   1.334   4.079
 2186TIP3    H2 6516   1.639   1.283   3.956
 2187TIP3   OH2 6517   3.714   7.212   6.419
 2187TIP3    H1 6518   3.740   7.121   6.405
 2187TIP3    H2 6519   3.796   7.260   6.423
 2188TIP3   OH2 6520   6.145   0.922   2.033
 2188TIP3    H1 6521   6.140   1.016   2.044
 2188TIP3    H2 6522   6.178   0.909   1.945
 2189TIP3   OH2 6523   2.510   6.506   0.475
 2189TIP3    H1 6524   2.440   6.570   0.462
 2189TIP3    H2 6525   2.466   6.422   0.486
 2190TIP3   OH2 6526   6.725   0.757   1.106
 2190TIP3    H1 6527   6.696   0.845   1.083
 2190TIP3    H2 6528   6.815   0.752   1.073
 2191TIP3   OH2 6529   4.103   3.752   1.176
 2191TIP3    H1 6530   4.192   3.787   1.172
 2191TIP3    H2 6531   4.067   3.769   1.089
 2192TIP3   OH2 6532   5.361   7.636   6.200
 2192TIP3    H1 6533   5.399   7.580   6.268
 2192TIP3    H2 6534   5.382   7.725   6.228
 2193TIP3   OH2 6535   2.437   4.929   4.600
 2193TIP3    H1 6536   2.401   4.897   4.518
 2193TIP3    H2 6537   2.390   4.881   4.668
 2194TIP3   OH2 6538   3.692   3.666   0.259
 2194TIP3    H1 6539   3.705   3.700   0.171
 2194TIP3    H2 6540   3.689   3.743   0.315
 2195TIP3   OH2 6541   5.718   0.976   4.347
 2195TIP3    H1 6542   5.736   0.951   4.256
 2195TIP3    H2 6543   5.632   1.017   4.344
 2196TIP3   OH2 6544   4.506   0.097   1.298
 2196TIP3    H1 6545   4.442   0.071   1.365
 2196TIP3    H2 6546   4.584   0.046   1.320
 2197TIP3   OH2 6547   5.184   1.540   1.752
 2197TIP3    H1 6548   5.119   1.530   1.683
 2197TIP3    H2 6549   5.208   1.633   1.750
 2198TIP3   OH2 6550   2.989   4.413   0.795
 2198TIP3    H1 6551   2.946   4.373   0.871
 2198TIP3    H2 6552   2.924   4.475   0.761
 2199TIP3   OH2 6553   5.960   6.586   6.603
 2199TIP3    H1 6554   5.955   6.608   6.510
 2199TIP3    H2 6555   6.037   6.633   6.635
 2200TIP3   OH2 6556   1.317   3.328   5.036
 2200TIP3    H1 6557   1.373   3.261   4.996
 2200TIP3    H2 6558   1.256   3.278   5.091
 2201TIP3   OH2 6559   4.651   5.335   1.694
 2201TIP3    H1 6560   4.646   5.431   1.690
 2201TIP3    H2 6561   4.649   5.307   1.602
 2202TIP3   OH2 6562   0.584   2.964   3.258
 2202TIP3    H1 6563   0.619   3.013   3.332
 2202TIP3    H2 6564   0.660   2.923   3.217
 2203TIP3   OH2 6565   6.939   3.922   2.968
 2203TIP3    H1 6566   7.033   3.913   2.984
 2203TIP3    H2 6567   6.905   3.833   2.974
 2204TIP3   OH2 6568   1.996   4.492   1.181
 2204TIP3    H1 6569   2.051   4.569   1.166
 2204TIP3    H2 6570   1.928   4.523   1.240
 2205TIP3   OH2 6571   3.199   1.581   4.877
 2205TIP3    H1 6572   3.223   1.616   4.792
 2205TIP3    H2 6573   3.176   1.658   4.930
 2206TIP3   OH2 6574   2.641   1.444   2.328
 2206TIP3    H1 6575   2.692   1.374   2.288
 2206TIP3    H2 6576   2.698   1.521   2.324
 2207TIP3   OH2 6577   1.289   0.129   1.820
 2207TIP3    H1 6578   1.382   0.132   1.844
 2207TIP3    H2 6579   1.265   0.037   1.827
 2208TIP3   OH2 6580   3.900   4.154   2.824
 2208TIP3    H1 6581   3.983   4.199   2.839
 2208TIP3    H2 6582   3.919   4.094   2.752
 2209TIP3   OH2 6583   8.104   4.041   1.371
 2209TIP3    H1 6584   8.107   4.011   1.461
 2209TIP3    H2 6585   8.132   4.133   1.376
 2210TIP3   OH2 6586   8.004   1.555   6.239
 2210TIP3    H1 6587   7.953   1.482   6.206
 2210TIP3    H2 6588   8.008   1.617   6.166
 2211TIP3   OH2 6589   5.032   2.029   5.314
 2211TIP3    H1 6590   5.063   2.026   5.223
 2211TIP3    H2 6591   5.110   2.050   5.365
 2212TIP3   OH2 6592   2.677   6.981   3.631
 2212TIP3    H1 6593   2.722   7.006   3.550
 2212TIP3    H2 6594   2.700   6.889   3.643
 2213TIP3   OH2 6595   1.777   4.209   6.220
 2213TIP3    H1 6596   1.700   4.234   6.271
 2213TIP3    H2 6597   1.745   4.203   6.130
 2214TIP3   OH2 6598   3.340   2.109   6.523
 2214TIP3    H1 6599   3.360   2.202   6.532
 2214TIP3    H2 6600   3.328   2.096   6.429
 2215TIP3   OH2 6601   7.356   1.546   4.565
 2215TIP3    H1 6602   7.374   1.484   4.636
 2215TIP3    H2 6603   7.304   1.497   4.502
 2216TIP3   OH2 6604   5.716   0.427   5.206
 2216TIP3    H1 6605   5.685   0.378   5.130
 2216TIP3    H2 6606   5.782   0.487   5.171
 2217TIP3   OH2 6607   4.303   4.189   3.401
 2217TIP3    H1 6608   4.239   4.180   3.331
 2217TIP3    H2 6609   4.378   4.138   3.371
 2218TIP3   OH2 6610   0.296   6.516   5.554
 2218TIP3    H1 6611   0.315   6.580   5.485
 2218TIP3    H2 6612   0.340   6.436   5.524
 2219TIP3   OH2 6613   6.135   3.642   3.590
 2219TIP3    H1 6614   6.066   3.676   3.534
 2219TIP3    H2 6615   6.088   3.609   3.668
 2220TIP3   OH2 6616   6.415   0.279   5.206
 2220TIP3    H1 6617   6.422   0.269   5.112
 2220TIP3    H2 6618   6.482   0.343   5.229
 2221TIP3   OH2 6619   2.983   2.236   0.710
 2221TIP3    H1 6620   3.076   2.260   0.711
 2221TIP3    H2 6621   2.981   2.150   0.669
 2222TIP3   OH2 6622   4.168   3.975   5.952
 2222TIP3    H1 6623   4.095   3.914   5.946
 2222TIP3    H2 6624   4.128   4.059   5.972
 2223TIP3   OH2 6625   5.573   2.724   2.528
 2223TIP3    H1 6626   5.631   2.674   2.584
 2223TIP3    H2 6627   5.581   2.684   2.441
 2224TIP3   OH2 6628   1.848   4.143   2.562
 2224TIP3    H1 6629   1.867   4.198   2.485
 2224TIP3    H2 6630   1.932   4.104   2.584
 2225TIP3   OH2 6631   2.363   1.313   0.936
 2225TIP3    H1 6632   2.296   1.251   0.908
 2225TIP3    H2 6633   2.330   1.398   0.905
 2226TIP3   OH2 6634   3.422   1.373   4.727
 2226TIP3    H1 6635   3.391   1.340   4.812
 2226TIP3    H2 6636   3.447   1.464   4.745
 2227TIP3   OH2 6637   6.480   1.193   3.310
 2227TIP3    H1 6638   6.471   1.148   3.226
 2227TIP3    H2 6639   6.402   1.167   3.360
 2228TIP3   OH2 6640   7.334   7.704   2.557
 2228TIP3    H1 6641   7.268   7.684   2.623
 2228TIP3    H2 6642   7.406   7.745   2.606
 2229TIP3   OH2 6643   5.394   1.685   5.269
 2229TIP3    H1 6644   5.429   1.743   5.201
 2229TIP3    H2 6645   5.438   1.601   5.254
 2230TIP3   OH2 6646   2.824   1.299   0.759
 2230TIP3    H1 6647   2.755   1.336   0.813
 2230TIP3    H2 6648   2.841   1.366   0.692
 2231TIP3   OH2 6649   1.038   2.259   3.690
 2231TIP3    H1 6650   1.105   2.231   3.628
 2231TIP3    H2 6651   1.069   2.343   3.722
 2232TIP3   OH2 6652   4.629   3.263   5.974
 2232TIP3    H1 6653   4.537   3.240   5.958
 2232TIP3    H2 6654   4.675   3.230   5.897
 2233TIP3   OH2 6655   7.572   2.691   4.056
 2233TIP3    H1 6656   7.600   2.751   3.987
 2233TIP3    H2 6657   7.478   2.680   4.042
 2234TIP3   OH2 6658   7.044   7.801   1.409
 2234TIP3    H1 6659   7.026   7.766   1.322
 2234TIP3    H2 6660   7.097   7.734   1.451
 2235TIP3   OH2 6661   5.853   5.219   5.895
 2235TIP3    H1 6662   5.859   5.293   5.834
 2235TIP3    H2 6663   5.775   5.171   5.868
 2236TIP3   OH2 6664   5.042   1.405   6.644
 2236TIP3    H1 6665   5.047   1.325   6.592
 2236TIP3    H2 6666   5.060   1.475   6.582
 2237TIP3   OH2 6667   7.734   4.482   5.330
 2237TIP3    H1 6668   7.652   4.444   5.299
 2237TIP3    H2 6669   7.731   4.573   5.300
 2238TIP3   OH2 6670   7.794   6.460   5.703
 2238TIP3    H1 6671   7.874   6.461   5.650
 2238TIP3    H2 6672   7.825   6.465   5.794
 2239TIP3   OH2 6673   5.090   0.730   0.479
 2239TIP3    H1 6674   5.184   0.714   0.481
 2239TIP3    H2 6675   5.062   0.726   0.570
 2240TIP3   OH2 6676   3.204   4.866   5.453
 2240TIP3    H1 6677   3.205   4.820   5.536
 2240TIP3    H2 6678   3.250   4.948   5.470
 2241TIP3   OH2 6679   4.706   7.466   5.591
 2241TIP3    H1 6680   4.691   7.376   5.620
 2241TIP3    H2 6681   4.773   7.459   5.524
 2242TIP3   OH2 6682   5.151   2.663   4.808
 2242TIP3    H1 6683   5.240   2.691   4.786
 2242TIP3    H2 6684   5.143   2.682   4.901
 2243TIP3   OH2 6685   3.451   3.155   1.010
 2243TIP3    H1 6686   3.538   3.132   0.979
 2243TIP3    H2 6687   3.412   3.072   1.037
 2244TIP3   OH2 6688   1.539   1.691   3.706
 2244TIP3    H1 6689   1.552   1.640   3.786
 2244TIP3    H2 6690   1.619   1.678   3.656
 2245TIP3   OH2 6691   0.179   6.922   1.392
 2245TIP3    H1 6692   0.170   7.013   1.362
 2245TIP3    H2 6693   0.234   6.928   1.470
 2246TIP3   OH2 6694   8.141   0.821   4.831
 2246TIP3    H1 6695   8.108   0.789   4.915
 2246TIP3    H2 6696   8.189   0.901   4.853
 2247TIP3   OH2 6697   5.163   0.392   0.481
 2247TIP3    H1 6698   5.196   0.463   0.537
 2247TIP3    H2 6699   5.242   0.345   0.453
 2248TIP3   OH2 6700   2.700   5.408   6.554
 2248TIP3    H1 6701   2.716   5.314   6.559
 2248TIP3    H2 6702   2.647   5.420   6.476
 2249TIP3   OH2 6703   2.905   1.154   2.514
 2249TIP3    H1 6704   2.845   1.150   2.588
 2249TIP3    H2 6705   2.968   1.222   2.537
 2250TIP3   OH2 6706   6.364   0.721   1.220
 2250TIP3    H1 6707   6.381   0.815   1.209
 2250TIP3    H2 6708   6.312   0.716   1.300
 2251TIP3   OH2 6709   1.375   3.104   4.497
 2251TIP3    H1 6710   1.322   3.166   4.547
 2251TIP3    H2 6711   1.346   3.018   4.527
 2252TIP3   OH2 6712   6.445   1.899   4.280
 2252TIP3    H1 6713   6.406   1.967   4.225
 2252TIP3    H2 6714   6.457   1.940   4.365
 2253TIP3   OH2 6715   3.641   6.707   5.952
 2253TIP3    H1 6716   3.645   6.638   6.018
 2253TIP3    H2 6717   3.584   6.774   5.990
 2254TIP3   OH2 6718   7.996   5.479   0.492
 2254TIP3    H1 6719   8.050   5.464   0.569
 2254TIP3    H2 6720   7.921   5.421   0.504
 2255TIP3   OH2 6721   3.183   3.521   3.987
 2255TIP3    H1 6722   3.226   3.532   4.072
 2255TIP3    H2 6723   3.251   3.543   3.923
 2256TIP3   OH2 6724   6.911   1.754   6.302
 2256TIP3    H1 6725   6.998   1.780   6.333
 2256TIP3    H2 6726   6.922   1.664   6.273
 2257TIP3   OH2 6727   2.175   1.549   2.706
 2257TIP3    H1 6728   2.143   1.616   2.645
 2257TIP3    H2 6729   2.255   1.516   2.665
 2258TIP3   OH2 6730   1.807   1.540   2.943
 2258TIP3    H1 6731   1.900   1.563   2.955
 2258TIP3    H2 6732   1.788   1.479   3.014
 2259TIP3   OH2 6733   7.459   7.585   2.779
 2259TIP3    H1 6734   7.469   7.511   2.839
 2259TIP3    H2 6735   7.533   7.643   2.800
 2260TIP3   OH2 6736   7.927   3.286   2.632
 2260TIP3    H1 6737   8.003   3.241   2.670
 2260TIP3    H2 6738   7.879   3.218   2.585
 2261TIP3   OH2 6739   8.240   0.323   6.390
 2261TIP3    H1 6740   8.238   0.380   6.313
 2261TIP3    H2 6741   8.315   0.355   6.441
 2262TIP3   OH2 6742   0.720   1.778   2.589
 2262TIP3    H1 6743   0.776   1.850   2.561
 2262TIP3    H2 6744   0.720   1.717   2.516
 2263TIP3   OH2 6745   7.436   4.582   2.399
 2263TIP3    H1 6746   7.463   4.532   2.322
 2263TIP3    H2 6747   7.472   4.534   2.473
 2264TIP3   OH2 6748   2.350   4.810   0.221
 2264TIP3    H1 6749   2.336   4.851   0.136
 2264TIP3    H2 6750   2.445   4.799   0.227
 2265TIP3   OH2 6751   3.309   4.980   2.422
 2265TIP3    H1 6752   3.393   5.027   2.425
 2265TIP3    H2 6753   3.249   5.036   2.472
 2266TIP3   OH2 6754   1.477   1.705   0.188
 2266TIP3    H1 6755   1.402   1.684   0.245
 2266TIP3    H2 6756   1.438   1.717   0.102
 2267TIP3   OH2 6757   6.104   5.960   0.453
 2267TIP3    H1 6758   6.017   5.950   0.491
 2267TIP3    H2 6759   6.090   5.957   0.358
 2268TIP3   OH2 6760   8.027   6.034   3.461
 2268TIP3    H1 6761   8.013   5.943   3.433
 2268TIP3    H2 6762   7.961   6.048   3.529
 2269TIP3   OH2 6763   2.713   4.875   3.440
 2269TIP3    H1 6764   2.669   4.935   3.500
 2269TIP3    H2 6765   2.646   4.812   3.415
 2270TIP3   OH2 6766   7.828   0.832   4.143
 2270TIP3    H1 6767   7.876   0.773   4.201
 2270TIP3    H2 6768   7.759   0.869   4.199
 2271TIP3   OH2 6769   6.416   0.639   3.306
 2271TIP3    H1 6770   6.423   0.678   3.393
 2271TIP3    H2 6771   6.413   0.545   3.323
 2272TIP3   OH2 6772   0.018   7.660   5.105
 2272TIP3    H1 6773   0.034   7.685   5.197
 2272TIP3    H2 6774   0.105   7.636   5.072
 2273TIP3   OH2 6775   5.966   4.557   5.628
 2273TIP3    H1 6776   6.029   4.487   5.609
 2273TIP3    H2 6777   6.018   4.638   5.622
 2274TIP3   OH2 6778   6.238   3.964   4.663
 2274TIP3    H1 6779   6.302   4.030   4.687
 2274TIP3    H2 6780   6.154   4.003   4.686
 2275TIP3   OH2 6781   1.101   7.150   2.604
 2275TIP3    H1 6782   1.061   7.176   2.521
 2275TIP3    H2 6783   1.177   7.097   2.578
 2276TIP3   OH2 6784   4.896   6.428   0.286
 2276TIP3    H1 6785   4.868   6.509   0.242
 2276TIP3    H2 6786   4.986   6.445   0.313
 2277TIP3   OH2 6787   1.887   7.144   2.116
 2277TIP3    H1 6788   1.972   7.114   2.148
 2277TIP3    H2 6789   1.837   7.164   2.196
 2278TIP3   OH2 6790   1.672   1.331   1.941
 2278TIP3    H1 6791   1.665   1.239   1.968
 2278TIP3    H2 6792   1.735   1.370   2.002
 2279TIP3   OH2 6793   2.158   5.582   3.815
 2279TIP3    H1 6794   2.089   5.631   3.860
 2279TIP3    H2 6795   2.152   5.493   3.850
 2280TIP3   OH2 6796   2.053   4.331   3.767
 2280TIP3    H1 6797   2.099   4.357   3.687
 2280TIP3    H2 6798   1.993   4.261   3.740
 2281TIP3   OH2 6799   3.256   2.344   4.019
 2281TIP3    H1 6800   3.327   2.396   4.058
 2281TIP3    H2 6801   3.192   2.336   4.090
 2282TIP3   OH2 6802   0.358   2.658   4.960
 2282TIP3    H1 6803   0.444   2.700   4.965
 2282TIP3    H2 6804   0.378   2.564   4.958
 2283TIP3   OH2 6805   1.935   3.085   0.477
 2283TIP3    H1 6806   1.860   3.036   0.442
 2283TIP3    H2 6807   1.907   3.110   0.566
 2284TIP3   OH2 6808   0.679   6.804   4.417
 2284TIP3    H1 6809   0.727   6.832   4.339
 2284TIP3    H2 6810   0.666   6.883   4.468
 2285TIP3   OH2 6811   5.269   3.163   2.312
 2285TIP3    H1 6812   5.281   3.149   2.218
 2285TIP3    H2 6813   5.357   3.153   2.349
 2286TIP3   OH2 6814   3.775   4.311   3.530
 2286TIP3    H1 6815   3.751   4.252   3.460
 2286TIP3    H2 6816   3.860   4.280   3.561
 2287TIP3   OH2 6817   1.995   0.958   5.529
 2287TIP3    H1 6818   2.009   0.989   5.618
 2287TIP3    H2 6819   1.903   0.933   5.527
 2288TIP3   OH2 6820   5.664   2.705   4.609
 2288TIP3    H1 6821   5.747   2.704   4.561
 2288TIP3    H2 6822   5.685   2.749   4.692
 2289TIP3   OH2 6823   4.395   4.020   4.998
 2289TIP3    H1 6824   4.409   4.047   5.088
 2289TIP3    H2 6825   4.312   4.060   4.973
 2290TIP3   OH2 6826   4.844   6.681   2.543
 2290TIP3    H1 6827   4.756   6.679   2.582
 2290TIP3    H2 6828   4.841   6.755   2.482
 2291TIP3   OH2 6829   2.948   4.595   5.672
 2291TIP3    H1 6830   2.944   4.512   5.624
 2291TIP3    H2 6831   3.032   4.633   5.645
 2292TIP3   OH2 6832   6.384   6.281   0.155
 2292TIP3    H1 6833   6.467   6.324   0.134
 2292TIP3    H2 6834   6.410   6.192   0.179
 2293TIP3   OH2 6835   3.879   3.859   3.932
 2293TIP3    H1 6836   3.878   3.892   3.842
 2293TIP3    H2 6837   3.786   3.855   3.957
 2294TIP3   OH2 6838   2.515   7.715   1.896
 2294TIP3    H1 6839   2.585   7.653   1.915
 2294TIP3    H2 6840   2.520   7.780   1.967
 2295TIP3   OH2 6841   0.446   4.242   2.941
 2295TIP3    H1 6842   0.430   4.283   2.856
 2295TIP3    H2 6843   0.379   4.175   2.949
 2296TIP3   OH2 6844   1.914   5.377   5.783
 2296TIP3    H1 6845   1.957   5.435   5.720
 2296TIP3    H2 6846   1.897   5.431   5.859
 2297TIP3   OH2 6847   5.867   0.007   5.730
 2297TIP3    H1 6848   5.818   0.089   5.733
 2297TIP3    H2 6849   5.875  -0.020   5.821
 2298TIP3   OH2 6850   1.251   7.363   6.319
 2298TIP3    H1 6851   1.259   7.268   6.330
 2298TIP3    H2 6852   1.163   7.384   6.350
 2299TIP3   OH2 6853   0.325   0.475   1.996
 2299TIP3    H1 6854   0.420   0.478   1.991
 2299TIP3    H2 6855   0.303   0.524   2.075
 2300TIP3   OH2 6856   7.031   7.640   6.392
 2300TIP3    H1 6857   6.993   7.594   6.317
 2300TIP3    H2 6858   6.964   7.633   6.461
 2301TIP3   OH2 6859   5.505   1.416   4.407
 2301TIP3    H1 6860   5.579   1.473   4.429
 2301TIP3    H2 6861   5.435   1.444   4.466
 2302TIP3   OH2 6862   5.214   2.886   3.146
 2302TIP3    H1 6863   5.240   2.955   3.207
 2302TIP3    H2 6864   5.119   2.894   3.138
 2303TIP3   OH2 6865   5.368   3.519   0.089
 2303TIP3    H1 6866   5.415   3.529   0.173
 2303TIP3    H2 6867   5.422   3.568   0.027
 2304TIP3   OH2 6868   5.873   2.977   4.640
 2304TIP3    H1 6869   5.823   3.056   4.622
 2304TIP3    H2 6870   5.827   2.936   4.713
 2305TIP3   OH2 6871   7.170   1.292   0.410
 2305TIP3    H1 6872   7.255   1.301   0.452
 2305TIP3    H2 6873   7.190   1.264   0.320
 2306TIP3   OH2 6874   7.772   0.488   0.371
 2306TIP3    H1 6875   7.865   0.474   0.355
 2306TIP3    H2 6876   7.729   0.409   0.338
 2307TIP3   OH2 6877   5.991   0.268   4.692
 2307TIP3    H1 6878   5.930   0.276   4.765
 2307TIP3    H2 6879   5.938   0.288   4.614
 2308TIP3   OH2 6880   1.343   6.217   1.743
 2308TIP3    H1 6881   1.384   6.219   1.657
 2308TIP3    H2 6882   1.390   6.149   1.790
 2309TIP3   OH2 6883   6.692   0.908   3.435
 2309TIP3    H1 6884   6.744   0.987   3.422
 2309TIP3    H2 6885   6.755   0.837   3.426
 2310TIP3   OH2 6886   5.333   5.421   2.654
 2310TIP3    H1 6887   5.253   5.391   2.698
 2310TIP3    H2 6888   5.309   5.507   2.619
 2311TIP3   OH2 6889   7.324   3.024   5.122
 2311TIP3    H1 6890   7.290   3.011   5.034
 2311TIP3    H2 6891   7.248   3.047   5.175
 2312TIP3   OH2 6892   6.280   2.187   4.773
 2312TIP3    H1 6893   6.299   2.257   4.711
 2312TIP3    H2 6894   6.322   2.214   4.854
 2313TIP3   OH2 6895   5.183   7.620   1.192
 2313TIP3    H1 6896   5.254   7.621   1.128
 2313TIP3    H2 6897   5.221   7.658   1.271
 2314TIP3   OH2 6898   1.589   3.065   4.679
 2314TIP3    H1 6899   1.610   2.973   4.663
 2314TIP3    H2 6900   1.557   3.097   4.595
 2315TIP3   OH2 6901   3.466   1.869   5.935
 2315TIP3    H1 6902   3.404   1.802   5.904
 2315TIP3    H2 6903   3.426   1.901   6.015
 2316TIP3   OH2 6904   2.185   4.417   5.194
 2316TIP3    H1 6905   2.263   4.472   5.202
 2316TIP3    H2 6906   2.219   4.330   5.172
 2317TIP3   OH2 6907   5.864   0.708   5.825
 2317TIP3    H1 6908   5.876   0.751   5.910
 2317TIP3    H2 6909   5.802   0.764   5.778
 2318TIP3   OH2 6910   6.627   2.963   6.536
 2318TIP3    H1 6911   6.675   3.045   6.545
 2318TIP3    H2 6912   6.595   2.962   6.446
 2319TIP3   OH2 6913   1.529   4.023   5.999
 2319TIP3    H1 6914   1.451   4.047   5.949
 2319TIP3    H2 6915   1.507   3.939   6.039
 2320TIP3   OH2 6916   3.624   6.334   6.121
 2320TIP3    H1 6917   3.692   6.291   6.069
 2320TIP3    H2 6918   3.557   6.268   6.133
 2321TIP3   OH2 6919   3.904   4.373   6.729
 2321TIP3    H1 6920   3.870   4.400   6.644
 2321TIP3    H2 6921   3.839   4.310   6.761
 2322TIP3   OH2 6922   3.475   2.869   2.710
 2322TIP3    H1 6923   3.407   2.935   2.726
 2322TIP3    H2 6924   3.428   2.797   2.666
 2323TIP3   OH2 6925   7.623   1.310   4.125
 2323TIP3    H1 6926   7.715   1.286   4.136
 2323TIP3    H2 6927   7.621   1.358   4.042
 2324TIP3   OH2 6928   4.895   5.782   0.108
 2324TIP3    H1 6929   4.970   5.728   0.132
 2324TIP3    H2 6930   4.819   5.732   0.137
 2325TIP3   OH2 6931   1.401   6.686   4.218
 2325TIP3    H1 6932   1.486   6.705   4.180
 2325TIP3    H2 6933   1.419   6.629   4.292
 2326TIP3   OH2 6934   4.191   2.716   5.772
 2326TIP3    H1 6935   4.123   2.762   5.820
 2326TIP3    H2 6936   4.206   2.635   5.822
 2327TIP3   OH2 6937   2.157   5.425   0.536
 2327TIP3    H1 6938   2.246   5.454   0.553
 2327TIP3    H2 6939   2.166   5.335   0.505
 2328TIP3   OH2 6940   1.592   7.137   0.176
 2328TIP3    H1 6941   1.517   7.176   0.130
 2328TIP3    H2 6942   1.666   7.152   0.118
 2329TIP3   OH2 6943   1.728   6.562   0.880
 2329TIP3    H1 6944   1.806   6.572   0.935
 2329TIP3    H2 6945   1.655   6.561   0.942
 2330TIP3   OH2 6946   6.515   4.054   4.157
 2330TIP3    H1 6947   6.434   4.055   4.105
 2330TIP3    H2 6948   6.585   4.065   4.093
 2331TIP3   OH2 6949   2.162   3.027   5.710
 2331TIP3    H1 6950   2.128   3.014   5.621
 2331TIP3    H2 6951   2.141   3.118   5.730
 2332TIP3   OH2 6952   7.615   6.999   1.861
 2332TIP3    H1 6953   7.619   6.945   1.940
 2332TIP3    H2 6954   7.558   6.951   1.801
 2333TIP3   OH2 6955   5.842   7.436   2.071
 2333TIP3    H1 6956   5.752   7.446   2.038
 2333TIP3    H2 6957   5.871   7.352   2.037
 2334TIP3   OH2 6958   1.110   1.172   5.687
 2334TIP3    H1 6959   1.173   1.221   5.739
 2334TIP3    H2 6960   1.059   1.123   5.752
 2335TIP3   OH2 6961   0.791   1.966   0.908
 2335TIP3    H1 6962   0.717   1.987   0.965
 2335TIP3    H2 6963   0.759   1.895   0.851
 2336TIP3   OH2 6964   6.898   5.429   6.465
 2336TIP3    H1 6965   6.835   5.398   6.400
 2336TIP3    H2 6966   6.857   5.505   6.505
 2337TIP3   OH2 6967   1.106   6.461   3.030
 2337TIP3    H1 6968   1.013   6.465   3.009
 2337TIP3    H2 6969   1.110   6.412   3.112
 2338TIP3   OH2 6970   7.733   6.411   2.436
 2338TIP3    H1 6971   7.810   6.438   2.385
 2338TIP3    H2 6972   7.738   6.316   2.438
 2339TIP3   OH2 6973   3.190   4.816   1.137
 2339TIP3    H1 6974   3.160   4.733   1.100
 2339TIP3    H2 6975   3.182   4.806   1.231
 2340TIP3   OH2 6976   4.266   1.799   2.651
 2340TIP3    H1 6977   4.192   1.857   2.670
 2340TIP3    H2 6978   4.246   1.718   2.697
 2341TIP3   OH2 6979   1.417   5.373   2.498
 2341TIP3    H1 6980   1.416   5.280   2.472
 2341TIP3    H2 6981   1.510   5.393   2.508
 2342TIP3   OH2 6982   5.906   7.634   0.170
 2342TIP3    H1 6983   5.921   7.669   0.257
 2342TIP3    H2 6984   5.810   7.625   0.164
 2343TIP3   OH2 6985   7.571   4.784   1.909
 2343TIP3    H1 6986   7.514   4.860   1.918
 2343TIP3    H2 6987   7.649   4.807   1.960
 2344TIP3   OH2 6988   0.653   4.590   6.144
 2344TIP3    H1 6989   0.662   4.611   6.051
 2344TIP3    H2 6990   0.583   4.524   6.146
 2345TIP3   OH2 6991   4.597   4.873   4.424
 2345TIP3    H1 6992   4.580   4.792   4.376
 2345TIP3    H2 6993   4.552   4.941   4.374
 2346TIP3   OH2 6994   7.100   6.011   5.183
 2346TIP3    H1 6995   7.063   6.052   5.105
 2346TIP3    H2 6996   7.195   6.020   5.173
 2347TIP3   OH2 6997   0.851   0.158   3.715
 2347TIP3    H1 6998   0.833   0.217   3.788
 2347TIP3    H2 6999   0.934   0.117   3.738
 2348TIP3   OH2 7000   0.056   7.457   3.568
 2348TIP3    H1 7001   0.130   7.405   3.537
 2348TIP3    H2 7002   0.080   7.481   3.658
 2349TIP3   OH2 7003   2.245   3.172   3.591
 2349TIP3    H1 7004   2.318   3.233   3.604
 2349TIP3    H2 7005   2.228   3.176   3.497
 2350TIP3   OH2 7006   7.824   5.804   0.166
 2350TIP3    H1 7007   7.820   5.888   0.211
 2350TIP3    H2 7008   7.892   5.755   0.212
 2351TIP3   OH2 7009   7.153   5.973   0.764
 2351TIP3    H1 7010   7.068   5.930   0.752
 2351TIP3    H2 7011   7.132   6.064   0.786
 2352TIP3   OH2 7012   3.386   3.697   5.171
 2352TIP3    H1 7013   3.476   3.719   5.146
 2352TIP3    H2 7014   3.392   3.611   5.212
 2353TIP3   OH2 7015   2.511   3.935   0.395
 2353TIP3    H1 7016   2.444   3.882   0.437
 2353TIP3    H2 7017   2.462   4.005   0.351
 2354TIP3   OH2 7018   1.232   1.814   0.082
 2354TIP3    H1 7019   1.206   1.900   0.117
 2354TIP3    H2 7020   1.181   1.752   0.134
 2355TIP3   OH2 7021   2.054   5.331   3.869
 2355TIP3    H1 7022   2.111   5.313   3.794
 2355TIP3    H2 7023   1.968   5.349   3.831
 2356TIP3   OH2 7024   5.184   2.975   3.496
 2356TIP3    H1 7025   5.094   2.993   3.523
 2356TIP3    H2 7026   5.183   2.883   3.469
 2357TIP3   OH2 7027   3.290   3.349   6.648
 2357TIP3    H1 7028   3.272   3.443   6.638
 2357TIP3    H2 7029   3.385   3.342   6.642
 2358TIP3   OH2 7030   3.268   2.273   0.707
 2358TIP3    H1 7031   3.279   2.357   0.753
 2358TIP3    H2 7032   3.329   2.214   0.751
 2359TIP3   OH2 7033   0.793   5.029   2.175
 2359TIP3    H1 7034   0.774   5.062   2.263
 2359TIP3    H2 7035   0.731   5.075   2.118
 2360TIP3   OH2 7036   1.259   0.560   1.263
 2360TIP3    H1 7037   1.342   0.551   1.217
 2360TIP3    H2 7038   1.282   0.553   1.356
 2361TIP3   OH2 7039   7.873   6.384   4.733
 2361TIP3    H1 7040   7.814   6.448   4.692
 2361TIP3    H2 7041   7.914   6.432   4.805
 2362TIP3   OH2 7042   6.947   0.274   6.509
 2362TIP3    H1 7043   7.039   0.249   6.507
 2362TIP3    H2 7044   6.909   0.218   6.576
 2363TIP3   OH2 7045   2.765   5.149   4.702
 2363TIP3    H1 7046   2.703   5.137   4.774
 2363TIP3    H2 7047   2.711   5.167   4.625
 2364TIP3   OH2 7048   4.524   2.694   0.476
 2364TIP3    H1 7049   4.483   2.643   0.546
 2364TIP3    H2 7050   4.606   2.725   0.514
 2365TIP3   OH2 7051   8.021   5.514   6.110
 2365TIP3    H1 7052   8.062   5.432   6.083
 2365TIP3    H2 7053   7.941   5.519   6.057
 2366TIP3   OH2 7054   5.361   0.370   4.011
 2366TIP3    H1 7055   5.325   0.286   4.039
 2366TIP3    H2 7056   5.447   0.374   4.053
 2367TIP3   OH2 7057   0.937   7.190   4.871
 2367TIP3    H1 7058   0.887   7.272   4.875
 2367TIP3    H2 7059   0.932   7.164   4.779
 2368TIP3   OH2 7060   1.843   7.654   6.086
 2368TIP3    H1 7061   1.790   7.590   6.039
 2368TIP3    H2 7062   1.804   7.739   6.062
 2369TIP3   OH2 7063   7.548   3.660   0.095
 2369TIP3    H1 7064   7.454   3.645   0.105
 2369TIP3    H2 7065   7.577   3.594   0.032
 2370TIP3   OH2 7066   4.721   5.430   5.763
 2370TIP3    H1 7067   4.799   5.417   5.709
 2370TIP3    H2 7068   4.744   5.395   5.848
 2371TIP3   OH2 7069   3.776   3.221   5.734
 2371TIP3    H1 7070   3.800   3.284   5.666
 2371TIP3    H2 7071   3.835   3.241   5.807
 2372TIP3   OH2 7072   2.712   3.841   5.464
 2372TIP3    H1 7073   2.789   3.794   5.496
 2372TIP3    H2 7074   2.747   3.921   5.424
 2373TIP3   OH2 7075   1.842   6.590   2.966
 2373TIP3    H1 7076   1.840   6.676   3.009
 2373TIP3    H2 7077   1.754   6.555   2.978
 2374TIP3   OH2 7078   6.165   2.527   5.760
 2374TIP3    H1 7079   6.110   2.559   5.831
 2374TIP3    H2 7080   6.150   2.589   5.689
 2375TIP3   OH2 7081   3.052   0.360   0.105
 2375TIP3    H1 7082   3.135   0.317   0.086
 2375TIP3    H2 7083   3.012   0.307   0.174
 2376TIP3   OH2 7084   1.644   1.510   1.756
 2376TIP3    H1 7085   1.549   1.506   1.743
 2376TIP3    H2 7086   1.659   1.455   1.833
 2377TIP3   OH2 7087   7.432   5.128   5.122
 2377TIP3    H1 7088   7.342   5.163   5.127
 2377TIP3    H2 7089   7.462   5.154   5.035
 2378TIP3   OH2 7090   1.670   0.596   2.636
 2378TIP3    H1 7091   1.714   0.532   2.693
 2378TIP3    H2 7092   1.596   0.627   2.689
 2379TIP3   OH2 7093   6.981   5.322   5.400
 2379TIP3    H1 7094   6.950   5.371   5.476
 2379TIP3    H2 7095   7.069   5.356   5.385
 2380TIP3   OH2 7096   4.225   0.683   2.979
 2380TIP3    H1 7097   4.277   0.625   3.035
 2380TIP3    H2 7098   4.247   0.771   3.009
 2381TIP3   OH2 7099   5.984   0.057   3.472
 2381TIP3    H1 7100   6.080   0.050   3.468
 2381TIP3    H2 7101   5.957  -0.017   3.527
 2382TIP3   OH2 7102   0.017   1.718   3.101
 2382TIP3    H1 7103   0.108   1.739   3.079
 2382TIP3    H2 7104  -0.018   1.799   3.138
 2383TIP3   OH2 7105   5.964   0.975   0.147
 2383TIP3    H1 7106   6.015   0.975   0.066
 2383TIP3    H2 7107   5.876   0.949   0.120
 2384TIP3   OH2 7108   8.080   2.382   1.427
 2384TIP3    H1 7109   8.005   2.334   1.462
 2384TIP3    H2 7110   8.146   2.377   1.497
 2385TIP3   OH2 7111   5.520   5.808   2.784
 2385TIP3    H1 7112   5.558   5.878   2.837
 2385TIP3    H2 7113   5.510   5.846   2.697
 2386TIP3   OH2 7114   4.267   7.368   0.699
 2386TIP3    H1 7115   4.225   7.354   0.784
 2386TIP3    H2 7116   4.276   7.463   0.692
 2387TIP3   OH2 7117   0.583   5.191   3.215
 2387TIP3    H1 7118   0.553   5.134   3.286
 2387TIP3    H2 7119   0.514   5.257   3.206
 2388TIP3   OH2 7120   7.060   3.327   4.257
 2388TIP3    H1 7121   6.998   3.316   4.330
 2388TIP3    H2 7122   7.006   3.359   4.185
 2389TIP3   OH2 7123   7.469   3.895   5.865
 2389TIP3    H1 7124   7.524   3.965   5.829
 2389TIP3    H2 7125   7.510   3.814   5.836
 2390TIP3   OH2 7126   7.308   3.910   0.952
 2390TIP3    H1 7127   7.294   3.894   1.045
 2390TIP3    H2 7128   7.386   3.965   0.948
 2391TIP3   OH2 7129   1.428   0.505   4.595
 2391TIP3    H1 7130   1.385   0.421   4.608
 2391TIP3    H2 7131   1.446   0.508   4.501
 2392TIP3   OH2 7132   2.967   1.856   4.592
 2392TIP3    H1 7133   3.045   1.803   4.604
 2392TIP3    H2 7134   2.947   1.850   4.499
 2393TIP3   OH2 7135   3.992   3.856   1.981
 2393TIP3    H1 7136   4.025   3.855   1.891
 2393TIP3    H2 7137   4.013   3.943   2.014
 2394TIP3   OH2 7138   0.086   1.884   4.652
 2394TIP3    H1 7139   0.012   1.848   4.701
 2394TIP3    H2 7140   0.140   1.926   4.718
 2395TIP3   OH2 7141   5.391   6.435   4.620
 2395TIP3    H1 7142   5.381   6.511   4.564
 2395TIP3    H2 7143   5.380   6.469   4.709
 2396TIP3   OH2 7144   7.644   2.413   3.932
 2396TIP3    H1 7145   7.689   2.382   4.010
 2396TIP3    H2 7146   7.577   2.474   3.966
 2397TIP3   OH2 7147   3.268   2.869   0.546
 2397TIP3    H1 7148   3.272   2.958   0.582
 2397TIP3    H2 7149   3.281   2.881   0.452
 2398TIP3   OH2 7150   0.495   1.591   0.230
 2398TIP3    H1 7151   0.510   1.666   0.288
 2398TIP3    H2 7152   0.400   1.583   0.226
 2399TIP3   OH2 7153   5.779   4.047   5.202
 2399TIP3    H1 7154   5.755   3.960   5.169
 2399TIP3    H2 7155   5.872   4.055   5.182
 2400TIP3   OH2 7156   7.995   3.038   3.367
 2400TIP3    H1 7157   8.001   2.956   3.319
 2400TIP3    H2 7158   8.019   3.105   3.302
 2401TIP3   OH2 7159   5.695   2.766   5.540
 2401TIP3    H1 7160   5.706   2.800   5.629
 2401TIP3    H2 7161   5.661   2.841   5.490
 2402TIP3   OH2 7162   7.266   6.574   3.812
 2402TIP3    H1 7163   7.245   6.618   3.729
 2402TIP3    H2 7164   7.338   6.626   3.849
 2403TIP3   OH2 7165   1.086   3.147   3.615
 2403TIP3    H1 7166   0.995   3.129   3.641
 2403TIP3    H2 7167   1.136   3.140   3.696
 2404TIP3   OH2 7168   5.667   5.177   0.258
 2404TIP3    H1 7169   5.747   5.192   0.207
 2404TIP3    H2 7170   5.682   5.223   0.341
 2405TIP3   OH2 7171   5.078   4.027   4.910
 2405TIP3    H1 7172   4.997   4.021   4.961
 2405TIP3    H2 7173   5.049   4.023   4.819
 2406TIP3   OH2 7174   7.623   6.851   2.684
 2406TIP3    H1 7175   7.591   6.762   2.670
 2406TIP3    H2 7176   7.613   6.894   2.599
 2407TIP3   OH2 7177   0.268   5.089   6.252
 2407TIP3    H1 7178   0.189   5.102   6.305
 2407TIP3    H2 7179   0.259   5.000   6.218
 2408TIP3   OH2 7180   8.185   2.887   2.771
 2408TIP3    H1 7181   8.178   2.799   2.733
 2408TIP3    H2 7182   8.228   2.874   2.855
 2409TIP3   OH2 7183   4.108   6.805   6.408
 2409TIP3    H1 7184   4.193   6.815   6.452
 2409TIP3    H2 7185   4.052   6.763   6.473
 2410TIP3   OH2 7186   0.903   5.475   2.624
 2410TIP3    H1 7187   0.943   5.388   2.621
 2410TIP3    H2 7188   0.900   5.496   2.718
 2411TIP3   OH2 7189   7.215   4.570   1.096
 2411TIP3    H1 7190   7.272   4.561   1.019
 2411TIP3    H2 7191   7.140   4.620   1.065
 2412TIP3   OH2 7192   8.098   3.767   5.154
 2412TIP3    H1 7193   8.110   3.823   5.230
 2412TIP3    H2 7194   8.185   3.761   5.114
 2413TIP3   OH2 7195   1.485   4.313   5.018
 2413TIP3    H1 7196   1.396   4.340   4.996
 2413TIP3    H2 7197   1.499   4.342   5.108
 2414TIP3   OH2 7198   5.422   7.012   1.366
 2414TIP3    H1 7199   5.414   6.928   1.411
 2414TIP3    H2 7200   5.342   7.020   1.315
 2415TIP3   OH2 7201   0.645   7.045   5.492
 2415TIP3    H1 7202   0.702   7.117   5.466
 2415TIP3    H2 7203   0.681   7.016   5.576
 2416TIP3   OH2 7204   4.687   3.691   5.523
 2416TIP3    H1 7205   4.689   3.616   5.583
 2416TIP3    H2 7206   4.664   3.765   5.579
 2417TIP3   OH2 7207   8.261   2.717   4.011
 2417TIP3    H1 7208   8.204   2.755   3.944
 2417TIP3    H2 7209   8.311   2.650   3.963
 2418TIP3   OH2 7210   6.540   3.569   2.528
 2418TIP3    H1 7211   6.465   3.539   2.476
 2418TIP3    H2 7212   6.524   3.662   2.542
 2419TIP3   OH2 7213   3.451   6.712   5.584
 2419TIP3    H1 7214   3.479   6.790   5.632
 2419TIP3    H2 7215   3.449   6.643   5.650
 2420TIP3   OH2 7216   0.828   5.233   1.599
 2420TIP3    H1 7217   0.878   5.313   1.612
 2420TIP3    H2 7218   0.803   5.205   1.687
 2421TIP3   OH2 7219   7.212   6.383   1.421
 2421TIP3    H1 7220   7.281   6.449   1.427
 2421TIP3    H2 7221   7.148   6.409   1.487
 2422TIP3   OH2 7222   7.884   3.957   4.951
 2422TIP3    H1 7223   7.957   3.995   4.999
 2422TIP3    H2 7224   7.836   3.906   5.017
 2423TIP3   OH2 7225   8.065   5.108   5.818
 2423TIP3    H1 7226   8.084   5.018   5.845
 2423TIP3    H2 7227   7.977   5.126   5.853
 2424TIP3   OH2 7228   5.010   0.722   1.848
 2424TIP3    H1 7229   4.976   0.669   1.776
 2424TIP3    H2 7230   5.102   0.735   1.827
 2425TIP3   OH2 7231   8.142   2.536   0.085
 2425TIP3    H1 7232   8.227   2.574   0.109
 2425TIP3    H2 7233   8.116   2.584   0.007
 2426TIP3   OH2 7234   3.469   2.458   1.361
 2426TIP3    H1 7235   3.410   2.419   1.425
 2426TIP3    H2 7236   3.556   2.429   1.388
 2427TIP3   OH2 7237   0.039   2.434   1.977
 2427TIP3    H1 7238  -0.010   2.481   2.044
 2427TIP3    H2 7239   0.095   2.501   1.937
 2428TIP3   OH2 7240   1.765   5.966   5.386
 2428TIP3    H1 7241   1.697   5.977   5.320
 2428TIP3    H2 7242   1.744   5.884   5.430
 2429TIP3   OH2 7243   5.732   6.301   1.432
 2429TIP3    H1 7244   5.817   6.270   1.400
 2429TIP3    H2 7245   5.752   6.348   1.513
 2430TIP3   OH2 7246   3.957   2.901   0.700
 2430TIP3    H1 7247   3.901   2.896   0.778
 2430TIP3    H2 7248   4.042   2.867   0.729
 2431TIP3   OH2 7249   3.867   6.001   2.439
 2431TIP3    H1 7250   3.933   6.008   2.508
 2431TIP3    H2 7251   3.916   6.009   2.358
 2432TIP3   OH2 7252   4.131   3.848   2.888
 2432TIP3    H1 7253   4.115   3.795   2.809
 2432TIP3    H2 7254   4.224   3.835   2.907
 2433TIP3   OH2 7255   0.822   5.836   4.263
 2433TIP3    H1 7256   0.892   5.902   4.269
 2433TIP3    H2 7257   0.804   5.812   4.354
 2434TIP3   OH2 7258   4.492   2.865   6.418
 2434TIP3    H1 7259   4.532   2.943   6.457
 2434TIP3    H2 7260   4.549   2.793   6.444
 2435TIP3   OH2 7261   3.271   1.068   0.592
 2435TIP3    H1 7262   3.256   1.156   0.627
 2435TIP3    H2 7263   3.184   1.028   0.590
 2436TIP3   OH2 7264   1.945   4.068   3.127
 2436TIP3    H1 7265   1.863   4.068   3.077
 2436TIP3    H2 7266   1.950   4.157   3.164
 2437TIP3   OH2 7267   2.771   6.514   0.672
 2437TIP3    H1 7268   2.810   6.518   0.584
 2437TIP3    H2 7269   2.677   6.524   0.657
 2438TIP3   OH2 7270   2.848   6.555   6.341
 2438TIP3    H1 7271   2.817   6.506   6.416
 2438TIP3    H2 7272   2.840   6.495   6.267
 2439TIP3   OH2 7273   4.842   2.744   2.474
 2439TIP3    H1 7274   4.900   2.690   2.420
 2439TIP3    H2 7275   4.765   2.759   2.419
 2440TIP3   OH2 7276   5.668   6.492   1.157
 2440TIP3    H1 7277   5.623   6.520   1.238
 2440TIP3    H2 7278   5.597   6.465   1.099
 2441TIP3   OH2 7279   1.673   5.556   4.069
 2441TIP3    H1 7280   1.659   5.591   3.981
 2441TIP3    H2 7281   1.625   5.617   4.126
 2442TIP3   OH2 7282   3.622   3.969   2.756
 2442TIP3    H1 7283   3.717   3.953   2.756
 2442TIP3    H2 7284   3.597   3.967   2.848
 2443TIP3   OH2 7285   0.686   6.956   5.029
 2443TIP3    H1 7286   0.695   6.990   4.940
 2443TIP3    H2 7287   0.769   6.979   5.072
 2444TIP3   OH2 7288   3.881   7.747   6.242
 2444TIP3    H1 7289   3.842   7.681   6.299
 2444TIP3    H2 7290   3.907   7.818   6.302
 2445TIP3   OH2 7291   6.020   6.454   5.484
 2445TIP3    H1 7292   5.957   6.407   5.538
 2445TIP3    H2 7293   6.038   6.535   5.532
 2446TIP3   OH2 7294   0.983   6.634   2.247
 2446TIP3    H1 7295   1.063   6.686   2.245
 2446TIP3    H2 7296   0.987   6.580   2.168
 2447TIP3   OH2 7297   3.523   6.125   2.331
 2447TIP3    H1 7298   3.445   6.177   2.312
 2447TIP3    H2 7299   3.596   6.182   2.310
 2448TIP3   OH2 7300   1.207   7.751   4.809
 2448TIP3    H1 7301   1.274   7.700   4.764
 2448TIP3    H2 7302   1.248   7.836   4.824
 2449TIP3   OH2 7303   6.883   7.450   5.238
 2449TIP3    H1 7304   6.974   7.438   5.263
 2449TIP3    H2 7305   6.885   7.521   5.173
 2450TIP3   OH2 7306   3.902   2.245   6.519
 2450TIP3    H1 7307   3.855   2.164   6.498
 2450TIP3    H2 7308   3.951   2.224   6.599
 2451TIP3   OH2 7309   6.316   0.677   6.211
 2451TIP3    H1 7310   6.265   0.597   6.219
 2451TIP3    H2 7311   6.351   0.674   6.122
 2452TIP3   OH2 7312   7.877   0.732   1.649
 2452TIP3    H1 7313   7.799   0.785   1.667
 2452TIP3    H2 7314   7.925   0.732   1.732
 2453TIP3   OH2 7315   3.778   1.675   3.480
 2453TIP3    H1 7316   3.711   1.730   3.438
 2453TIP3    H2 7317   3.742   1.586   3.476
 2454TIP3   OH2 7318   3.690   1.587   6.499
 2454TIP3    H1 7319   3.732   1.633   6.572
 2454TIP3    H2 7320   3.740   1.506   6.489
 2455TIP3   OH2 7321   5.420   0.076   2.766
 2455TIP3    H1 7322   5.411   0.154   2.711
 2455TIP3    H2 7323   5.420   0.109   2.855
 2456TIP3   OH2 7324   4.572   2.986   0.241
 2456TIP3    H1 7325   4.489   2.947   0.271
 2456TIP3    H2 7326   4.591   2.942   0.159
 2457TIP3   OH2 7327   2.166   1.129   1.138
 2457TIP3    H1 7328   2.238   1.188   1.119
 2457TIP3    H2 7329   2.106   1.180   1.192
 2458TIP3   OH2 7330   4.295   2.375   1.716
 2458TIP3    H1 7331   4.353   2.450   1.715
 2458TIP3    H2 7332   4.292   2.347   1.807
 2459TIP3   OH2 7333   1.377   1.211   4.997
 2459TIP3    H1 7334   1.448   1.149   4.980
 2459TIP3    H2 7335   1.360   1.252   4.912
 2460TIP3   OH2 7336   1.052   6.842   3.980
 2460TIP3    H1 7337   1.147   6.851   3.973
 2460TIP3    H2 7338   1.019   6.884   3.901
 2461TIP3   OH2 7339   3.005   1.406   4.960
 2461TIP3    H1 7340   2.996   1.328   4.905
 2461TIP3    H2 7341   3.044   1.472   4.902
 2462TIP3   OH2 7342   5.686   2.763   1.497
 2462TIP3    H1 7343   5.657   2.853   1.508
 2462TIP3    H2 7344   5.758   2.752   1.558
 2463TIP3   OH2 7345   5.349   5.933   0.431
 2463TIP3    H1 7346   5.319   5.951   0.520
 2463TIP3    H2 7347   5.387   6.016   0.402
 2464TIP3   OH2 7348   7.176   1.638   3.036
 2464TIP3    H1 7349   7.161   1.698   3.108
 2464TIP3    H2 7350   7.088   1.611   3.008
 2465TIP3   OH2 7351   4.924   0.642   1.450
 2465TIP3    H1 7352   4.885   0.577   1.391
 2465TIP3    H2 7353   4.935   0.720   1.396
 2466TIP3   OH2 7354   2.716   1.913   3.651
 2466TIP3    H1 7355   2.711   2.000   3.611
 2466TIP3    H2 7356   2.768   1.926   3.730
 2467TIP3   OH2 7357   3.050   5.482   4.441
 2467TIP3    H1 7358   3.023   5.433   4.518
 2467TIP3    H2 7359   3.130   5.527   4.468
 2468TIP3   OH2 7360   1.552   4.104   2.115
 2468TIP3    H1 7361   1.606   4.163   2.167
 2468TIP3    H2 7362   1.577   4.016   2.144
 2469TIP3   OH2 7363   1.752   4.314   4.964
 2469TIP3    H1 7364   1.660   4.291   4.963
 2469TIP3    H2 7365   1.758   4.386   5.028
 2470TIP3   OH2 7366   4.819   0.735   5.920
 2470TIP3    H1 7367   4.910   0.722   5.945
 2470TIP3    H2 7368   4.823   0.780   5.835
 2471TIP3   OH2 7369   1.424   7.309   1.969
 2471TIP3    H1 7370   1.475   7.254   1.910
 2471TIP3    H2 7371   1.333   7.294   1.943
 2472TIP3   OH2 7372   6.988   2.485   1.872
 2472TIP3    H1 7373   6.911   2.537   1.893
 2472TIP3    H2 7374   7.036   2.479   1.955
 2473TIP3   OH2 7375   4.987   5.999   1.017
 2473TIP3    H1 7376   5.021   5.990   1.106
 2473TIP3    H2 7377   5.013   6.088   0.990
 2474TIP3   OH2 7378   4.083   6.635   5.563
 2474TIP3    H1 7379   4.100   6.720   5.522
 2474TIP3    H2 7380   4.126   6.640   5.649
 2475TIP3   OH2 7381   5.956   4.681   0.025
 2475TIP3    H1 7382   5.944   4.629  -0.055
 2475TIP3    H2 7383   5.869   4.684   0.065
 2476TIP3   OH2 7384   2.507   3.109   2.298
 2476TIP3    H1 7385   2.440   3.161   2.253
 2476TIP3    H2 7386   2.458   3.039   2.340
 2477TIP3   OH2 7387   7.031   6.950   2.979
 2477TIP3    H1 7388   7.039   6.968   3.073
 2477TIP3    H2 7389   6.979   7.023   2.945
 2478TIP3   OH2 7390   6.833   1.430   4.691
 2478TIP3    H1 7391   6.852   1.343   4.657
 2478TIP3    H2 7392   6.868   1.429   4.780
 2479TIP3   OH2 7393   3.266   7.330   6.640
 2479TIP3    H1 7394   3.307   7.417   6.648
 2479TIP3    H2 7395   3.273   7.293   6.728
 2480TIP3   OH2 7396   7.728   0.984   3.361
 2480TIP3    H1 7397   7.705   1.035   3.283
 2480TIP3    H2 7398   7.818   1.008   3.380
 2481TIP3   OH2 7399   8.194   7.107   6.761
 2481TIP3    H1 7400   8.121   7.096   6.822
 2481TIP3    H2 7401   8.153   7.107   6.674
 2482TIP3   OH2 7402   4.055   4.166   3.283
 2482TIP3    H1 7403   4.028   4.255   3.307
 2482TIP3    H2 7404   4.015   4.152   3.197
 2483TIP3   OH2 7405   4.440   7.587   2.799
 2483TIP3    H1 7406   4.429   7.541   2.716
 2483TIP3    H2 7407   4.453   7.518   2.864
 2484TIP3   OH2 7408   0.532   3.072   1.250
 2484TIP3    H1 7409   0.475   2.996   1.238
 2484TIP3    H2 7410   0.567   3.061   1.339
 2485TIP3   OH2 7411   8.142   7.166   2.008
 2485TIP3    H1 7412   8.071   7.163   1.944
 2485TIP3    H2 7413   8.196   7.088   1.988
 2486TIP3   OH2 7414   7.050   5.330   0.078
 2486TIP3    H1 7415   7.085   5.320   0.167
 2486TIP3    H2 7416   7.060   5.423   0.058
 2487TIP3   OH2 7417   1.304   6.502   1.450
 2487TIP3    H1 7418   1.232   6.507   1.513
 2487TIP3    H2 7419   1.325   6.409   1.444
 2488TIP3   OH2 7420   0.782   6.427   3.243
 2488TIP3    H1 7421   0.844   6.490   3.279
 2488TIP3    H2 7422   0.837   6.359   3.203
 2489TIP3   OH2 7423   5.303   6.886   5.292
 2489TIP3    H1 7424   5.248   6.933   5.353
 2489TIP3    H2 7425   5.390   6.886   5.332
 2490TIP3   OH2 7426   4.865   4.563   0.543
 2490TIP3    H1 7427   4.770   4.553   0.537
 2490TIP3    H2 7428   4.896   4.544   0.455
 2491TIP3   OH2 7429   0.997   1.918   4.036
 2491TIP3    H1 7430   0.939   1.973   3.984
 2491TIP3    H2 7431   0.973   1.936   4.127
 2492TIP3   OH2 7432   3.201   3.107   1.551
 2492TIP3    H1 7433   3.242   3.140   1.631
 2492TIP3    H2 7434   3.108   3.106   1.570
 2493TIP3   OH2 7435   6.074   1.366   0.688
 2493TIP3    H1 7436   6.120   1.285   0.712
 2493TIP3    H2 7437   5.993   1.363   0.738
 2494TIP3   OH2 7438   2.086   1.990   5.684
 2494TIP3    H1 7439   2.037   2.072   5.691
 2494TIP3    H2 7440   2.061   1.940   5.762
 2495TIP3   OH2 7441   2.754   1.830   5.943
 2495TIP3    H1 7442   2.791   1.876   5.868
 2495TIP3    H2 7443   2.818   1.841   6.013
 2496TIP3   OH2 7444   4.426   7.527   1.177
 2496TIP3    H1 7445   4.347   7.551   1.130
 2496TIP3    H2 7446   4.454   7.609   1.219
 2497TIP3   OH2 7447   8.094   4.267  -0.012
 2497TIP3    H1 7448   8.011   4.252  -0.058
 2497TIP3    H2 7449   8.075   4.249   0.080
 2498TIP3   OH2 7450   5.597   0.877   4.997
 2498TIP3    H1 7451   5.685   0.852   5.027
 2498TIP3    H2 7452   5.606   0.968   4.969
 2499TIP3   OH2 7453   6.405   5.201   4.797
 2499TIP3    H1 7454   6.462   5.172   4.726
 2499TIP3    H2 7455   6.317   5.175   4.769
 2500TIP3   OH2 7456   3.791   2.864   6.172
 2500TIP3    H1 7457   3.698   2.848   6.155
 2500TIP3    H2 7458   3.822   2.783   6.212
 2501TIP3   OH2 7459   6.372   0.173   4.358
 2501TIP3    H1 7460   6.357   0.251   4.410
 2501TIP3    H2 7461   6.293   0.164   4.305
 2502TIP3   OH2 7462   5.029   3.002   0.555
 2502TIP3    H1 7463   5.034   3.079   0.610
 2502TIP3    H2 7464   4.994   3.034   0.472
 2503TIP3   OH2 7465   4.492   4.018   0.593
 2503TIP3    H1 7466   4.489   4.022   0.689
 2503TIP3    H2 7467   4.581   4.045   0.571
 2504TIP3   OH2 7468   6.670   0.565   0.795
 2504TIP3    H1 7469   6.578   0.569   0.822
 2504TIP3    H2 7470   6.708   0.497   0.852
 2505TIP3   OH2 7471   3.100   1.273   0.685
 2505TIP3    H1 7472   3.107   1.352   0.631
 2505TIP3    H2 7473   3.009   1.274   0.716
 2506TIP3   OH2 7474   1.137   7.061   1.470
 2506TIP3    H1 7475   1.043   7.050   1.483
 2506TIP3    H2 7476   1.155   7.018   1.387
 2507TIP3   OH2 7477   7.310   7.751   0.484
 2507TIP3    H1 7478   7.375   7.730   0.417
 2507TIP3    H2 7479   7.304   7.671   0.537
 2508TIP3   OH2 7480   3.130   6.299   1.511
 2508TIP3    H1 7481   3.157   6.367   1.449
 2508TIP3    H2 7482   3.066   6.246   1.462
 2509TIP3   OH2 7483   6.924   2.765   4.507
 2509TIP3    H1 7484   7.012   2.799   4.521
 2509TIP3    H2 7485   6.901   2.793   4.418
 2510TIP3   OH2 7486   6.035   0.606   2.694
 2510TIP3    H1 7487   6.051   0.601   2.600
 2510TIP3    H2 7488   6.015   0.516   2.719
 2511TIP3   OH2 7489   0.558   6.397   2.672
 2511TIP3    H1 7490   0.579   6.374   2.762
 2511TIP3    H2 7491   0.576   6.491   2.665
 2512TIP3   OH2 7492   0.964   7.614   4.752
 2512TIP3    H1 7493   1.045   7.654   4.782
 2512TIP3    H2 7494   0.896   7.678   4.773
 2513TIP3   OH2 7495   3.035   6.236   0.468
 2513TIP3    H1 7496   3.034   6.332   0.462
 2513TIP3    H2 7497   3.098   6.217   0.537
 2514TIP3   OH2 7498   0.802   2.855   3.717
 2514TIP3    H1 7499   0.879   2.904   3.744
 2514TIP3    H2 7500   0.741   2.863   3.791
 2515TIP3   OH2 7501   3.442   7.035   1.759
 2515TIP3    H1 7502   3.384   7.089   1.813
 2515TIP3    H2 7503   3.387   7.003   1.688
 2516TIP3   OH2 7504   3.519   2.485   3.562
 2516TIP3    H1 7505   3.429   2.491   3.592
 2516TIP3    H2 7506   3.571   2.516   3.636
 2517TIP3   OH2 7507   2.261   7.647   6.189
 2517TIP3    H1 7508   2.295   7.679   6.272
 2517TIP3    H2 7509   2.327   7.672   6.124
 2518TIP3   OH2 7510   2.651   5.926   4.142
 2518TIP3    H1 7511   2.632   5.973   4.061
 2518TIP3    H2 7512   2.745   5.913   4.141
 2519TIP3   OH2 7513   7.910   5.848   1.003
 2519TIP3    H1 7514   7.842   5.817   0.943
 2519TIP3    H2 7515   7.983   5.787   0.988
 2520TIP3   OH2 7516   3.807   7.562   2.756
 2520TIP3    H1 7517   3.849   7.498   2.812
 2520TIP3    H2 7518   3.793   7.515   2.673
 2521TIP3   OH2 7519   4.712   0.681   4.894
 2521TIP3    H1 7520   4.707   0.633   4.811
 2521TIP3    H2 7521   4.642   0.644   4.948
 2522TIP3   OH2 7522   2.809   5.220   1.743
 2522TIP3    H1 7523   2.752   5.150   1.712
 2522TIP3    H2 7524   2.827   5.197   1.834
 2523TIP3   OH2 7525   7.143   0.593   3.590
 2523TIP3    H1 7526   7.121   0.626   3.677
 2523TIP3    H2 7527   7.212   0.651   3.559
 2524TIP3   OH2 7528   2.424   2.134   0.438
 2524TIP3    H1 7529   2.416   2.223   0.405
 2524TIP3    H2 7530   2.450   2.145   0.530
 2525TIP3   OH2 7531   7.948   1.001   2.222
 2525TIP3    H1 7532   7.978   0.994   2.132
 2525TIP3    H2 7533   7.853   1.012   2.215
 2526TIP3   OH2 7534   7.063   6.829   4.579
 2526TIP3    H1 7535   7.140   6.781   4.549
 2526TIP3    H2 7536   7.098   6.905   4.624
 2527TIP3   OH2 7537   5.286   0.013   2.159
 2527TIP3    H1 7538   5.336   0.092   2.177
 2527TIP3    H2 7539   5.242  -0.006   2.243
 2528TIP3   OH2 7540   7.513   6.198   6.289
 2528TIP3    H1 7541   7.505   6.127   6.353
 2528TIP3    H2 7542   7.437   6.187   6.232
 2529TIP3   OH2 7543   5.851   7.659   3.022
 2529TIP3    H1 7544   5.879   7.709   2.945
 2529TIP3    H2 7545   5.931   7.616   3.052
 2530TIP3   OH2 7546   2.085   1.436   5.073
 2530TIP3    H1 7547   2.097   1.367   5.138
 2530TIP3    H2 7548   2.069   1.390   4.991
 2531TIP3   OH2 7549   5.840   7.653   3.947
 2531TIP3    H1 7550   5.778   7.618   4.011
 2531TIP3    H2 7551   5.926   7.640   3.987
 2532TIP3   OH2 7552   4.771   2.611   2.756
 2532TIP3    H1 7553   4.830   2.664   2.702
 2532TIP3    H2 7554   4.684   2.645   2.736
 2533TIP3   OH2 7555   3.776   0.786   3.614
 2533TIP3    H1 7556   3.713   0.736   3.667
 2533TIP3    H2 7557   3.727   0.809   3.535
 2534TIP3   OH2 7558   8.123   7.476   6.383
 2534TIP3    H1 7559   8.204   7.442   6.345
 2534TIP3    H2 7560   8.057   7.410   6.362
 2535TIP3   OH2 7561   0.896   2.119   2.940
 2535TIP3    H1 7562   0.814   2.098   2.896
 2535TIP3    H2 7563   0.918   2.040   2.990
 2536TIP3   OH2 7564   7.113   5.813   1.274
 2536TIP3    H1 7565   7.051   5.854   1.214
 2536TIP3    H2 7566   7.081   5.724   1.286
 2537TIP3   OH2 7567   4.702   1.720   3.807
 2537TIP3    H1 7568   4.719   1.805   3.847
 2537TIP3    H2 7569   4.686   1.739   3.715
 2538TIP3   OH2 7570   7.171   4.893   2.039
 2538TIP3    H1 7571   7.204   4.832   1.973
 2538TIP3    H2 7572   7.249   4.933   2.077
 2539TIP3   OH2 7573   7.090   0.148   0.241
 2539TIP3    H1 7574   6.997   0.157   0.222
 2539TIP3    H2 7575   7.095   0.076   0.304
 2540TIP3   OH2 7576   6.064   1.596   0.978
 2540TIP3    H1 7577   5.985   1.639   1.010
 2540TIP3    H2 7578   6.033   1.522   0.927
 2541TIP3   OH2 7579   4.850   4.714   5.628
 2541TIP3    H1 7580   4.872   4.621   5.627
 2541TIP3    H2 7581   4.765   4.719   5.672
 2542TIP3   OH2 7582   2.787   1.358   4.140
 2542TIP3    H1 7583   2.730   1.378   4.214
 2542TIP3    H2 7584   2.780   1.263   4.129
 2543TIP3   OH2 7585   3.132   6.392   6.046
 2543TIP3    H1 7586   3.195   6.398   5.975
 2543TIP3    H2 7587   3.109   6.483   6.065
 2544TIP3   OH2 7588   2.556   7.142   0.752
 2544TIP3    H1 7589   2.601   7.226   0.761
 2544TIP3    H2 7590   2.533   7.137   0.659
 2545TIP3   OH2 7591   1.270   0.304   4.332
 2545TIP3    H1 7592   1.264   0.400   4.324
 2545TIP3    H2 7593   1.181   0.273   4.315
 2546TIP3   OH2 7594   1.053   3.423   2.799
 2546TIP3    H1 7595   1.108   3.493   2.835
 2546TIP3    H2 7596   1.046   3.443   2.706
 2547TIP3   OH2 7597   6.457   2.290   0.061
 2547TIP3    H1 7598   6.389   2.247   0.114
 2547TIP3    H2 7599   6.432   2.270  -0.029
 2548TIP3   OH2 7600   6.524   2.430   1.108
 2548TIP3    H1 7601   6.605   2.477   1.126
 2548TIP3    H2 7602   6.505   2.448   1.016
 2549TIP3   OH2 7603   2.363   3.635   4.517
 2549TIP3    H1 7604   2.302   3.642   4.590
 2549TIP3    H2 7605   2.361   3.543   4.492
 2550TIP3   OH2 7606   6.107   3.506   2.305
 2550TIP3    H1 7607   6.099   3.587   2.355
 2550TIP3    H2 7608   6.200   3.500   2.284
 2551TIP3   OH2 7609   0.066   3.524   0.575
 2551TIP3    H1 7610   0.112   3.589   0.630
 2551TIP3    H2 7611   0.016   3.577   0.512
 2552TIP3   OH2 7612   1.011   4.405   0.120
 2552TIP3    H1 7613   1.032   4.353   0.042
 2552TIP3    H2 7614   0.946   4.468   0.089
 2553TIP3   OH2 7615   5.580   0.709   2.067
 2553TIP3    H1 7616   5.561   0.676   1.980
 2553TIP3    H2 7617   5.602   0.631   2.119
 2554TIP3   OH2 7618   0.415   7.490   5.301
 2554TIP3    H1 7619   0.374   7.466   5.218
 2554TIP3    H2 7620   0.502   7.450   5.297
 2555TIP3   OH2 7621   6.225   2.824   3.946
 2555TIP3    H1 7622   6.174   2.861   4.018
 2555TIP3    H2 7623   6.251   2.737   3.977
 2556TIP3   OH2 7624   1.903   0.196   0.260
 2556TIP3    H1 7625   1.895   0.102   0.245
 2556TIP3    H2 7626   1.813   0.229   0.250
 2557TIP3   OH2 7627   5.435   6.409   3.658
 2557TIP3    H1 7628   5.474   6.322   3.664
 2557TIP3    H2 7629   5.346   6.393   3.626
 2558TIP3   OH2 7630   2.341   2.099   2.137
 2558TIP3    H1 7631   2.312   2.007   2.134
 2558TIP3    H2 7632   2.366   2.113   2.228
 2559TIP3   OH2 7633   0.269   4.361   5.589
 2559TIP3    H1 7634   0.176   4.381   5.581
 2559TIP3    H2 7635   0.273   4.290   5.653
 2560TIP3   OH2 7636   3.333   1.295   1.993
 2560TIP3    H1 7637   3.304   1.204   2.002
 2560TIP3    H2 7638   3.355   1.322   2.082
 2561TIP3   OH2 7639   1.127   5.402   4.087
 2561TIP3    H1 7640   1.069   5.409   4.011
 2561TIP3    H2 7641   1.067   5.405   4.162
 2562TIP3   OH2 7642   4.356   2.686   5.345
 2562TIP3    H1 7643   4.286   2.720   5.401
 2562TIP3    H2 7644   4.317   2.610   5.302
 2563TIP3   OH2 7645   6.618   1.964   3.375
 2563TIP3    H1 7646   6.538   1.984   3.326
 2563TIP3    H2 7647   6.624   2.033   3.440
 2564TIP3   OH2 7648   7.687   3.115   6.636
 2564TIP3    H1 7649   7.678   3.206   6.605
 2564TIP3    H2 7650   7.704   3.123   6.730
 2565TIP3   OH2 7651   3.144   3.601   2.065
 2565TIP3    H1 7652   3.059   3.644   2.069
 2565TIP3    H2 7653   3.187   3.625   2.147
 2566TIP3   OH2 7654   3.216   2.069   3.594
 2566TIP3    H1 7655   3.285   2.135   3.594
 2566TIP3    H2 7656   3.247   2.002   3.655
 2567TIP3   OH2 7657   2.891   1.289   1.640
 2567TIP3    H1 7658   2.825   1.330   1.697
 2567TIP3    H2 7659   2.840   1.253   1.567
 2568TIP3   OH2 7660   4.348   5.001   3.979
 2568TIP3    H1 7661   4.262   5.038   3.996
 2568TIP3    H2 7662   4.342   4.964   3.891
 2569TIP3   OH2 7663   1.887   2.974   4.353
 2569TIP3    H1 7664   1.886   3.019   4.437
 2569TIP3    H2 7665   1.808   3.003   4.309
 2570TIP3   OH2 7666   8.122   0.732   5.096
 2570TIP3    H1 7667   8.118   0.806   5.156
 2570TIP3    H2 7668   8.214   0.707   5.096
 2571TIP3   OH2 7669   0.724   6.325   2.405
 2571TIP3    H1 7670   0.805   6.276   2.392
 2571TIP3    H2 7671   0.691   6.294   2.490
 2572TIP3   OH2 7672   2.977   1.908   1.676
 2572TIP3    H1 7673   2.926   1.856   1.738
 2572TIP3    H2 7674   3.038   1.846   1.636
 2573TIP3   OH2 7675   4.251   6.270   4.533
 2573TIP3    H1 7676   4.340   6.237   4.548
 2573TIP3    H2 7677   4.238   6.263   4.438
 2574TIP3   OH2 7678   5.896   6.848   4.325
 2574TIP3    H1 7679   5.957   6.817   4.258
 2574TIP3    H2 7680   5.902   6.944   4.319
 2575TIP3   OH2 7681   3.469   0.787   3.463
 2575TIP3    H1 7682   3.488   0.736   3.542
 2575TIP3    H2 7683   3.388   0.833   3.484
 2576TIP3   OH2 7684   3.556   4.723   3.225
 2576TIP3    H1 7685   3.466   4.746   3.249
 2576TIP3    H2 7686   3.610   4.791   3.265
 2577TIP3   OH2 7687   4.083   0.903   0.929
 2577TIP3    H1 7688   4.108   0.995   0.936
 2577TIP3    H2 7689   4.147   0.856   0.983
 2578TIP3   OH2 7690   3.837   4.873   5.625
 2578TIP3    H1 7691   3.827   4.781   5.600
 2578TIP3    H2 7692   3.821   4.874   5.719
 2579TIP3   OH2 7693   1.053   4.044   3.983
 2579TIP3    H1 7694   1.085   4.113   4.041
 2579TIP3    H2 7695   1.003   4.090   3.916
 2580TIP3   OH2 7696   2.330   5.151   5.604
 2580TIP3    H1 7697   2.290   5.225   5.651
 2580TIP3    H2 7698   2.417   5.143   5.642
 2581TIP3   OH2 7699   0.373   6.995   5.023
 2581TIP3    H1 7700   0.433   7.044   4.967
 2581TIP3    H2 7701   0.411   7.000   5.110
 2582TIP3   OH2 7702   3.100   4.903   6.223
 2582TIP3    H1 7703   3.153   4.840   6.271
 2582TIP3    H2 7704   3.152   4.984   6.224
 2583TIP3   OH2 7705   1.385   1.743   5.032
 2583TIP3    H1 7706   1.342   1.662   5.060
 2583TIP3    H2 7707   1.337   1.769   4.953
 2584TIP3   OH2 7708   7.956   3.126   4.869
 2584TIP3    H1 7709   7.916   3.202   4.827
 2584TIP3    H2 7710   8.046   3.125   4.839
 2585TIP3   OH2 7711   5.949   3.024   6.636
 2585TIP3    H1 7712   5.878   3.077   6.600
 2585TIP3    H2 7713   5.970   3.066   6.720
 2586TIP3   OH2 7714   4.584   5.130   3.871
 2586TIP3    H1 7715   4.507   5.187   3.863
 2586TIP3    H2 7716   4.621   5.126   3.783
 2587TIP3   OH2 7717   1.888   1.019   0.835
 2587TIP3    H1 7718   1.883   1.027   0.739
 2587TIP3    H2 7719   1.854   1.102   0.868
 2588TIP3   OH2 7720   2.419   5.902   6.205
 2588TIP3    H1 7721   2.323   5.899   6.202
 2588TIP3    H2 7722   2.444   5.953   6.128
 2589TIP3   OH2 7723   7.357   2.686   1.905
 2589TIP3    H1 7724   7.377   2.720   1.992
 2589TIP3    H2 7725   7.423   2.618   1.889
 2590TIP3   OH2 7726   2.740   0.762   5.827
 2590TIP3    H1 7727   2.771   0.779   5.738
 2590TIP3    H2 7728   2.707   0.672   5.825
 2591TIP3   OH2 7729   6.099   5.467   6.246
 2591TIP3    H1 7730   6.117   5.545   6.194
 2591TIP3    H2 7731   6.085   5.397   6.181
 2592TIP3   OH2 7732   4.900   1.935   6.156
 2592TIP3    H1 7733   4.991   1.933   6.128
 2592TIP3    H2 7734   4.873   2.026   6.144
 2593TIP3   OH2 7735   3.594   1.137   4.235
 2593TIP3    H1 7736   3.547   1.192   4.297
 2593TIP3    H2 7737   3.585   1.182   4.151
 2594TIP3   OH2 7738   5.013   2.135   3.942
 2594TIP3    H1 7739   5.107   2.148   3.945
 2594TIP3    H2 7740   5.000   2.065   3.878
 2595TIP3   OH2 7741   4.700   5.224   1.441
 2595TIP3    H1 7742   4.780   5.258   1.402
 2595TIP3    H2 7743   4.727   5.146   1.490
 2596TIP3   OH2 7744   0.496   5.763   4.689
 2596TIP3    H1 7745   0.563   5.807   4.637
 2596TIP3    H2 7746   0.544   5.705   4.747
 2597TIP3   OH2 7747   6.268   4.348   4.219
 2597TIP3    H1 7748   6.295   4.328   4.308
 2597TIP3    H2 7749   6.192   4.291   4.203
 2598TIP3   OH2 7750   3.928   1.316   3.670
 2598TIP3    H1 7751   3.996   1.337   3.606
 2598TIP3    H2 7752   3.918   1.221   3.663
 2599TIP3   OH2 7753   7.994   1.568   0.226
 2599TIP3    H1 7754   7.947   1.505   0.281
 2599TIP3    H2 7755   8.023   1.517   0.151
 2600TIP3   OH2 7756   6.802   5.849   2.476
 2600TIP3    H1 7757   6.776   5.880   2.562
 2600TIP3    H2 7758   6.873   5.908   2.449
 2601TIP3   OH2 7759   0.330   7.135   0.372
 2601TIP3    H1 7760   0.312   7.212   0.426
 2601TIP3    H2 7761   0.308   7.061   0.427
 2602TIP3   OH2 7762   5.261   6.124   6.666
 2602TIP3    H1 7763   5.329   6.057   6.658
 2602TIP3    H2 7764   5.229   6.136   6.576
 2603TIP3   OH2 7765   6.520   2.904   1.993
 2603TIP3    H1 7766   6.493   2.830   2.046
 2603TIP3    H2 7767   6.450   2.914   1.928
 2604TIP3   OH2 7768   5.889   1.443   1.653
 2604TIP3    H1 7769   5.919   1.353   1.665
 2604TIP3    H2 7770   5.970   1.493   1.635
 2605TIP3   OH2 7771   4.603   4.483   2.329
 2605TIP3    H1 7772   4.671   4.440   2.278
 2605TIP3    H2 7773   4.531   4.420   2.331
 2606TIP3   OH2 7774   4.753   7.362   4.269
 2606TIP3    H1 7775   4.709   7.377   4.353
 2606TIP3    H2 7776   4.750   7.447   4.225
 2607TIP3   OH2 7777   0.296   2.196   6.588
 2607TIP3    H1 7778   0.212   2.166   6.555
 2607TIP3    H2 7779   0.315   2.274   6.536
 2608TIP3   OH2 7780   0.040   4.482   4.064
 2608TIP3    H1 7781  -0.010   4.560   4.086
 2608TIP3    H2 7782   0.115   4.514   4.014
 2609TIP3   OH2 7783   6.284   2.768   1.800
 2609TIP3    H1 7784   6.257   2.704   1.866
 2609TIP3    H2 7785   6.246   2.735   1.718
 2610TIP3   OH2 7786   7.790   3.737   4.634
 2610TIP3    H1 7787   7.814   3.647   4.613
 2610TIP3    H2 7788   7.866   3.771   4.682
 2611TIP3   OH2 7789   3.706   0.926   1.604
 2611TIP3    H1 7790   3.695   0.950   1.696
 2611TIP3    H2 7791   3.695   1.008   1.556
 2612TIP3   OH2 7792   6.112   4.803   1.010
 2612TIP3    H1 7793   6.127   4.827   0.919
 2612TIP3    H2 7794   6.166   4.725   1.024
 2613TIP3   OH2 7795   6.087   2.375   4.049
 2613TIP3    H1 7796   6.066   2.283   4.032
 2613TIP3    H2 7797   6.097   2.380   4.144
 2614TIP3   OH2 7798   7.592   4.209   4.428
 2614TIP3    H1 7799   7.539   4.260   4.368
 2614TIP3    H2 7800   7.547   4.125   4.435
 2615TIP3   OH2 7801   3.741   3.358   3.679
 2615TIP3    H1 7802   3.801   3.376   3.606
 2615TIP3    H2 7803   3.778   3.282   3.723
 2616TIP3   OH2 7804   3.813   6.138   3.571
 2616TIP3    H1 7805   3.812   6.052   3.528
 2616TIP3    H2 7806   3.746   6.189   3.525
 2617TIP3   OH2 7807   4.105   1.193   4.434
 2617TIP3    H1 7808   4.014   1.220   4.445
 2617TIP3    H2 7809   4.120   1.193   4.340
 2618TIP3   OH2 7810   6.851   2.690   1.505
 2618TIP3    H1 7811   6.857   2.746   1.428
 2618TIP3    H2 7812   6.761   2.657   1.505
 2619TIP3   OH2 7813   4.900   6.764   2.871
 2619TIP3    H1 7814   4.864   6.688   2.917
 2619TIP3    H2 7815   4.851   6.838   2.906
 2620TIP3   OH2 7816   3.153   4.022   6.340
 2620TIP3    H1 7817   3.142   4.093   6.403
 2620TIP3    H2 7818   3.083   3.960   6.360
 2621TIP3   OH2 7819   6.491   3.348   0.261
 2621TIP3    H1 7820   6.572   3.350   0.211
 2621TIP3    H2 7821   6.429   3.302   0.205
 2622TIP3   OH2 7822   5.098   5.120   5.264
 2622TIP3    H1 7823   5.175   5.146   5.212
 2622TIP3    H2 7824   5.030   5.182   5.238
 2623TIP3   OH2 7825   6.167   5.978   4.710
 2623TIP3    H1 7826   6.096   6.023   4.664
 2623TIP3    H2 7827   6.197   5.911   4.648
 2624TIP3   OH2 7828   7.264   7.349   6.229
 2624TIP3    H1 7829   7.302   7.431   6.197
 2624TIP3    H2 7830   7.169   7.361   6.221
 2625TIP3   OH2 7831   7.149   3.944   3.490
 2625TIP3    H1 7832   7.142   3.874   3.425
 2625TIP3    H2 7833   7.200   3.905   3.561
 2626TIP3   OH2 7834   1.508   1.340   3.165
 2626TIP3    H1 7835   1.497   1.406   3.097
 2626TIP3    H2 7836   1.434   1.280   3.152
 2627TIP3   OH2 7837   5.229   2.147   2.672
 2627TIP3    H1 7838   5.158   2.087   2.693
 2627TIP3    H2 7839   5.189   2.210   2.611
 2628TIP3   OH2 7840   0.012   5.843   4.498
 2628TIP3    H1 7841   0.073   5.917   4.488
 2628TIP3    H2 7842  -0.069   5.883   4.529
 2629TIP3   OH2 7843   6.315   4.243   5.495
 2629TIP3    H1 7844   6.409   4.256   5.483
 2629TIP3    H2 7845   6.309   4.165   5.551
 2630TIP3   OH2 7846   2.002   3.417   2.643
 2630TIP3    H1 7847   1.979   3.326   2.660
 2630TIP3    H2 7848   2.094   3.414   2.618
 2631TIP3   OH2 7849   3.266   4.051   3.612
 2631TIP3    H1 7850   3.236   4.025   3.525
 2631TIP3    H2 7851   3.200   4.016   3.672
 2632TIP3   OH2 7852   6.873   1.124   0.739
 2632TIP3    H1 7853   6.911   1.040   0.715
 2632TIP3    H2 7854   6.872   1.174   0.657
 2633TIP3   OH2 7855   2.354   2.694   3.058
 2633TIP3    H1 7856   2.330   2.770   3.110
 2633TIP3    H2 7857   2.339   2.619   3.116
 2634TIP3   OH2 7858   7.873   0.757   0.032
 2634TIP3    H1 7859   7.938   0.687   0.037
 2634TIP3    H2 7860   7.794   0.719   0.071
 2635TIP3   OH2 7861   2.171   2.303   0.947
 2635TIP3    H1 7862   2.088   2.260   0.929
 2635TIP3    H2 7863   2.220   2.238   1.000
 2636TIP3   OH2 7864   8.160   1.242   2.104
 2636TIP3    H1 7865   8.227   1.174   2.101
 2636TIP3    H2 7866   8.201   1.314   2.151
 2637TIP3   OH2 7867   2.921   1.505   4.646
 2637TIP3    H1 7868   2.991   1.495   4.582
 2637TIP3    H2 7869   2.928   1.427   4.702
 2638TIP3   OH2 7870   1.389   1.221   3.373
 2638TIP3    H1 7871   1.433   1.195   3.455
 2638TIP3    H2 7872   1.458   1.264   3.322
 2639TIP3   OH2 7873   1.650   4.102   2.956
 2639TIP3    H1 7874   1.592   4.153   2.899
 2639TIP3    H2 7875   1.592   4.060   3.019
 2640TIP3   OH2 7876   6.167   7.708   1.469
 2640TIP3    H1 7877   6.233   7.767   1.505
 2640TIP3    H2 7878   6.218   7.640   1.424
 2641TIP3   OH2 7879   3.007   0.145   0.713
 2641TIP3    H1 7880   3.081   0.159   0.771
 2641TIP3    H2 7881   3.027   0.196   0.635
 2642TIP3   OH2 7882   4.966   2.899   2.746
 2642TIP3    H1 7883   4.948   2.907   2.652
 2642TIP3    H2 7884   5.049   2.852   2.751
 2643TIP3   OH2 7885   5.179   0.101   5.345
 2643TIP3    H1 7886   5.093   0.122   5.309
 2643TIP3    H2 7887   5.195   0.010   5.317
 2644TIP3   OH2 7888   1.589   6.297   0.728
 2644TIP3    H1 7889   1.540   6.320   0.807
 2644TIP3    H2 7890   1.664   6.247   0.759
 2645TIP3   OH2 7891   2.361   5.217   4.563
 2645TIP3    H1 7892   2.312   5.163   4.625
 2645TIP3    H2 7893   2.423   5.157   4.522
 2646TIP3   OH2 7894   1.747   3.547   0.597
 2646TIP3    H1 7895   1.662   3.541   0.640
 2646TIP3    H2 7896   1.730   3.526   0.505
 2647TIP3   OH2 7897   2.616   6.669   0.921
 2647TIP3    H1 7898   2.549   6.715   0.972
 2647TIP3    H2 7899   2.598   6.576   0.935
 2648TIP3   OH2 7900   4.227   3.446   5.277
 2648TIP3    H1 7901   4.262   3.533   5.299
 2648TIP3    H2 7902   4.220   3.446   5.182
 2649TIP3   OH2 7903   5.145   7.748   5.069
 2649TIP3    H1 7904   5.057   7.751   5.106
 2649TIP3    H2 7905   5.201   7.780   5.140
 2650TIP3   OH2 7906   5.286   1.052   3.660
 2650TIP3    H1 7907   5.194   1.024   3.653
 2650TIP3    H2 7908   5.336   0.971   3.647
 2651TIP3   OH2 7909   0.324   7.271   5.025
 2651TIP3    H1 7910   0.331   7.211   5.099
 2651TIP3    H2 7911   0.298   7.215   4.951
 2652TIP3   OH2 7912   3.265   5.831   2.256
 2652TIP3    H1 7913   3.203   5.824   2.184
 2652TIP3    H2 7914   3.351   5.826   2.215
 2653TIP3   OH2 7915   1.197   7.792   2.798
 2653TIP3    H1 7916   1.149   7.837   2.867
 2653TIP3    H2 7917   1.158   7.705   2.794
 2654TIP3   OH2 7918   1.786   5.616   1.090
 2654TIP3    H1 7919   1.760   5.707   1.073
 2654TIP3    H2 7920   1.819   5.585   1.005
 2655TIP3   OH2 7921   6.349   1.998   6.128
 2655TIP3    H1 7922   6.367   2.092   6.135
 2655TIP3    H2 7923   6.366   1.963   6.215
 2656TIP3   OH2 7924   7.676   3.196   5.791
 2656TIP3    H1 7925   7.634   3.245   5.720
 2656TIP3    H2 7926   7.770   3.199   5.769
 2657TIP3   OH2 7927   2.111   0.692   6.594
 2657TIP3    H1 7928   2.193   0.731   6.565
 2657TIP3    H2 7929   2.049   0.711   6.523
 2658TIP3   OH2 7930   3.373   7.173   3.527
 2658TIP3    H1 7931   3.387   7.211   3.441
 2658TIP3    H2 7932   3.443   7.209   3.582
 2659TIP3   OH2 7933   0.647   1.641   1.202
 2659TIP3    H1 7934   0.652   1.546   1.215
 2659TIP3    H2 7935   0.600   1.652   1.120
 2660TIP3   OH2 7936   5.009   1.332   1.162
 2660TIP3    H1 7937   4.974   1.420   1.175
 2660TIP3    H2 7938   5.081   1.326   1.224
 2661TIP3   OH2 7939   8.200   3.195   5.529
 2661TIP3    H1 7940   8.242   3.109   5.528
 2661TIP3    H2 7941   8.115   3.181   5.569
 2662TIP3   OH2 7942   1.462   6.077   5.260
 2662TIP3    H1 7943   1.428   6.161   5.227
 2662TIP3    H2 7944   1.489   6.030   5.182
 2663TIP3   OH2 7945   6.289   5.821   5.886
 2663TIP3    H1 7946   6.242   5.903   5.901
 2663TIP3    H2 7947   6.366   5.847   5.835
 2664TIP3   OH2 7948   7.156   0.230   0.705
 2664TIP3    H1 7949   7.136   0.216   0.798
 2664TIP3    H2 7950   7.227   0.295   0.705
 2665TIP3   OH2 7951   5.734   6.770   1.838
 2665TIP3    H1 7952   5.776   6.826   1.902
 2665TIP3    H2 7953   5.750   6.681   1.869
 2666TIP3   OH2 7954   3.643   0.170   0.304
 2666TIP3    H1 7955   3.672   0.180   0.214
 2666TIP3    H2 7956   3.579   0.241   0.317
 2667TIP3   OH2 7957   4.025   0.227   6.435
 2667TIP3    H1 7958   4.051   0.268   6.517
 2667TIP3    H2 7959   4.098   0.245   6.375
 2668TIP3   OH2 7960   3.566   1.422   5.112
 2668TIP3    H1 7961   3.598   1.504   5.074
 2668TIP3    H2 7962   3.473   1.419   5.086
 2669TIP3   OH2 7963   3.730   0.541   6.132
 2669TIP3    H1 7964   3.676   0.463   6.123
 2669TIP3    H2 7965   3.702   0.598   6.059
 2670TIP3   OH2 7966   5.001   2.869   5.253
 2670TIP3    H1 7967   4.916   2.910   5.237
 2670TIP3    H2 7968   5.005   2.858   5.348
 2671TIP3   OH2 7969   7.780   1.460   0.413
 2671TIP3    H1 7970   7.827   1.450   0.496
 2671TIP3    H2 7971   7.696   1.499   0.437
 2672TIP3   OH2 7972   2.384   4.545   2.337
 2672TIP3    H1 7973   2.441   4.592   2.398
 2672TIP3    H2 7974   2.349   4.473   2.389
 2673TIP3   OH2 7975   5.511   5.519   2.389
 2673TIP3    H1 7976   5.500   5.425   2.391
 2673TIP3    H2 7977   5.429   5.555   2.422
 2674TIP3   OH2 7978   2.859   0.819   4.494
 2674TIP3    H1 7979   2.926   0.810   4.426
 2674TIP3    H2 7980   2.827   0.730   4.508
 2675TIP3   OH2 7981   1.003   6.224   2.141
 2675TIP3    H1 7982   0.962   6.171   2.073
 2675TIP3    H2 7983   0.998   6.314   2.107
 2676TIP3   OH2 7984   5.319   0.561   3.811
 2676TIP3    H1 7985   5.373   0.494   3.851
 2676TIP3    H2 7986   5.239   0.516   3.786
 2677TIP3   OH2 7987   5.214   6.928   6.143
 2677TIP3    H1 7988   5.286   6.965   6.194
 2677TIP3    H2 7989   5.257   6.869   6.080
 2678TIP3   OH2 7990   4.459   2.232   2.822
 2678TIP3    H1 7991   4.492   2.279   2.746
 2678TIP3    H2 7992   4.503   2.274   2.897
 2679TIP3   OH2 7993   7.359   3.620   5.713
 2679TIP3    H1 7994   7.413   3.591   5.787
 2679TIP3    H2 7995   7.312   3.696   5.747
 2680TIP3   OH2 7996   5.109   3.501   0.114
 2680TIP3    H1 7997   5.137   3.496   0.205
 2680TIP3    H2 7998   5.190   3.516   0.065
 2681TIP3   OH2 7999   4.760   0.973   3.703
 2681TIP3    H1 8000   4.792   1.026   3.776
 2681TIP3    H2 8001   4.686   1.023   3.668
 2682TIP3   OH2 8002   1.923   2.220   0.658
 2682TIP3    H1 8003   1.841   2.224   0.707
 2682TIP3    H2 8004   1.958   2.309   0.661
 2683TIP3   OH2 8005   5.563   1.538   3.584
 2683TIP3    H1 8006   5.622   1.579   3.647
 2683TIP3    H2 8007   5.550   1.449   3.617
 2684TIP3   OH2 8008   6.679   5.008   2.131
 2684TIP3    H1 8009   6.711   4.931   2.083
 2684TIP3    H2 8010   6.719   5.001   2.217
 2685TIP3   OH2 8011   1.348   2.159   0.775
 2685TIP3    H1 8012   1.284   2.100   0.815
 2685TIP3    H2 8013   1.314   2.247   0.793
 2686TIP3   OH2 8014   1.534   0.202   0.993
 2686TIP3    H1 8015   1.469   0.265   1.024
 2686TIP3    H2 8016   1.574   0.244   0.917
 2687TIP3   OH2 8017   5.718   2.673   3.988
 2687TIP3    H1 8018   5.627   2.696   3.968
 2687TIP3    H2 8019   5.768   2.752   3.967
 2688TIP3   OH2 8020   1.281   5.814   3.928
 2688TIP3    H1 8021   1.241   5.901   3.927
 2688TIP3    H2 8022   1.209   5.756   3.954
 2689TIP3   OH2 8023   7.973   0.369   6.138
 2689TIP3    H1 8024   7.885   0.392   6.165
 2689TIP3    H2 8025   7.978   0.274   6.152
 2690TIP3   OH2 8026   5.066   5.055   3.599
 2690TIP3    H1 8027   5.012   5.116   3.548
 2690TIP3    H2 8028   5.154   5.092   3.594
 2691TIP3   OH2 8029   1.081   4.173   0.608
 2691TIP3    H1 8030   1.150   4.234   0.633
 2691TIP3    H2 8031   1.094   4.161   0.514
 2692TIP3   OH2 8032   8.093   4.634   5.276
 2692TIP3    H1 8033   8.030   4.605   5.342
 2692TIP3    H2 8034   8.137   4.708   5.317
 2693TIP3   OH2 8035   7.415   2.405   0.902
 2693TIP3    H1 8036   7.329   2.386   0.940
 2693TIP3    H2 8037   7.400   2.479   0.843
 2694TIP3   OH2 8038   0.469   1.175   5.959
 2694TIP3    H1 8039   0.460   1.090   5.915
 2694TIP3    H2 8040   0.472   1.153   6.052
 2695TIP3   OH2 8041   3.740   5.763   2.398
 2695TIP3    H1 8042   3.709   5.713   2.474
 2695TIP3    H2 8043   3.760   5.849   2.433
 2696TIP3   OH2 8044   1.634   4.712   4.506
 2696TIP3    H1 8045   1.703   4.756   4.455
 2696TIP3    H2 8046   1.554   4.730   4.456
 2697TIP3   OH2 8047   4.451   2.170   0.355
 2697TIP3    H1 8048   4.364   2.194   0.388
 2697TIP3    H2 8049   4.498   2.140   0.432
 2698TIP3   OH2 8050   1.690   5.727   3.844
 2698TIP3    H1 8051   1.784   5.735   3.859
 2698TIP3    H2 8052   1.680   5.731   3.749
 2699TIP3   OH2 8053   6.667   1.960   0.285
 2699TIP3    H1 8054   6.690   2.052   0.274
 2699TIP3    H2 8055   6.691   1.940   0.376
 2700TIP3   OH2 8056   1.568   0.263   2.115
 2700TIP3    H1 8057   1.476   0.268   2.141
 2700TIP3    H2 8058   1.612   0.327   2.171
 2701TIP3   OH2 8059   5.349   7.381   1.848
 2701TIP3    H1 8060   5.263   7.380   1.889
 2701TIP3    H2 8061   5.378   7.472   1.855
 2702TIP3   OH2 8062   2.647   2.151   2.480
 2702TIP3    H1 8063   2.712   2.182   2.543
 2702TIP3    H2 8064   2.604   2.077   2.523
 2703TIP3   OH2 8065   7.459   1.899   1.085
 2703TIP3    H1 8066   7.387   1.862   1.035
 2703TIP3    H2 8067   7.454   1.993   1.069
 2704TIP3   OH2 8068   4.642   1.150   2.445
 2704TIP3    H1 8069   4.670   1.146   2.537
 2704TIP3    H2 8070   4.554   1.113   2.446
 2705TIP3   OH2 8071   6.072   4.671   3.398
 2705TIP3    H1 8072   6.117   4.622   3.466
 2705TIP3    H2 8073   6.142   4.697   3.337
 2706TIP3   OH2 8074   4.343   7.455   6.643
 2706TIP3    H1 8075   4.332   7.549   6.658
 2706TIP3    H2 8076   4.323   7.415   6.728
 2707TIP3   OH2 8077   2.373   6.745   6.183
 2707TIP3    H1 8078   2.466   6.769   6.181
 2707TIP3    H2 8079   2.327   6.827   6.198
 2708TIP3   OH2 8080   6.548   2.591   0.496
 2708TIP3    H1 8081   6.597   2.670   0.521
 2708TIP3    H2 8082   6.483   2.580   0.565
 2709TIP3   OH2 8083   2.896   3.706   2.115
 2709TIP3    H1 8084   2.846   3.773   2.163
 2709TIP3    H2 8085   2.893   3.629   2.172
 2710TIP3   OH2 8086   4.119   3.770   5.127
 2710TIP3    H1 8087   4.083   3.858   5.136
 2710TIP3    H2 8088   4.183   3.762   5.198
 2711TIP3   OH2 8089   8.145   7.463   3.246
 2711TIP3    H1 8090   8.164   7.543   3.294
 2711TIP3    H2 8091   8.125   7.398   3.314
 2712TIP3   OH2 8092   4.381   0.278   1.610
 2712TIP3    H1 8093   4.295   0.305   1.577
 2712TIP3    H2 8094   4.363   0.208   1.671
 2713TIP3   OH2 8095   3.821   5.830   4.882
 2713TIP3    H1 8096   3.788   5.898   4.824
 2713TIP3    H2 8097   3.745   5.801   4.932
 2714TIP3   OH2 8098   5.399   3.299   2.589
 2714TIP3    H1 8099   5.314   3.257   2.571
 2714TIP3    H2 8100   5.378   3.391   2.604
 2715TIP3   OH2 8101   1.546   5.813   3.169
 2715TIP3    H1 8102   1.577   5.828   3.079
 2715TIP3    H2 8103   1.452   5.829   3.165
 2716TIP3   OH2 8104   3.886   7.274   4.917
 2716TIP3    H1 8105   3.949   7.243   4.852
 2716TIP3    H2 8106   3.813   7.309   4.866
 2717TIP3   OH2 8107   2.812   3.417   5.736
 2717TIP3    H1 8108   2.784   3.336   5.777
 2717TIP3    H2 8109   2.808   3.400   5.642
 2718TIP3   OH2 8110   6.021   2.307   0.091
 2718TIP3    H1 8111   5.974   2.241   0.041
 2718TIP3    H2 8112   5.993   2.293   0.181
 2719TIP3   OH2 8113   3.865   0.365   5.051
 2719TIP3    H1 8114   3.921   0.288   5.044
 2719TIP3    H2 8115   3.848   0.374   5.145
 2720TIP3   OH2 8116   1.579   1.796   5.203
 2720TIP3    H1 8117   1.516   1.758   5.142
 2720TIP3    H2 8118   1.650   1.732   5.208
 2721TIP3   OH2 8119   0.590   0.589   0.202
 2721TIP3    H1 8120   0.640   0.657   0.157
 2721TIP3    H2 8121   0.656   0.531   0.240
 2722TIP3   OH2 8122   5.669   2.905   0.307
 2722TIP3    H1 8123   5.745   2.866   0.350
 2722TIP3    H2 8124   5.637   2.836   0.248
 2723TIP3   OH2 8125   7.428   4.852   5.808
 2723TIP3    H1 8126   7.501   4.862   5.869
 2723TIP3    H2 8127   7.462   4.794   5.739
 2724TIP3   OH2 8128   4.172   7.100   5.735
 2724TIP3    H1 8129   4.178   7.008   5.763
 2724TIP3    H2 8130   4.089   7.131   5.772
 2725TIP3   OH2 8131   4.074   4.349   5.994
 2725TIP3    H1 8132   4.023   4.429   5.980
 2725TIP3    H2 8133   4.109   4.328   5.908
 2726TIP3   OH2 8134   5.633   6.667   0.229
 2726TIP3    H1 8135   5.697   6.728   0.193
 2726TIP3    H2 8136   5.603   6.709   0.310
 2727TIP3   OH2 8137   5.577   7.610   5.592
 2727TIP3    H1 8138   5.639   7.590   5.523
 2727TIP3    H2 8139   5.569   7.706   5.590
 2728TIP3   OH2 8140   1.006   1.913   5.962
 2728TIP3    H1 8141   1.038   1.822   5.962
 2728TIP3    H2 8142   1.085   1.966   5.967
 2729TIP3   OH2 8143   6.273   1.235   1.123
 2729TIP3    H1 8144   6.303   1.144   1.123
 2729TIP3    H2 8145   6.204   1.238   1.057
 2730TIP3   OH2 8146   6.371   4.352   2.030
 2730TIP3    H1 8147   6.287   4.395   2.044
 2730TIP3    H2 8148   6.363   4.312   1.944
 2731TIP3   OH2 8149   1.965   7.621   5.045
 2731TIP3    H1 8150   2.057   7.641   5.062
 2731TIP3    H2 8151   1.958   7.527   5.058
 2732TIP3   OH2 8152   5.784   5.164   4.323
 2732TIP3    H1 8153   5.780   5.224   4.397
 2732TIP3    H2 8154   5.694   5.159   4.291
 2733TIP3   OH2 8155   3.178   1.227   6.277
 2733TIP3    H1 8156   3.256   1.173   6.263
 2733TIP3    H2 8157   3.199   1.279   6.354
 2734TIP3   OH2 8158   7.729   4.523   1.782
 2734TIP3    H1 8159   7.674   4.601   1.795
 2734TIP3    H2 8160   7.773   4.510   1.867
 2735TIP3   OH2 8161   7.726   4.276   0.889
 2735TIP3    H1 8162   7.773   4.340   0.943
 2735TIP3    H2 8163   7.795   4.235   0.836
 2736TIP3   OH2 8164   1.621   4.566   2.913
 2736TIP3    H1 8165   1.698   4.607   2.953
 2736TIP3    H2 8166   1.602   4.491   2.970
 2737TIP3   OH2 8167   6.295   6.265   0.632
 2737TIP3    H1 8168   6.318   6.204   0.562
 2737TIP3    H2 8169   6.241   6.214   0.692
 2738TIP3   OH2 8170   8.178   6.508   0.047
 2738TIP3    H1 8171   8.100   6.562   0.033
 2738TIP3    H2 8172   8.194   6.512   0.141
 2739TIP3   OH2 8173   3.230   7.133   4.325
 2739TIP3    H1 8174   3.295   7.172   4.383
 2739TIP3    H2 8175   3.280   7.104   4.249
 2740TIP3   OH2 8176   1.995   5.558   3.217
 2740TIP3    H1 8177   2.060   5.508   3.265
 2740TIP3    H2 8178   2.011   5.649   3.243
 2741TIP3   OH2 8179   0.343   6.789   1.590
 2741TIP3    H1 8180   0.314   6.703   1.559
 2741TIP3    H2 8181   0.308   6.796   1.678
 2742TIP3   OH2 8182   3.998   5.180   4.607
 2742TIP3    H1 8183   3.998   5.088   4.635
 2742TIP3    H2 8184   3.959   5.227   4.681
 2743TIP3   OH2 8185   2.014   1.389   4.794
 2743TIP3    H1 8186   1.935   1.405   4.742
 2743TIP3    H2 8187   2.075   1.457   4.766
 2744TIP3   OH2 8188   5.996   4.821   1.271
 2744TIP3    H1 8189   6.055   4.831   1.196
 2744TIP3    H2 8190   6.042   4.865   1.343
 2745TIP3   OH2 8191   5.109   6.178   1.702
 2745TIP3    H1 8192   5.121   6.261   1.656
 2745TIP3    H2 8193   5.146   6.193   1.789
 2746TIP3   OH2 8194   5.485   2.384   5.961
 2746TIP3    H1 8195   5.580   2.392   5.947
 2746TIP3    H2 8196   5.461   2.465   6.008
 2747TIP3   OH2 8197   6.494   0.217   0.829
 2747TIP3    H1 8198   6.579   0.185   0.799
 2747TIP3    H2 8199   6.436   0.141   0.819
 2748TIP3   OH2 8200   7.925   0.696   3.869
 2748TIP3    H1 8201   7.949   0.615   3.915
 2748TIP3    H2 8202   7.897   0.755   3.939
 2749TIP3   OH2 8203   5.723   0.319   1.840
 2749TIP3    H1 8204   5.734   0.224   1.828
 2749TIP3    H2 8205   5.800   0.346   1.889
 2750TIP3   OH2 8206   1.194   1.684   3.314
 2750TIP3    H1 8207   1.258   1.630   3.360
 2750TIP3    H2 8208   1.203   1.771   3.354
 2751TIP3   OH2 8209   3.187   1.277   3.150
 2751TIP3    H1 8210   3.244   1.295   3.225
 2751TIP3    H2 8211   3.106   1.243   3.188
 2752TIP3   OH2 8212   5.031   3.623   2.508
 2752TIP3    H1 8213   4.954   3.567   2.497
 2752TIP3    H2 8214   5.031   3.679   2.430
 2753TIP3   OH2 8215   3.215   6.169   3.355
 2753TIP3    H1 8216   3.205   6.078   3.384
 2753TIP3    H2 8217   3.274   6.163   3.279
 2754TIP3   OH2 8218   7.492   3.927   4.323
 2754TIP3    H1 8219   7.432   3.940   4.397
 2754TIP3    H2 8220   7.556   3.864   4.356
 2755TIP3   OH2 8221   6.521   1.892   3.650
 2755TIP3    H1 8222   6.485   1.810   3.617
 2755TIP3    H2 8223   6.598   1.866   3.701
 2756TIP3   OH2 8224   8.082   4.185   1.886
 2756TIP3    H1 8225   8.037   4.168   1.969
 2756TIP3    H2 8226   8.020   4.159   1.819
 2757TIP3   OH2 8227   7.777   5.020   1.967
 2757TIP3    H1 8228   7.702   5.078   1.976
 2757TIP3    H2 8229   7.849   5.078   1.939
 2758TIP3   OH2 8230   6.707   5.291   0.307
 2758TIP3    H1 8231   6.618   5.317   0.331
 2758TIP3    H2 8232   6.757   5.302   0.388
 2759TIP3   OH2 8233   1.751   2.964   6.223
 2759TIP3    H1 8234   1.750   2.877   6.184
 2759TIP3    H2 8235   1.843   2.979   6.245
 2760TIP3   OH2 8236   6.056   7.668   5.859
 2760TIP3    H1 8237   5.968   7.632   5.868
 2760TIP3    H2 8238   6.114   7.595   5.878
 2761TIP3   OH2 8239   2.589   3.875   2.976
 2761TIP3    H1 8240   2.630   3.942   2.922
 2761TIP3    H2 8241   2.525   3.834   2.918
 2762TIP3   OH2 8242   6.868   1.432   5.230
 2762TIP3    H1 8243   6.962   1.428   5.246
 2762TIP3    H2 8244   6.828   1.423   5.316
 2763TIP3   OH2 8245   6.950   0.757   0.460
 2763TIP3    H1 8246   6.987   0.769   0.548
 2763TIP3    H2 8247   7.018   0.711   0.411
 2764TIP3   OH2 8248   6.993   7.271   2.070
 2764TIP3    H1 8249   7.023   7.288   1.981
 2764TIP3    H2 8250   6.939   7.347   2.093
 2765TIP3   OH2 8251   7.044   6.092   5.498
 2765TIP3    H1 8252   7.134   6.076   5.467
 2765TIP3    H2 8253   7.040   6.187   5.509
 2766TIP3   OH2 8254   2.173   2.642   5.912
 2766TIP3    H1 8255   2.206   2.728   5.936
 2766TIP3    H2 8256   2.198   2.632   5.820
 2767TIP3   OH2 8257   8.146   3.673   0.363
 2767TIP3    H1 8258   8.088   3.730   0.312
 2767TIP3    H2 8259   8.231   3.680   0.319
 2768TIP3   OH2 8260   4.945   1.887   3.804
 2768TIP3    H1 8261   4.904   1.876   3.718
 2768TIP3    H2 8262   4.993   1.805   3.819
 2769TIP3   OH2 8263   3.146   4.451   3.841
 2769TIP3    H1 8264   3.157   4.518   3.774
 2769TIP3    H2 8265   3.078   4.394   3.806
 2770TIP3   OH2 8266   1.372   2.806   1.568
 2770TIP3    H1 8267   1.308   2.777   1.503
 2770TIP3    H2 8268   1.352   2.754   1.646
 2771TIP3   OH2 8269   5.355   3.995   1.473
 2771TIP3    H1 8270   5.348   4.078   1.426
 2771TIP3    H2 8271   5.284   3.997   1.536
 2772TIP3   OH2 8272   7.360   5.726   1.386
 2772TIP3    H1 8273   7.292   5.769   1.334
 2772TIP3    H2 8274   7.368   5.639   1.348
 2773TIP3   OH2 8275   6.736   2.435   6.526
 2773TIP3    H1 8276   6.771   2.448   6.614
 2773TIP3    H2 8277   6.655   2.385   6.540
 2774TIP3   OH2 8278   0.327   6.265   1.559
 2774TIP3    H1 8279   0.409   6.242   1.515
 2774TIP3    H2 8280   0.341   6.241   1.651
 2775TIP3   OH2 8281   0.907   6.847   1.036
 2775TIP3    H1 8282   0.811   6.847   1.037
 2775TIP3    H2 8283   0.931   6.889   0.954
 2776TIP3   OH2 8284   2.808   0.461   0.950
 2776TIP3    H1 8285   2.714   0.448   0.960
 2776TIP3    H2 8286   2.820   0.481   0.857
 2777TIP3   OH2 8287   4.556   3.225   1.833
 2777TIP3    H1 8288   4.466   3.204   1.855
 2777TIP3    H2 8289   4.608   3.159   1.880
 2778TIP3   OH2 8290   3.310   3.965   0.537
 2778TIP3    H1 8291   3.338   3.879   0.566
 2778TIP3    H2 8292   3.390   4.009   0.510
 2779TIP3   OH2 8293   2.119   4.372   6.664
 2779TIP3    H1 8294   2.149   4.399   6.751
 2779TIP3    H2 8295   2.109   4.277   6.670
 2780TIP3   OH2 8296   3.029   3.245   3.102
 2780TIP3    H1 8297   3.054   3.237   3.010
 2780TIP3    H2 8298   3.096   3.300   3.142
 2781TIP3   OH2 8299   6.557   7.697   4.809
 2781TIP3    H1 8300   6.538   7.624   4.868
 2781TIP3    H2 8301   6.510   7.676   4.728
 2782TIP3   OH2 8302   4.087   1.152   5.043
 2782TIP3    H1 8303   4.074   1.090   5.115
 2782TIP3    H2 8304   4.063   1.103   4.965
 2783TIP3   OH2 8305   2.594   1.223   5.081
 2783TIP3    H1 8306   2.671   1.265   5.119
 2783TIP3    H2 8307   2.532   1.216   5.154
 2784TIP3   OH2 8308   8.062   5.957   4.614
 2784TIP3    H1 8309   7.993   6.018   4.587
 2784TIP3    H2 8310   8.142   6.011   4.614
 2785TIP3   OH2 8311   6.456   0.249   4.912
 2785TIP3    H1 8312   6.365   0.236   4.887
 2785TIP3    H2 8313   6.499   0.281   4.833
 2786TIP3   OH2 8314   4.664   6.011   3.287
 2786TIP3    H1 8315   4.692   5.924   3.315
 2786TIP3    H2 8316   4.639   6.056   3.368
 2787TIP3   OH2 8317   4.704   3.067   3.979
 2787TIP3    H1 8318   4.627   3.117   3.949
 2787TIP3    H2 8319   4.778   3.109   3.936
 2788TIP3   OH2 8320   5.709   6.348   2.972
 2788TIP3    H1 8321   5.614   6.359   2.984
 2788TIP3    H2 8322   5.747   6.384   3.052
 2789TIP3   OH2 8323   2.180   2.507   2.029
 2789TIP3    H1 8324   2.205   2.420   2.061
 2789TIP3    H2 8325   2.087   2.515   2.049
 2790TIP3   OH2 8326   1.824   2.900   6.540
 2790TIP3    H1 8327   1.841   2.961   6.611
 2790TIP3    H2 8328   1.866   2.940   6.464
 2791TIP3   OH2 8329   8.126   5.456   1.193
 2791TIP3    H1 8330   8.161   5.369   1.212
 2791TIP3    H2 8331   8.182   5.516   1.242
 2792TIP3   OH2 8332   0.781   7.707   3.557
 2792TIP3    H1 8333   0.793   7.690   3.463
 2792TIP3    H2 8334   0.862   7.752   3.583
 2793TIP3   OH2 8335   4.631   6.031   2.570
 2793TIP3    H1 8336   4.628   5.964   2.502
 2793TIP3    H2 8337   4.597   5.987   2.648
 2794TIP3   OH2 8338   1.073   1.982   0.756
 2794TIP3    H1 8339   1.074   1.963   0.850
 2794TIP3    H2 8340   1.068   1.896   0.714
 2795TIP3   OH2 8341   5.641   0.648   1.029
 2795TIP3    H1 8342   5.658   0.604   1.112
 2795TIP3    H2 8343   5.719   0.630   0.977
 2796TIP3   OH2 8344   5.150   3.055   6.259
 2796TIP3    H1 8345   5.093   2.999   6.207
 2796TIP3    H2 8346   5.101   3.071   6.340
 2797TIP3   OH2 8347   4.227   1.040   5.615
 2797TIP3    H1 8348   4.271   1.116   5.578
 2797TIP3    H2 8349   4.157   1.020   5.553
 2798TIP3   OH2 8350   3.460   1.762   6.674
 2798TIP3    H1 8351   3.555   1.772   6.668
 2798TIP3    H2 8352   3.447   1.683   6.726
 2799TIP3   OH2 8353   2.621   7.796   1.121
 2799TIP3    H1 8354   2.601   7.755   1.037
 2799TIP3    H2 8355   2.578   7.881   1.118
 2800TIP3   OH2 8356   3.380   4.004   5.886
 2800TIP3    H1 8357   3.444   3.984   5.954
 2800TIP3    H2 8358   3.370   3.922   5.837
 2801TIP3   OH2 8359  -0.030   6.757   1.508
 2801TIP3    H1 8360   0.037   6.806   1.459
 2801TIP3    H2 8361   0.019   6.687   1.552
 2802TIP3   OH2 8362   7.385   1.732   1.780
 2802TIP3    H1 8363   7.382   1.784   1.859
 2802TIP3    H2 8364   7.424   1.789   1.714
 2803TIP3   OH2 8365   2.141   1.850   4.837
 2803TIP3    H1 8366   2.153   1.880   4.927
 2803TIP3    H2 8367   2.047   1.834   4.829
 2804TIP3   OH2 8368   6.273   5.093   2.392
 2804TIP3    H1 8369   6.322   5.105   2.311
 2804TIP3    H2 8370   6.338   5.066   2.456
 2805TIP3   OH2 8371   1.460   4.330   2.471
 2805TIP3    H1 8372   1.438   4.258   2.530
 2805TIP3    H2 8373   1.413   4.310   2.390
 2806TIP3   OH2 8374   0.811   1.777   0.231
 2806TIP3    H1 8375   0.771   1.757   0.316
 2806TIP3    H2 8376   0.814   1.873   0.229
 2807TIP3   OH2 8377   6.062   0.728   0.920
 2807TIP3    H1 8378   6.095   0.655   0.973
 2807TIP3    H2 8379   6.140   0.780   0.901
 2808TIP3   OH2 8380   2.339   6.144   2.980
 2808TIP3    H1 8381   2.359   6.178   3.068
 2808TIP3    H2 8382   2.418   6.162   2.929
 2809TIP3   OH2 8383   2.878   0.306   5.969
 2809TIP3    H1 8384   2.802   0.254   5.995
 2809TIP3    H2 8385   2.935   0.305   6.046
 2810TIP3   OH2 8386   4.767   7.020   5.891
 2810TIP3    H1 8387   4.729   7.103   5.863
 2810TIP3    H2 8388   4.839   7.045   5.950
 2811TIP3   OH2 8389   1.325   7.215   5.660
 2811TIP3    H1 8390   1.230   7.210   5.668
 2811TIP3    H2 8391   1.343   7.193   5.568
 2812TIP3   OH2 8392   2.309   5.270   4.140
 2812TIP3    H1 8393   2.338   5.332   4.073
 2812TIP3    H2 8394   2.226   5.235   4.106
 2813TIP3   OH2 8395   1.041   6.731   3.106
 2813TIP3    H1 8396   1.094   6.662   3.146
 2813TIP3    H2 8397   1.103   6.800   3.084
 2814TIP3   OH2 8398   7.711   3.827   5.149
 2814TIP3    H1 8399   7.695   3.735   5.171
 2814TIP3    H2 8400   7.658   3.843   5.071
 2815TIP3   OH2 8401   3.374   7.315   5.000
 2815TIP3    H1 8402   3.403   7.359   5.080
 2815TIP3    H2 8403   3.279   7.310   5.010
 2816TIP3   OH2 8404   0.882   3.855   4.078
 2816TIP3    H1 8405   0.930   3.772   4.080
 2816TIP3    H2 8406   0.943   3.917   4.036
 2817TIP3   OH2 8407   2.259   0.487   2.653
 2817TIP3    H1 8408   2.295   0.565   2.611
 2817TIP3    H2 8409   2.172   0.513   2.683
 2818TIP3   OH2 8410   5.224   3.389   4.163
 2818TIP3    H1 8411   5.175   3.371   4.244
 2818TIP3    H2 8412   5.156   3.399   4.096
 2819TIP3   OH2 8413   7.212   3.428   4.856
 2819TIP3    H1 8414   7.302   3.395   4.849
 2819TIP3    H2 8415   7.173   3.378   4.927
 2820TIP3   OH2 8416   2.745   6.873   4.754
 2820TIP3    H1 8417   2.818   6.866   4.815
 2820TIP3    H2 8418   2.696   6.950   4.785
 2821TIP3   OH2 8419   3.335   5.036   1.424
 2821TIP3    H1 8420   3.292   5.111   1.383
 2821TIP3    H2 8421   3.423   5.035   1.386
 2822TIP3   OH2 8422   2.907   6.239   3.323
 2822TIP3    H1 8423   2.871   6.152   3.305
 2822TIP3    H2 8424   2.999   6.233   3.296
 2823TIP3   OH2 8425   7.095   7.539   0.616
 2823TIP3    H1 8426   7.158   7.471   0.596
 2823TIP3    H2 8427   7.014   7.491   0.635
 2824TIP3   OH2 8428   6.389   0.470   1.322
 2824TIP3    H1 8429   6.422   0.560   1.317
 2824TIP3    H2 8430   6.450   0.419   1.269
 2825TIP3   OH2 8431   5.500   3.743   5.728
 2825TIP3    H1 8432   5.448   3.821   5.747
 2825TIP3    H2 8433   5.456   3.703   5.653
 2826TIP3   OH2 8434   4.631   6.319   6.566
 2826TIP3    H1 8435   4.575   6.281   6.498
 2826TIP3    H2 8436   4.661   6.244   6.617
 2827TIP3   OH2 8437   6.711   4.754   4.138
 2827TIP3    H1 8438   6.703   4.780   4.046
 2827TIP3    H2 8439   6.687   4.833   4.187
 2828TIP3   OH2 8440   3.422   2.262   5.394
 2828TIP3    H1 8441   3.344   2.295   5.439
 2828TIP3    H2 8442   3.389   2.225   5.312
 2829TIP3   OH2 8443   0.290   6.791   0.264
 2829TIP3    H1 8444   0.294   6.737   0.342
 2829TIP3    H2 8445   0.211   6.763   0.218
 2830TIP3   OH2 8446   3.346   0.086   6.148
 2830TIP3    H1 8447   3.332   0.142   6.071
 2830TIP3    H2 8448   3.377   0.004   6.111
 2831TIP3   OH2 8449   0.010   5.237   2.260
 2831TIP3    H1 8450   0.017   5.166   2.197
 2831TIP3    H2 8451  -0.022   5.311   2.209
 2832TIP3   OH2 8452   3.144   6.215   5.267
 2832TIP3    H1 8453   3.112   6.182   5.351
 2832TIP3    H2 8454   3.239   6.210   5.273
 2833TIP3   OH2 8455   3.515   7.380   2.348
 2833TIP3    H1 8456   3.529   7.474   2.360
 2833TIP3    H2 8457   3.471   7.352   2.429
 2834TIP3   OH2 8458   4.883   7.338   5.932
 2834TIP3    H1 8459   4.934   7.263   5.962
 2834TIP3    H2 8460   4.792   7.312   5.948
 2835TIP3   OH2 8461   2.973   6.952   5.503
 2835TIP3    H1 8462   3.063   6.922   5.491
 2835TIP3    H2 8463   2.925   6.914   5.430
 2836TIP3   OH2 8464   1.555   0.047   3.886
 2836TIP3    H1 8465   1.465   0.019   3.902
 2836TIP3    H2 8466   1.599  -0.031   3.852
 2837TIP3   OH2 8467   0.357   6.547   4.441
 2837TIP3    H1 8468   0.327   6.569   4.530
 2837TIP3    H2 8469   0.413   6.470   4.452
 2838TIP3   OH2 8470   4.269   2.355   3.827
 2838TIP3    H1 8471   4.347   2.310   3.857
 2838TIP3    H2 8472   4.236   2.300   3.756
 2839TIP3   OH2 8473   7.663   3.428   5.627
 2839TIP3    H1 8474   7.572   3.403   5.612
 2839TIP3    H2 8475   7.702   3.430   5.539
 2840TIP3   OH2 8476   4.306   0.786   5.005
 2840TIP3    H1 8477   4.329   0.875   5.031
 2840TIP3    H2 8478   4.345   0.775   4.918
 2841TIP3   OH2 8479   1.013   6.900   3.646
 2841TIP3    H1 8480   1.016   6.972   3.709
 2841TIP3    H2 8481   0.929   6.911   3.601
 2842TIP3   OH2 8482   3.258   3.633   2.307
 2842TIP3    H1 8483   3.298   3.705   2.357
 2842TIP3    H2 8484   3.318   3.560   2.319
 2843TIP3   OH2 8485   1.999   0.360   5.944
 2843TIP3    H1 8486   2.005   0.318   5.858
 2843TIP3    H2 8487   2.090   0.366   5.974
 2844TIP3   OH2 8488   6.792   7.649   3.977
 2844TIP3    H1 8489   6.782   7.700   4.057
 2844TIP3    H2 8490   6.737   7.572   3.989
 2845TIP3   OH2 8491   1.479   5.938   0.185
 2845TIP3    H1 8492   1.488   6.017   0.131
 2845TIP3    H2 8493   1.398   5.897   0.155
 2846TIP3   OH2 8494   3.420   6.467   5.138
 2846TIP3    H1 8495   3.377   6.552   5.146
 2846TIP3    H2 8496   3.388   6.417   5.214
 2847TIP3   OH2 8497   4.443   4.400   6.726
 2847TIP3    H1 8498   4.400   4.427   6.808
 2847TIP3    H2 8499   4.370   4.380   6.667
 2848TIP3   OH2 8500   6.330   7.507   5.850
 2848TIP3    H1 8501   6.425   7.496   5.850
 2848TIP3    H2 8502   6.300   7.455   5.775
 2849TIP3   OH2 8503   1.931   4.740   0.391
 2849TIP3    H1 8504   1.867   4.728   0.321
 2849TIP3    H2 8505   1.885   4.792   0.457
 2850TIP3   OH2 8506   3.549   5.543   4.407
 2850TIP3    H1 8507   3.595   5.593   4.340
 2850TIP3    H2 8508   3.591   5.568   4.489
 2851TIP3   OH2 8509   4.096   1.302   5.347
 2851TIP3    H1 8510   4.181   1.304   5.303
 2851TIP3    H2 8511   4.035   1.267   5.283
 2852TIP3   OH2 8512   8.141   5.419   3.212
 2852TIP3    H1 8513   8.135   5.494   3.152
 2852TIP3    H2 8514   8.070   5.361   3.184
 2853TIP3   OH2 8515   3.462   6.504   0.104
 2853TIP3    H1 8516   3.555   6.525   0.110
 2853TIP3    H2 8517   3.435   6.491   0.195
 2854TIP3   OH2 8518   0.624   3.342   2.865
 2854TIP3    H1 8519   0.583   3.272   2.814
 2854TIP3    H2 8520   0.651   3.299   2.946
 2855TIP3   OH2 8521   4.446   7.395   1.781
 2855TIP3    H1 8522   4.428   7.456   1.853
 2855TIP3    H2 8523   4.397   7.430   1.707
 2856TIP3   OH2 8524   1.689   7.436   3.399
 2856TIP3    H1 8525   1.724   7.434   3.310
 2856TIP3    H2 8526   1.739   7.368   3.445
 2857TIP3   OH2 8527   5.835   4.173   0.962
 2857TIP3    H1 8528   5.786   4.135   1.035
 2857TIP3    H2 8529   5.791   4.140   0.884
 2858TIP3   OH2 8530   5.618   1.958   3.982
 2858TIP3    H1 8531   5.616   2.050   3.954
 2858TIP3    H2 8532   5.684   1.917   3.927
 2859TIP3   OH2 8533   6.175   4.834   0.753
 2859TIP3    H1 8534   6.160   4.753   0.705
 2859TIP3    H2 8535   6.146   4.903   0.693
 2860TIP3   OH2 8536   2.340   4.856   1.055
 2860TIP3    H1 8537   2.422   4.826   1.094
 2860TIP3    H2 8538   2.364   4.884   0.966
 2861TIP3   OH2 8539   2.481   4.704   6.554
 2861TIP3    H1 8540   2.424   4.668   6.487
 2861TIP3    H2 8541   2.445   4.673   6.637
 2862TIP3   OH2 8542   5.727   1.388   4.665
 2862TIP3    H1 8543   5.717   1.293   4.666
 2862TIP3    H2 8544   5.818   1.402   4.692
 2863TIP3   OH2 8545   2.026   3.379   0.193
 2863TIP3    H1 8546   2.076   3.327   0.131
 2863TIP3    H2 8547   2.075   3.461   0.201
 2864TIP3   OH2 8548   1.105   3.179   5.172
 2864TIP3    H1 8549   1.137   3.106   5.225
 2864TIP3    H2 8550   1.015   3.193   5.202
 2865TIP3   OH2 8551   2.059   5.560   1.191
 2865TIP3    H1 8552   2.098   5.479   1.224
 2865TIP3    H2 8553   1.997   5.531   1.124
 2866TIP3   OH2 8554   5.035   2.437   4.266
 2866TIP3    H1 8555   5.046   2.463   4.358
 2866TIP3    H2 8556   5.122   2.445   4.228
 2867TIP3   OH2 8557   3.740   3.526   6.516
 2867TIP3    H1 8558   3.821   3.530   6.465
 2867TIP3    H2 8559   3.768   3.503   6.604
 2868TIP3   OH2 8560   0.524   6.225   3.105
 2868TIP3    H1 8561   0.533   6.241   3.011
 2868TIP3    H2 8562   0.532   6.311   3.145
 2869TIP3   OH2 8563   2.686   5.505   5.751
 2869TIP3    H1 8564   2.599   5.489   5.714
 2869TIP3    H2 8565   2.740   5.435   5.715
 2870TIP3   OH2 8566   2.071   1.259   5.517
 2870TIP3    H1 8567   2.001   1.271   5.582
 2870TIP3    H2 8568   2.090   1.165   5.520
 2871TIP3   OH2 8569   3.652   2.771   5.811
 2871TIP3    H1 8570   3.727   2.715   5.830
 2871TIP3    H2 8571   3.687   2.840   5.755
 2872TIP3   OH2 8572   3.547   3.118   4.057
 2872TIP3    H1 8573   3.640   3.134   4.040
 2872TIP3    H2 8574   3.501   3.163   3.985
 2873TIP3   OH2 8575   4.531   3.245   1.390
 2873TIP3    H1 8576   4.617   3.236   1.349
 2873TIP3    H2 8577   4.531   3.333   1.427
 2874TIP3   OH2 8578   0.844   5.788   2.196
 2874TIP3    H1 8579   0.803   5.872   2.217
 2874TIP3    H2 8580   0.867   5.750   2.281
 2875TIP3   OH2 8581   4.536   2.433   5.045
 2875TIP3    H1 8582   4.610   2.474   5.090
 2875TIP3    H2 8583   4.481   2.506   5.017
 2876TIP3   OH2 8584   7.337   0.961   1.686
 2876TIP3    H1 8585   7.332   0.873   1.724
 2876TIP3    H2 8586   7.427   0.968   1.655
 2877TIP3   OH2 8587   6.619   2.523   5.361
 2877TIP3    H1 8588   6.576   2.494   5.442
 2877TIP3    H2 8589   6.641   2.442   5.316
 2878TIP3   OH2 8590   0.033   4.726   0.525
 2878TIP3    H1 8591  -0.028   4.665   0.568
 2878TIP3    H2 8592   0.075   4.772   0.597
 2879TIP3   OH2 8593   6.149   5.645   1.906
 2879TIP3    H1 8594   6.219   5.593   1.947
 2879TIP3    H2 8595   6.072   5.629   1.960
 2880TIP3   OH2 8596   5.116   7.752   4.772
 2880TIP3    H1 8597   5.057   7.774   4.845
 2880TIP3    H2 8598   5.178   7.825   4.769
 2881TIP3   OH2 8599   1.883   0.549   5.571
 2881TIP3    H1 8600   1.896   0.455   5.585
 2881TIP3    H2 8601   1.942   0.571   5.499
 2882TIP3   OH2 8602   0.958   3.911   1.894
 2882TIP3    H1 8603   0.913   3.996   1.893
 2882TIP3    H2 8604   0.909   3.857   1.832
 2883TIP3   OH2 8605   4.342   5.024   4.823
 2883TIP3    H1 8606   4.400   4.968   4.771
 2883TIP3    H2 8607   4.256   4.983   4.815
 2884TIP3   OH2 8608   0.738   1.421   5.478
 2884TIP3    H1 8609   0.756   1.363   5.553
 2884TIP3    H2 8610   0.797   1.495   5.490
 2885TIP3   OH2 8611   6.012   7.283   4.426
 2885TIP3    H1 8612   5.991   7.375   4.441
 2885TIP3    H2 8613   5.951   7.236   4.482
 2886TIP3   OH2 8614   3.609   0.688   5.953
 2886TIP3    H1 8615   3.658   0.767   5.932
 2886TIP3    H2 8616   3.518   0.712   5.941
 2887TIP3   OH2 8617   0.967   0.863   0.505
 2887TIP3    H1 8618   0.957   0.772   0.480
 2887TIP3    H2 8619   1.021   0.860   0.584
 2888TIP3   OH2 8620   3.539   1.952   4.737
 2888TIP3    H1 8621   3.600   1.921   4.804
 2888TIP3    H2 8622   3.453   1.924   4.768
 2889TIP3   OH2 8623   5.757   5.587   2.740
 2889TIP3    H1 8624   5.699   5.660   2.721
 2889TIP3    H2 8625   5.715   5.511   2.700
 2890TIP3   OH2 8626   2.294   2.759   0.088
 2890TIP3    H1 8627   2.306   2.734  -0.003
 2890TIP3    H2 8628   2.230   2.831   0.085
 2891TIP3   OH2 8629   5.465   2.650   1.647
 2891TIP3    H1 8630   5.541   2.640   1.590
 2891TIP3    H2 8631   5.443   2.561   1.674
 2892TIP3   OH2 8632   6.848   0.304   6.208
 2892TIP3    H1 8633   6.765   0.301   6.161
 2892TIP3    H2 8634   6.825   0.279   6.298
 2893TIP3   OH2 8635   6.367   1.941   1.020
 2893TIP3    H1 8636   6.342   1.877   1.087
 2893TIP3    H2 8637   6.357   2.026   1.064
 2894TIP3   OH2 8638   6.174   5.623   6.663
 2894TIP3    H1 8639   6.189   5.669   6.581
 2894TIP3    H2 8640   6.227   5.543   6.656
 2895TIP3   OH2 8641   5.013   6.268   0.934
 2895TIP3    H1 8642   5.098   6.291   0.897
 2895TIP3    H2 8643   4.980   6.350   0.971
 2896TIP3   OH2 8644   5.206   2.765   2.717
 2896TIP3    H1 8645   5.257   2.821   2.659
 2896TIP3    H2 8646   5.260   2.755   2.795
 2897TIP3   OH2 8647   2.163   7.736   6.455
 2897TIP3    H1 8648   2.071   7.712   6.440
 2897TIP3    H2 8649   2.174   7.818   6.408
 2898TIP3   OH2 8650   6.796   3.093   2.617
 2898TIP3    H1 8651   6.728   3.026   2.626
 2898TIP3    H2 8652   6.790   3.143   2.698
 2899TIP3   OH2 8653   3.084   1.805   5.271
 2899TIP3    H1 8654   3.011   1.852   5.312
 2899TIP3    H2 8655   3.160   1.829   5.324
 2900TIP3   OH2 8656   4.608   6.743   0.434
 2900TIP3    H1 8657   4.628   6.742   0.341
 2900TIP3    H2 8658   4.665   6.810   0.471
 2901TIP3   OH2 8659   4.426   6.401   0.302
 2901TIP3    H1 8660   4.439   6.380   0.210
 2901TIP3    H2 8661   4.349   6.457   0.304
 2902TIP3   OH2 8662   1.703   1.376   3.722
 2902TIP3    H1 8663   1.728   1.423   3.801
 2902TIP3    H2 8664   1.610   1.358   3.733
 2903TIP3   OH2 8665   7.800   5.496   5.016
 2903TIP3    H1 8666   7.790   5.422   4.955
 2903TIP3    H2 8667   7.711   5.525   5.033
 2904TIP3   OH2 8668   8.101   4.206   2.344
 2904TIP3    H1 8669   8.167   4.177   2.281
 2904TIP3    H2 8670   8.151   4.253   2.410
 2905TIP3   OH2 8671   0.588   4.477   5.622
 2905TIP3    H1 8672   0.613   4.529   5.545
 2905TIP3    H2 8673   0.514   4.525   5.660
 2906TIP3   OH2 8674   3.107   1.193   3.960
 2906TIP3    H1 8675   3.174   1.261   3.961
 2906TIP3    H2 8676   3.059   1.207   3.878
 2907TIP3   OH2 8677   1.918   2.312   4.801
 2907TIP3    H1 8678   1.932   2.406   4.815
 2907TIP3    H2 8679   1.859   2.286   4.872
 2908TIP3   OH2 8680   4.139   3.989   1.779
 2908TIP3    H1 8681   4.107   4.076   1.754
 2908TIP3    H2 8682   4.144   3.991   1.874
 2909TIP3   OH2 8683   6.907   3.193   2.210
 2909TIP3    H1 8684   6.856   3.207   2.290
 2909TIP3    H2 8685   6.869   3.115   2.170
 2910TIP3   OH2 8686   4.982   0.126   2.909
 2910TIP3    H1 8687   5.045   0.197   2.907
 2910TIP3    H2 8688   4.907   0.161   2.958
 2911TIP3   OH2 8689   6.514   2.647   2.698
 2911TIP3    H1 8690   6.524   2.593   2.776
 2911TIP3    H2 8691   6.531   2.587   2.625
 2912TIP3   OH2 8692   3.307   7.647   5.969
 2912TIP3    H1 8693   3.345   7.584   6.030
 2912TIP3    H2 8694   3.266   7.593   5.901
 2913TIP3   OH2 8695   7.306   0.957   4.311
 2913TIP3    H1 8696   7.339   0.992   4.393
 2913TIP3    H2 8697   7.339   0.867   4.308
 2914TIP3   OH2 8698   0.235   3.231   2.277
 2914TIP3    H1 8699   0.312   3.215   2.331
 2914TIP3    H2 8700   0.161   3.221   2.337
 2915TIP3   OH2 8701   6.479   2.934   0.364
 2915TIP3    H1 8702   6.568   2.931   0.328
 2915TIP3    H2 8703   6.437   2.855   0.332
 2916TIP3   OH2 8704   7.092   2.890   3.109
 2916TIP3    H1 8705   7.120   2.960   3.051
 2916TIP3    H2 8706   7.145   2.901   3.188
 2917TIP3   OH2 8707   0.410   2.635   2.963
 2917TIP3    H1 8708   0.333   2.659   3.014
 2917TIP3    H2 8709   0.439   2.552   3.002
 2918TIP3   OH2 8710   8.009   4.848   4.561
 2918TIP3    H1 8711   7.917   4.838   4.539
 2918TIP3    H2 8712   8.027   4.778   4.623
 2919TIP3   OH2 8713   5.081   2.064   2.961
 2919TIP3    H1 8714   5.058   2.042   2.871
 2919TIP3    H2 8715   4.997   2.071   3.006
 2920TIP3   OH2 8716   5.274   6.309   5.986
 2920TIP3    H1 8717   5.325   6.305   6.067
 2920TIP3    H2 8718   5.251   6.218   5.968
 2921TIP3   OH2 8719   0.829   6.385   4.877
 2921TIP3    H1 8720   0.873   6.417   4.799
 2921TIP3    H2 8721   0.741   6.361   4.847
 2922TIP3   OH2 8722   1.412   3.606   2.288
 2922TIP3    H1 8723   1.483   3.615   2.225
 2922TIP3    H2 8724   1.453   3.619   2.373
 2923TIP3   OH2 8725   4.266   4.740   2.575
 2923TIP3    H1 8726   4.354   4.734   2.612
 2923TIP3    H2 8727   4.208   4.714   2.647
 2924TIP3   OH2 8728   1.437   7.701   4.350
 2924TIP3    H1 8729   1.469   7.693   4.260
 2924TIP3    H2 8730   1.389   7.620   4.365
 2925TIP3   OH2 8731   2.210   5.714   0.625
 2925TIP3    H1 8732   2.176   5.690   0.538
 2925TIP3    H2 8733   2.290   5.662   0.634
 2926TIP3   OH2 8734   4.542   1.075   4.404
 2926TIP3    H1 8735   4.580   1.143   4.460
 2926TIP3    H2 8736   4.448   1.085   4.416
 2927TIP3   OH2 8737   2.650   1.471   0.905
 2927TIP3    H1 8738   2.576   1.527   0.930
 2927TIP3    H2 8739   2.654   1.405   0.973
 2928TIP3   OH2 8740   2.129   0.845   2.785
 2928TIP3    H1 8741   2.149   0.772   2.845
 2928TIP3    H2 8742   2.130   0.922   2.841
 2929TIP3   OH2 8743   1.813   7.387   4.664
 2929TIP3    H1 8744   1.856   7.448   4.724
 2929TIP3    H2 8745   1.771   7.443   4.599
 2930TIP3   OH2 8746   7.144   6.165   4.418
 2930TIP3    H1 8747   7.166   6.254   4.390
 2930TIP3    H2 8748   7.094   6.128   4.345
 2931TIP3   OH2 8749   2.835   2.720   0.691
 2931TIP3    H1 8750   2.741   2.725   0.710
 2931TIP3    H2 8751   2.840   2.690   0.601
 2932TIP3   OH2 8752   1.905   6.196   0.492
 2932TIP3    H1 8753   1.850   6.219   0.417
 2932TIP3    H2 8754   1.906   6.275   0.547
 2933TIP3   OH2 8755   7.682   2.080   1.789
 2933TIP3    H1 8756   7.614   2.145   1.809
 2933TIP3    H2 8757   7.656   2.044   1.704
 2934TIP3   OH2 8758   3.232   0.908   4.313
 2934TIP3    H1 8759   3.143   0.877   4.329
 2934TIP3    H2 8760   3.276   0.833   4.273
 2935TIP3   OH2 8761   0.998   6.957   3.291
 2935TIP3    H1 8762   1.014   6.875   3.243
 2935TIP3    H2 8763   0.910   6.946   3.328
 2936TIP3   OH2 8764   0.684   4.417   3.876
 2936TIP3    H1 8765   0.759   4.411   3.934
 2936TIP3    H2 8766   0.658   4.510   3.880
 2937TIP3   OH2 8767   2.140   6.382   0.432
 2937TIP3    H1 8768   2.226   6.347   0.409
 2937TIP3    H2 8769   2.081   6.306   0.429
 2938TIP3   OH2 8770   5.656   5.666   0.787
 2938TIP3    H1 8771   5.617   5.753   0.791
 2938TIP3    H2 8772   5.673   5.643   0.878
 2939TIP3   OH2 8773   0.376   2.390   5.022
 2939TIP3    H1 8774   0.325   2.310   5.034
 2939TIP3    H2 8775   0.362   2.439   5.103
 2940TIP3   OH2 8776   5.959   7.733   3.642
 2940TIP3    H1 8777   5.992   7.675   3.712
 2940TIP3    H2 8778   5.990   7.692   3.561
 2941TIP3   OH2 8779   3.994   7.222   5.185
 2941TIP3    H1 8780   4.089   7.217   5.196
 2941TIP3    H2 8781   3.981   7.228   5.091
 2942TIP3   OH2 8782   2.676   4.484   2.686
 2942TIP3    H1 8783   2.628   4.409   2.719
 2942TIP3    H2 8784   2.719   4.521   2.763
 2943TIP3   OH2 8785   1.556   6.930   4.592
 2943TIP3    H1 8786   1.546   7.002   4.655
 2943TIP3    H2 8787   1.558   6.851   4.647
 2944TIP3   OH2 8788   1.983   0.529   1.734
 2944TIP3    H1 8789   2.017   0.596   1.674
 2944TIP3    H2 8790   1.889   0.545   1.737
 2945TIP3   OH2 8791   6.813   5.469   1.479
 2945TIP3    H1 8792   6.785   5.387   1.520
 2945TIP3    H2 8793   6.859   5.516   1.548
 2946TIP3   OH2 8794   4.941   1.399   0.186
 2946TIP3    H1 8795   4.939   1.444   0.270
 2946TIP3    H2 8796   5.022   1.429   0.144
 2947TIP3   OH2 8797   8.141   1.255   1.569
 2947TIP3    H1 8798   8.145   1.227   1.478
 2947TIP3    H2 8799   8.165   1.347   1.568
 2948TIP3   OH2 8800   6.226   6.561   3.830
 2948TIP3    H1 8801   6.233   6.476   3.873
 2948TIP3    H2 8802   6.165   6.547   3.758
 2949TIP3   OH2 8803   0.591   2.111   2.932
 2949TIP3    H1 8804   0.613   2.133   2.842
 2949TIP3    H2 8805   0.573   2.017   2.930
 2950TIP3   OH2 8806   2.264   2.889   4.523
 2950TIP3    H1 8807   2.263   2.977   4.560
 2950TIP3    H2 8808   2.336   2.890   4.459
 2951TIP3   OH2 8809   0.464   0.454   4.664
 2951TIP3    H1 8810   0.440   0.547   4.671
 2951TIP3    H2 8811   0.487   0.443   4.572
 2952TIP3   OH2 8812   7.244   7.383   5.125
 2952TIP3    H1 8813   7.201   7.447   5.068
 2952TIP3    H2 8814   7.173   7.329   5.158
 2953TIP3   OH2 8815   4.172   4.842   3.692
 2953TIP3    H1 8816   4.249   4.787   3.702
 2953TIP3    H2 8817   4.207   4.929   3.673
 2954TIP3   OH2 8818   2.197   7.794   6.716
 2954TIP3    H1 8819   2.185   7.798   6.621
 2954TIP3    H2 8820   2.114   7.758   6.749
 2955TIP3   OH2 8821   0.692   0.089   0.507
 2955TIP3    H1 8822   0.720   0.022   0.444
 2955TIP3    H2 8823   0.597   0.079   0.511
 2956TIP3   OH2 8824   6.350   3.026   1.755
 2956TIP3    H1 8825   6.313   2.944   1.789
 2956TIP3    H2 8826   6.298   3.094   1.797
 2957TIP3   OH2 8827   0.817   6.318   1.587
 2957TIP3    H1 8828   0.865   6.328   1.505
 2957TIP3    H2 8829   0.823   6.225   1.608
 2958TIP3   OH2 8830   3.112   6.043   6.035
 2958TIP3    H1 8831   3.126   6.085   5.950
 2958TIP3    H2 8832   3.019   6.018   6.033
 2959TIP3   OH2 8833   1.967   1.075   4.193
 2959TIP3    H1 8834   1.993   1.162   4.162
 2959TIP3    H2 8835   1.933   1.031   4.115
 2960TIP3   OH2 8836   4.237   6.863   1.464
 2960TIP3    H1 8837   4.282   6.785   1.498
 2960TIP3    H2 8838   4.217   6.841   1.373
 2961TIP3   OH2 8839   7.140   3.984   1.853
 2961TIP3    H1 8840   7.097   4.001   1.769
 2961TIP3    H2 8841   7.067   3.979   1.915
 2962TIP3   OH2 8842   4.254   0.974   3.143
 2962TIP3    H1 8843   4.340   0.983   3.101
 2962TIP3    H2 8844   4.201   1.043   3.103
 2963TIP3   OH2 8845   2.720   6.632   2.895
 2963TIP3    H1 8846   2.783   6.661   2.961
 2963TIP3    H2 8847   2.766   6.562   2.848
 2964TIP3   OH2 8848   3.491   3.105   0.687
 2964TIP3    H1 8849   3.484   3.108   0.591
 2964TIP3    H2 8850   3.571   3.153   0.707
 2965TIP3   OH2 8851   0.749   4.070   6.256
 2965TIP3    H1 8852   0.760   4.045   6.348
 2965TIP3    H2 8853   0.824   4.030   6.212
 2966TIP3   OH2 8854   0.570   6.582   1.329
 2966TIP3    H1 8855   0.584   6.570   1.235
 2966TIP3    H2 8856   0.519   6.663   1.335
 2967TIP3   OH2 8857   2.756   0.272   4.173
 2967TIP3    H1 8858   2.774   0.225   4.092
 2967TIP3    H2 8859   2.843   0.288   4.211
 2968TIP3   OH2 8860   7.677   7.611   0.679
 2968TIP3    H1 8861   7.722   7.599   0.762
 2968TIP3    H2 8862   7.683   7.705   0.662
 2969TIP3   OH2 8863   1.434   4.009   4.566
 2969TIP3    H1 8864   1.349   4.009   4.611
 2969TIP3    H2 8865   1.436   4.093   4.519
 2970TIP3   OH2 8866   0.468   5.409   4.328
 2970TIP3    H1 8867   0.424   5.469   4.269
 2970TIP3    H2 8868   0.553   5.449   4.345
 2971TIP3   OH2 8869   3.277   0.651   5.147
 2971TIP3    H1 8870   3.203   0.694   5.189
 2971TIP3    H2 8871   3.317   0.597   5.215
 2972TIP3   OH2 8872   2.797   0.770   0.833
 2972TIP3    H1 8873   2.878   0.722   0.850
 2972TIP3    H2 8874   2.820   0.862   0.844
 2973TIP3   OH2 8875   5.704   4.016   2.534
 2973TIP3    H1 8876   5.704   3.963   2.614
 2973TIP3    H2 8877   5.618   4.058   2.533
 2974TIP3   OH2 8878   3.514   0.248   2.312
 2974TIP3    H1 8879   3.466   0.295   2.381
 2974TIP3    H2 8880   3.595   0.219   2.355
 2975TIP3   OH2 8881   1.901   2.174   0.969
 2975TIP3    H1 8882   1.806   2.180   0.970
 2975TIP3    H2 8883   1.919   2.082   0.948
 2976TIP3   OH2 8884   5.758   0.268   3.246
 2976TIP3    H1 8885   5.770   0.329   3.173
 2976TIP3    H2 8886   5.821   0.198   3.229
 2977TIP3   OH2 8887   8.077   3.192   2.339
 2977TIP3    H1 8888   8.044   3.280   2.358
 2977TIP3    H2 8889   8.153   3.207   2.282
 2978TIP3   OH2 8890   5.462   5.820   5.501
 2978TIP3    H1 8891   5.372   5.817   5.533
 2978TIP3    H2 8892   5.459   5.877   5.424
 2979TIP3   OH2 8893   0.520   0.017   4.565
 2979TIP3    H1 8894   0.559   0.063   4.640
 2979TIP3    H2 8895   0.578   0.038   4.491
 2980TIP3   OH2 8896   3.961   5.435   2.537
 2980TIP3    H1 8897   4.005   5.496   2.479
 2980TIP3    H2 8898   3.869   5.439   2.511
 2981TIP3   OH2 8899   0.553   2.661   2.435
 2981TIP3    H1 8900   0.645   2.640   2.419
 2981TIP3    H2 8901   0.527   2.715   2.359
 2982TIP3   OH2 8902   1.478   4.409   6.617
 2982TIP3    H1 8903   1.390   4.425   6.651
 2982TIP3    H2 8904   1.514   4.341   6.674
 2983TIP3   OH2 8905   3.052   0.969   5.402
 2983TIP3    H1 8906   3.024   1.043   5.456
 2983TIP3    H2 8907   3.139   0.995   5.371
 2984TIP3   OH2 8908   4.777   5.053   0.506
 2984TIP3    H1 8909   4.710   5.078   0.442
 2984TIP3    H2 8910   4.777   5.124   0.571
 2985TIP3   OH2 8911   0.557   3.745   1.235
 2985TIP3    H1 8912   0.606   3.823   1.261
 2985TIP3    H2 8913   0.542   3.756   1.141
 2986TIP3   OH2 8914   7.497   0.502   5.890
 2986TIP3    H1 8915   7.589   0.507   5.862
 2986TIP3    H2 8916   7.465   0.592   5.886
 2987TIP3   OH2 8917   1.878   7.592   3.115
 2987TIP3    H1 8918   1.966   7.573   3.147
 2987TIP3    H2 8919   1.831   7.510   3.124
 2988TIP3   OH2 8920   7.834   3.163   1.967
 2988TIP3    H1 8921   7.843   3.077   2.009
 2988TIP3    H2 8922   7.823   3.142   1.874
 2989TIP3   OH2 8923   7.480   3.299   4.858
 2989TIP3    H1 8924   7.556   3.317   4.913
 2989TIP3    H2 8925   7.488   3.207   4.835
 2990TIP3   OH2 8926   2.454   4.194   1.263
 2990TIP3    H1 8927   2.476   4.224   1.175
 2990TIP3    H2 8928   2.422   4.272   1.308
 2991TIP3   OH2 8929   7.410   6.986   3.288
 2991TIP3    H1 8930   7.326   7.032   3.280
 2991TIP3    H2 8931   7.417   6.937   3.206
 2992TIP3   OH2 8932   4.559   4.201   4.505
 2992TIP3    H1 8933   4.576   4.288   4.543
 2992TIP3    H2 8934   4.642   4.155   4.516
 2993TIP3   OH2 8935   6.119   4.972   6.209
 2993TIP3    H1 8936   6.030   4.939   6.207
 2993TIP3    H2 8937   6.109   5.067   6.223
 2994TIP3   OH2 8938   1.129   7.838   5.484
 2994TIP3    H1 8939   1.066   7.803   5.548
 2994TIP3    H2 8940   1.179   7.762   5.455
 2995TIP3   OH2 8941   1.832   6.229   5.446
 2995TIP3    H1 8942   1.818   6.136   5.459
 2995TIP3    H2 8943   1.873   6.259   5.527
 2996TIP3   OH2 8944   0.147   5.070   5.698
 2996TIP3    H1 8945   0.106   5.147   5.736
 2996TIP3    H2 8946   0.181   5.021   5.773
 2997TIP3   OH2 8947   1.874   4.428   1.967
 2997TIP3    H1 8948   1.783   4.449   1.989
 2997TIP3    H2 8949   1.869   4.345   1.919
 2998TIP3   OH2 8950   7.371   0.388   0.720
 2998TIP3    H1 8951   7.453   0.372   0.768
 2998TIP3    H2 8952   7.336   0.467   0.760
 2999TIP3   OH2 8953   5.536   0.920   0.398
 2999TIP3    H1 8954   5.444   0.929   0.373
 2999TIP3    H2 8955   5.580   0.890   0.319
 3000TIP3   OH2 8956   7.092   4.663   4.921
 3000TIP3    H1 8957   7.088   4.579   4.877
 3000TIP3    H2 8958   7.184   4.676   4.942
 3001TIP3   OH2 8959   2.910   0.518   1.821
 3001TIP3    H1 8960   2.878   0.465   1.748
 3001TIP3    H2 8961   2.996   0.549   1.793
 3002TIP3   OH2 8962   1.617   0.193   0.317
 3002TIP3    H1 8963   1.665   0.138   0.379
 3002TIP3    H2 8964   1.550   0.235   0.369
 3003TIP3   OH2 8965   6.413   7.741   5.674
 3003TIP3    H1 8966   6.374   7.678   5.734
 3003TIP3    H2 8967   6.402   7.825   5.717
 3004TIP3   OH2 8968   3.458   3.027   3.127
 3004TIP3    H1 8969   3.369   3.046   3.159
 3004TIP3    H2 8970   3.463   2.932   3.127
 3005TIP3   OH2 8971   4.346   4.092   1.651
 3005TIP3    H1 8972   4.388   4.016   1.692
 3005TIP3    H2 8973   4.254   4.066   1.642
 3006TIP3   OH2 8974   2.450   0.930   0.927
 3006TIP3    H1 8975   2.389   0.998   0.900
 3006TIP3    H2 8976   2.533   0.954   0.886
 3007TIP3   OH2 8977   7.494   4.463   2.171
 3007TIP3    H1 8978   7.429   4.495   2.108
 3007TIP3    H2 8979   7.534   4.387   2.127
 3008TIP3   OH2 8980   2.478   4.859   2.700
 3008TIP3    H1 8981   2.535   4.910   2.641
 3008TIP3    H2 8982   2.496   4.895   2.787
 3009TIP3   OH2 8983   3.148   7.834   3.207
 3009TIP3    H1 8984   3.165   7.741   3.190
 3009TIP3    H2 8985   3.179   7.847   3.297
 3010TIP3   OH2 8986   3.702   5.197   2.673
 3010TIP3    H1 8987   3.633   5.233   2.618
 3010TIP3    H2 8988   3.767   5.164   2.611
 3011TIP3   OH2 8989   7.511   3.383   0.482
 3011TIP3    H1 8990   7.444   3.442   0.448
 3011TIP3    H2 8991   7.510   3.399   0.577
 3012TIP3   OH2 8992   6.173   0.403   6.732
 3012TIP3    H1 8993   6.079   0.404   6.713
 3012TIP3    H2 8994   6.188   0.481   6.786
 3013TIP3   OH2 8995   5.067   7.080   1.668
 3013TIP3    H1 8996   5.029   7.155   1.715
 3013TIP3    H2 8997   5.103   7.118   1.588
 3014TIP3   OH2 8998   3.845   5.934   2.995
 3014TIP3    H1 8999   3.774   5.941   2.931
 3014TIP3    H2 9000   3.851   5.840   3.014
 3015TIP3   OH2 9001   6.430   0.516   1.832
 3015TIP3    H1 9002   6.506   0.573   1.849
 3015TIP3    H2 9003   6.459   0.429   1.856
 3016TIP3   OH2 9004   6.341   4.640   0.975
 3016TIP3    H1 9005   6.432   4.654   0.949
 3016TIP3    H2 9006   6.303   4.592   0.901
 3017TIP3   OH2 9007   0.037   0.057   5.558
 3017TIP3    H1 9008  -0.015   0.093   5.486
 3017TIP3    H2 9009   0.049   0.130   5.618
 3018TIP3   OH2 9010   6.587   1.617   1.090
 3018TIP3    H1 9011   6.579   1.533   1.135
 3018TIP3    H2 9012   6.596   1.681   1.161
 3019TIP3   OH2 9013   3.884   4.122   4.560
 3019TIP3    H1 9014   3.825   4.053   4.528
 3019TIP3    H2 9015   3.956   4.123   4.496
 3020TIP3   OH2 9016   4.988   2.385   3.802
 3020TIP3    H1 9017   4.975   2.430   3.885
 3020TIP3    H2 9018   4.969   2.293   3.822
 3021TIP3   OH2 9019   3.493   7.412   1.795
 3021TIP3    H1 9020   3.412   7.449   1.760
 3021TIP3    H2 9021   3.472   7.391   1.886
 3022TIP3   OH2 9022   2.145   1.353   2.429
 3022TIP3    H1 9023   2.154   1.375   2.522
 3022TIP3    H2 9024   2.219   1.395   2.387
 3023TIP3   OH2 9025   3.942   3.665   3.269
 3023TIP3    H1 9026   4.033   3.641   3.256
 3023TIP3    H2 9027   3.940   3.760   3.259
 3024TIP3   OH2 9028   3.203   6.952   0.653
 3024TIP3    H1 9029   3.265   6.990   0.716
 3024TIP3    H2 9030   3.148   7.025   0.626
 3025TIP3   OH2 9031   7.322   5.630   2.188
 3025TIP3    H1 9032   7.400   5.621   2.244
 3025TIP3    H2 9033   7.328   5.556   2.127
 3026TIP3   OH2 9034   2.816   3.073   4.841
 3026TIP3    H1 9035   2.868   3.044   4.766
 3026TIP3    H2 9036   2.746   3.008   4.848
 3027TIP3   OH2 9037   6.208   3.457   2.863
 3027TIP3    H1 9038   6.182   3.402   2.789
 3027TIP3    H2 9039   6.205   3.399   2.939
 3028TIP3   OH2 9040   3.137   3.130   4.847
 3028TIP3    H1 9041   3.095   3.188   4.783
 3028TIP3    H2 9042   3.104   3.043   4.826
 3029TIP3   OH2 9043   5.177   4.536   0.810
 3029TIP3    H1 9044   5.178   4.548   0.715
 3029TIP3    H2 9045   5.104   4.476   0.825
 3030TIP3   OH2 9046   2.974   2.983   0.386
 3030TIP3    H1 9047   3.057   2.958   0.346
 3030TIP3    H2 9048   2.950   2.908   0.440
 3031TIP3   OH2 9049   5.823   1.258   6.262
 3031TIP3    H1 9050   5.742   1.208   6.271
 3031TIP3    H2 9051   5.892   1.192   6.269
 3032TIP3   OH2 9052   0.066   4.201   1.817
 3032TIP3    H1 9053  -0.018   4.184   1.860
 3032TIP3    H2 9054   0.061   4.292   1.788
 3033TIP3   OH2 9055   4.133   6.063   3.362
 3033TIP3    H1 9056   4.114   6.133   3.424
 3033TIP3    H2 9057   4.070   6.077   3.291
 3034TIP3   OH2 9058   7.674   3.073   3.097
 3034TIP3    H1 9059   7.709   3.000   3.148
 3034TIP3    H2 9060   7.689   3.150   3.153
 3035TIP3   OH2 9061   1.971   7.710   1.324
 3035TIP3    H1 9062   2.044   7.741   1.377
 3035TIP3    H2 9063   1.930   7.642   1.377
 3036TIP3   OH2 9064   0.799   7.542   6.471
 3036TIP3    H1 9065   0.706   7.539   6.495
 3036TIP3    H2 9066   0.806   7.617   6.412
 3037TIP3   OH2 9067   6.442   4.404   4.008
 3037TIP3    H1 9068   6.377   4.375   4.071
 3037TIP3    H2 9069   6.522   4.414   4.059
 3038TIP3   OH2 9070   4.829   3.818   5.873
 3038TIP3    H1 9071   4.889   3.773   5.814
 3038TIP3    H2 9072   4.768   3.863   5.815
 3039TIP3   OH2 9073   0.943   7.155   4.612
 3039TIP3    H1 9074   0.880   7.136   4.543
 3039TIP3    H2 9075   1.022   7.107   4.586
 3040TIP3   OH2 9076   0.686   5.899   5.420
 3040TIP3    H1 9077   0.635   5.833   5.466
 3040TIP3    H2 9078   0.775   5.887   5.453
 3041TIP3   OH2 9079   7.306   3.000   0.461
 3041TIP3    H1 9080   7.304   2.995   0.365
 3041TIP3    H2 9081   7.258   2.923   0.490
 3042TIP3   OH2 9082   8.101   6.862   2.895
 3042TIP3    H1 9083   8.095   6.951   2.928
 3042TIP3    H2 9084   8.151   6.815   2.962
 3043TIP3   OH2 9085   5.548   1.912   4.233
 3043TIP3    H1 9086   5.570   1.941   4.145
 3043TIP3    H2 9087   5.613   1.844   4.253
 3044TIP3   OH2 9088   7.599   0.380   5.148
 3044TIP3    H1 9089   7.683   0.408   5.112
 3044TIP3    H2 9090   7.596   0.418   5.235
 3045TIP3   OH2 9091   3.984   7.712   1.173
 3045TIP3    H1 9092   4.046   7.763   1.122
 3045TIP3    H2 9093   3.919   7.682   1.109
 3046TIP3   OH2 9094   4.677   6.825   6.551
 3046TIP3    H1 9095   4.605   6.792   6.604
 3046TIP3    H2 9096   4.756   6.798   6.598
 3047TIP3   OH2 9097   0.724   7.605   2.730
 3047TIP3    H1 9098   0.658   7.555   2.683
 3047TIP3    H2 9099   0.807   7.562   2.708
 3048TIP3   OH2 9100   1.117   6.733   4.222
 3048TIP3    H1 9101   1.211   6.716   4.211
 3048TIP3    H2 9102   1.086   6.753   4.134
 3049TIP3   OH2 9103   4.738   6.721   1.172
 3049TIP3    H1 9104   4.763   6.687   1.086
 3049TIP3    H2 9105   4.750   6.646   1.231
 3050TIP3   OH2 9106   2.120   6.559   4.935
 3050TIP3    H1 9107   2.203   6.515   4.920
 3050TIP3    H2 9108   2.072   6.549   4.852
 3051TIP3   OH2 9109   3.615   0.667   5.535
 3051TIP3    H1 9110   3.580   0.738   5.588
 3051TIP3    H2 9111   3.570   0.589   5.567
 3052TIP3   OH2 9112   6.388   2.248   0.644
 3052TIP3    H1 9113   6.345   2.241   0.559
 3052TIP3    H2 9114   6.364   2.168   0.690
 3053TIP3   OH2 9115   3.799   6.410   0.586
 3053TIP3    H1 9116   3.855   6.335   0.566
 3053TIP3    H2 9117   3.851   6.462   0.647
 3054TIP3   OH2 9118   3.691   7.150   2.834
 3054TIP3    H1 9119   3.764   7.193   2.790
 3054TIP3    H2 9120   3.613   7.181   2.788
 3055TIP3   OH2 9121   0.259   4.094   2.023
 3055TIP3    H1 9122   0.216   4.008   2.024
 3055TIP3    H2 9123   0.205   4.147   1.965
 3056TIP3   OH2 9124   7.462   2.460   2.644
 3056TIP3    H1 9125   7.466   2.520   2.719
 3056TIP3    H2 9126   7.553   2.437   2.626
 3057TIP3   OH2 9127   6.594   3.590   4.821
 3057TIP3    H1 9128   6.547   3.513   4.853
 3057TIP3    H2 9129   6.568   3.661   4.880
 3058TIP3   OH2 9130   4.305   6.027   3.083
 3058TIP3    H1 9131   4.295   6.076   3.001
 3058TIP3    H2 9132   4.216   6.014   3.114
 3059TIP3   OH2 9133   4.455   5.715   4.430
 3059TIP3    H1 9134   4.435   5.648   4.495
 3059TIP3    H2 9135   4.407   5.688   4.351
 3060TIP3   OH2 9136   6.673   0.294   3.844
 3060TIP3    H1 9137   6.681   0.218   3.901
 3060TIP3    H2 9138   6.592   0.279   3.796
 3061TIP3   OH2 9139   6.905   0.539   2.255
 3061TIP3    H1 9140   6.831   0.506   2.305
 3061TIP3    H2 9141   6.953   0.594   2.317
 3062TIP3   OH2 9142   2.523   4.231   0.961
 3062TIP3    H1 9143   2.468   4.197   0.889
 3062TIP3    H2 9144   2.528   4.325   0.946
 3063TIP3   OH2 9145   0.764   2.662   3.184
 3063TIP3    H1 9146   0.746   2.589   3.125
 3063TIP3    H2 9147   0.815   2.723   3.131
 3064TIP3   OH2 9148   1.671   1.605   6.298
 3064TIP3    H1 9149   1.732   1.533   6.278
 3064TIP3    H2 9150   1.728   1.679   6.320
 3065TIP3   OH2 9151   3.487   7.547   1.310
 3065TIP3    H1 9152   3.576   7.523   1.285
 3065TIP3    H2 9153   3.433   7.521   1.235
 3066TIP3   OH2 9154   3.131   6.541   2.858
 3066TIP3    H1 9155   3.134   6.595   2.779
 3066TIP3    H2 9156   3.176   6.594   2.925
 3067TIP3   OH2 9157   0.103   7.652   3.814
 3067TIP3    H1 9158   0.012   7.655   3.782
 3067TIP3    H2 9159   0.115   7.735   3.860
 3068TIP3   OH2 9160   0.722   4.041   5.073
 3068TIP3    H1 9161   0.695   3.949   5.075
 3068TIP3    H2 9162   0.761   4.052   4.986
 3069TIP3   OH2 9163   5.022   2.403   0.940
 3069TIP3    H1 9164   4.948   2.377   0.995
 3069TIP3    H2 9165   4.999   2.491   0.910
 3070TIP3   OH2 9166   6.951   6.536   0.282
 3070TIP3    H1 9167   6.928   6.525   0.374
 3070TIP3    H2 9168   6.958   6.446   0.249
 3071TIP3   OH2 9169   6.915   0.698   5.074
 3071TIP3    H1 9170   6.942   0.690   5.166
 3071TIP3    H2 9171   6.873   0.784   5.069
 3072TIP3   OH2 9172   3.744   1.331   6.765
 3072TIP3    H1 9173   3.662   1.320   6.716
 3072TIP3    H2 9174   3.809   1.351   6.697
 3073TIP3   OH2 9175   5.406   3.029   0.400
 3073TIP3    H1 9176   5.384   2.982   0.480
 3073TIP3    H2 9177   5.325   3.077   0.378
 3074TIP3   OH2 9178   7.860   2.833   5.769
 3074TIP3    H1 9179   7.799   2.842   5.695
 3074TIP3    H2 9180   7.905   2.917   5.773
 3075TIP3   OH2 9181   3.779   4.608   3.836
 3075TIP3    H1 9182   3.832   4.529   3.849
 3075TIP3    H2 9183   3.714   4.584   3.770
 3076TIP3   OH2 9184   3.745   1.867   3.966
 3076TIP3    H1 9185   3.727   1.794   4.025
 3076TIP3    H2 9186   3.821   1.911   4.004
 3077TIP3   OH2 9187   5.344   1.323   0.344
 3077TIP3    H1 9188   5.317   1.410   0.316
 3077TIP3    H2 9189   5.263   1.272   0.347
 3078TIP3   OH2 9190   4.848   7.651   2.587
 3078TIP3    H1 9191   4.800   7.595   2.648
 3078TIP3    H2 9192   4.924   7.598   2.561
 3079TIP3   OH2 9193   4.765   2.710   0.247
 3079TIP3    H1 9194   4.832   2.729   0.313
 3079TIP3    H2 9195   4.687   2.688   0.298
 3080TIP3   OH2 9196   0.704   3.561   2.725
 3080TIP3    H1 9197   0.752   3.614   2.789
 3080TIP3    H2 9198   0.686   3.479   2.770
 3081TIP3   OH2 9199   3.111   1.508   2.768
 3081TIP3    H1 9200   3.177   1.482   2.831
 3081TIP3    H2 9201   3.088   1.598   2.793
 3082TIP3   OH2 9202   4.672   1.642   5.902
 3082TIP3    H1 9203   4.622   1.706   5.952
 3082TIP3    H2 9204   4.681   1.567   5.960
 3083TIP3   OH2 9205   0.103   3.657   6.456
 3083TIP3    H1 9206   0.103   3.562   6.444
 3083TIP3    H2 9207   0.023   3.686   6.412
 3084TIP3   OH2 9208   5.507   1.140   5.253
 3084TIP3    H1 9209   5.564   1.079   5.302
 3084TIP3    H2 9210   5.519   1.114   5.162
 3085TIP3   OH2 9211   2.163   3.010   5.203
 3085TIP3    H1 9212   2.166   3.083   5.142
 3085TIP3    H2 9213   2.205   2.938   5.155
 3086TIP3   OH2 9214   1.934   7.025   0.184
 3086TIP3    H1 9215   2.002   7.069   0.235
 3086TIP3    H2 9216   1.891   7.096   0.137
 3087TIP3   OH2 9217   1.482   2.223   0.249
 3087TIP3    H1 9218   1.526   2.292   0.201
 3087TIP3    H2 9219   1.488   2.249   0.341
 3088TIP3   OH2 9220   2.395   2.426   6.201
 3088TIP3    H1 9221   2.490   2.437   6.205
 3088TIP3    H2 9222   2.379   2.385   6.116
 3089TIP3   OH2 9223   3.009   5.103   4.468
 3089TIP3    H1 9224   2.964   5.165   4.525
 3089TIP3    H2 9225   3.056   5.044   4.528
 3090TIP3   OH2 9226   5.108   2.832   1.749
 3090TIP3    H1 9227   5.095   2.752   1.800
 3090TIP3    H2 9228   5.079   2.809   1.660
 3091TIP3   OH2 9229   4.800   5.016   5.761
 3091TIP3    H1 9230   4.886   5.055   5.777
 3091TIP3    H2 9231   4.810   4.970   5.677
 3092TIP3   OH2 9232   6.593   1.236   4.539
 3092TIP3    H1 9233   6.669   1.243   4.481
 3092TIP3    H2 9234   6.539   1.312   4.518
 3093TIP3   OH2 9235   3.558   3.175   6.376
 3093TIP3    H1 9236   3.640   3.157   6.331
 3093TIP3    H2 9237   3.512   3.091   6.376
 3094TIP3   OH2 9238   2.046   2.711   3.527
 3094TIP3    H1 9239   2.064   2.707   3.434
 3094TIP3    H2 9240   2.125   2.747   3.566
 3095TIP3   OH2 9241   4.063   2.023   4.028
 3095TIP3    H1 9242   4.136   1.980   4.073
 3095TIP3    H2 9243   4.094   2.037   3.939
 3096TIP3   OH2 9244   8.141   5.652   3.539
 3096TIP3    H1 9245   8.186   5.706   3.604
 3096TIP3    H2 9246   8.150   5.700   3.457
 3097TIP3   OH2 9247   6.443   0.234   1.565
 3097TIP3    H1 9248   6.483   0.181   1.495
 3097TIP3    H2 9249   6.351   0.238   1.542
 3098TIP3   OH2 9250   7.785   7.053   3.879
 3098TIP3    H1 9251   7.798   7.141   3.845
 3098TIP3    H2 9252   7.811   7.058   3.971
 3099TIP3   OH2 9253   0.478   5.000   2.518
 3099TIP3    H1 9254   0.552   5.059   2.507
 3099TIP3    H2 9255   0.401   5.056   2.512
 3100TIP3   OH2 9256   1.390   3.758   6.106
 3100TIP3    H1 9257   1.483   3.733   6.111
 3100TIP3    H2 9258   1.365   3.736   6.016
 3101TIP3   OH2 9259   4.176   6.484   2.137
 3101TIP3    H1 9260   4.231   6.529   2.201
 3101TIP3    H2 9261   4.230   6.480   2.058
 3102TIP3   OH2 9262   5.691   2.026   2.689
 3102TIP3    H1 9263   5.635   2.069   2.625
 3102TIP3    H2 9264   5.770   2.081   2.694
 3103TIP3   OH2 9265   7.453   6.295   0.343
 3103TIP3    H1 9266   7.405   6.369   0.379
 3103TIP3    H2 9267   7.428   6.292   0.251
 3104TIP3   OH2 9268   0.838   6.837   6.442
 3104TIP3    H1 9269   0.864   6.803   6.528
 3104TIP3    H2 9270   0.810   6.927   6.460
 3105TIP3   OH2 9271   7.029   4.223   2.366
 3105TIP3    H1 9272   6.996   4.280   2.296
 3105TIP3    H2 9273   6.962   4.155   2.375
 3106TIP3   OH2 9274   3.307   0.578   5.407
 3106TIP3    H1 9275   3.330   0.487   5.393
 3106TIP3    H2 9276   3.251   0.576   5.485
 3107TIP3   OH2 9277   2.758   4.909   2.555
 3107TIP3    H1 9278   2.705   4.943   2.484
 3107TIP3    H2 9279   2.843   4.889   2.515
 3108TIP3   OH2 9280   1.963   7.133   6.668
 3108TIP3    H1 9281   2.010   7.141   6.585
 3108TIP3    H2 9282   1.948   7.039   6.678
 3109TIP3   OH2 9283   6.555   6.237   4.116
 3109TIP3    H1 9284   6.560   6.301   4.045
 3109TIP3    H2 9285   6.598   6.280   4.190
 3110TIP3   OH2 9286   6.397   4.827   5.370
 3110TIP3    H1 9287   6.402   4.921   5.386
 3110TIP3    H2 9288   6.423   4.816   5.279
 3111TIP3   OH2 9289   7.206   7.179   3.226
 3111TIP3    H1 9290   7.183   7.245   3.160
 3111TIP3    H2 9291   7.123   7.134   3.245
 3112TIP3   OH2 9292   4.449   7.177   0.601
 3112TIP3    H1 9293   4.407   7.094   0.622
 3112TIP3    H2 9294   4.402   7.241   0.654
 3113TIP3   OH2 9295   2.961   0.914   2.428
 3113TIP3    H1 9296   2.873   0.894   2.395
 3113TIP3    H2 9297   2.952   0.998   2.471
 3114TIP3   OH2 9298   5.284   2.619   3.085
 3114TIP3    H1 9299   5.212   2.576   3.039
 3114TIP3    H2 9300   5.258   2.711   3.088
 3115TIP3   OH2 9301   5.187   3.590   3.826
 3115TIP3    H1 9302   5.094   3.600   3.804
 3115TIP3    H2 9303   5.204   3.497   3.819
 3116TIP3   OH2 9304   7.360   1.795   1.312
 3116TIP3    H1 9305   7.394   1.706   1.326
 3116TIP3    H2 9306   7.413   1.829   1.240
 3117TIP3   OH2 9307   6.282   4.552   5.656
 3117TIP3    H1 9308   6.222   4.618   5.691
 3117TIP3    H2 9309   6.357   4.553   5.715
 3118TIP3   OH2 9310   1.733   5.096   2.313
 3118TIP3    H1 9311   1.737   5.125   2.404
 3118TIP3    H2 9312   1.811   5.041   2.302
 3119TIP3   OH2 9313   1.514   0.979   6.389
 3119TIP3    H1 9314   1.522   1.075   6.389
 3119TIP3    H2 9315   1.558   0.953   6.307
 3120TIP3   OH2 9316   4.352   7.176   0.953
 3120TIP3    H1 9317   4.261   7.146   0.951
 3120TIP3    H2 9318   4.401   7.108   0.905
 3121TIP3   OH2 9319   2.875   4.036   3.139
 3121TIP3    H1 9320   2.902   4.049   3.230
 3121TIP3    H2 9321   2.781   4.055   3.139
 3122TIP3   OH2 9322   4.203   4.899   1.782
 3122TIP3    H1 9323   4.140   4.966   1.809
 3122TIP3    H2 9324   4.272   4.902   1.848
 3123TIP3   OH2 9325   0.961   0.885   3.103
 3123TIP3    H1 9326   0.925   0.970   3.076
 3123TIP3    H2 9327   1.055   0.893   3.091
 3124TIP3   OH2 9328   2.594   1.738   3.184
 3124TIP3    H1 9329   2.534   1.722   3.111
 3124TIP3    H2 9330   2.539   1.725   3.262
 3125TIP3   OH2 9331   3.041   4.442   0.080
 3125TIP3    H1 9332   3.081   4.355   0.081
 3125TIP3    H2 9333   3.040   4.468   0.173
 3126TIP3   OH2 9334   5.747   1.293   1.957
 3126TIP3    H1 9335   5.760   1.268   1.865
 3126TIP3    H2 9336   5.768   1.387   1.958
 3127TIP3   OH2 9337   1.383   6.362   2.213
 3127TIP3    H1 9338   1.343   6.337   2.297
 3127TIP3    H2 9339   1.310   6.369   2.152
 3128TIP3   OH2 9340   5.314   4.408   1.121
 3128TIP3    H1 9341   5.292   4.489   1.075
 3128TIP3    H2 9342   5.408   4.413   1.136
 3129TIP3   OH2 9343   5.947   0.768   4.734
 3129TIP3    H1 9344   5.989   0.768   4.648
 3129TIP3    H2 9345   5.854   0.777   4.715
 3130TIP3   OH2 9346   0.351   2.890   0.922
 3130TIP3    H1 9347   0.322   2.902   1.013
 3130TIP3    H2 9348   0.382   2.976   0.895
 3131TIP3   OH2 9349   7.899   0.772   6.078
 3131TIP3    H1 9350   7.896   0.845   6.140
 3131TIP3    H2 9351   7.808   0.742   6.072
 3132TIP3   OH2 9352   3.055   1.840   2.024
 3132TIP3    H1 9353   3.111   1.797   2.089
 3132TIP3    H2 9354   3.116   1.868   1.955
 3133TIP3   OH2 9355   3.545   5.536   6.393
 3133TIP3    H1 9356   3.483   5.500   6.457
 3133TIP3    H2 9357   3.492   5.548   6.314
 3134TIP3   OH2 9358   2.697   6.479   4.239
 3134TIP3    H1 9359   2.747   6.455   4.161
 3134TIP3    H2 9360   2.712   6.573   4.250
 3135TIP3   OH2 9361   0.968   1.441   5.795
 3135TIP3    H1 9362   0.958   1.484   5.710
 3135TIP3    H2 9363   1.059   1.411   5.796
 3136TIP3   OH2 9364   5.097   5.408   3.156
 3136TIP3    H1 9365   5.125   5.317   3.143
 3136TIP3    H2 9366   5.094   5.419   3.251
 3137TIP3   OH2 9367   1.247   2.708   5.347
 3137TIP3    H1 9368   1.168   2.748   5.311
 3137TIP3    H2 9369   1.308   2.781   5.359
 3138TIP3   OH2 9370   7.146   1.429   6.470
 3138TIP3    H1 9371   7.229   1.453   6.431
 3138TIP3    H2 9372   7.155   1.453   6.563
 3139TIP3   OH2 9373   0.731   6.711   5.310
 3139TIP3    H1 9374   0.658   6.750   5.263
 3139TIP3    H2 9375   0.708   6.618   5.318
 3140TIP3   OH2 9376   7.349   2.045   6.273
 3140TIP3    H1 9377   7.292   2.075   6.202
 3140TIP3    H2 9378   7.436   2.044   6.233
 3141TIP3   OH2 9379   1.889   1.914   6.626
 3141TIP3    H1 9380   1.939   1.931   6.706
 3141TIP3    H2 9381   1.901   1.821   6.609
 3142TIP3   OH2 9382   6.514   4.310   0.795
 3142TIP3    H1 9383   6.577   4.377   0.822
 3142TIP3    H2 9384   6.429   4.354   0.802
 3143TIP3   OH2 9385   4.723   6.922   0.265
 3143TIP3    H1 9386   4.739   6.937   0.172
 3143TIP3    H2 9387   4.809   6.900   0.301
 3144TIP3   OH2 9388   4.495   1.104   3.604
 3144TIP3    H1 9389   4.436   1.061   3.541
 3144TIP3    H2 9390   4.447   1.102   3.686
 3145TIP3   OH2 9391   4.278   5.509   0.700
 3145TIP3    H1 9392   4.235   5.432   0.736
 3145TIP3    H2 9393   4.348   5.474   0.644
 3146TIP3   OH2 9394   6.057   0.432   4.442
 3146TIP3    H1 9395   6.025   0.344   4.423
 3146TIP3    H2 9396   6.079   0.468   4.357
 3147TIP3   OH2 9397   4.643   0.524   3.823
 3147TIP3    H1 9398   4.650   0.611   3.862
 3147TIP3    H2 9399   4.549   0.505   3.824
 3148TIP3   OH2 9400   8.212   1.859   1.641
 3148TIP3    H1 9401   8.137   1.917   1.644
 3148TIP3    H2 9402   8.266   1.885   1.716
 3149TIP3   OH2 9403   3.932   4.205   0.373
 3149TIP3    H1 9404   3.980   4.182   0.294
 3149TIP3    H2 9405   3.943   4.129   0.431
 3150TIP3   OH2 9406   2.269   2.498   5.585
 3150TIP3    H1 9407   2.311   2.420   5.547
 3150TIP3    H2 9408   2.226   2.540   5.511
 3151TIP3   OH2 9409   3.412   5.991   1.170
 3151TIP3    H1 9410   3.465   5.944   1.106
 3151TIP3    H2 9411   3.358   6.050   1.117
 3152TIP3   OH2 9412   4.779   7.173   3.878
 3152TIP3    H1 9413   4.867   7.208   3.863
 3152TIP3    H2 9414   4.791   7.078   3.874
 3153TIP3   OH2 9415   7.052   2.927   0.156
 3153TIP3    H1 9416   7.015   3.011   0.183
 3153TIP3    H2 9417   7.081   2.942   0.066
 3154TIP3   OH2 9418   0.912   1.608   2.123
 3154TIP3    H1 9419   0.986   1.567   2.079
 3154TIP3    H2 9420   0.911   1.698   2.090
 3155TIP3   OH2 9421   0.959   6.585   3.371
 3155TIP3    H1 9422   1.041   6.592   3.321
 3155TIP3    H2 9423   0.977   6.629   3.454
 3156TIP3   OH2 9424   2.911   4.628   2.079
 3156TIP3    H1 9425   2.999   4.608   2.112
 3156TIP3    H2 9426   2.874   4.543   2.057
 3157TIP3   OH2 9427   4.720   0.019   0.913
 3157TIP3    H1 9428   4.731  -0.055   0.854
 3157TIP3    H2 9429   4.627   0.040   0.909
 3158TIP3   OH2 9430   6.740   4.053   4.691
 3158TIP3    H1 9431   6.684   3.988   4.647
 3158TIP3    H2 9432   6.828   4.018   4.682
 3159TIP3   OH2 9433   6.341   1.004   1.856
 3159TIP3    H1 9434   6.429   1.005   1.893
 3159TIP3    H2 9435   6.302   1.086   1.887
 3160TIP3   OH2 9436   0.101   3.845   2.107
 3160TIP3    H1 9437   0.049   3.793   2.045
 3160TIP3    H2 9438   0.142   3.779   2.163
 3161TIP3   OH2 9439   0.110   6.045   3.774
 3161TIP3    H1 9440   0.166   6.084   3.707
 3161TIP3    H2 9441   0.072   6.120   3.820
 3162TIP3   OH2 9442   6.191   5.726   1.249
 3162TIP3    H1 9443   6.262   5.663   1.263
 3162TIP3    H2 9444   6.138   5.720   1.328
 3163TIP3   OH2 9445   4.315   5.798   5.317
 3163TIP3    H1 9446   4.226   5.815   5.288
 3163TIP3    H2 9447   4.306   5.727   5.381
 3164TIP3   OH2 9448   5.243   6.960   5.799
 3164TIP3    H1 9449   5.242   7.051   5.769
 3164TIP3    H2 9450   5.173   6.918   5.749
 3165TIP3   OH2 9451   6.163   0.559   5.562
 3165TIP3    H1 9452   6.194   0.544   5.472
 3165TIP3    H2 9453   6.069   0.541   5.557
 3166TIP3   OH2 9454   2.760   7.273   1.521
 3166TIP3    H1 9455   2.743   7.186   1.484
 3166TIP3    H2 9456   2.797   7.322   1.448
 3167TIP3   OH2 9457   4.356   2.286   1.978
 3167TIP3    H1 9458   4.383   2.369   2.018
 3167TIP3    H2 9459   4.425   2.224   2.002
 3168TIP3   OH2 9460   6.669   6.650   4.877
 3168TIP3    H1 9461   6.700   6.565   4.844
 3168TIP3    H2 9462   6.730   6.713   4.839
 3169TIP3   OH2 9463   3.274   5.313   0.954
 3169TIP3    H1 9464   3.260   5.219   0.964
 3169TIP3    H2 9465   3.369   5.323   0.955
 3170TIP3   OH2 9466   2.858   2.822   2.202
 3170TIP3    H1 9467   2.816   2.903   2.232
 3170TIP3    H2 9468   2.792   2.778   2.149
 3171TIP3   OH2 9469   7.729   3.273   6.318
 3171TIP3    H1 9470   7.741   3.254   6.225
 3171TIP3    H2 9471   7.813   3.251   6.358
 3172TIP3   OH2 9472   0.101   4.266   0.517
 3172TIP3    H1 9473   0.124   4.324   0.444
 3172TIP3    H2 9474   0.165   4.195   0.511
 3173TIP3   OH2 9475   5.301   1.302   2.646
 3173TIP3    H1 9476   5.377   1.246   2.663
 3173TIP3    H2 9477   5.252   1.300   2.728
 3174TIP3   OH2 9478   1.938   6.257   3.122
 3174TIP3    H1 9479   1.906   6.175   3.160
 3174TIP3    H2 9480   1.907   6.325   3.182
 3175TIP3   OH2 9481   6.406   1.911   0.490
 3175TIP3    H1 9482   6.363   1.930   0.574
 3175TIP3    H2 9483   6.498   1.898   0.513
 3176TIP3   OH2 9484   3.135   6.018   6.593
 3176TIP3    H1 9485   3.100   5.933   6.617
 3176TIP3    H2 9486   3.072   6.054   6.530
 3177TIP3   OH2 9487   1.217   6.055   2.441
 3177TIP3    H1 9488   1.182   6.005   2.367
 3177TIP3    H2 9489   1.222   5.991   2.512
 3178TIP3   OH2 9490   7.642   4.755   3.548
 3178TIP3    H1 9491   7.729   4.750   3.508
 3178TIP3    H2 9492   7.639   4.841   3.590
 3179TIP3   OH2 9493   7.716   3.779   5.790
 3179TIP3    H1 9494   7.778   3.847   5.762
 3179TIP3    H2 9495   7.699   3.728   5.711
 3180TIP3   OH2 9496   3.629   7.710   2.080
 3180TIP3    H1 9497   3.588   7.787   2.040
 3180TIP3    H2 9498   3.586   7.703   2.166
 3181TIP3   OH2 9499   3.208   1.176   5.529
 3181TIP3    H1 9500   3.116   1.199   5.542
 3181TIP3    H2 9501   3.248   1.256   5.495
 3182TIP3   OH2 9502   5.202   7.257   2.520
 3182TIP3    H1 9503   5.274   7.303   2.563
 3182TIP3    H2 9504   5.145   7.229   2.591
 3183TIP3   OH2 9505   1.231   1.143   0.450
 3183TIP3    H1 9506   1.283   1.217   0.419
 3183TIP3    H2 9507   1.147   1.152   0.405
 3184TIP3   OH2 9508   2.585   3.202   3.461
 3184TIP3    H1 9509   2.676   3.229   3.464
 3184TIP3    H2 9510   2.560   3.209   3.369
 3185TIP3   OH2 9511   3.049   6.978   3.675
 3185TIP3    H1 9512   3.051   6.882   3.679
 3185TIP3    H2 9513   3.115   7.005   3.740
 3186TIP3   OH2 9514   7.001   2.866   2.730
 3186TIP3    H1 9515   6.943   2.927   2.683
 3186TIP3    H2 9516   7.072   2.921   2.762
 3187TIP3   OH2 9517   7.358   5.164   6.275
 3187TIP3    H1 9518   7.273   5.196   6.245
 3187TIP3    H2 9519   7.347   5.151   6.369
 3188TIP3   OH2 9520   6.868   5.177   3.507
 3188TIP3    H1 9521   6.879   5.231   3.429
 3188TIP3    H2 9522   6.886   5.087   3.476
 3189TIP3   OH2 9523   7.606   0.950   1.443
 3189TIP3    H1 9524   7.623   0.992   1.527
 3189TIP3    H2 9525   7.690   0.953   1.396
 3190TIP3   OH2 9526   2.851   0.155   5.624
 3190TIP3    H1 9527   2.940   0.121   5.621
 3190TIP3    H2 9528   2.795   0.077   5.621
 3191TIP3   OH2 9529   1.188   5.408   6.146
 3191TIP3    H1 9530   1.265   5.438   6.194
 3191TIP3    H2 9531   1.137   5.488   6.132
 3192TIP3   OH2 9532   7.882   2.942   4.039
 3192TIP3    H1 9533   7.799   2.956   4.084
 3192TIP3    H2 9534   7.857   2.907   3.953
 3193TIP3   OH2 9535   3.088   5.710   5.996
 3193TIP3    H1 9536   3.182   5.729   6.002
 3193TIP3    H2 9537   3.080   5.619   6.025
 3194TIP3   OH2 9538   3.994   6.021   0.317
 3194TIP3    H1 9539   4.033   6.083   0.255
 3194TIP3    H2 9540   4.003   6.065   0.402
 3195TIP3   OH2 9541   6.938   6.292   3.319
 3195TIP3    H1 9542   6.993   6.351   3.267
 3195TIP3    H2 9543   6.849   6.310   3.289
 3196TIP3   OH2 9544   4.323   7.372   6.110
 3196TIP3    H1 9545   4.298   7.345   6.199
 3196TIP3    H2 9546   4.401   7.321   6.091
 3197TIP3   OH2 9547   0.359   3.501   3.945
 3197TIP3    H1 9548   0.443   3.471   3.981
 3197TIP3    H2 9549   0.296   3.433   3.971
 3198TIP3   OH2 9550   3.076   2.129   5.171
 3198TIP3    H1 9551   3.081   2.085   5.256
 3198TIP3    H2 9552   3.015   2.202   5.186
 3199TIP3   OH2 9553   7.230   4.421   1.353
 3199TIP3    H1 9554   7.200   4.432   1.263
 3199TIP3    H2 9555   7.207   4.502   1.397
 3200TIP3   OH2 9556   0.350   0.181   2.017
 3200TIP3    H1 9557   0.403   0.260   2.010
 3200TIP3    H2 9558   0.307   0.172   1.932
 3201TIP3   OH2 9559   2.097   6.189   5.305
 3201TIP3    H1 9560   2.086   6.098   5.331
 3201TIP3    H2 9561   2.009   6.225   5.306
 3202TIP3   OH2 9562   5.246   0.427   4.289
 3202TIP3    H1 9563   5.260   0.493   4.221
 3202TIP3    H2 9564   5.224   0.477   4.367
 3203TIP3   OH2 9565   6.518   2.557   0.007
 3203TIP3    H1 9566   6.508   2.603   0.091
 3203TIP3    H2 9567   6.476   2.472   0.022
 3204TIP3   OH2 9568   7.189   2.795   0.575
 3204TIP3    H1 9569   7.254   2.726   0.567
 3204TIP3    H2 9570   7.191   2.819   0.668
 3205TIP3   OH2 9571   3.661   1.604   0.115
 3205TIP3    H1 9572   3.668   1.682   0.062
 3205TIP3    H2 9573   3.648   1.636   0.204
 3206TIP3   OH2 9574   3.994   2.832   1.373
 3206TIP3    H1 9575   3.930   2.900   1.393
 3206TIP3    H2 9576   4.066   2.848   1.434
 3207TIP3   OH2 9577   7.413   2.499   0.237
 3207TIP3    H1 9578   7.367   2.494   0.153
 3207TIP3    H2 9579   7.465   2.579   0.232
 3208TIP3   OH2 9580   7.092   5.537   2.354
 3208TIP3    H1 9581   7.162   5.479   2.384
 3208TIP3    H2 9582   7.136   5.601   2.298
 3209TIP3   OH2 9583   5.247   2.665   1.480
 3209TIP3    H1 9584   5.252   2.584   1.429
 3209TIP3    H2 9585   5.329   2.666   1.529
 3210TIP3   OH2 9586   7.609   6.960   3.665
 3210TIP3    H1 9587   7.674   6.987   3.730
 3210TIP3    H2 9588   7.529   6.946   3.715
 3211TIP3   OH2 9589   4.597   2.063   3.101
 3211TIP3    H1 9590   4.514   2.069   3.147
 3211TIP3    H2 9591   4.616   2.152   3.072
 3212TIP3   OH2 9592   3.102   5.011   0.552
 3212TIP3    H1 9593   3.190   4.974   0.569
 3212TIP3    H2 9594   3.097   5.088   0.609
 3213TIP3   OH2 9595   0.138   5.978   6.580
 3213TIP3    H1 9596   0.198   5.966   6.654
 3213TIP3    H2 9597   0.186   6.031   6.517
 3214TIP3   OH2 9598   0.474   0.926   1.674
 3214TIP3    H1 9599   0.410   0.956   1.608
 3214TIP3    H2 9600   0.558   0.932   1.630
 3215TIP3   OH2 9601   2.294   6.408   5.634
 3215TIP3    H1 9602   2.271   6.455   5.714
 3215TIP3    H2 9603   2.359   6.463   5.591
 3216TIP3   OH2 9604   5.202   1.182   4.478
 3216TIP3    H1 9605   5.215   1.221   4.391
 3216TIP3    H2 9606   5.207   1.256   4.538
 3217TIP3   OH2 9607   5.607   7.141   3.661
 3217TIP3    H1 9608   5.641   7.221   3.701
 3217TIP3    H2 9609   5.651   7.070   3.707
 3218TIP3   OH2 9610   1.286   0.468   0.613
 3218TIP3    H1 9611   1.208   0.500   0.657
 3218TIP3    H2 9612   1.265   0.475   0.520
 3219TIP3   OH2 9613   4.419   2.343   0.130
 3219TIP3    H1 9614   4.461   2.311   0.210
 3219TIP3    H2 9615   4.325   2.331   0.146
 3220TIP3   OH2 9616   1.037   0.667   1.931
 3220TIP3    H1 9617   1.070   0.750   1.897
 3220TIP3    H2 9618   1.079   0.657   2.016
 3221TIP3   OH2 9619   0.550   7.041   2.200
 3221TIP3    H1 9620   0.576   6.949   2.208
 3221TIP3    H2 9621   0.459   7.043   2.230
 3222TIP3   OH2 9622   3.898   3.216   2.610
 3222TIP3    H1 9623   3.905   3.120   2.604
 3222TIP3    H2 9624   3.943   3.238   2.692
 3223TIP3   OH2 9625   7.416   0.877   5.299
 3223TIP3    H1 9626   7.510   0.884   5.315
 3223TIP3    H2 9627   7.396   0.784   5.311
 3224TIP3   OH2 9628   2.082   4.097   6.686
 3224TIP3    H1 9629   2.160   4.087   6.630
 3224TIP3    H2 9630   2.080   4.017   6.738
 3225TIP3   OH2 9631   0.863   4.499   0.933
 3225TIP3    H1 9632   0.809   4.435   0.979
 3225TIP3    H2 9633   0.948   4.456   0.924
 3226TIP3   OH2 9634   2.259   2.843   2.833
 3226TIP3    H1 9635   2.331   2.811   2.888
 3226TIP3    H2 9636   2.193   2.774   2.839
 3227TIP3   OH2 9637   4.870   6.737   5.920
 3227TIP3    H1 9638   4.812   6.811   5.902
 3227TIP3    H2 9639   4.812   6.660   5.914
 3228TIP3   OH2 9640   6.691   7.613   0.772
 3228TIP3    H1 9641   6.679   7.697   0.727
 3228TIP3    H2 9642   6.604   7.575   0.776
 3229TIP3   OH2 9643   7.128   1.754   5.538
 3229TIP3    H1 9644   7.048   1.766   5.589
 3229TIP3    H2 9645   7.183   1.828   5.562
 3230TIP3   OH2 9646   0.241   7.246   2.958
 3230TIP3    H1 9647   0.188   7.308   3.009
 3230TIP3    H2 9648   0.222   7.267   2.867
 3231TIP3   OH2 9649   7.501   3.612   4.056
 3231TIP3    H1 9650   7.470   3.699   4.029
 3231TIP3    H2 9651   7.497   3.614   4.151
 3232TIP3   OH2 9652   3.584   4.230   2.715
 3232TIP3    H1 9653   3.573   4.136   2.726
 3232TIP3    H2 9654   3.678   4.245   2.723
 3233TIP3   OH2 9655   1.265   6.305   0.015
 3233TIP3    H1 9656   1.214   6.363   0.071
 3233TIP3    H2 9657   1.246   6.217   0.047
 3234TIP3   OH2 9658   1.815   5.351   3.749
 3234TIP3    H1 9659   1.756   5.387   3.683
 3234TIP3    H2 9660   1.788   5.259   3.757
 3235TIP3   OH2 9661   6.783   7.507   4.930
 3235TIP3    H1 9662   6.735   7.560   4.994
 3235TIP3    H2 9663   6.769   7.417   4.959
 3236TIP3   OH2 9664   7.746   3.515   0.344
 3236TIP3    H1 9665   7.728   3.469   0.262
 3236TIP3    H2 9666   7.671   3.574   0.356
 3237TIP3   OH2 9667   6.168   0.369   5.017
 3237TIP3    H1 9668   6.228   0.378   5.091
 3237TIP3    H2 9669   6.096   0.316   5.051
 3238TIP3   OH2 9670   2.998   2.653   1.640
 3238TIP3    H1 9671   2.987   2.633   1.547
 3238TIP3    H2 9672   2.960   2.578   1.685
 3239TIP3   OH2 9673   1.999   6.474   3.879
 3239TIP3    H1 9674   2.094   6.485   3.876
 3239TIP3    H2 9675   1.978   6.430   3.796
 3240TIP3   OH2 9676   2.501   6.909   1.232
 3240TIP3    H1 9677   2.517   6.967   1.158
 3240TIP3    H2 9678   2.473   6.826   1.193
 3241TIP3   OH2 9679   7.465   7.204   5.299
 3241TIP3    H1 9680   7.434   7.294   5.303
 3241TIP3    H2 9681   7.559   7.211   5.316
 3242TIP3   OH2 9682   3.930   3.248   2.204
 3242TIP3    H1 9683   3.974   3.168   2.233
 3242TIP3    H2 9684   3.996   3.317   2.216
 3243TIP3   OH2 9685   4.263   4.572   6.559
 3243TIP3    H1 9686   4.287   4.664   6.571
 3243TIP3    H2 9687   4.187   4.574   6.501
 3244TIP3   OH2 9688   7.608   1.702   5.372
 3244TIP3    H1 9689   7.531   1.758   5.364
 3244TIP3    H2 9690   7.649   1.705   5.285
 3245TIP3   OH2 9691   0.931   1.728   4.272
 3245TIP3    H1 9692   0.929   1.647   4.221
 3245TIP3    H2 9693   1.019   1.730   4.310
 3246TIP3   OH2 9694   2.475   0.310   5.177
 3246TIP3    H1 9695   2.507   0.267   5.257
 3246TIP3    H2 9696   2.497   0.402   5.189
 3247TIP3   OH2 9697   7.411   3.401   5.528
 3247TIP3    H1 9698   7.377   3.486   5.556
 3247TIP3    H2 9699   7.367   3.384   5.445
 3248TIP3   OH2 9700   4.610   2.312   6.328
 3248TIP3    H1 9701   4.664   2.365   6.386
 3248TIP3    H2 9702   4.536   2.285   6.382
 3249TIP3   OH2 9703   3.805   7.293   5.366
 3249TIP3    H1 9704   3.822   7.387   5.365
 3249TIP3    H2 9705   3.875   7.256   5.311
 3250TIP3   OH2 9706   6.686   1.302   2.115
 3250TIP3    H1 9707   6.693   1.338   2.203
 3250TIP3    H2 9708   6.753   1.348   2.064
 3251TIP3   OH2 9709   6.324   2.400   2.374
 3251TIP3    H1 9710   6.250   2.340   2.368
 3251TIP3    H2 9711   6.289   2.484   2.345
 3252TIP3   OH2 9712   6.984   0.164   1.833
 3252TIP3    H1 9713   6.903   0.115   1.832
 3252TIP3    H2 9714   6.960   0.250   1.869
 3253TIP3   OH2 9715   0.284   6.492   2.399
 3253TIP3    H1 9716   0.195   6.492   2.362
 3253TIP3    H2 9717   0.297   6.581   2.432
 3254TIP3   OH2 9718   7.981   5.815   1.881
 3254TIP3    H1 9719   7.902   5.845   1.836
 3254TIP3    H2 9720   8.043   5.887   1.869
 3255TIP3   OH2 9721   7.553   3.855   4.716
 3255TIP3    H1 9722   7.490   3.833   4.648
 3255TIP3    H2 9723   7.633   3.808   4.691
 3256TIP3   OH2 9724   5.476   1.113   4.416
 3256TIP3    H1 9725   5.486   1.196   4.370
 3256TIP3    H2 9726   5.395   1.123   4.467
 3257TIP3   OH2 9727   6.623   3.078   5.202
 3257TIP3    H1 9728   6.640   2.994   5.246
 3257TIP3    H2 9729   6.635   3.059   5.109
 3258TIP3   OH2 9730   6.663   1.163   4.828
 3258TIP3    H1 9731   6.755   1.137   4.831
 3258TIP3    H2 9732   6.644   1.176   4.735
 3259TIP3   OH2 9733   6.549   3.843   2.507
 3259TIP3    H1 9734   6.618   3.887   2.557
 3259TIP3    H2 9735   6.478   3.908   2.502
 3260TIP3   OH2 9736   1.233   1.721   4.239
 3260TIP3    H1 9737   1.237   1.648   4.178
 3260TIP3    H2 9738   1.223   1.798   4.183
 3261TIP3   OH2 9739   6.698   2.236   5.015
 3261TIP3    H1 9740   6.725   2.314   4.967
 3261TIP3    H2 9741   6.721   2.254   5.106
 3262TIP3   OH2 9742   0.464   4.695   6.631
 3262TIP3    H1 9743   0.378   4.654   6.632
 3262TIP3    H2 9744   0.447   4.789   6.621
 3263TIP3   OH2 9745   4.622   6.087   5.194
 3263TIP3    H1 9746   4.624   6.146   5.269
 3263TIP3    H2 9747   4.693   6.025   5.211
 3264TIP3   OH2 9748   4.425   5.304   4.904
 3264TIP3    H1 9749   4.337   5.329   4.932
 3264TIP3    H2 9750   4.413   5.223   4.856
 3265TIP3   OH2 9751   0.527   2.468   1.222
 3265TIP3    H1 9752   0.560   2.389   1.177
 3265TIP3    H2 9753   0.596   2.492   1.282
 3266TIP3   OH2 9754   7.630   0.708   3.874
 3266TIP3    H1 9755   7.720   0.723   3.843
 3266TIP3    H2 9756   7.587   0.793   3.861
 3267TIP3   OH2 9757   1.154   6.235   4.260
 3267TIP3    H1 9758   1.223   6.259   4.198
 3267TIP3    H2 9759   1.075   6.274   4.222
 3268TIP3   OH2 9760   7.496   6.363   4.412
 3268TIP3    H1 9761   7.524   6.432   4.472
 3268TIP3    H2 9762   7.464   6.410   4.335
 3269TIP3   OH2 9763   7.673   1.512   3.383
 3269TIP3    H1 9764   7.645   1.603   3.369
 3269TIP3    H2 9765   7.604   1.474   3.438
 3270TIP3   OH2 9766   3.022   2.874   1.103
 3270TIP3    H1 9767   3.088   2.805   1.105
 3270TIP3    H2 9768   2.992   2.876   1.012
 3271TIP3   OH2 9769   1.393   2.401   2.058
 3271TIP3    H1 9770   1.421   2.439   2.142
 3271TIP3    H2 9771   1.414   2.468   1.993
 3272TIP3   OH2 9772   5.780   1.643   0.906
 3272TIP3    H1 9773   5.752   1.733   0.891
 3272TIP3    H2 9774   5.787   1.605   0.818
 3273TIP3   OH2 9775   2.690   1.906   1.690
 3273TIP3    H1 9776   2.781   1.909   1.662
 3273TIP3    H2 9777   2.662   1.817   1.670
 3274TIP3   OH2 9778   5.866   3.791   5.517
 3274TIP3    H1 9779   5.958   3.787   5.492
 3274TIP3    H2 9780   5.850   3.884   5.536
 3275TIP3   OH2 9781   0.934   7.649   2.092
 3275TIP3    H1 9782   0.913   7.567   2.135
 3275TIP3    H2 9783   0.859   7.705   2.107
 3276TIP3   OH2 9784   7.299   3.317   6.457
 3276TIP3    H1 9785   7.370   3.252   6.452
 3276TIP3    H2 9786   7.344   3.400   6.474
 3277TIP3   OH2 9787   0.259   2.208   5.837
 3277TIP3    H1 9788   0.311   2.142   5.882
 3277TIP3    H2 9789   0.272   2.288   5.889
 3278TIP3   OH2 9790   5.129   5.535   1.266
 3278TIP3    H1 9791   5.206   5.509   1.216
 3278TIP3    H2 9792   5.077   5.587   1.205
 3279TIP3   OH2 9793   6.013   2.563   3.394
 3279TIP3    H1 9794   6.024   2.652   3.428
 3279TIP3    H2 9795   6.091   2.517   3.422
 3280TIP3   OH2 9796   8.178   4.357   6.235
 3280TIP3    H1 9797   8.186   4.337   6.328
 3280TIP3    H2 9798   8.188   4.273   6.191
 3281TIP3   OH2 9799   3.778   1.275   0.503
 3281TIP3    H1 9800   3.735   1.305   0.583
 3281TIP3    H2 9801   3.870   1.299   0.515
 3282TIP3   OH2 9802   2.680   0.193   1.061
 3282TIP3    H1 9803   2.705   0.105   1.089
 3282TIP3    H2 9804   2.760   0.229   1.022
 3283TIP3   OH2 9805   2.843   2.123   4.589
 3283TIP3    H1 9806   2.780   2.075   4.535
 3283TIP3    H2 9807   2.880   2.056   4.648
 3284TIP3   OH2 9808   0.410   3.784   0.127
 3284TIP3    H1 9809   0.447   3.715   0.072
 3284TIP3    H2 9810   0.383   3.740   0.207
 3285TIP3   OH2 9811   0.987   6.005   1.929
 3285TIP3    H1 9812   1.054   5.947   1.894
 3285TIP3    H2 9813   0.984   6.078   1.867
 3286TIP3   OH2 9814   4.696   3.058   6.201
 3286TIP3    H1 9815   4.705   3.118   6.275
 3286TIP3    H2 9816   4.655   3.111   6.132
 3287TIP3   OH2 9817   0.461   5.283   6.396
 3287TIP3    H1 9818   0.391   5.247   6.341
 3287TIP3    H2 9819   0.534   5.222   6.386
 3288TIP3   OH2 9820   4.631   3.196   4.270
 3288TIP3    H1 9821   4.645   3.157   4.183
 3288TIP3    H2 9822   4.696   3.153   4.326
 3289TIP3   OH2 9823   5.004   4.863   5.155
 3289TIP3    H1 9824   5.045   4.776   5.159
 3289TIP3    H2 9825   5.052   4.915   5.220
 3290TIP3   OH2 9826   3.922   0.623   4.224
 3290TIP3    H1 9827   4.007   0.587   4.249
 3290TIP3    H2 9828   3.925   0.715   4.249
 3291TIP3   OH2 9829   7.499   7.035   0.025
 3291TIP3    H1 9830   7.497   6.983  -0.055
 3291TIP3    H2 9831   7.412   7.023   0.064
 3292TIP3   OH2 9832   5.101   6.071   2.398
 3292TIP3    H1 9833   5.177   6.124   2.421
 3292TIP3    H2 9834   5.056   6.056   2.481
 3293TIP3   OH2 9835   4.394   0.155   3.977
 3293TIP3    H1 9836   4.487   0.140   3.964
 3293TIP3    H2 9837   4.376   0.236   3.928
 3294TIP3   OH2 9838   4.779   6.754   5.597
 3294TIP3    H1 9839   4.714   6.814   5.633
 3294TIP3    H2 9840   4.746   6.731   5.510
 3295TIP3   OH2 9841   6.182   1.810   4.110
 3295TIP3    H1 9842   6.144   1.806   4.023
 3295TIP3    H2 9843   6.211   1.901   4.119
 3296TIP3   OH2 9844   7.848   2.377   5.745
 3296TIP3    H1 9845   7.870   2.470   5.747
 3296TIP3    H2 9846   7.918   2.335   5.796
 3297TIP3   OH2 9847   3.576   3.879   5.457
 3297TIP3    H1 9848   3.528   3.958   5.483
 3297TIP3    H2 9849   3.642   3.867   5.525
 3298TIP3   OH2 9850   5.678   7.793   3.527
 3298TIP3    H1 9851   5.623   7.732   3.477
 3298TIP3    H2 9852   5.766   7.756   3.521
 3299TIP3   OH2 9853   6.936   2.139   2.231
 3299TIP3    H1 9854   6.972   2.091   2.305
 3299TIP3    H2 9855   7.013   2.171   2.183
 3300TIP3   OH2 9856   1.973   4.282   2.371
 3300TIP3    H1 9857   2.023   4.311   2.294
 3300TIP3    H2 9858   2.039   4.272   2.439
 3301TIP3   OH2 9859   3.397   5.629   3.582
 3301TIP3    H1 9860   3.441   5.695   3.528
 3301TIP3    H2 9861   3.307   5.660   3.591
 3302TIP3   OH2 9862   7.549   3.511   6.228
 3302TIP3    H1 9863   7.617   3.492   6.293
 3302TIP3    H2 9864   7.558   3.604   6.210
 3303TIP3   OH2 9865   7.888   3.429   2.028
 3303TIP3    H1 9866   7.940   3.402   1.952
 3303TIP3    H2 9867   7.852   3.348   2.063
 3304TIP3   OH2 9868   5.966   3.342   5.851
 3304TIP3    H1 9869   5.901   3.290   5.898
 3304TIP3    H2 9870   5.921   3.369   5.771
 3305TIP3   OH2 9871   7.778   4.531   2.839
 3305TIP3    H1 9872   7.734   4.598   2.787
 3305TIP3    H2 9873   7.731   4.450   2.818
 3306TIP3   OH2 9874   2.335   5.270   0.207
 3306TIP3    H1 9875   2.380   5.188   0.228
 3306TIP3    H2 9876   2.242   5.245   0.204
 3307TIP3   OH2 9877   3.089   4.470   5.060
 3307TIP3    H1 9878   3.179   4.449   5.081
 3307TIP3    H2 9879   3.093   4.554   5.014
 3308TIP3   OH2 9880   2.581   4.709   0.344
 3308TIP3    H1 9881   2.611   4.785   0.394
 3308TIP3    H2 9882   2.647   4.641   0.360
 3309TIP3   OH2 9883   6.009   1.069   1.149
 3309TIP3    H1 9884   5.952   1.140   1.178
 3309TIP3    H2 9885   5.949   1.006   1.108
 3310TIP3   OH2 9886   4.420   5.206   0.845
 3310TIP3    H1 9887   4.452   5.256   0.770
 3310TIP3    H2 9888   4.481   5.133   0.853
 3311TIP3   OH2 9889   2.635   4.500   5.754
 3311TIP3    H1 9890   2.628   4.520   5.661
 3311TIP3    H2 9891   2.594   4.415   5.763
 3312TIP3   OH2 9892   7.870   4.790   4.887
 3312TIP3    H1 9893   7.798   4.758   4.832
 3312TIP3    H2 9894   7.877   4.883   4.866
 3313TIP3   OH2 9895   6.124   0.869   2.745
 3313TIP3    H1 9896   6.102   0.783   2.710
 3313TIP3    H2 9897   6.216   0.882   2.723
 3314TIP3   OH2 9898   3.371   7.198   4.555
 3314TIP3    H1 9899   3.320   7.268   4.597
 3314TIP3    H2 9900   3.450   7.191   4.608
 3315TIP3   OH2 9901   4.652   5.605   2.199
 3315TIP3    H1 9902   4.583   5.661   2.236
 3315TIP3    H2 9903   4.615   5.573   2.117
 3316TIP3   OH2 9904   4.994   7.849   3.226
 3316TIP3    H1 9905   4.934   7.776   3.211
 3316TIP3    H2 9906   5.075   7.822   3.182
 3317TIP3   OH2 9907   3.327   0.102   2.576
 3317TIP3    H1 9908   3.312   0.189   2.613
 3317TIP3    H2 9909   3.311   0.041   2.648
 3318TIP3   OH2 9910   3.764   4.682   3.571
 3318TIP3    H1 9911   3.858   4.668   3.561
 3318TIP3    H2 9912   3.725   4.598   3.549
 3319TIP3   OH2 9913   2.544   7.327   6.293
 3319TIP3    H1 9914   2.577   7.369   6.373
 3319TIP3    H2 9915   2.449   7.325   6.306
 3320TIP3   OH2 9916   6.096   4.707   6.144
 3320TIP3    H1 9917   6.168   4.669   6.195
 3320TIP3    H2 9918   6.089   4.797   6.175
 3321TIP3   OH2 9919   1.947   3.621   5.629
 3321TIP3    H1 9920   1.949   3.630   5.725
 3321TIP3    H2 9921   1.911   3.534   5.615
 3322TIP3   OH2 9922   5.925   5.682   0.659
 3322TIP3    H1 9923   5.834   5.701   0.684
 3322TIP3    H2 9924   5.961   5.767   0.636
 3323TIP3   OH2 9925   1.993   3.274   6.079
 3323TIP3    H1 9926   2.020   3.366   6.082
 3323TIP3    H2 9927   2.076   3.225   6.073
 3324TIP3   OH2 9928   3.482   2.574   2.250
 3324TIP3    H1 9929   3.490   2.563   2.155
 3324TIP3    H2 9930   3.456   2.665   2.262
 3325TIP3   OH2 9931   2.273   1.630   6.121
 3325TIP3    H1 9932   2.307   1.718   6.140
 3325TIP3    H2 9933   2.259   1.630   6.026
 3326TIP3   OH2 9934   6.365   2.260   6.232
 3326TIP3    H1 9935   6.432   2.328   6.238
 3326TIP3    H2 9936   6.288   2.306   6.199
 3327TIP3   OH2 9937   5.313   4.786   4.140
 3327TIP3    H1 9938   5.264   4.705   4.123
 3327TIP3    H2 9939   5.405   4.760   4.132
 3328TIP3   OH2 9940   6.778   6.979   5.725
 3328TIP3    H1 9941   6.744   7.067   5.740
 3328TIP3    H2 9942   6.870   6.992   5.703
 3329TIP3   OH2 9943   1.608   0.581   0.208
 3329TIP3    H1 9944   1.666   0.532   0.267
 3329TIP3    H2 9945   1.526   0.590   0.258
 3330TIP3   OH2 9946   2.146   6.379   4.506
 3330TIP3    H1 9947   2.127   6.418   4.420
 3330TIP3    H2 9948   2.115   6.289   4.499
 3331TIP3   OH2 9949   2.732   4.618   4.753
 3331TIP3    H1 9950   2.758   4.708   4.732
 3331TIP3    H2 9951   2.713   4.620   4.847
 3332TIP3   OH2 9952   8.219   2.099   4.487
 3332TIP3    H1 9953   8.216   2.109   4.392
 3332TIP3    H2 9954   8.257   2.013   4.501
 3333TIP3   OH2 9955   3.242   2.613   0.239
 3333TIP3    H1 9956   3.197   2.530   0.251
 3333TIP3    H2 9957   3.289   2.627   0.322
 3334TIP3   OH2 9958   3.075   1.645   1.130
 3334TIP3    H1 9959   3.012   1.632   1.201
 3334TIP3    H2 9960   3.021   1.660   1.053
 3335TIP3   OH2 9961   2.981   5.912   2.154
 3335TIP3    H1 9962   2.975   5.967   2.232
 3335TIP3    H2 9963   3.039   5.960   2.095
 3336TIP3   OH2 9964   0.855   1.061   5.037
 3336TIP3    H1 9965   0.811   1.140   5.008
 3336TIP3    H2 9966   0.817   0.991   4.984
 3337TIP3   OH2 9967   3.423   3.169   3.793
 3337TIP3    H1 9968   3.348   3.110   3.787
 3337TIP3    H2 9969   3.390   3.254   3.762
 3338TIP3   OH2 9970   6.152   4.911   1.961
 3338TIP3    H1 9971   6.197   4.841   1.912
 3338TIP3    H2 9972   6.198   4.991   1.936
 3339TIP3   OH2 9973   6.897   1.215   6.181
 3339TIP3    H1 9974   6.858   1.248   6.100
 3339TIP3    H2 9975   6.896   1.119   6.170
 3340TIP3   OH2 9976   3.396   3.974   4.758
 3340TIP3    H1 9977   3.418   4.047   4.816
 3340TIP3    H2 9978   3.300   3.970   4.760
 3341TIP3   OH2 9979   5.493   1.912   5.942
 3341TIP3    H1 9980   5.488   1.818   5.929
 3341TIP3    H2 9981   5.584   1.928   5.969
 3342TIP3   OH2 9982   2.003   1.914   3.596
 3342TIP3    H1 9983   2.044   1.938   3.513
 3342TIP3    H2 9984   1.988   1.998   3.641
 3343TIP3   OH2 9985   6.712   5.867   1.285
 3343TIP3    H1 9986   6.758   5.945   1.254
 3343TIP3    H2 9987   6.656   5.899   1.356
 3344TIP3   OH2 9988   4.671   5.744   2.609
 3344TIP3    H1 9989   4.739   5.677   2.596
 3344TIP3    H2 9990   4.637   5.727   2.696
 3345TIP3   OH2 9991   7.225   1.763   1.004
 3345TIP3    H1 9992   7.167   1.787   1.076
 3345TIP3    H2 9993   7.180   1.794   0.925
 3346TIP3   OH2 9994   1.167   6.765   6.001
 3346TIP3    H1 9995   1.260   6.787   6.004
 3346TIP3    H2 9996   1.145   6.765   5.908
 3347TIP3   OH2 9997   0.885   5.074   5.211
 3347TIP3    H1 9998   0.829   5.094   5.287
 3347TIP3    H2 9999   0.964   5.035   5.249
 3348TIP3   OH210000   2.260   5.243   6.463
 3348TIP3    H110001   2.197   5.190   6.414
 3348TIP3    H210002   2.211   5.272   6.540
 3349TIP3   OH210003   2.374   3.802   6.323
 3349TIP3    H110004   2.390   3.770   6.234
 3349TIP3    H210005   2.418   3.887   6.327
 3350TIP3   OH210006   0.272   2.011   1.174
 3350TIP3    H110007   0.235   1.969   1.096
 3350TIP3    H210008   0.236   1.962   1.248
 3351TIP3   OH210009   3.743   0.446   4.658
 3351TIP3    H110010   3.738   0.467   4.565
 3351TIP3    H210011   3.689   0.512   4.701
 3352TIP3   OH210012   2.504   5.186   3.433
 3352TIP3    H110013   2.436   5.232   3.482
 3352TIP3    H210014   2.579   5.184   3.492
 3353TIP3   OH210015   2.229   5.816   3.530
 3353TIP3    H110016   2.151   5.798   3.581
 3353TIP3    H210017   2.293   5.750   3.558
 3354TIP3   OH210018   4.961   6.950   2.663
 3354TIP3    H110019   4.918   6.904   2.736
 3354TIP3    H210020   4.935   6.901   2.585
 3355TIP3   OH210021   5.748   0.203   5.365
 3355TIP3    H110022   5.806   0.206   5.441
 3355TIP3    H210023   5.755   0.290   5.326
 3356TIP3   OH210024   7.736   2.358   2.019
 3356TIP3    H110025   7.739   2.263   2.030
 3356TIP3    H210026   7.654   2.374   1.971
 3357TIP3   OH210027   3.702   6.000   6.124
 3357TIP3    H110028   3.626   6.048   6.157
 3357TIP3    H210029   3.736   5.954   6.201
 3358TIP3   OH210030   7.994   2.822   1.751
 3358TIP3    H110031   7.909   2.849   1.787
 3358TIP3    H210032   8.019   2.746   1.803
 3359TIP3   OH210033   7.933   4.624   6.458
 3359TIP3    H110034   7.893   4.620   6.545
 3359TIP3    H210035   7.869   4.584   6.400
 3360TIP3   OH210036   4.093   6.109   5.559
 3360TIP3    H110037   4.026   6.063   5.510
 3360TIP3    H210038   4.158   6.136   5.493
 3361TIP3   OH210039   0.718   0.179   2.531
 3361TIP3    H110040   0.795   0.233   2.513
 3361TIP3    H210041   0.745   0.090   2.506
 3362TIP3   OH210042   5.955   0.471   1.144
 3362TIP3    H110043   5.964   0.497   1.236
 3362TIP3    H210044   6.035   0.422   1.126
 3363TIP3   OH210045   0.181   4.383   3.110
 3363TIP3    H110046   0.260   4.434   3.126
 3363TIP3    H210047   0.109   4.446   3.116
 3364TIP3   OH210048   0.711   2.879   4.043
 3364TIP3    H110049   0.714   2.783   4.037
 3364TIP3    H210050   0.619   2.901   4.028
 3365TIP3   OH210051   1.602   1.199   5.291
 3365TIP3    H110052   1.697   1.194   5.279
 3365TIP3    H210053   1.570   1.245   5.213
 3366TIP3   OH210054   2.836   1.895   5.380
 3366TIP3    H110055   2.803   1.960   5.319
 3366TIP3    H210056   2.775   1.822   5.374
 3367TIP3   OH210057   0.338   3.005   5.144
 3367TIP3    H110058   0.359   2.967   5.059
 3367TIP3    H210059   0.393   3.084   5.149
 3368TIP3   OH210060   8.240   2.124   6.188
 3368TIP3    H110061   8.329   2.156   6.173
 3368TIP3    H210062   8.197   2.194   6.237
 3369TIP3   OH210063   0.084   5.006   2.975
 3369TIP3    H110064   0.032   5.080   2.947
 3369TIP3    H210065   0.171   5.022   2.937
 3370TIP3   OH210066   7.038   7.233   4.824
 3370TIP3    H110067   7.031   7.273   4.911
 3370TIP3    H210068   7.060   7.306   4.766
 3371TIP3   OH210069   7.859   4.314   4.040
 3371TIP3    H110070   7.882   4.245   3.978
 3371TIP3    H210071   7.791   4.365   3.996
 3372TIP3   OH210072   5.953   4.661   4.631
 3372TIP3    H110073   6.039   4.633   4.598
 3372TIP3    H210074   5.969   4.683   4.723
 3373TIP3   OH210075   4.696   0.073   0.521
 3373TIP3    H110076   4.760   0.024   0.572
 3373TIP3    H210077   4.739   0.089   0.437
 3374TIP3   OH210078   7.613   0.776   3.496
 3374TIP3    H110079   7.627   0.852   3.439
 3374TIP3    H210080   7.696   0.767   3.543
 3375TIP3   OH210081   3.913   0.318   5.502
 3375TIP3    H110082   3.850   0.335   5.432
 3375TIP3    H210083   3.937   0.226   5.491
 3376TIP3   OH210084   1.852   1.446   3.953
 3376TIP3    H110085   1.933   1.429   4.001
 3376TIP3    H210086   1.850   1.541   3.941
 3377TIP3   OH210087   6.100   3.997   3.435
 3377TIP3    H110088   6.156   4.016   3.510
 3377TIP3    H210089   6.047   4.076   3.424
 3378TIP3   OH210090   4.470   2.733   3.978
 3378TIP3    H110091   4.448   2.816   4.021
 3378TIP3    H210092   4.424   2.666   4.028
 3379TIP3   OH210093   4.451   1.950   2.499
 3379TIP3    H110094   4.539   1.923   2.473
 3379TIP3    H210095   4.422   1.882   2.559
 3380TIP3   OH210096   4.798   1.380   1.632
 3380TIP3    H110097   4.819   1.337   1.715
 3380TIP3    H210098   4.874   1.434   1.613
 3381TIP3   OH210099   1.431   6.518   4.678
 3381TIP3    H110100   1.369   6.476   4.738
 3381TIP3    H210101   1.422   6.611   4.696
 3382TIP3   OH210102   5.820   3.213   0.884
 3382TIP3    H110103   5.810   3.285   0.823
 3382TIP3    H210104   5.867   3.145   0.834
 3383TIP3   OH210105   6.825   1.594   0.925
 3383TIP3    H110106   6.754   1.597   0.989
 3383TIP3    H210107   6.905   1.593   0.979
 3384TIP3   OH210108   2.531   2.715   1.462
 3384TIP3    H110109   2.500   2.651   1.397
 3384TIP3    H210110   2.626   2.714   1.453
 3385TIP3   OH210111   4.173   3.812   0.760
 3385TIP3    H110112   4.246   3.872   0.745
 3385TIP3    H210113   4.208   3.746   0.819
 3386TIP3   OH210114   4.646   2.771   5.657
 3386TIP3    H110115   4.627   2.717   5.581
 3386TIP3    H210116   4.608   2.723   5.731
 3387TIP3   OH210117   2.780   7.020   4.381
 3387TIP3    H110118   2.849   7.031   4.316
 3387TIP3    H210119   2.825   7.023   4.465
 3388TIP3   OH210120   6.599   6.458   6.549
 3388TIP3    H110121   6.673   6.479   6.607
 3388TIP3    H210122   6.526   6.439   6.609
 3389TIP3   OH210123   1.146   4.872   3.970
 3389TIP3    H110124   1.107   4.792   4.004
 3389TIP3    H210125   1.111   4.941   4.026
 3390TIP3   OH210126   2.894   2.658   2.416
 3390TIP3    H110127   2.883   2.727   2.351
 3390TIP3    H210128   2.830   2.591   2.391
 3391TIP3   OH210129   4.103   5.437   3.858
 3391TIP3    H110130   4.051   5.402   3.930
 3391TIP3    H210131   4.140   5.518   3.892
 3392TIP3   OH210132   6.864   1.104   1.412
 3392TIP3    H110133   6.877   1.154   1.332
 3392TIP3    H210134   6.811   1.029   1.385
 3393TIP3   OH210135   5.655   2.282   0.055
 3393TIP3    H110136   5.662   2.322   0.141
 3393TIP3    H210137   5.697   2.197   0.064
 3394TIP3   OH210138   5.374   2.472   1.297
 3394TIP3    H110139   5.399   2.391   1.254
 3394TIP3    H210140   5.328   2.522   1.230
 3395TIP3   OH210141   4.208   7.334   2.147
 3395TIP3    H110142   4.160   7.351   2.228
 3395TIP3    H210143   4.141   7.337   2.079
 3396TIP3   OH210144   3.885   1.388   6.496
 3396TIP3    H110145   3.857   1.309   6.449
 3396TIP3    H210146   3.978   1.397   6.474
 3397TIP3   OH210147   2.601   6.395   1.716
 3397TIP3    H110148   2.680   6.374   1.666
 3397TIP3    H210149   2.633   6.412   1.805
 3398TIP3   OH210150   5.012   3.318   4.019
 3398TIP3    H110151   5.059   3.293   3.940
 3398TIP3    H210152   5.004   3.236   4.069
 3399TIP3   OH210153   7.012   5.398   0.833
 3399TIP3    H110154   7.010   5.487   0.868
 3399TIP3    H210155   6.971   5.345   0.900
 3400TIP3   OH210156   1.894   1.091   2.453
 3400TIP3    H110157   1.955   1.093   2.379
 3400TIP3    H210158   1.942   1.134   2.524
 3401TIP3   OH210159   2.613   2.965   0.554
 3401TIP3    H110160   2.646   2.891   0.604
 3401TIP3    H210161   2.599   2.930   0.466
 3402TIP3   OH210162   7.558   3.242   4.310
 3402TIP3    H110163   7.608   3.208   4.384
 3402TIP3    H210164   7.468   3.245   4.341
 3403TIP3   OH210165   6.350   5.557   4.767
 3403TIP3    H110166   6.348   5.511   4.851
 3403TIP3    H210167   6.284   5.514   4.714
 3404TIP3   OH210168   8.102   2.117   2.385
 3404TIP3    H110169   8.052   2.109   2.466
 3404TIP3    H210170   8.186   2.153   2.411
 3405TIP3   OH210171   3.202   7.100   1.080
 3405TIP3    H110172   3.168   7.019   1.118
 3405TIP3    H210173   3.268   7.130   1.142
 3406TIP3   OH210174   6.307   3.279   1.042
 3406TIP3    H110175   6.366   3.347   1.074
 3406TIP3    H210176   6.313   3.284   0.947
 3407TIP3   OH210177   2.302   3.453   6.344
 3407TIP3    H110178   2.348   3.467   6.261
 3407TIP3    H210179   2.370   3.455   6.410
 3408TIP3   OH210180   1.985   4.521   5.017
 3408TIP3    H110181   2.049   4.496   5.083
 3408TIP3    H210182   1.982   4.447   4.957
 3409TIP3   OH210183   6.906   0.103   3.671
 3409TIP3    H110184   6.912   0.015   3.634
 3409TIP3    H210185   6.823   0.137   3.636
 3410TIP3   OH210186   0.577   5.835   3.303
 3410TIP3    H110187   0.499   5.865   3.256
 3410TIP3    H210188   0.552   5.750   3.340
 3411TIP3   OH210189   2.277   5.114   2.232
 3411TIP3    H110190   2.356   5.061   2.223
 3411TIP3    H210191   2.308   5.204   2.226
 3412TIP3   OH210192   1.168   0.081   5.586
 3412TIP3    H110193   1.174   0.151   5.520
 3412TIP3    H210194   1.186   0.001   5.537
 3413TIP3   OH210195   0.386   2.885   2.510
 3413TIP3    H110196   0.440   2.962   2.495
 3413TIP3    H210197   0.446   2.821   2.548
 3414TIP3   OH210198   1.578   1.370   0.478
 3414TIP3    H110199   1.577   1.280   0.444
 3414TIP3    H210200   1.670   1.386   0.500
 3415TIP3   OH210201   2.782   2.506   3.100
 3415TIP3    H110202   2.702   2.492   3.150
 3415TIP3    H210203   2.755   2.564   3.028
 3416TIP3   OH210204   7.167   0.164   6.675
 3416TIP3    H110205   7.207   0.187   6.591
 3416TIP3    H210206   7.228   0.196   6.741
 3417TIP3   OH210207   6.772   1.116   3.959
 3417TIP3    H110208   6.812   1.177   3.896
 3417TIP3    H210209   6.689   1.157   3.982
 3418TIP3   OH210210   7.266   6.649   4.514
 3418TIP3    H110211   7.245   6.615   4.601
 3418TIP3    H210212   7.358   6.625   4.501
 3419TIP3   OH210213   7.785   3.034   1.354
 3419TIP3    H110214   7.875   3.055   1.328
 3419TIP3    H210215   7.746   3.118   1.379
 3420TIP3   OH210216   4.600   0.438   5.612
 3420TIP3    H110217   4.660   0.505   5.579
 3420TIP3    H210218   4.513   0.469   5.586
 3421TIP3   OH210219   3.898   0.988   0.573
 3421TIP3    H110220   3.832   1.025   0.632
 3421TIP3    H210221   3.920   1.060   0.513
 3422TIP3   OH210222   0.906   0.970   4.590
 3422TIP3    H110223   0.840   1.032   4.621
 3422TIP3    H210224   0.988   1.020   4.591
 3423TIP3   OH210225   7.987   2.867   3.141
 3423TIP3    H110226   7.978   2.937   3.076
 3423TIP3    H210227   8.030   2.796   3.095
 3424TIP3   OH210228   4.874   4.907   5.439
 3424TIP3    H110229   4.868   4.829   5.493
 3424TIP3    H210230   4.808   4.894   5.371
 3425TIP3   OH210231   6.474   5.876   1.089
 3425TIP3    H110232   6.558   5.853   1.129
 3425TIP3    H210233   6.419   5.799   1.101
 3426TIP3   OH210234   4.038   1.995   2.741
 3426TIP3    H110235   3.984   2.067   2.708
 3426TIP3    H210236   4.119   2.037   2.770
 3427TIP3   OH210237   3.422   1.800   4.532
 3427TIP3    H110238   3.453   1.865   4.595
 3427TIP3    H210239   3.503   1.761   4.497
 3428TIP3   OH210240   3.422   2.508   1.019
 3428TIP3    H110241   3.468   2.571   1.075
 3428TIP3    H210242   3.332   2.506   1.052
 3429TIP3   OH210243   0.727   7.680   4.524
 3429TIP3    H110244   0.718   7.737   4.600
 3429TIP3    H210245   0.786   7.610   4.553
 3430TIP3   OH210246   6.437   7.692   6.782
 3430TIP3    H110247   6.491   7.701   6.704
 3430TIP3    H210248   6.420   7.782   6.811
 3431TIP3   OH210249   0.200   6.199   3.075
 3431TIP3    H110250   0.147   6.250   3.014
 3431TIP3    H210251   0.291   6.219   3.052
 3432TIP3   OH210252   2.257   7.327   0.189
 3432TIP3    H110253   2.334   7.297   0.141
 3432TIP3    H210254   2.262   7.422   0.185
 3433TIP3   OH210255   4.888   3.307   1.696
 3433TIP3    H110256   4.944   3.321   1.620
 3433TIP3    H210257   4.945   3.322   1.771
 3434TIP3   OH210258   4.343   5.531   1.189
 3434TIP3    H110259   4.426   5.502   1.151
 3434TIP3    H210260   4.292   5.563   1.115
 3435TIP3   OH210261   1.194   4.496   1.172
 3435TIP3    H110262   1.139   4.573   1.184
 3435TIP3    H210263   1.283   4.527   1.192
 3436TIP3   OH210264   2.280   1.094   0.658
 3436TIP3    H110265   2.298   1.187   0.667
 3436TIP3    H210266   2.325   1.068   0.578
 3437TIP3   OH210267   4.828   5.532   2.927
 3437TIP3    H110268   4.782   5.523   2.844
 3437TIP3    H210269   4.829   5.444   2.964
 3438TIP3   OH210270   0.982   2.231   0.650
 3438TIP3    H110271   1.021   2.146   0.669
 3438TIP3    H210272   0.889   2.212   0.636
 3439TIP3   OH210273   2.625   0.447   6.266
 3439TIP3    H110274   2.552   0.487   6.312
 3439TIP3    H210275   2.652   0.373   6.321
 3440TIP3   OH210276   6.088   1.736   0.499
 3440TIP3    H110277   6.133   1.653   0.516
 3440TIP3    H210278   6.056   1.763   0.586
 3441TIP3   OH210279   3.679   1.966   1.984
 3441TIP3    H110280   3.670   1.978   1.889
 3441TIP3    H210281   3.634   1.884   2.002
 3442TIP3   OH210282   1.058   1.270   0.849
 3442TIP3    H110283   1.085   1.178   0.844
 3442TIP3    H210284   1.019   1.279   0.935
 3443TIP3   OH210285   7.099   6.346   5.575
 3443TIP3    H110286   7.076   6.296   5.653
 3443TIP3    H210287   7.119   6.434   5.608
 3444TIP3   OH210288   0.455   2.869   4.634
 3444TIP3    H110289   0.511   2.795   4.608
 3444TIP3    H210290   0.374   2.856   4.585
 3445TIP3   OH210291   4.958   0.981   4.972
 3445TIP3    H110292   4.993   0.966   4.884
 3445TIP3    H210293   4.949   1.076   4.979
 3446TIP3   OH210294   2.242   4.670   4.117
 3446TIP3    H110295   2.207   4.614   4.048
 3446TIP3    H210296   2.304   4.614   4.164
 3447TIP3   OH210297   4.556   4.623   3.988
 3447TIP3    H110298   4.619   4.695   3.984
 3447TIP3    H210299   4.584   4.572   4.064
 3448TIP3   OH210300   6.948   0.421   0.875
 3448TIP3    H110301   6.938   0.426   0.780
 3448TIP3    H210302   7.013   0.487   0.897
 3449TIP3   OH210303   5.081   6.482   4.096
 3449TIP3    H110304   5.088   6.535   4.017
 3449TIP3    H210305   5.139   6.407   4.080
 3450TIP3   OH210306   4.416   1.439   0.883
 3450TIP3    H110307   4.370   1.484   0.953
 3450TIP3    H210308   4.489   1.497   0.861
 3451TIP3   OH210309   2.553   1.967   0.653
 3451TIP3    H110310   2.537   1.915   0.732
 3451TIP3    H210311   2.607   1.911   0.597
 3452TIP3   OH210312   4.539   7.442   1.471
 3452TIP3    H110313   4.450   7.475   1.481
 3452TIP3    H210314   4.528   7.347   1.458
 3453TIP3   OH210315   6.557   2.462   2.522
 3453TIP3    H110316   6.615   2.386   2.528
 3453TIP3    H210317   6.491   2.437   2.458
 3454TIP3   OH210318   4.129   0.930   6.044
 3454TIP3    H110319   4.114   0.958   6.135
 3454TIP3    H210320   4.085   0.846   6.037
 3455TIP3   OH210321   0.128   3.768   2.871
 3455TIP3    H110322   0.069   3.760   2.796
 3455TIP3    H210323   0.083   3.829   2.930
 3456TIP3   OH210324   2.003   7.285   1.489
 3456TIP3    H110325   1.926   7.341   1.491
 3456TIP3    H210326   2.064   7.325   1.552
 3457TIP3   OH210327   4.465   0.319   6.459
 3457TIP3    H110328   4.545   0.277   6.492
 3457TIP3    H210329   4.394   0.262   6.490
 3458TIP3   OH210330   6.428   7.660   0.984
 3458TIP3    H110331   6.336   7.672   0.961
 3458TIP3    H210332   6.447   7.569   0.962
 3459TIP3   OH210333   4.769   0.413   0.295
 3459TIP3    H110334   4.776   0.352   0.221
 3459TIP3    H210335   4.725   0.490   0.258
 3460TIP3   OH210336   1.303   7.633   5.379
 3460TIP3    H110337   1.362   7.618   5.453
 3460TIP3    H210338   1.361   7.657   5.307
 3461TIP3   OH210339   0.436   0.103   2.579
 3461TIP3    H110340   0.525   0.135   2.566
 3461TIP3    H210341   0.428   0.093   2.674
 3462TIP3   OH210342   7.840   7.424   2.539
 3462TIP3    H110343   7.754   7.457   2.512
 3462TIP3    H210344   7.823   7.338   2.575
 3463TIP3   OH210345   3.943   2.068   1.805
 3463TIP3    H110346   4.004   2.022   1.746
 3463TIP3    H210347   3.994   2.142   1.837
 3464TIP3   OH210348   2.453   2.743   3.405
 3464TIP3    H110349   2.460   2.781   3.317
 3464TIP3    H210350   2.490   2.810   3.463
 3465TIP3   OH210351   1.793   7.019   0.468
 3465TIP3    H110352   1.733   6.960   0.514
 3465TIP3    H210353   1.800   6.983   0.380
 3466TIP3   OH210354   5.060   0.235   0.224
 3466TIP3    H110355   5.081   0.328   0.215
 3466TIP3    H210356   5.143   0.190   0.213
 3467TIP3   OH210357   0.784   5.386   4.901
 3467TIP3    H110358   0.710   5.350   4.948
 3467TIP3    H210359   0.857   5.383   4.963
 3468TIP3   OH210360   6.774   7.588   4.411
 3468TIP3    H110361   6.849   7.640   4.439
 3468TIP3    H210362   6.760   7.525   4.481
 3469TIP3   OH210363   4.807   0.437   1.003
 3469TIP3    H110364   4.842   0.360   0.958
 3469TIP3    H210365   4.765   0.488   0.935
 3470TIP3   OH210366   1.191   4.200   4.181
 3470TIP3    H110367   1.201   4.125   4.240
 3470TIP3    H210368   1.182   4.275   4.239
 3471TIP3   OH210369   6.761   0.459   4.148
 3471TIP3    H110370   6.756   0.363   4.149
 3471TIP3    H210371   6.679   0.487   4.107
 3472TIP3   OH210372   8.094   3.999   0.500
 3472TIP3    H110373   8.122   3.911   0.474
 3472TIP3    H210374   8.057   4.038   0.420
 3473TIP3   OH210375   5.367   1.492   3.861
 3473TIP3    H110376   5.456   1.510   3.829
 3473TIP3    H210377   5.360   1.542   3.942
 3474TIP3   OH210378   5.780   2.122   5.239
 3474TIP3    H110379   5.735   2.173   5.172
 3474TIP3    H210380   5.801   2.185   5.308
 3475TIP3   OH210381   1.615   2.327   2.309
 3475TIP3    H110382   1.604   2.238   2.342
 3475TIP3    H210383   1.687   2.363   2.361
 3476TIP3   OH210384   4.203   1.912   0.138
 3476TIP3    H110385   4.195   1.870   0.223
 3476TIP3    H210386   4.266   1.983   0.152
 3477TIP3   OH210387   1.975   1.907   0.350
 3477TIP3    H110388   2.034   1.936   0.419
 3477TIP3    H210389   1.925   1.985   0.327
 3478TIP3   OH210390   5.228   3.704   4.613
 3478TIP3    H110391   5.182   3.640   4.560
 3478TIP3    H210392   5.295   3.654   4.659
 3479TIP3   OH210393   1.472   1.742   1.473
 3479TIP3    H110394   1.541   1.686   1.509
 3479TIP3    H210395   1.472   1.819   1.528
 3480TIP3   OH210396   2.300   1.140   5.823
 3480TIP3    H110397   2.304   1.100   5.910
 3480TIP3    H210398   2.378   1.106   5.777
 3481TIP3   OH210399   7.615   1.322   4.417
 3481TIP3    H110400   7.592   1.363   4.335
 3481TIP3    H210401   7.589   1.230   4.406
 3482TIP3   OH210402   2.562   5.567   3.015
 3482TIP3    H110403   2.599   5.634   3.072
 3482TIP3    H210404   2.559   5.609   2.929
 3483TIP3   OH210405   2.226   2.546   1.689
 3483TIP3    H110406   2.303   2.492   1.705
 3483TIP3    H210407   2.262   2.631   1.663
 3484TIP3   OH210408   4.832   4.129   5.901
 3484TIP3    H110409   4.845   4.039   5.931
 3484TIP3    H210410   4.920   4.164   5.894
 3485TIP3   OH210411   2.156   3.173   3.337
 3485TIP3    H110412   2.066   3.196   3.359
 3485TIP3    H210413   2.165   3.198   3.245
 3486TIP3   OH210414   4.379   6.155   1.966
 3486TIP3    H110415   4.404   6.141   1.875
 3486TIP3    H210416   4.395   6.248   1.981
 3487TIP3   OH210417   2.233   3.643   0.119
 3487TIP3    H110418   2.183   3.613   0.044
 3487TIP3    H210419   2.224   3.738   0.118
 3488TIP3   OH210420   0.318   2.035   4.263
 3488TIP3    H110421   0.293   2.058   4.173
 3488TIP3    H210422   0.282   2.107   4.316
 3489TIP3   OH210423   1.846   3.194   0.724
 3489TIP3    H110424   1.878   3.278   0.757
 3489TIP3    H210425   1.764   3.215   0.680
 3490TIP3   OH210426   2.848   3.006   3.971
 3490TIP3    H110427   2.797   3.076   3.928
 3490TIP3    H210428   2.844   3.028   4.064
 3491TIP3   OH210429   5.350   1.325   4.885
 3491TIP3    H110430   5.326   1.242   4.842
 3491TIP3    H210431   5.281   1.339   4.950
 3492TIP3   OH210432   5.640   6.128   6.060
 3492TIP3    H110433   5.614   6.035   6.054
 3492TIP3    H210434   5.558   6.176   6.051
 3493TIP3   OH210435   7.996   3.465   2.342
 3493TIP3    H110436   7.984   3.492   2.432
 3493TIP3    H210437   7.915   3.491   2.298
 3494TIP3   OH210438   6.556   6.767   4.119
 3494TIP3    H110439   6.517   6.695   4.170
 3494TIP3    H210440   6.527   6.752   4.029
 3495TIP3   OH210441   4.491   2.740   6.777
 3495TIP3    H110442   4.574   2.784   6.760
 3495TIP3    H210443   4.480   2.680   6.703
 3496TIP3   OH210444   2.248   0.729   2.458
 3496TIP3    H110445   2.163   0.691   2.479
 3496TIP3    H210446   2.263   0.795   2.527
 3497TIP3   OH210447   0.830   6.094   6.053
 3497TIP3    H110448   0.916   6.052   6.051
 3497TIP3    H210449   0.850   6.188   6.044
 3498TIP3   OH210450   0.985   1.421   4.607
 3498TIP3    H110451   0.978   1.354   4.539
 3498TIP3    H210452   0.902   1.415   4.655
 3499TIP3   OH210453   7.330   3.255   1.191
 3499TIP3    H110454   7.265   3.204   1.239
 3499TIP3    H210455   7.398   3.192   1.168
 3500TIP3   OH210456   2.644   0.156   6.060
 3500TIP3    H110457   2.646   0.092   6.132
 3500TIP3    H210458   2.573   0.216   6.083
 3501TIP3   OH210459   4.997   1.318   5.513
 3501TIP3    H110460   4.904   1.297   5.519
 3501TIP3    H210461   5.025   1.327   5.604
 3502TIP3   OH210462   7.686   6.684   0.218
 3502TIP3    H110463   7.594   6.667   0.238
 3502TIP3    H210464   7.734   6.639   0.289
 3503TIP3   OH210465   8.036   5.838   3.035
 3503TIP3    H110466   8.025   5.928   3.006
 3503TIP3    H210467   7.962   5.791   2.998
 3504TIP3   OH210468   2.368   5.359   5.783
 3504TIP3    H110469   2.397   5.325   5.868
 3504TIP3    H210470   2.304   5.427   5.805
 3505TIP3   OH210471   2.708   0.820   3.843
 3505TIP3    H110472   2.780   0.841   3.783
 3505TIP3    H210473   2.667   0.904   3.862
 3506TIP3   OH210474   2.478   6.421   0.843
 3506TIP3    H110475   2.480   6.326   0.853
 3506TIP3    H210476   2.413   6.437   0.774
 3507TIP3   OH210477   2.623   2.534   3.307
 3507TIP3    H110478   2.569   2.576   3.374
 3507TIP3    H210479   2.704   2.510   3.352
 3508TIP3   OH210480   2.375   1.656   4.462
 3508TIP3    H110481   2.441   1.662   4.531
 3508TIP3    H210482   2.414   1.700   4.387
 3509TIP3   OH210483   7.566   6.433   0.092
 3509TIP3    H110484   7.642   6.428   0.150
 3509TIP3    H210485   7.503   6.485   0.140
 3510TIP3   OH210486   3.320   5.843   6.047
 3510TIP3    H110487   3.358   5.827   5.960
 3510TIP3    H210488   3.255   5.912   6.031
 3511TIP3   OH210489   2.915   0.266   1.642
 3511TIP3    H110490   2.886   0.267   1.551
 3511TIP3    H210491   3.008   0.289   1.637
 3512TIP3   OH210492   7.869   5.787   5.959
 3512TIP3    H110493   7.848   5.781   6.053
 3512TIP3    H210494   7.855   5.698   5.926
 3513TIP3   OH210495   6.346   1.652   3.920
 3513TIP3    H110496   6.282   1.657   3.849
 3513TIP3    H210497   6.297   1.677   3.998
 3514TIP3   OH210498   2.464   0.686   0.136
 3514TIP3    H110499   2.417   0.731   0.066
 3514TIP3    H210500   2.482   0.598   0.101
 3515TIP3   OH210501   2.056   5.874   0.929
 3515TIP3    H110502   2.129   5.814   0.944
 3515TIP3    H210503   2.055   5.888   0.835
 3516TIP3   OH210504   0.707   3.931   6.514
 3516TIP3    H110505   0.737   3.925   6.604
 3516TIP3    H210506   0.638   3.996   6.515
 3517TIP3   OH210507   5.355   6.210   2.460
 3517TIP3    H110508   5.449   6.220   2.444
 3517TIP3    H210509   5.332   6.283   2.517
 3518TIP3   OH210510   5.521   5.336   6.096
 3518TIP3    H110511   5.576   5.370   6.026
 3518TIP3    H210512   5.582   5.291   6.155
 3519TIP3   OH210513   2.711   0.479   1.578
 3519TIP3    H110514   2.732   0.428   1.500
 3519TIP3    H210515   2.673   0.560   1.544
 3520TIP3   OH210516   4.453   0.190   3.432
 3520TIP3    H110517   4.446   0.283   3.451
 3520TIP3    H210518   4.502   0.185   3.350
 3521TIP3   OH210519   7.523   0.832   6.633
 3521TIP3    H110520   7.537   0.751   6.682
 3521TIP3    H210521   7.514   0.900   6.700
 3522TIP3   OH210522   0.775   4.527   2.839
 3522TIP3    H110523   0.864   4.559   2.824
 3522TIP3    H210524   0.725   4.605   2.862
 3523TIP3   OH210525   6.151   1.198   2.051
 3523TIP3    H110526   6.217   1.248   2.100
 3523TIP3    H210527   6.087   1.172   2.117
 3524TIP3   OH210528   6.507   6.930   4.776
 3524TIP3    H110529   6.563   6.957   4.849
 3524TIP3    H210530   6.556   6.861   4.733
 3525TIP3   OH210531   0.725   4.671   0.473
 3525TIP3    H110532   0.773   4.751   0.449
 3525TIP3    H210533   0.761   4.647   0.559
 3526TIP3   OH210534   5.589   7.490   6.376
 3526TIP3    H110535   5.586   7.583   6.397
 3526TIP3    H210536   5.587   7.446   6.461
 3527TIP3   OH210537   2.566   3.222   1.033
 3527TIP3    H110538   2.578   3.208   1.127
 3527TIP3    H210539   2.494   3.164   1.009
 3528TIP3   OH210540   4.784   2.304   1.075
 3528TIP3    H110541   4.753   2.394   1.068
 3528TIP3    H210542   4.748   2.273   1.158
 3529TIP3   OH210543   0.210   0.737   6.523
 3529TIP3    H110544   0.292   0.734   6.573
 3529TIP3    H210545   0.163   0.812   6.560
 3530TIP3   OH210546   0.101   6.923   5.660
 3530TIP3    H110547   0.185   6.942   5.618
 3530TIP3    H210548   0.096   6.827   5.660
 3531TIP3   OH210549   7.191   3.043   2.864
 3531TIP3    H110550   7.157   3.123   2.904
 3531TIP3    H210551   7.280   3.066   2.838
 3532TIP3   OH210552   3.211   6.428   5.732
 3532TIP3    H110553   3.302   6.458   5.741
 3532TIP3    H210554   3.176   6.479   5.659
 3533TIP3   OH210555   3.375   4.301   3.592
 3533TIP3    H110556   3.325   4.220   3.588
 3533TIP3    H210557   3.308   4.370   3.594
 3534TIP3   OH210558   4.651   5.583   1.592
 3534TIP3    H110559   4.636   5.570   1.499
 3534TIP3    H210560   4.687   5.672   1.599
 3535TIP3   OH210561   4.967   2.753   0.424
 3535TIP3    H110562   5.043   2.747   0.365
 3535TIP3    H210563   4.977   2.837   0.468
 3536TIP3   OH210564   2.792   5.008   1.067
 3536TIP3    H110565   2.841   4.930   1.040
 3536TIP3    H210566   2.848   5.082   1.042
 3537TIP3   OH210567   2.003   4.849   6.313
 3537TIP3    H110568   2.038   4.760   6.303
 3537TIP3    H210569   1.930   4.839   6.374
 3538TIP3   OH210570   4.908   2.972   3.523
 3538TIP3    H110571   4.858   2.895   3.496
 3538TIP3    H210572   4.890   3.038   3.457
 3539TIP3   OH210573   8.017   6.901   6.003
 3539TIP3    H110574   8.063   6.942   6.076
 3539TIP3    H210575   8.073   6.916   5.927
 3540TIP3   OH210576   4.644   1.928   4.888
 3540TIP3    H110577   4.633   2.005   4.943
 3540TIP3    H210578   4.641   1.961   4.798
 3541TIP3   OH210579   6.829   2.053   1.339
 3541TIP3    H110580   6.816   2.145   1.364
 3541TIP3    H210581   6.922   2.048   1.316
 3542TIP3   OH210582   0.342   3.699   2.593
 3542TIP3    H110583   0.413   3.672   2.651
 3542TIP3    H210584   0.280   3.745   2.650
 3543TIP3   OH210585   0.267   5.783   6.010
 3543TIP3    H110586   0.340   5.725   6.033
 3543TIP3    H210587   0.230   5.809   6.094
 3544TIP3   OH210588   3.379   7.392   1.495
 3544TIP3    H110589   3.415   7.464   1.444
 3544TIP3    H210590   3.454   7.336   1.514
 3545TIP3   OH210591   0.640   3.173   1.700
 3545TIP3    H110592   0.601   3.217   1.775
 3545TIP3    H210593   0.723   3.220   1.686
 3546TIP3   OH210594   6.554   5.784   5.525
 3546TIP3    H110595   6.468   5.821   5.544
 3546TIP3    H210596   6.608   5.809   5.601
 3547TIP3   OH210597   5.923   7.171   2.010
 3547TIP3    H110598   5.975   7.147   1.934
 3547TIP3    H210599   5.869   7.094   2.028
 3548TIP3   OH210600   4.805   7.052   1.937
 3548TIP3    H110601   4.720   7.094   1.921
 3548TIP3    H210602   4.786   6.958   1.938
 3549TIP3   OH210603   6.044   1.448   0.419
 3549TIP3    H110604   5.984   1.379   0.391
 3549TIP3    H210605   6.070   1.423   0.508
 3550TIP3   OH210606   7.970   0.116   4.127
 3550TIP3    H110607   7.984   0.049   4.060
 3550TIP3    H210608   7.880   0.144   4.115
 3551TIP3   OH210609   3.667   6.947   2.066
 3551TIP3    H110610   3.635   6.911   2.149
 3551TIP3    H210611   3.639   6.884   2.000
 3552TIP3   OH210612   5.755   7.609   1.447
 3552TIP3    H110613   5.724   7.519   1.460
 3552TIP3    H210614   5.827   7.618   1.509
 3553TIP3   OH210615   7.239   5.006   5.304
 3553TIP3    H110616   7.197   5.006   5.218
 3553TIP3    H210617   7.327   5.040   5.288
 3554TIP3   OH210618   2.318   0.301   4.317
 3554TIP3    H110619   2.384   0.232   4.318
 3554TIP3    H210620   2.322   0.339   4.229
 3555TIP3   OH210621   3.917   2.330   0.363
 3555TIP3    H110622   3.924   2.337   0.268
 3555TIP3    H210623   3.987   2.386   0.397
 3556TIP3   OH210624   4.803   7.157   4.675
 3556TIP3    H110625   4.768   7.111   4.598
 3556TIP3    H210626   4.839   7.238   4.641
 3557TIP3   OH210627   7.731   2.026   5.173
 3557TIP3    H110628   7.781   2.061   5.100
 3557TIP3    H210629   7.671   1.963   5.133
 3558TIP3   OH210630   8.013   2.237   3.541
 3558TIP3    H110631   7.992   2.169   3.477
 3558TIP3    H210632   8.050   2.308   3.488
 3559TIP3   OH210633   4.721   3.255   0.710
 3559TIP3    H110634   4.695   3.167   0.684
 3559TIP3    H210635   4.654   3.313   0.673
 3560TIP3   OH210636   2.550   1.801   1.953
 3560TIP3    H110637   2.596   1.721   1.977
 3560TIP3    H210638   2.570   1.814   1.860
 3561TIP3   OH210639   2.441   6.927   5.400
 3561TIP3    H110640   2.372   6.904   5.463
 3561TIP3    H210641   2.433   7.022   5.389
 3562TIP3   OH210642   7.125   5.467   5.107
 3562TIP3    H110643   7.038   5.482   5.069
 3562TIP3    H210644   7.115   5.492   5.199
 3563TIP3   OH210645   1.390   6.770   1.387
 3563TIP3    H110646   1.377   6.820   1.467
 3563TIP3    H210647   1.327   6.698   1.394
 3564TIP3   OH210648   0.082   0.497   0.272
 3564TIP3    H110649   0.071   0.592   0.284
 3564TIP3    H210650   0.176   0.482   0.282
 3565TIP3   OH210651   3.394   2.327   2.595
 3565TIP3    H110652   3.307   2.288   2.584
 3565TIP3    H210653   3.382   2.420   2.577
 3566TIP3   OH210654   5.160   7.317   5.370
 3566TIP3    H110655   5.220   7.244   5.386
 3566TIP3    H210656   5.216   7.393   5.355
 3567TIP3   OH210657   6.918   5.596   1.042
 3567TIP3    H110658   7.003   5.573   1.080
 3567TIP3    H210659   6.871   5.638   1.114
 3568TIP3   OH210660   2.515   7.023   6.438
 3568TIP3    H110661   2.512   7.114   6.467
 3568TIP3    H210662   2.446   7.017   6.371
 3569TIP3   OH210663   6.596   2.302   1.678
 3569TIP3    H110664   6.541   2.273   1.606
 3569TIP3    H210665   6.602   2.227   1.737
 3570TIP3   OH210666   3.108   0.952   4.744
 3570TIP3    H110667   3.145   0.980   4.660
 3570TIP3    H210668   3.179   0.904   4.787
 3571TIP3   OH210669   5.218   0.027   4.976
 3571TIP3    H110670   5.176   0.057   4.896
 3571TIP3    H210671   5.250   0.108   5.018
 3572TIP3   OH210672   0.377   0.088   2.864
 3572TIP3    H110673   0.399   0.086   2.957
 3572TIP3    H210674   0.370   0.181   2.843
 3573TIP3   OH210675   7.756   3.991   0.371
 3573TIP3    H110676   7.666   3.960   0.361
 3573TIP3    H210677   7.748   4.087   0.376
 3574TIP3   OH210678   5.070   0.988   1.919
 3574TIP3    H110679   4.998   0.928   1.902
 3574TIP3    H210680   5.104   0.962   2.005
 3575TIP3   OH210681   0.441   6.236   5.888
 3575TIP3    H110682   0.404   6.172   5.949
 3575TIP3    H210683   0.501   6.186   5.833
 3576TIP3   OH210684   6.204   3.016   3.204
 3576TIP3    H110685   6.237   3.099   3.169
 3576TIP3    H210686   6.242   2.949   3.147
 3577TIP3   OH210687   2.550   2.432   2.187
 3577TIP3    H110688   2.496   2.502   2.225
 3577TIP3    H210689   2.623   2.422   2.248
 3578TIP3   OH210690   4.801   7.546   6.313
 3578TIP3    H110691   4.814   7.604   6.238
 3578TIP3    H210692   4.889   7.525   6.343
 3579TIP3   OH210693   0.932   5.942   2.573
 3579TIP3    H110694   0.949   6.003   2.502
 3579TIP3    H210695   1.015   5.899   2.589
 3580TIP3   OH210696   5.073   3.391   3.552
 3580TIP3    H110697   5.033   3.335   3.486
 3580TIP3    H210698   5.162   3.357   3.562
 3581TIP3   OH210699   8.166   2.623   2.150
 3581TIP3    H110700   8.123   2.704   2.176
 3581TIP3    H210701   8.124   2.598   2.068
 3582TIP3   OH210702   6.477   5.101   3.467
 3582TIP3    H110703   6.384   5.095   3.444
 3582TIP3    H210704   6.514   5.019   3.436
 3583TIP3   OH210705   5.065   0.416   1.200
 3583TIP3    H110706   5.042   0.466   1.121
 3583TIP3    H210707   4.981   0.396   1.240
 3584TIP3   OH210708   2.543   7.415   5.585
 3584TIP3    H110709   2.523   7.508   5.576
 3584TIP3    H210710   2.599   7.410   5.663
 3585TIP3   OH210711   2.369   7.500   4.907
 3585TIP3    H110712   2.331   7.570   4.853
 3585TIP3    H210713   2.294   7.449   4.937
 3586TIP3   OH210714   6.925   2.525   5.462
 3586TIP3    H110715   6.831   2.545   5.464
 3586TIP3    H210716   6.931   2.440   5.506
 3587TIP3   OH210717   7.743   6.043   3.217
 3587TIP3    H110718   7.697   6.069   3.137
 3587TIP3    H210719   7.831   6.079   3.206
 3588TIP3   OH210720   5.525   2.894   3.109
 3588TIP3    H110721   5.539   2.989   3.114
 3588TIP3    H210722   5.484   2.871   3.192
 3589TIP3   OH210723   1.902   2.380   2.142
 3589TIP3    H110724   1.870   2.365   2.231
 3589TIP3    H210725   1.967   2.310   2.128
 3590TIP3   OH210726   7.908   1.304   2.273
 3590TIP3    H110727   7.909   1.219   2.229
 3590TIP3    H210728   7.989   1.305   2.323
 3591TIP3   OH210729   3.109   3.313   0.538
 3591TIP3    H110730   3.017   3.295   0.556
 3591TIP3    H210731   3.108   3.380   0.470
 3592TIP3   OH210732   5.530   4.173   0.878
 3592TIP3    H110733   5.578   4.188   0.796
 3592TIP3    H210734   5.445   4.215   0.864
 3593TIP3   OH210735   2.507   3.874   4.151
 3593TIP3    H110736   2.498   3.804   4.086
 3593TIP3    H210737   2.428   3.867   4.205
 3594TIP3   OH210738   5.898   4.648   1.452
 3594TIP3    H110739   5.865   4.567   1.413
 3594TIP3    H210740   5.918   4.705   1.378
 3595TIP3   OH210741   5.687   0.603   6.269
 3595TIP3    H110742   5.599   0.640   6.272
 3595TIP3    H210743   5.694   0.552   6.349
 3596TIP3   OH210744   0.188   2.831   6.290
 3596TIP3    H110745   0.135   2.892   6.239
 3596TIP3    H210746   0.125   2.771   6.330
 3597TIP3   OH210747   1.967   3.015   5.405
 3597TIP3    H110748   2.036   3.011   5.339
 3597TIP3    H210749   1.892   3.054   5.360
 3598TIP3   OH210750   6.338   4.297   5.824
 3598TIP3    H110751   6.371   4.385   5.844
 3598TIP3    H210752   6.308   4.303   5.733
 3599TIP3   OH210753   2.636   0.856   0.253
 3599TIP3    H110754   2.650   0.888   0.164
 3599TIP3    H210755   2.562   0.796   0.246
 3600TIP3   OH210756   5.050   1.342   3.554
 3600TIP3    H110757   5.086   1.322   3.641
 3600TIP3    H210758   5.118   1.395   3.512
 3601TIP3   OH210759   1.029   4.511   3.196
 3601TIP3    H110760   1.054   4.549   3.281
 3601TIP3    H210761   0.991   4.585   3.148
 3602TIP3   OH210762   4.900   1.914   5.808
 3602TIP3    H110763   4.989   1.887   5.829
 3602TIP3    H210764   4.844   1.847   5.848
 3603TIP3   OH210765   6.619   2.417   3.177
 3603TIP3    H110766   6.693   2.474   3.155
 3603TIP3    H210767   6.588   2.450   3.262
 3604TIP3   OH210768   8.174   6.757   0.542
 3604TIP3    H110769   8.128   6.828   0.586
 3604TIP3    H210770   8.248   6.738   0.598
 3605TIP3   OH210771   5.029   6.756   3.928
 3605TIP3    H110772   4.951   6.765   3.983
 3605TIP3    H210773   4.996   6.757   3.838
 3606TIP3   OH210774   1.795   2.088   3.435
 3606TIP3    H110775   1.751   2.032   3.500
 3606TIP3    H210776   1.836   2.027   3.374
 3607TIP3   OH210777   5.758   0.431   3.005
 3607TIP3    H110778   5.749   0.375   2.927
 3607TIP3    H210779   5.833   0.488   2.985
 3608TIP3   OH210780   3.344   5.403   5.108
 3608TIP3    H110781   3.309   5.314   5.105
 3608TIP3    H210782   3.439   5.392   5.105
 3609TIP3   OH210783   0.625   6.084   5.751
 3609TIP3    H110784   0.607   6.061   5.660
 3609TIP3    H210785   0.662   6.004   5.789
 3610TIP3   OH210786   1.161   5.992   2.728
 3610TIP3    H110787   1.112   6.074   2.726
 3610TIP3    H210788   1.196   5.986   2.817
 3611TIP3   OH210789   0.811   6.785   5.574
 3611TIP3    H110790   0.730   6.739   5.596
 3611TIP3    H210791   0.818   6.854   5.640
 3612TIP3   OH210792   6.998   3.168   3.098
 3612TIP3    H110793   6.968   3.230   3.165
 3612TIP3    H210794   7.042   3.222   3.033
 3613TIP3   OH210795   4.367   4.435   0.992
 3613TIP3    H110796   4.447   4.461   0.947
 3613TIP3    H210797   4.314   4.394   0.923
 3614TIP3   OH210798   1.713   5.755   1.603
 3614TIP3    H110799   1.726   5.715   1.517
 3614TIP3    H210800   1.760   5.697   1.664
 3615TIP3   OH210801   0.173   0.039   3.803
 3615TIP3    H110802   0.214  -0.039   3.841
 3615TIP3    H210803   0.195   0.034   3.710
 3616TIP3   OH210804   1.820   2.645   2.177
 3616TIP3    H110805   1.889   2.694   2.221
 3616TIP3    H210806   1.854   2.555   2.171
 3617TIP3   OH210807   5.647   1.644   3.821
 3617TIP3    H110808   5.710   1.716   3.832
 3617TIP3    H210809   5.681   1.575   3.877
 3618TIP3   OH210810   3.946   2.456   5.179
 3618TIP3    H110811   3.955   2.362   5.194
 3618TIP3    H210812   3.867   2.465   5.124
 3619TIP3   OH210813   4.092   2.212   2.012
 3619TIP3    H110814   4.082   2.307   2.003
 3619TIP3    H210815   4.186   2.197   2.004
 3620TIP3   OH210816   7.497   3.076   5.431
 3620TIP3    H110817   7.424   3.036   5.479
 3620TIP3    H210818   7.538   3.003   5.386
 3621TIP3   OH210819   5.902   2.666   0.971
 3621TIP3    H110820   5.848   2.593   1.000
 3621TIP3    H210821   5.866   2.690   0.885
 3622TIP3   OH210822   6.244   1.109   0.695
 3622TIP3    H110823   6.312   1.091   0.760
 3622TIP3    H210824   6.283   1.084   0.612
 3623TIP3   OH210825   5.141   0.869   1.131
 3623TIP3    H110826   5.181   0.953   1.108
 3623TIP3    H210827   5.204   0.803   1.100
 3624TIP3   OH210828   3.427   4.850   3.806
 3624TIP3    H110829   3.426   4.775   3.866
 3624TIP3    H210830   3.421   4.927   3.862
 3625TIP3   OH210831   5.580   4.618   3.709
 3625TIP3    H110832   5.547   4.533   3.682
 3625TIP3    H210833   5.605   4.661   3.627
 3626TIP3   OH210834   6.294   5.228   2.795
 3626TIP3    H110835   6.313   5.309   2.748
 3626TIP3    H210836   6.344   5.235   2.876
 3627TIP3   OH210837   2.247   6.745   0.503
 3627TIP3    H110838   2.280   6.803   0.571
 3627TIP3    H210839   2.242   6.659   0.545
 3628TIP3   OH210840   4.478   4.075   0.226
 3628TIP3    H110841   4.428   3.994   0.211
 3628TIP3    H210842   4.534   4.054   0.300
 3629TIP3   OH210843   3.545   5.175   0.419
 3629TIP3    H110844   3.457   5.210   0.406
 3629TIP3    H210845   3.582   5.171   0.331
 3630TIP3   OH210846   1.896   6.997   3.673
 3630TIP3    H110847   1.836   6.999   3.599
 3630TIP3    H210848   1.840   7.014   3.749
 3631TIP3   OH210849   4.328   4.941   5.832
 3631TIP3    H110850   4.417   4.920   5.859
 3631TIP3    H210851   4.275   4.867   5.862
 3632TIP3   OH210852   0.984   2.547   6.231
 3632TIP3    H110853   0.954   2.634   6.204
 3632TIP3    H210854   1.023   2.561   6.317
 3633TIP3   OH210855   4.283   6.653   2.774
 3633TIP3    H110856   4.292   6.559   2.755
 3633TIP3    H210857   4.219   6.657   2.844
 3634TIP3   OH210858   7.138   4.677   6.691
 3634TIP3    H110859   7.191   4.750   6.720
 3634TIP3    H210860   7.052   4.715   6.674
 3635TIP3   OH210861   3.361   0.741   6.319
 3635TIP3    H110862   3.433   0.803   6.332
 3635TIP3    H210863   3.303   0.784   6.256
 3636TIP3   OH210864   4.976   0.686   4.967
 3636TIP3    H110865   4.980   0.782   4.972
 3636TIP3    H210866   4.882   0.666   4.966
 3637TIP3   OH210867   5.784   7.268   2.888
 3637TIP3    H110868   5.870   7.305   2.908
 3637TIP3    H210869   5.775   7.277   2.793
 3638TIP3   OH210870   1.920   4.614   5.685
 3638TIP3    H110871   2.013   4.593   5.677
 3638TIP3    H210872   1.910   4.645   5.775
 3639TIP3   OH210873   2.899   1.603   4.091
 3639TIP3    H110874   2.995   1.596   4.093
 3639TIP3    H210875   2.868   1.518   4.119
 3640TIP3   OH210876   5.356   5.349   4.158
 3640TIP3    H110877   5.427   5.401   4.119
 3640TIP3    H210878   5.278   5.404   4.148
 3641TIP3   OH210879   2.003   4.404   5.886
 3641TIP3    H110880   2.048   4.488   5.874
 3641TIP3    H210881   1.938   4.421   5.953
 3642TIP3   OH210882   4.136   1.400   5.820
 3642TIP3    H110883   4.227   1.413   5.792
 3642TIP3    H210884   4.135   1.312   5.858
 3643TIP3   OH210885   0.084   6.126   5.093
 3643TIP3    H110886  -0.005   6.120   5.128
 3643TIP3    H210887   0.140   6.108   5.169
 3644TIP3   OH210888   2.763   2.071   1.913
 3644TIP3    H110889   2.681   2.114   1.939
 3644TIP3    H210890   2.743   2.033   1.828
 3645TIP3   OH210891   3.953   5.036   1.864
 3645TIP3    H110892   3.874   5.061   1.816
 3645TIP3    H210893   3.923   4.966   1.922
 3646TIP3   OH210894   3.252   6.708   0.841
 3646TIP3    H110895   3.184   6.641   0.857
 3646TIP3    H210896   3.282   6.731   0.929
 3647TIP3   OH210897   7.302   5.121   2.160
 3647TIP3    H110898   7.233   5.184   2.181
 3647TIP3    H210899   7.369   5.135   2.226
 3648TIP3   OH210900   5.487   6.535   3.912
 3648TIP3    H110901   5.479   6.473   3.839
 3648TIP3    H210902   5.443   6.614   3.882
 3649TIP3   OH210903   6.286   4.142   3.611
 3649TIP3    H110904   6.351   4.105   3.672
 3649TIP3    H210905   6.214   4.171   3.666
 3650TIP3   OH210906   3.244   6.289   2.953
 3650TIP3    H110907   3.288   6.373   2.941
 3650TIP3    H210908   3.159   6.300   2.911
 3651TIP3   OH210909   0.086   3.430   0.193
 3651TIP3    H110910   0.131   3.347   0.209
 3651TIP3    H210911   0.005   3.425   0.243
 3652TIP3   OH210912   2.742   2.766   4.256
 3652TIP3    H110913   2.704   2.724   4.333
 3652TIP3    H210914   2.667   2.799   4.207
 3653TIP3   OH210915   4.172   7.784   3.103
 3653TIP3    H110916   4.221   7.705   3.124
 3653TIP3    H210917   4.133   7.768   3.017
 3654TIP3   OH210918   2.583   4.998   1.713
 3654TIP3    H110919   2.502   5.010   1.762
 3654TIP3    H210920   2.630   4.929   1.759
 3655TIP3   OH210921   3.643   4.628   1.784
 3655TIP3    H110922   3.703   4.677   1.728
 3655TIP3    H210923   3.599   4.567   1.725
 3656TIP3   OH210924   4.368   4.645   6.202
 3656TIP3    H110925   4.281   4.661   6.239
 3656TIP3    H210926   4.371   4.550   6.188
 3657TIP3   OH210927   5.259   1.284   6.372
 3657TIP3    H110928   5.168   1.271   6.396
 3657TIP3    H210929   5.258   1.292   6.276
 3658TIP3   OH210930   7.309   6.293   6.679
 3658TIP3    H110931   7.390   6.282   6.729
 3658TIP3    H210932   7.239   6.284   6.744
 3659TIP3   OH210933   6.530   7.710   4.308
 3659TIP3    H110934   6.562   7.749   4.226
 3659TIP3    H210935   6.605   7.662   4.343
 3660TIP3   OH210936   0.403   7.394   0.799
 3660TIP3    H110937   0.399   7.481   0.840
 3660TIP3    H210938   0.474   7.349   0.845
 3661TIP3   OH210939   6.345   5.712   0.257
 3661TIP3    H110940   6.435   5.728   0.285
 3661TIP3    H210941   6.350   5.636   0.200
 3662TIP3   OH210942   4.467   1.208   0.615
 3662TIP3    H110943   4.552   1.164   0.612
 3662TIP3    H210944   4.462   1.245   0.703
 3663TIP3   OH210945   5.476   7.148   2.404
 3663TIP3    H110946   5.518   7.081   2.458
 3663TIP3    H210947   5.525   7.228   2.423
 3664TIP3   OH210948   1.812   3.894   0.328
 3664TIP3    H110949   1.841   3.878   0.238
 3664TIP3    H210950   1.887   3.870   0.382
 3665TIP3   OH210951   6.025   3.567   1.224
 3665TIP3    H110952   5.932   3.592   1.228
 3665TIP3    H210953   6.026   3.489   1.169
 3666TIP3   OH210954   1.932   6.742   0.561
 3666TIP3    H110955   1.994   6.777   0.625
 3666TIP3    H210956   1.913   6.654   0.592
 3667TIP3   OH210957   5.699   4.600   6.439
 3667TIP3    H110958   5.785   4.600   6.396
 3667TIP3    H210959   5.680   4.507   6.453
 3668TIP3   OH210960   2.351   5.740   5.018
 3668TIP3    H110961   2.271   5.789   5.000
 3668TIP3    H210962   2.393   5.787   5.090
 3669TIP3   OH210963   1.672   6.248   1.566
 3669TIP3    H110964   1.618   6.311   1.613
 3669TIP3    H210965   1.759   6.288   1.562
 3670TIP3   OH210966   2.323   3.673   5.215
 3670TIP3    H110967   2.360   3.723   5.288
 3670TIP3    H210968   2.229   3.691   5.219
 3671TIP3   OH210969   0.867   5.301   2.344
 3671TIP3    H110970   0.962   5.303   2.331
 3671TIP3    H210971   0.853   5.231   2.407
 3672TIP3   OH210972   1.603   4.447   4.293
 3672TIP3    H110973   1.652   4.499   4.358
 3672TIP3    H210974   1.671   4.395   4.249
 3673TIP3   OH210975   2.904   0.797   0.200
 3673TIP3    H110976   2.810   0.787   0.211
 3673TIP3    H210977   2.943   0.750   0.274
 3674TIP3   OH210978   6.544   0.890   4.632
 3674TIP3    H110979   6.572   0.927   4.716
 3674TIP3    H210980   6.449   0.877   4.642
 3675TIP3   OH210981   0.060   7.787   0.822
 3675TIP3    H110982   0.062   7.721   0.752
 3675TIP3    H210983   0.117   7.857   0.791
 3676TIP3   OH210984   8.188   0.762   2.580
 3676TIP3    H110985   8.248   0.688   2.569
 3676TIP3    H210986   8.191   0.782   2.673
 3677TIP3   OH210987   5.385   6.827   6.553
 3677TIP3    H110988   5.472   6.859   6.578
 3677TIP3    H210989   5.399   6.786   6.468
 3678TIP3   OH210990   1.790   3.094   5.682
 3678TIP3    H110991   1.795   3.086   5.778
 3678TIP3    H210992   1.862   3.039   5.650
 3679TIP3   OH210993   5.530   1.204   6.522
 3679TIP3    H110994   5.462   1.221   6.457
 3679TIP3    H210995   5.486   1.152   6.589
 3680TIP3   OH210996   0.585   4.147   3.160
 3680TIP3    H110997   0.636   4.206   3.216
 3680TIP3    H210998   0.564   4.200   3.083
 3681TIP3   OH210999   7.223   4.971   4.208
 3681TIP3    H111000   7.172   4.916   4.268
 3681TIP3    H211001   7.253   4.912   4.140
 3682TIP3   OH211002   7.569   0.018   2.341
 3682TIP3    H111003   7.632   0.074   2.296
 3682TIP3    H211004   7.573  -0.065   2.294
 3683TIP3   OH211005   5.984   3.049   1.257
 3683TIP3    H111006   5.928   3.119   1.292
 3683TIP3    H211007   5.923   2.991   1.211
 3684TIP3   OH211008   0.983   6.372   3.904
 3684TIP3    H111009   0.925   6.400   3.833
 3684TIP3    H211010   1.041   6.307   3.863
 3685TIP3   OH211011   1.028   4.027   6.424
 3685TIP3    H111012   0.980   3.957   6.469
 3685TIP3    H211013   1.079   3.982   6.356
 3686TIP3   OH211014   3.440   5.663   2.620
 3686TIP3    H111015   3.408   5.751   2.640
 3686TIP3    H211016   3.374   5.626   2.562
 3687TIP3   OH211017   3.281   0.645   4.693
 3687TIP3    H111018   3.219   0.649   4.766
 3687TIP3    H211019   3.254   0.568   4.643
 3688TIP3   OH211020   7.400   7.358   4.703
 3688TIP3    H111021   7.336   7.305   4.656
 3688TIP3    H211022   7.388   7.447   4.669
 3689TIP3   OH211023   5.549   3.862   1.318
 3689TIP3    H111024   5.485   3.889   1.384
 3689TIP3    H211025   5.497   3.832   1.245
 3690TIP3   OH211026   4.492   3.216   3.937
 3690TIP3    H111027   4.475   3.297   3.985
 3690TIP3    H211028   4.413   3.163   3.949
 3691TIP3   OH211029   8.143   5.022   2.744
 3691TIP3    H111030   8.137   4.936   2.702
 3691TIP3    H211031   8.146   5.084   2.671
 3692TIP3   OH211032   4.053   0.096   0.763
 3692TIP3    H111033   4.071   0.169   0.822
 3692TIP3    H211034   4.069   0.131   0.675
 3693TIP3   OH211035   0.559   5.282   5.252
 3693TIP3    H111036   0.578   5.277   5.158
 3693TIP3    H211037   0.645   5.296   5.293
 3694TIP3   OH211038   6.056   7.830   3.312
 3694TIP3    H111039   6.108   7.849   3.234
 3694TIP3    H211040   6.103   7.760   3.356
 3695TIP3   OH211041   6.272   2.682   2.559
 3695TIP3    H111042   6.341   2.676   2.624
 3695TIP3    H211043   6.308   2.738   2.490
 3696TIP3   OH211044   6.355   6.039   0.427
 3696TIP3    H111045   6.383   6.008   0.341
 3696TIP3    H211046   6.282   5.982   0.451
 3697TIP3   OH211047   7.735   4.899   5.422
 3697TIP3    H111048   7.815   4.882   5.372
 3697TIP3    H211049   7.667   4.910   5.355
 3698TIP3   OH211050   4.496   6.224   5.579
 3698TIP3    H111051   4.444   6.154   5.539
 3698TIP3    H211052   4.585   6.209   5.546
 3699TIP3   OH211053   3.476  -0.035   2.164
 3699TIP3    H111054   3.414  -0.009   2.097
 3699TIP3    H211055   3.487   0.043   2.219
 3700TIP3   OH211056   2.128   4.560   3.881
 3700TIP3    H111057   2.119   4.623   3.810
 3700TIP3    H211058   2.079   4.483   3.851
 3701TIP3   OH211059   2.472   0.781   4.205
 3701TIP3    H111060   2.489   0.705   4.150
 3701TIP3    H211061   2.493   0.752   4.294
 3702TIP3   OH211062   7.927   3.387   4.737
 3702TIP3    H111063   7.903   3.403   4.646
 3702TIP3    H211064   8.017   3.419   4.745
 3703TIP3   OH211065   4.408   3.766   2.287
 3703TIP3    H111066   4.423   3.699   2.219
 3703TIP3    H211067   4.486   3.760   2.342
 3704TIP3   OH211068   3.136   7.280   1.407
 3704TIP3    H111069   3.122   7.362   1.360
 3704TIP3    H211070   3.226   7.287   1.441
 3705TIP3   OH211071   2.187   2.610   5.328
 3705TIP3    H111072   2.218   2.677   5.266
 3705TIP3    H211073   2.094   2.602   5.309
 3706TIP3   OH211074   2.200   6.959   1.957
 3706TIP3    H111075   2.294   6.974   1.967
 3706TIP3    H211076   2.165   6.961   2.046
 3707TIP3   OH211077   5.780   5.750   3.622
 3707TIP3    H111078   5.742   5.669   3.655
 3707TIP3    H211079   5.866   5.755   3.663
 3708TIP3   OH211080   7.761   2.610   5.543
 3708TIP3    H111081   7.775   2.541   5.478
 3708TIP3    H211082   7.682   2.584   5.590
 3709TIP3   OH211083   3.889   0.689   5.349
 3709TIP3    H111084   3.845   0.727   5.273
 3709TIP3    H211085   3.824   0.691   5.419
 3710TIP3   OH211086   3.150   7.097   6.467
 3710TIP3    H111087   3.074   7.144   6.501
 3710TIP3    H211088   3.149   7.012   6.512
 3711TIP3   OH211089   6.218   3.017   3.727
 3711TIP3    H111090   6.200   2.923   3.730
 3711TIP3    H211091   6.144   3.055   3.680
 3712TIP3   OH211092   1.332   2.880   1.990
 3712TIP3    H111093   1.282   2.962   1.984
 3712TIP3    H211094   1.422   2.908   2.006
 3713TIP3   OH211095   3.989   5.659   5.760
 3713TIP3    H111096   4.074   5.651   5.805
 3713TIP3    H211097   3.999   5.604   5.682
 3714TIP3   OH211098   7.985   1.598   2.783
 3714TIP3    H111099   8.013   1.544   2.857
 3714TIP3    H211100   7.892   1.577   2.772
 3715TIP3   OH211101   7.439   6.724   0.608
 3715TIP3    H111102   7.361   6.682   0.571
 3715TIP3    H211103   7.440   6.696   0.699
 3716TIP3   OH211104   7.710   0.796   5.336
 3716TIP3    H111105   7.761   0.752   5.268
 3716TIP3    H211106   7.670   0.725   5.385
 3717TIP3   OH211107   0.930   2.810   6.133
 3717TIP3    H111108   0.994   2.873   6.166
 3717TIP3    H211109   0.845   2.852   6.148
 3718TIP3   OH211110   7.848   1.470   1.506
 3718TIP3    H111111   7.860   1.456   1.412
 3718TIP3    H211112   7.923   1.521   1.533
 3719TIP3   OH211113   6.079   0.954   3.782
 3719TIP3    H111114   6.084   1.016   3.855
 3719TIP3    H211115   6.155   0.975   3.728
 3720TIP3   OH211116   0.928   6.941   1.765
 3720TIP3    H111117   0.896   6.974   1.681
 3720TIP3    H211118   0.950   7.019   1.815
 3721TIP3   OH211119   0.512   3.359   5.443
 3721TIP3    H111120   0.444   3.294   5.465
 3721TIP3    H211121   0.483   3.439   5.486
 3722TIP3   OH211122   5.781   4.612   2.991
 3722TIP3    H111123   5.847   4.675   2.963
 3722TIP3    H211124   5.699   4.661   2.992
 3723TIP3   OH211125   7.820   5.925   2.072
 3723TIP3    H111126   7.866   5.865   2.013
 3723TIP3    H211127   7.789   5.869   2.144
 3724TIP3   OH211128   1.540   6.206   0.430
 3724TIP3    H111129   1.575   6.212   0.519
 3724TIP3    H211130   1.617   6.205   0.374
 3725TIP3   OH211131   7.552   1.564   0.560
 3725TIP3    H111132   7.553   1.545   0.653
 3725TIP3    H211133   7.512   1.651   0.554
 3726TIP3   OH211134   0.722   6.462   5.435
 3726TIP3    H111135   0.807   6.427   5.463
 3726TIP3    H211136   0.698   6.523   5.505
 3727TIP3   OH211137   0.035   4.067   0.979
 3727TIP3    H111138  -0.042   4.092   1.031
 3727TIP3    H211139   0.104   4.127   1.009
 3728TIP3   OH211140   1.798   3.606   3.609
 3728TIP3    H111141   1.850   3.622   3.687
 3728TIP3    H211142   1.845   3.537   3.562
 3729TIP3   OH211143   8.117   4.195   5.703
 3729TIP3    H111144   8.147   4.173   5.614
 3729TIP3    H211145   8.125   4.290   5.708
 3730TIP3   OH211146   6.875   7.665   3.299
 3730TIP3    H111147   6.949   7.690   3.243
 3730TIP3    H211148   6.861   7.572   3.281
 3731TIP3   OH211149   6.813   6.318   5.491
 3731TIP3    H111150   6.903   6.339   5.514
 3731TIP3    H211151   6.820   6.246   5.428
 3732TIP3   OH211152   1.361   4.662   4.619
 3732TIP3    H111153   1.338   4.754   4.603
 3732TIP3    H211154   1.396   4.631   4.535
 3733TIP3   OH211155   3.339   5.111   5.471
 3733TIP3    H111156   3.425   5.076   5.496
 3733TIP3    H211157   3.351   5.143   5.382
 3734TIP3   OH211158   7.133   0.894   3.948
 3734TIP3    H111159   7.114   0.879   4.041
 3734TIP3    H211160   7.088   0.823   3.903
 3735TIP3   OH211161   3.644   5.659   4.189
 3735TIP3    H111162   3.562   5.696   4.156
 3735TIP3    H211163   3.708   5.677   4.120
 3736TIP3   OH211164   1.575   4.982   5.291
 3736TIP3    H111165   1.576   4.909   5.353
 3736TIP3    H211166   1.570   4.941   5.205
 3737TIP3   OH211167   2.238   6.927   0.115
 3737TIP3    H111168   2.314   6.880   0.082
 3737TIP3    H211169   2.204   6.871   0.186
 3738TIP3   OH211170   8.227   6.366   4.291
 3738TIP3    H111171   8.173   6.395   4.365
 3738TIP3    H211172   8.287   6.438   4.275
 3739TIP3   OH211173   6.220   0.871   3.463
 3739TIP3    H111174   6.159   0.870   3.389
 3739TIP3    H211175   6.240   0.964   3.477
 3740TIP3   OH211176   8.051   2.451   2.839
 3740TIP3    H111177   8.137   2.438   2.879
 3740TIP3    H211178   8.000   2.375   2.866
 3741TIP3   OH211179   3.513   5.621   3.069
 3741TIP3    H111180   3.477   5.702   3.033
 3741TIP3    H211181   3.442   5.583   3.121
 3742TIP3   OH211182   1.393   1.496   0.948
 3742TIP3    H111183   1.488   1.506   0.938
 3742TIP3    H211184   1.373   1.544   1.029
 3743TIP3   OH211185   1.330   1.552   1.791
 3743TIP3    H111186   1.266   1.516   1.852
 3743TIP3    H211187   1.325   1.495   1.714
 3744TIP3   OH211188   0.688   3.161   2.224
 3744TIP3    H111189   0.620   3.190   2.164
 3744TIP3    H211190   0.770   3.192   2.185
 3745TIP3   OH211191   5.321   5.913   1.283
 3745TIP3    H111192   5.357   5.886   1.367
 3745TIP3    H211193   5.348   5.845   1.221
 3746TIP3   OH211194   3.076   3.306   4.127
 3746TIP3    H111195   3.112   3.222   4.099
 3746TIP3    H211196   3.143   3.370   4.101
 3747TIP3   OH211197   3.800   3.606   2.861
 3747TIP3    H111198   3.825   3.695   2.839
 3747TIP3    H211199   3.878   3.553   2.840
 3748TIP3   OH211200   7.957   6.172   6.259
 3748TIP3    H111201   7.905   6.234   6.311
 3748TIP3    H211202   8.047   6.183   6.292
 3749TIP3   OH211203   3.428   6.392   6.404
 3749TIP3    H111204   3.501   6.333   6.424
 3749TIP3    H211205   3.359   6.333   6.372
 3750TIP3   OH211206   3.145   0.931   0.103
 3750TIP3    H111207   3.078   0.872   0.137
 3750TIP3    H211208   3.127   0.938   0.009
 3751TIP3   OH211209   7.602   4.031   3.163
 3751TIP3    H111210   7.529   4.088   3.136
 3751TIP3    H211211   7.584   4.011   3.255
 3752TIP3   OH211212   3.683   5.552   2.572
 3752TIP3    H111213   3.590   5.570   2.583
 3752TIP3    H211214   3.716   5.542   2.661
 3753TIP3   OH211215   2.374   4.096   6.303
 3753TIP3    H111216   2.337   4.116   6.217
 3753TIP3    H211217   2.429   4.172   6.323
 3754TIP3   OH211218   0.921   5.417   3.172
 3754TIP3    H111219   0.881   5.331   3.158
 3754TIP3    H211220   0.858   5.464   3.226
 3755TIP3   OH211221   1.557   5.769   3.529
 3755TIP3    H111222   1.581   5.686   3.571
 3755TIP3    H211223   1.481   5.747   3.475
 3756TIP3   OH211224   0.917   5.422   0.681
 3756TIP3    H111225   0.903   5.509   0.644
 3756TIP3    H211226   1.006   5.426   0.717
 3757TIP3   OH211227   1.430   7.015   0.738
 3757TIP3    H111228   1.517   6.980   0.720
 3757TIP3    H211229   1.372   6.939   0.736
 3758TIP3   OH211230   7.385   5.935   1.118
 3758TIP3    H111231   7.370   6.029   1.121
 3758TIP3    H211232   7.311   5.897   1.165
 3759TIP3   OH211233   8.046   4.938   6.408
 3759TIP3    H111234   7.966   4.976   6.445
 3759TIP3    H211235   8.019   4.904   6.323
 3760TIP3   OH211236   7.022   6.527   3.982
 3760TIP3    H111237   6.959   6.562   4.044
 3760TIP3    H211238   7.097   6.586   3.987
 3761TIP3   OH211239   1.860   0.708   0.017
 3761TIP3    H111240   1.904   0.674   0.094
 3761TIP3    H211241   1.793   0.643  -0.004
 3762TIP3   OH211242   5.020   7.503   4.810
 3762TIP3    H111243   5.087   7.570   4.803
 3762TIP3    H211244   4.967   7.530   4.885
 3763TIP3   OH211245   3.094   7.040   1.705
 3763TIP3    H111246   3.119   7.132   1.716
 3763TIP3    H211247   3.126   7.018   1.617
 3764TIP3   OH211248   6.534   1.608   0.278
 3764TIP3    H111249   6.483   1.684   0.250
 3764TIP3    H211250   6.469   1.543   0.301
 3765TIP3   OH211251   6.413   0.644   4.359
 3765TIP3    H111252   6.352   0.661   4.287
 3765TIP3    H211253   6.500   0.661   4.321
 3766TIP3   OH211254   6.665   1.202   2.414
 3766TIP3    H111255   6.627   1.127   2.460
 3766TIP3    H211256   6.656   1.275   2.475
 3767TIP3   OH211257   8.265   1.965   3.181
 3767TIP3    H111258   8.351   2.003   3.163
 3767TIP3    H211259   8.203   2.037   3.167
 3768TIP3   OH211260   3.985   6.834   0.340
 3768TIP3    H111261   4.059   6.857   0.284
 3768TIP3    H211262   3.981   6.905   0.405
 3769TIP3   OH211263   0.771   0.659   5.640
 3769TIP3    H111264   0.735   0.738   5.681
 3769TIP3    H211265   0.755   0.671   5.547
 3770TIP3   OH211266   0.638   3.359   4.594
 3770TIP3    H111267   0.722   3.389   4.631
 3770TIP3    H211268   0.625   3.272   4.633
 3771TIP3   OH211269   4.840   0.507   3.492
 3771TIP3    H111270   4.781   0.581   3.510
 3771TIP3    H211271   4.923   0.533   3.533
 3772TIP3   OH211272   0.751   2.561   5.719
 3772TIP3    H111273   0.796   2.616   5.783
 3772TIP3    H211274   0.675   2.526   5.767
 3773TIP3   OH211275   7.518   4.478   4.885
 3773TIP3    H111276   7.516   4.551   4.823
 3773TIP3    H211277   7.479   4.514   4.965
 3774TIP3   OH211278   0.238   4.912   5.910
 3774TIP3    H111279   0.220   4.851   5.981
 3774TIP3    H211280   0.334   4.918   5.907
 3775TIP3   OH211281   0.816   6.419   1.844
 3775TIP3    H111282   0.839   6.379   1.760
 3775TIP3    H211283   0.722   6.433   1.840
 3776TIP3   OH211284   0.405   4.009   0.545
 3776TIP3    H111285   0.311   4.003   0.530
 3776TIP3    H211286   0.433   4.084   0.493
 3777TIP3   OH211287   4.202   2.500   5.005
 3777TIP3    H111288   4.211   2.455   5.089
 3777TIP3    H211289   4.272   2.565   5.005
 3778TIP3   OH211290   7.435   0.155   1.162
 3778TIP3    H111291   7.444   0.248   1.183
 3778TIP3    H211292   7.525   0.122   1.161
 3779TIP3   OH211293   4.409   6.886   2.325
 3779TIP3    H111294   4.388   6.953   2.260
 3779TIP3    H211295   4.423   6.936   2.406
 3780TIP3   OH211296   5.775   6.542   6.053
 3780TIP3    H111297   5.839   6.546   5.982
 3780TIP3    H211298   5.697   6.505   6.011
 3781TIP3   OH211299   0.016   2.940   2.254
 3781TIP3    H111300   0.060   2.950   2.338
 3781TIP3    H211301   0.087   2.930   2.191
 3782TIP3   OH211302   5.894   2.681   3.696
 3782TIP3    H111303   5.900   2.724   3.781
 3782TIP3    H211304   5.981   2.691   3.658
 3783TIP3   OH211305   2.250   5.730   1.112
 3783TIP3    H111306   2.294   5.755   1.194
 3783TIP3    H211307   2.163   5.700   1.139
 3784TIP3   OH211308   7.008   0.846   4.189
 3784TIP3    H111309   7.034   0.890   4.270
 3784TIP3    H211310   6.913   0.857   4.186
 3785TIP3   OH211311   7.008   3.937   0.271
 3785TIP3    H111312   7.062   3.880   0.216
 3785TIP3    H211313   6.919   3.906   0.257
 3786TIP3   OH211314   8.101   3.039   6.176
 3786TIP3    H111315   8.067   3.022   6.263
 3786TIP3    H211316   8.196   3.034   6.187
 3787TIP3   OH211317   3.376   2.846   5.859
 3787TIP3    H111318   3.337   2.852   5.772
 3787TIP3    H211319   3.464   2.812   5.843
 3788TIP3   OH211320   4.779   0.288   0.760
 3788TIP3    H111321   4.818   0.282   0.673
 3788TIP3    H211322   4.758   0.198   0.783
 3789TIP3   OH211323   8.180   4.888   4.350
 3789TIP3    H111324   8.183   4.984   4.351
 3789TIP3    H211325   8.117   4.865   4.418
 3790TIP3   OH211326   6.276   5.039   5.021
 3790TIP3    H111327   6.308   5.041   4.931
 3790TIP3    H211328   6.189   4.999   5.014
 3791TIP3   OH211329   5.649   7.368   2.364
 3791TIP3    H111330   5.601   7.451   2.371
 3791TIP3    H211331   5.740   7.394   2.353
 3792TIP3   OH211332   6.943   6.861   4.341
 3792TIP3    H111333   7.021   6.880   4.290
 3792TIP3    H211334   6.975   6.844   4.430
 3793TIP3   OH211335   1.930   3.961   5.904
 3793TIP3    H111336   1.867   4.024   5.939
 3793TIP3    H211337   1.992   4.015   5.855
 3794TIP3   OH211338   3.499   3.890   3.352
 3794TIP3    H111339   3.413   3.861   3.321
 3794TIP3    H211340   3.498   3.872   3.446
 3795TIP3   OH211341   5.670   1.814   2.900
 3795TIP3    H111342   5.707   1.875   2.836
 3795TIP3    H211343   5.626   1.870   2.964
 3796TIP3   OH211344   1.589   5.349   1.455
 3796TIP3    H111345   1.543   5.329   1.373
 3796TIP3    H211346   1.668   5.296   1.452
 3797TIP3   OH211347   0.784   4.938   3.434
 3797TIP3    H111348   0.874   4.946   3.465
 3797TIP3    H211349   0.743   4.877   3.495
 3798TIP3   OH211350   5.433   5.381   1.671
 3798TIP3    H111351   5.482   5.364   1.751
 3798TIP3    H211352   5.367   5.445   1.697
 3799TIP3   OH211353   0.075   5.829   5.781
 3799TIP3    H111354   0.001   5.785   5.823
 3799TIP3    H211355   0.093   5.904   5.838
 3800TIP3   OH211356   4.777   7.242   3.024
 3800TIP3    H111357   4.776   7.305   2.951
 3800TIP3    H211358   4.780   7.297   3.103
 3801TIP3   OH211359   0.736   6.029   0.898
 3801TIP3    H111360   0.667   6.016   0.963
 3801TIP3    H211361   0.742   6.124   0.887
 3802TIP3   OH211362   2.896   4.501   2.507
 3802TIP3    H111363   2.813   4.500   2.556
 3802TIP3    H211364   2.961   4.471   2.571
 3803TIP3   OH211365   0.458   7.673   0.951
 3803TIP3    H111366   0.435   7.664   1.044
 3803TIP3    H211367   0.374   7.682   0.907
 3804TIP3   OH211368   4.095   4.013   2.623
 3804TIP3    H111369   4.068   3.974   2.539
 3804TIP3    H211370   4.176   3.967   2.645
 3805TIP3   OH211371   5.966   6.078   1.511
 3805TIP3    H111372   5.898   6.015   1.486
 3805TIP3    H211373   5.937   6.112   1.595
 3806TIP3   OH211374   3.750   4.390   6.499
 3806TIP3    H111375   3.675   4.345   6.459
 3806TIP3    H211376   3.715   4.475   6.525
 3807TIP3   OH211377   0.621   2.649   4.607
 3807TIP3    H111378   0.675   2.587   4.655
 3807TIP3    H211379   0.531   2.618   4.621
 3808TIP3   OH211380   3.845   5.051   0.210
 3808TIP3    H111381   3.772   4.989   0.217
 3808TIP3    H211382   3.803   5.136   0.201
 3809TIP3   OH211383   7.822   6.642   6.367
 3809TIP3    H111384   7.904   6.626   6.320
 3809TIP3    H211385   7.753   6.621   6.304
 3810TIP3   OH211386   3.500   0.649   2.408
 3810TIP3    H111387   3.483   0.583   2.475
 3810TIP3    H211388   3.428   0.639   2.346
 3811TIP3   OH211389   5.674   3.592   5.522
 3811TIP3    H111390   5.740   3.660   5.506
 3811TIP3    H211391   5.591   3.636   5.507
 3812TIP3   OH211392   8.060   7.475   4.271
 3812TIP3    H111393   8.031   7.498   4.183
 3812TIP3    H211394   7.979   7.463   4.321
 3813TIP3   OH211395   2.983   6.292   3.680
 3813TIP3    H111396   2.904   6.259   3.637
 3813TIP3    H211397   2.953   6.370   3.728
 3814TIP3   OH211398   4.630   5.258   2.789
 3814TIP3    H111399   4.695   5.264   2.859
 3814TIP3    H211400   4.681   5.262   2.708
 3815TIP3   OH211401   3.367   3.322   4.845
 3815TIP3    H111402   3.293   3.261   4.847
 3815TIP3    H211403   3.403   3.320   4.934
 3816TIP3   OH211404   1.281   3.546   3.001
 3816TIP3    H111405   1.333   3.587   3.070
 3816TIP3    H211406   1.293   3.452   3.015
 3817TIP3   OH211407   8.039   7.376   1.636
 3817TIP3    H111408   7.981   7.392   1.563
 3817TIP3    H211409   7.988   7.320   1.696
 3818TIP3   OH211410   6.885   3.677   4.762
 3818TIP3    H111411   6.875   3.734   4.838
 3818TIP3    H211412   6.807   3.623   4.762
 3819TIP3   OH211413   3.245   4.191   3.204
 3819TIP3    H111414   3.197   4.219   3.126
 3819TIP3    H211415   3.205   4.241   3.275
 3820TIP3   OH211416   0.689   4.797   3.672
 3820TIP3    H111417   0.595   4.792   3.686
 3820TIP3    H211418   0.708   4.724   3.612
 3821TIP3   OH211419   7.069   2.932   6.605
 3821TIP3    H111420   7.048   2.842   6.578
 3821TIP3    H211421   7.134   2.961   6.541
 3822TIP3   OH211422   7.083   1.827   0.767
 3822TIP3    H111423   7.107   1.911   0.726
 3822TIP3    H211424   6.988   1.823   0.759
 3823TIP3   OH211425   3.946   4.287   1.327
 3823TIP3    H111426   4.035   4.301   1.360
 3823TIP3    H211427   3.947   4.325   1.240
 3824TIP3   OH211428   7.675   0.475   3.708
 3824TIP3    H111429   7.662   0.542   3.775
 3824TIP3    H211430   7.593   0.426   3.706
 3825TIP3   OH211431   2.142   4.918   1.387
 3825TIP3    H111432   2.068   4.971   1.415
 3825TIP3    H211433   2.192   4.974   1.329
 3826TIP3   OH211434   3.412   5.096   3.065
 3826TIP3    H111435   3.503   5.070   3.052
 3826TIP3    H211436   3.386   5.134   2.981
 3827TIP3   OH211437   6.212   0.083   4.812
 3827TIP3    H111438   6.246   0.029   4.741
 3827TIP3    H211439   6.141   0.133   4.772
 3828TIP3   OH211440   3.728   1.048   0.767
 3828TIP3    H111441   3.654   1.027   0.711
 3828TIP3    H211442   3.707   1.006   0.851
 3829TIP3   OH211443   6.540   5.232   5.717
 3829TIP3    H111444   6.538   5.323   5.686
 3829TIP3    H211445   6.621   5.196   5.680
 3830TIP3   OH211446   1.312   7.471   5.759
 3830TIP3    H111447   1.223   7.448   5.734
 3830TIP3    H211448   1.362   7.390   5.750
 3831TIP3   OH211449   1.297   0.011   2.156
 3831TIP3    H111450   1.350   0.019   2.077
 3831TIP3    H211451   1.275   0.102   2.179
 3832TIP3   OH211452   1.047   1.409   5.118
 3832TIP3    H111453   1.007   1.494   5.138
 3832TIP3    H211454   1.002   1.348   5.177
 3833TIP3   OH211455   0.641   0.621   5.965
 3833TIP3    H111456   0.635   0.534   6.005
 3833TIP3    H211457   0.728   0.621   5.924
 3834TIP3   OH211458   1.992   4.068   3.792
 3834TIP3    H111459   2.004   4.030   3.705
 3834TIP3    H211460   2.013   3.996   3.853
 3835TIP3   OH211461   2.914   1.170   5.553
 3835TIP3    H111462   2.912   1.247   5.497
 3835TIP3    H211463   2.823   1.139   5.555
 3836TIP3   OH211464   7.777   5.770   3.572
 3836TIP3    H111465   7.794   5.710   3.645
 3836TIP3    H211466   7.765   5.855   3.614
 3837TIP3   OH211467   5.700   7.228   4.285
 3837TIP3    H111468   5.618   7.220   4.333
 3837TIP3    H211469   5.766   7.187   4.341
 3838TIP3   OH211470   0.352   5.992   3.171
 3838TIP3    H111471   0.428   6.044   3.195
 3838TIP3    H211472   0.299   6.051   3.117
 3839TIP3   OH211473   4.436   2.298   1.472
 3839TIP3    H111474   4.503   2.294   1.404
 3839TIP3    H211475   4.391   2.381   1.458
 3840TIP3   OH211476   0.347   6.240   4.350
 3840TIP3    H111477   0.331   6.148   4.369
 3840TIP3    H211478   0.286   6.287   4.407
 3841TIP3   OH211479   7.512   6.541   4.187
 3841TIP3    H111480   7.508   6.479   4.115
 3841TIP3    H211481   7.570   6.611   4.156
 3842TIP3   OH211482   2.534   4.909   5.218
 3842TIP3    H111483   2.448   4.950   5.209
 3842TIP3    H211484   2.517   4.815   5.209
 3843TIP3   OH211485   6.605   2.459   3.557
 3843TIP3    H111486   6.659   2.380   3.565
 3843TIP3    H211487   6.660   2.520   3.507
 3844TIP3   OH211488   7.259   7.307   0.608
 3844TIP3    H111489   7.343   7.351   0.621
 3844TIP3    H211490   7.251   7.248   0.682
 3845TIP3   OH211491   1.481   1.100   5.547
 3845TIP3    H111492   1.523   1.134   5.469
 3845TIP3    H211493   1.415   1.038   5.515
 3846TIP3   OH211494   6.120   4.082   6.443
 3846TIP3    H111495   6.146   4.018   6.377
 3846TIP3    H211496   6.203   4.111   6.481
 3847TIP3   OH211497   7.314   5.419   2.532
 3847TIP3    H111498   7.343   5.508   2.550
 3847TIP3    H211499   7.346   5.368   2.607
 3848TIP3   OH211500   1.997   0.811   3.104
 3848TIP3    H111501   1.953   0.759   3.037
 3848TIP3    H211502   2.031   0.747   3.166
 3849TIP3   OH211503   3.377   0.816   5.866
 3849TIP3    H111504   3.306   0.842   5.925
 3849TIP3    H211505   3.372   0.879   5.794
 3850TIP3   OH211506   4.972   3.191   5.171
 3850TIP3    H111507   5.049   3.223   5.126
 3850TIP3    H211508   4.921   3.146   5.102
 3851TIP3   OH211509   4.076   1.508   0.114
 3851TIP3    H111510   4.150   1.499   0.055
 3851TIP3    H211511   4.033   1.589   0.088
 3852TIP3   OH211512   4.624   4.648   3.026
 3852TIP3    H111513   4.612   4.741   3.008
 3852TIP3    H211514   4.642   4.609   2.940
 3853TIP3   OH211515   4.945   1.580   0.414
 3853TIP3    H111516   5.026   1.603   0.459
 3853TIP3    H211517   4.925   1.656   0.360
 3854TIP3   OH211518   2.257   1.192   3.842
 3854TIP3    H111519   2.341   1.166   3.878
 3854TIP3    H211520   2.223   1.257   3.903
 3855TIP3   OH211521   3.938   2.204   4.169
 3855TIP3    H111522   4.002   2.273   4.151
 3855TIP3    H211523   3.980   2.123   4.141
 3856TIP3   OH211524   4.900   4.903   2.849
 3856TIP3    H111525   4.889   4.809   2.834
 3856TIP3    H211526   4.871   4.944   2.767
 3857TIP3   OH211527   6.444   4.644   1.995
 3857TIP3    H111528   6.476   4.707   2.060
 3857TIP3    H211529   6.407   4.573   2.048
 3858TIP3   OH211530   5.033   4.454   1.571
 3858TIP3    H111531   5.058   4.461   1.663
 3858TIP3    H211532   5.099   4.504   1.523
 3859TIP3   OH211533   0.677   0.272   6.704
 3859TIP3    H111534   0.674   0.348   6.646
 3859TIP3    H211535   0.608   0.214   6.672
 3860TIP3   OH211536   0.346   1.498   2.237
 3860TIP3    H111537   0.369   1.474   2.148
 3860TIP3    H211538   0.303   1.420   2.273
 3861TIP3   OH211539   1.052   6.468   0.108
 3861TIP3    H111540   1.009   6.495   0.190
 3861TIP3    H211541   1.055   6.549   0.056
 3862TIP3   OH211542   5.506   6.137   3.541
 3862TIP3    H111543   5.504   6.041   3.548
 3862TIP3    H211544   5.595   6.161   3.567
 3863TIP3   OH211545   0.541   4.715   1.415
 3863TIP3    H111546   0.601   4.762   1.356
 3863TIP3    H211547   0.506   4.644   1.362
 3864TIP3   OH211548   2.982   2.820   5.694
 3864TIP3    H111549   3.064   2.771   5.694
 3864TIP3    H211550   3.008   2.910   5.675
 3865TIP3   OH211551   6.778   5.670   6.774
 3865TIP3    H111552   6.804   5.683   6.683
 3865TIP3    H211553   6.830   5.732   6.824
 3866TIP3   OH211554   3.315   6.816   2.533
 3866TIP3    H111555   3.278   6.858   2.456
 3866TIP3    H211556   3.402   6.788   2.507
 3867TIP3   OH211557   3.776   6.829   1.183
 3867TIP3    H111558   3.732   6.881   1.251
 3867TIP3    H211559   3.723   6.750   1.175
 3868TIP3   OH211560   0.432   2.214   2.649
 3868TIP3    H111561   0.525   2.236   2.654
 3868TIP3    H211562   0.405   2.248   2.564
 3869TIP3   OH211563   5.941   3.123   1.612
 3869TIP3    H111564   5.913   3.211   1.587
 3869TIP3    H211565   5.860   3.077   1.634
 3870TIP3   OH211566   6.970   3.645   3.040
 3870TIP3    H111567   6.909   3.574   3.062
 3870TIP3    H211568   7.055   3.601   3.033
 3871TIP3   OH211569   1.870   2.598   4.797
 3871TIP3    H111570   1.900   2.687   4.778
 3871TIP3    H211571   1.816   2.575   4.722
 3872TIP3   OH211572   0.056   7.166   2.368
 3872TIP3    H111573  -0.026   7.151   2.321
 3872TIP3    H211574   0.031   7.217   2.445
 3873TIP3   OH211575   0.700   1.798   5.505
 3873TIP3    H111576   0.706   1.766   5.415
 3873TIP3    H211577   0.639   1.872   5.500
 3874TIP3   OH211578   2.497   4.945   2.106
 3874TIP3    H111579   2.539   4.860   2.094
 3874TIP3    H211580   2.468   4.970   2.018
 3875TIP3   OH211581   0.477   2.897   6.283
 3875TIP3    H111582   0.388   2.874   6.310
 3875TIP3    H211583   0.512   2.947   6.356
 3876TIP3   OH211584   0.555   3.465   0.386
 3876TIP3    H111585   0.645   3.492   0.405
 3876TIP3    H211586   0.501   3.538   0.416
 3877TIP3   OH211587   4.263   5.795   0.752
 3877TIP3    H111588   4.266   5.797   0.848
 3877TIP3    H211589   4.303   5.712   0.729
 3878TIP3   OH211590   4.748   1.818   4.638
 3878TIP3    H111591   4.835   1.808   4.599
 3878TIP3    H211592   4.763   1.806   4.732
 3879TIP3   OH211593   7.523   3.444   1.264
 3879TIP3    H111594   7.535   3.493   1.183
 3879TIP3    H211595   7.451   3.384   1.246
 3880TIP3   OH211596   0.293   2.739   4.396
 3880TIP3    H111597   0.300   2.660   4.450
 3880TIP3    H211598   0.353   2.722   4.322
 3881TIP3   OH211599   7.176   1.803   6.326
 3881TIP3    H111600   7.223   1.886   6.332
 3881TIP3    H211601   7.244   1.736   6.327
 3882TIP3   OH211602   0.998   0.178   4.720
 3882TIP3    H111603   1.029   0.160   4.809
 3882TIP3    H211604   0.989   0.092   4.680
 3883TIP3   OH211605   7.303   7.771   2.282
 3883TIP3    H111606   7.326   7.770   2.375
 3883TIP3    H211607   7.209   7.753   2.281
 3884TIP3   OH211608   5.058   3.370   0.373
 3884TIP3    H111609   5.102   3.286   0.385
 3884TIP3    H211610   4.984   3.351   0.315
 3885TIP3   OH211611   4.189   1.730   5.397
 3885TIP3    H111612   4.177   1.759   5.306
 3885TIP3    H211613   4.120   1.666   5.412
 3886TIP3   OH211614   4.350   1.010   5.863
 3886TIP3    H111615   4.323   0.990   5.774
 3886TIP3    H211616   4.282   0.969   5.918
 3887TIP3   OH211617   4.970   0.164   5.621
 3887TIP3    H111618   4.880   0.141   5.647
 3887TIP3    H211619   4.967   0.164   5.525
 3888TIP3   OH211620   8.052   4.883   6.145
 3888TIP3    H111621   8.025   4.843   6.062
 3888TIP3    H211622   8.089   4.811   6.195
 3889TIP3   OH211623   0.982   0.289   0.403
 3889TIP3    H111624   1.077   0.280   0.398
 3889TIP3    H211625   0.959   0.251   0.488
 3890TIP3   OH211626   0.095   6.910   3.027
 3890TIP3    H111627   0.037   6.986   3.036
 3890TIP3    H211628   0.043   6.836   3.058
 3891TIP3   OH211629   2.975   0.540   3.896
 3891TIP3    H111630   2.938   0.594   3.966
 3891TIP3    H211631   3.016   0.603   3.836
 3892TIP3   OH211632   3.230   3.064   4.379
 3892TIP3    H111633   3.302   3.123   4.403
 3892TIP3    H211634   3.222   3.074   4.284
 3893TIP3   OH211635   1.799   5.236   6.438
 3893TIP3    H111636   1.883   5.201   6.406
 3893TIP3    H211637   1.740   5.227   6.364
 3894TIP3   OH211638   1.595   6.290   3.917
 3894TIP3    H111639   1.521   6.298   3.977
 3894TIP3    H211640   1.626   6.380   3.904
 3895TIP3   OH211641   2.096   4.705   3.261
 3895TIP3    H111642   2.103   4.789   3.306
 3895TIP3    H211643   2.180   4.693   3.218
 3896TIP3   OH211644   6.253   6.859   3.848
 3896TIP3    H111645   6.268   6.765   3.862
 3896TIP3    H211646   6.180   6.863   3.787
 3897TIP3   OH211647   2.609   1.488   4.335
 3897TIP3    H111648   2.566   1.450   4.412
 3897TIP3    H211649   2.652   1.567   4.368
 3898TIP3   OH211650   5.660   5.749   1.665
 3898TIP3    H111651   5.669   5.823   1.724
 3898TIP3    H211652   5.665   5.672   1.721
 3899TIP3   OH211653   0.074   5.352   4.428
 3899TIP3    H111654   0.030   5.429   4.463
 3899TIP3    H211655   0.081   5.369   4.334
 3900TIP3   OH211656   4.487   3.448   4.417
 3900TIP3    H111657   4.412   3.411   4.465
 3900TIP3    H211658   4.476   3.543   4.426
 3901TIP3   OH211659   0.785   0.172   5.788
 3901TIP3    H111660   0.708   0.126   5.754
 3901TIP3    H211661   0.785   0.255   5.742
 3902TIP3   OH211662   0.461   1.221   1.539
 3902TIP3    H111663   0.402   1.229   1.463
 3902TIP3    H211664   0.517   1.147   1.518
 3903TIP3   OH211665   7.679   2.859   3.874
 3903TIP3    H111666   7.648   2.950   3.879
 3903TIP3    H211667   7.687   2.842   3.780
 3904TIP3   OH211668   0.007   2.935   0.782
 3904TIP3    H111669  -0.007   3.003   0.848
 3904TIP3    H211670   0.036   2.859   0.832
 3905TIP3   OH211671   7.896   1.599   5.012
 3905TIP3    H111672   7.960   1.530   4.994
 3905TIP3    H211673   7.917   1.629   5.101
 3906TIP3   OH211674   6.237   3.869   5.861
 3906TIP3    H111675   6.314   3.837   5.907
 3906TIP3    H211676   6.169   3.804   5.877
 3907TIP3   OH211677   2.023   3.029   6.752
 3907TIP3    H111678   2.070   2.977   6.686
 3907TIP3    H211679   2.091   3.079   6.797
 3908TIP3   OH211680   3.581   3.549   0.753
 3908TIP3    H111681   3.636   3.593   0.818
 3908TIP3    H211682   3.512   3.508   0.805
 3909TIP3   OH211683   2.993   6.445   4.412
 3909TIP3    H111684   2.898   6.443   4.417
 3909TIP3    H211685   3.020   6.353   4.417
 3910TIP3   OH211686   0.930   1.012   5.850
 3910TIP3    H111687   0.863   0.948   5.830
 3910TIP3    H211688   0.969   0.982   5.932
 3911TIP3   OH211689   4.085   4.919   4.606
 3911TIP3    H111690   4.178   4.897   4.605
 3911TIP3    H211691   4.046   4.860   4.540
 3912TIP3   OH211692   7.136   3.118   6.175
 3912TIP3    H111693   7.095   3.037   6.145
 3912TIP3    H211694   7.212   3.130   6.119
 3913TIP3   OH211695   5.290   5.949   2.564
 3913TIP3    H111696   5.345   6.024   2.541
 3913TIP3    H211697   5.285   5.951   2.659
 3914TIP3   OH211698   8.055   2.277   4.006
 3914TIP3    H111699   8.106   2.340   4.057
 3914TIP3    H211700   8.085   2.290   3.916
 3915TIP3   OH211701   0.247   2.727   2.757
 3915TIP3    H111702   0.246   2.821   2.774
 3915TIP3    H211703   0.323   2.694   2.806
 3916TIP3   OH211704   7.511   6.767   3.949
 3916TIP3    H111705   7.560   6.784   4.029
 3916TIP3    H211706   7.473   6.852   3.925
 3917TIP3   OH211707   5.671   5.746   5.691
 3917TIP3    H111708   5.740   5.688   5.660
 3917TIP3    H211709   5.621   5.768   5.613
 3918TIP3   OH211710   5.607   7.363   1.484
 3918TIP3    H111711   5.548   7.318   1.544
 3918TIP3    H211712   5.644   7.294   1.430
 3919TIP3   OH211713   1.734   2.943   3.682
 3919TIP3    H111714   1.789   2.927   3.605
 3919TIP3    H211715   1.747   2.865   3.737
 3920TIP3   OH211716   7.961   4.948   2.937
 3920TIP3    H111717   8.006   4.990   2.863
 3920TIP3    H211718   8.031   4.910   2.989
 3921TIP3   OH211719   2.760   3.474   5.008
 3921TIP3    H111720   2.827   3.415   5.042
 3921TIP3    H211721   2.681   3.451   5.057
 3922TIP3   OH211722   4.277   7.583   4.829
 3922TIP3    H111723   4.232   7.558   4.910
 3922TIP3    H211724   4.248   7.673   4.813
 3923TIP3   OH211725   3.793   4.381   1.722
 3923TIP3    H111726   3.768   4.457   1.773
 3923TIP3    H211727   3.754   4.396   1.636
 3924TIP3   OH211728   5.435   4.683   0.664
 3924TIP3    H111729   5.434   4.711   0.756
 3924TIP3    H211730   5.505   4.735   0.624
 3925TIP3   OH211731   2.537   6.070   0.671
 3925TIP3    H111732   2.630   6.082   0.652
 3925TIP3    H211733   2.519   5.979   0.647
 3926TIP3   OH211734   3.843   1.045   4.454
 3926TIP3    H111735   3.815   1.026   4.543
 3926TIP3    H211736   3.785   1.116   4.425
 3927TIP3   OH211737   1.334   1.844   4.567
 3927TIP3    H111738   1.271   1.776   4.544
 3927TIP3    H211739   1.351   1.889   4.484
 3928TIP3   OH211740   5.137   1.735   5.804
 3928TIP3    H111741   5.230   1.729   5.822
 3928TIP3    H211742   5.129   1.711   5.711
 3929TIP3   OH211743   5.998   6.654   5.659
 3929TIP3    H111744   6.012   6.588   5.727
 3929TIP3    H211745   5.973   6.733   5.707
 3930TIP3   OH211746   3.058   2.852   4.865
 3930TIP3    H111747   3.037   2.759   4.850
 3930TIP3    H211748   3.008   2.875   4.943
 3931TIP3   OH211749   4.259   6.320   1.149
 3931TIP3    H111750   4.173   6.279   1.139
 3931TIP3    H211751   4.321   6.259   1.109
 3932TIP3   OH211752   3.917   5.535   0.936
 3932TIP3    H111753   3.886   5.446   0.951
 3932TIP3    H211754   4.009   5.533   0.963
 3933TIP3   OH211755   1.470   3.548   5.121
 3933TIP3    H111756   1.466   3.624   5.064
 3933TIP3    H211757   1.433   3.476   5.070
 3934TIP3   OH211758   6.046   6.432   5.950
 3934TIP3    H111759   5.981   6.362   5.938
 3934TIP3    H211760   6.129   6.391   5.925
 3935TIP3   OH211761   8.265   2.516   4.972
 3935TIP3    H111762   8.285   2.491   4.881
 3935TIP3    H211763   8.315   2.596   4.986
 3936TIP3   OH211764   1.072   7.344   5.637
 3936TIP3    H111765   1.041   7.282   5.571
 3936TIP3    H211766   1.007   7.340   5.706
 3937TIP3   OH211767   4.465   7.720   4.484
 3937TIP3    H111768   4.415   7.638   4.482
 3937TIP3    H211769   4.408   7.784   4.442
 3938TIP3   OH211770   1.977   1.445   3.638
 3938TIP3    H111771   2.029   1.372   3.603
 3938TIP3    H211772   1.907   1.403   3.687
 3939TIP3   OH211773   5.105   5.773   3.397
 3939TIP3    H111774   5.121   5.782   3.303
 3939TIP3    H211775   5.019   5.813   3.411
 3940TIP3   OH211776   3.916   4.803   1.000
 3940TIP3    H111777   3.964   4.722   1.018
 3940TIP3    H211778   3.914   4.849   1.084
 3941TIP3   OH211779   3.230   3.463   6.320
 3941TIP3    H111780   3.222   3.531   6.387
 3941TIP3    H211781   3.155   3.477   6.262
 3942TIP3   OH211782   3.326   1.277   0.839
 3942TIP3    H111783   3.314   1.202   0.898
 3942TIP3    H211784   3.240   1.289   0.798
 3943TIP3   OH211785   6.456   2.392   1.382
 3943TIP3    H111786   6.448   2.401   1.287
 3943TIP3    H211787   6.443   2.299   1.398
 3944TIP3   OH211788   4.785   4.599   5.112
 3944TIP3    H111789   4.792   4.666   5.044
 3944TIP3    H211790   4.768   4.648   5.192
 3945TIP3   OH211791   3.577   2.072   5.511
 3945TIP3    H111792   3.533   2.125   5.445
 3945TIP3    H211793   3.666   2.107   5.515
 3946TIP3   OH211794   3.688   4.489   3.188
 3946TIP3    H111795   3.633   4.429   3.238
 3946TIP3    H211796   3.656   4.576   3.211
 3947TIP3   OH211797   3.756   7.292   0.223
 3947TIP3    H111798   3.739   7.214   0.277
 3947TIP3    H211799   3.771   7.362   0.287
 3948TIP3   OH211800   3.736   2.707   1.350
 3948TIP3    H111801   3.740   2.689   1.444
 3948TIP3    H211802   3.811   2.661   1.313
 3949TIP3   OH211803   3.972   3.369   3.516
 3949TIP3    H111804   4.039   3.304   3.537
 3949TIP3    H211805   3.984   3.387   3.423
 3950TIP3   OH211806   5.584   0.820   5.663
 3950TIP3    H111807   5.667   0.864   5.643
 3950TIP3    H211808   5.519   0.864   5.609
 3951TIP3   OH211809   2.789   4.928   4.990
 3951TIP3    H111810   2.706   4.923   4.943
 3951TIP3    H211811   2.801   4.840   5.026
 3952TIP3   OH211812   7.225   7.050   0.110
 3952TIP3    H111813   7.135   7.025   0.130
 3952TIP3    H211814   7.253   7.101   0.186
 3953TIP3   OH211815   7.135   0.452   5.854
 3953TIP3    H111816   7.055   0.491   5.888
 3953TIP3    H211817   7.205   0.513   5.878
 3954TIP3   OH211818   3.848   4.563   5.601
 3954TIP3    H111819   3.872   4.580   5.510
 3954TIP3    H211820   3.841   4.467   5.606
 3955TIP3   OH211821   5.760   2.427   0.953
 3955TIP3    H111822   5.800   2.377   1.025
 3955TIP3    H211823   5.812   2.404   0.876
 3956TIP3   OH211824   1.917   1.414   5.339
 3956TIP3    H111825   1.983   1.349   5.366
 3956TIP3    H211826   1.866   1.431   5.418
 3957TIP3   OH211827   0.834   1.091   0.487
 3957TIP3    H111828   0.893   1.018   0.466
 3957TIP3    H211829   0.787   1.062   0.565
 3958TIP3   OH211830   5.786   2.251   4.182
 3958TIP3    H111831   5.827   2.218   4.102
 3958TIP3    H211832   5.850   2.236   4.251
 3959TIP3   OH211833   2.513   7.620   0.626
 3959TIP3    H111834   2.535   7.557   0.557
 3959TIP3    H211835   2.474   7.693   0.579
 3960TIP3   OH211836   5.194   5.978   3.976
 3960TIP3    H111837   5.128   5.916   3.944
 3960TIP3    H211838   5.196   5.965   4.070
 3961TIP3   OH211839   1.607   5.715   4.560
 3961TIP3    H111840   1.572   5.779   4.622
 3961TIP3    H211841   1.529   5.668   4.528
 3962TIP3   OH211842   5.044   7.466   2.779
 3962TIP3    H111843   5.043   7.373   2.802
 3962TIP3    H211844   5.124   7.500   2.817
 3963TIP3   OH211845   1.877   5.586   0.171
 3963TIP3    H111846   1.961   5.599   0.125
 3963TIP3    H211847   1.842   5.674   0.182
 3964TIP3   OH211848   5.205   3.846   0.205
 3964TIP3    H111849   5.270   3.777   0.216
 3964TIP3    H211850   5.192   3.881   0.293
 3965TIP3   OH211851   5.693   7.755   6.375
 3965TIP3    H111852   5.781   7.755   6.337
 3965TIP3    H211853   5.695   7.826   6.439
 3966TIP3   OH211854   7.160   5.730   3.191
 3966TIP3    H111855   7.169   5.708   3.098
 3966TIP3    H211856   7.100   5.663   3.225
 3967TIP3   OH211857   6.164   5.673   6.058
 3967TIP3    H111858   6.201   5.693   5.972
 3967TIP3    H211859   6.204   5.737   6.117
 3968TIP3   OH211860   3.109   2.435   3.111
 3968TIP3    H111861   3.087   2.514   3.062
 3968TIP3    H211862   3.044   2.430   3.181
 3969TIP3   OH211863   7.147   5.558   3.407
 3969TIP3    H111864   7.228   5.610   3.407
 3969TIP3    H211865   7.176   5.469   3.425
 3970TIP3   OH211866   3.444   4.889   6.167
 3970TIP3    H111867   3.464   4.838   6.089
 3970TIP3    H211868   3.384   4.957   6.137
 3971TIP3   OH211869   2.644   2.513   2.469
 3971TIP3    H111870   2.577   2.572   2.433
 3971TIP3    H211871   2.675   2.558   2.547
 3972TIP3   OH211872   7.755   7.766   6.181
 3972TIP3    H111873   7.697   7.773   6.257
 3972TIP3    H211874   7.755   7.854   6.143
 3973TIP3   OH211875   2.053   1.326   4.118
 3973TIP3    H111876   2.121   1.383   4.085
 3973TIP3    H211877   2.042   1.351   4.210
 3974TIP3   OH211878   2.221   0.366   5.405
 3974TIP3    H111879   2.309   0.333   5.422
 3974TIP3    H211880   2.163   0.293   5.426
 3975TIP3   OH211881   3.406   7.763   3.080
 3975TIP3    H111882   3.477   7.827   3.081
 3975TIP3    H211883   3.380   7.758   2.988
 3976TIP3   OH211884   3.719   6.202   2.956
 3976TIP3    H111885   3.774   6.215   3.034
 3976TIP3    H211886   3.668   6.124   2.975
 3977TIP3   OH211887   5.554   0.052   5.828
 3977TIP3    H111888   5.553   0.005   5.745
 3977TIP3    H211889   5.596   0.135   5.808
 3978TIP3   OH211890   2.175   3.931   1.279
 3978TIP3    H111891   2.267   3.947   1.296
 3978TIP3    H211892   2.174   3.872   1.203
 3979TIP3   OH211893   3.612   7.777   1.027
 3979TIP3    H111894   3.639   7.700   1.078
 3979TIP3    H211895   3.532   7.750   0.982
 3980TIP3   OH211896   3.088   3.437   0.288
 3980TIP3    H111897   3.111   3.455   0.197
 3980TIP3    H211898   3.057   3.521   0.322
 3981TIP3   OH211899   0.990   4.143   3.292
 3981TIP3    H111900   1.057   4.146   3.359
 3981TIP3    H211901   0.907   4.139   3.341
 3982TIP3   OH211902   1.270   7.736   1.543
 3982TIP3    H111903   1.255   7.650   1.503
 3982TIP3    H211904   1.185   7.779   1.537
 3983TIP3   OH211905   3.949   4.045   1.470
 3983TIP3    H111906   3.914   3.990   1.400
 3983TIP3    H211907   3.940   4.135   1.437
 3984TIP3   OH211908   5.495   3.661   3.421
 3984TIP3    H111909   5.489   3.681   3.514
 3984TIP3    H211910   5.406   3.670   3.388
 3985TIP3   OH211911   0.506   2.046   2.400
 3985TIP3    H111912   0.542   2.132   2.378
 3985TIP3    H211913   0.541   2.027   2.487
 3986TIP3   OH211914   5.813   6.504   0.928
 3986TIP3    H111915   5.774   6.505   1.016
 3986TIP3    H211916   5.748   6.546   0.872
 3987TIP3   OH211917   5.054   2.272   5.671
 3987TIP3    H111918   4.961   2.263   5.690
 3987TIP3    H211919   5.093   2.190   5.701
 3988TIP3   OH211920   5.631   3.706   2.504
 3988TIP3    H111921   5.570   3.776   2.480
 3988TIP3    H211922   5.646   3.658   2.422
 3989TIP3   OH211923   6.803   6.324   1.677
 3989TIP3    H111924   6.791   6.294   1.587
 3989TIP3    H211925   6.729   6.285   1.725
 3990TIP3   OH211926   6.218   0.234   1.100
 3990TIP3    H111927   6.314   0.235   1.106
 3990TIP3    H211928   6.199   0.175   1.028
 3991TIP3   OH211929   7.915   5.568   4.327
 3991TIP3    H111930   8.001   5.608   4.337
 3991TIP3    H211931   7.906   5.512   4.404
 3992TIP3   OH211932   5.713   3.691   3.267
 3992TIP3    H111933   5.632   3.702   3.318
 3992TIP3    H211934   5.686   3.710   3.176
 3993TIP3   OH211935   7.516   4.960   0.647
 3993TIP3    H111936   7.423   4.953   0.625
 3993TIP3    H211937   7.562   4.945   0.565
 3994TIP3   OH211938   3.658   5.343   6.675
 3994TIP3    H111939   3.704   5.426   6.688
 3994TIP3    H211940   3.568   5.367   6.657
 3995TIP3   OH211941   1.262   7.096   3.281
 3995TIP3    H111942   1.235   7.180   3.318
 3995TIP3    H211943   1.331   7.119   3.219
 3996TIP3   OH211944   1.626   2.168   3.170
 3996TIP3    H111945   1.600   2.079   3.196
 3996TIP3    H211946   1.653   2.209   3.252
 3997TIP3   OH211947   3.337   6.213   4.577
 3997TIP3    H111948   3.393   6.272   4.629
 3997TIP3    H211949   3.318   6.263   4.498
 3998TIP3   OH211950   7.916   5.441   1.016
 3998TIP3    H111951   7.842   5.402   1.063
 3998TIP3    H211952   7.988   5.439   1.080
 3999TIP3   OH211953   2.177   3.588   2.980
 3999TIP3    H111954   2.115   3.646   2.936
 3999TIP3    H211955   2.186   3.627   3.068
 4000TIP3   OH211956   5.837   4.151   6.571
 4000TIP3    H111957   5.860   4.192   6.655
 4000TIP3    H211958   5.920   4.113   6.540
 4001TIP3   OH211959   0.476   0.476   6.300
 4001TIP3    H111960   0.470   0.557   6.249
 4001TIP3    H211961   0.507   0.410   6.238
 4002TIP3   OH211962   5.534   4.228   4.019
 4002TIP3    H111963   5.572   4.286   4.085
 4002TIP3    H211964   5.477   4.284   3.966
 4003TIP3   OH211965   7.931   1.507   1.015
 4003TIP3    H111966   7.898   1.559   1.088
 4003TIP3    H211967   7.863   1.515   0.948
 4004TIP3   OH211968   5.718   4.042   4.240
 4004TIP3    H111969   5.720   4.099   4.317
 4004TIP3    H211970   5.745   3.956   4.274
 4005TIP3   OH211971   4.792   1.763   1.096
 4005TIP3    H111972   4.851   1.837   1.082
 4005TIP3    H211973   4.725   1.797   1.154
 4006TIP3   OH211974   1.192   3.429   2.321
 4006TIP3    H111975   1.254   3.486   2.274
 4006TIP3    H211976   1.241   3.347   2.334
 4007TIP3   OH211977   8.219   0.743   0.210
 4007TIP3    H111978   8.256   0.821   0.168
 4007TIP3    H211979   8.222   0.763   0.304
 4008TIP3   OH211980   2.322   0.094   5.059
 4008TIP3    H111981   2.336   0.121   4.968
 4008TIP3    H211982   2.373   0.157   5.110
 4009TIP3   OH211983   3.331   6.964   4.138
 4009TIP3    H111984   3.238   6.943   4.128
 4009TIP3    H211985   3.376   6.900   4.083
 4010TIP3   OH211986   4.026   0.748   0.055
 4010TIP3    H111987   4.050   0.738  -0.037
 4010TIP3    H211988   4.060   0.834   0.080
 4011TIP3   OH211989   6.244   1.301   6.453
 4011TIP3    H111990   6.169   1.337   6.405
 4011TIP3    H211991   6.268   1.222   6.404
 4012TIP3   OH211992   4.136   1.433   3.519
 4012TIP3    H111993   4.103   1.522   3.506
 4012TIP3    H211994   4.229   1.446   3.541
 4013TIP3   OH211995   4.553   3.606   6.698
 4013TIP3    H111996   4.585   3.692   6.723
 4013TIP3    H211997   4.621   3.572   6.639
 4014TIP3   OH211998   2.719   6.298   4.456
 4014TIP3    H111999   2.772   6.234   4.410
 4014TIP3    H212000   2.689   6.358   4.388
 4015TIP3   OH212001   7.558   1.658   2.504
 4015TIP3    H112002   7.526   1.607   2.578
 4015TIP3    H212003   7.633   1.706   2.538
 4016TIP3   OH212004   0.296   2.606   1.193
 4016TIP3    H112005   0.365   2.543   1.213
 4016TIP3    H212006   0.284   2.600   1.098
 4017TIP3   OH212007   5.356   2.440   0.128
 4017TIP3    H112008   5.377   2.353   0.163
 4017TIP3    H212009   5.260   2.441   0.122
 4018TIP3   OH212010   6.159   6.008   5.011
 4018TIP3    H112011   6.204   6.032   5.092
 4018TIP3    H212012   6.155   5.913   5.013
 4019TIP3   OH212013   8.286   0.510   2.120
 4019TIP3    H112014   8.321   0.551   2.200
 4019TIP3    H212015   8.195   0.540   2.115
 4020TIP3   OH212016   3.680   0.636   4.070
 4020TIP3    H112017   3.690   0.579   3.993
 4020TIP3    H212018   3.764   0.631   4.115
 4021TIP3   OH212019   3.354   5.894   0.175
 4021TIP3    H112020   3.323   5.975   0.216
 4021TIP3    H212021   3.442   5.916   0.144
 4022TIP3   OH212022   5.049   0.136   4.786
 4022TIP3    H112023   5.103   0.124   4.707
 4022TIP3    H212024   5.001   0.217   4.770
 4023TIP3   OH212025   8.252   7.710   1.640
 4023TIP3    H112026   8.181   7.772   1.654
 4023TIP3    H212027   8.251   7.654   1.718
 4024TIP3   OH212028   7.333   3.996   4.568
 4024TIP3    H112029   7.250   3.950   4.580
 4024TIP3    H212030   7.345   4.044   4.650
 4025TIP3   OH212031   1.766   7.004   3.412
 4025TIP3    H112032   1.820   7.008   3.333
 4025TIP3    H212033   1.690   6.951   3.386
 4026TIP3   OH212034   7.860   3.953   5.363
 4026TIP3    H112035   7.837   3.925   5.275
 4026TIP3    H212036   7.818   4.039   5.373
 4027TIP3   OH212037   1.175   0.807   3.701
 4027TIP3    H112038   1.087   0.770   3.690
 4027TIP3    H212039   1.231   0.754   3.646
 4028TIP3   OH212040   6.589   0.300   1.936
 4028TIP3    H112041   6.563   0.268   2.023
 4028TIP3    H212042   6.609   0.221   1.886
 4029TIP3   OH212043   6.037   3.688   4.494
 4029TIP3    H112044   5.995   3.745   4.558
 4029TIP3    H212045   6.131   3.701   4.507
 4030TIP3   OH212046   1.419   0.544   4.277
 4030TIP3    H112047   1.452   0.540   4.187
 4030TIP3    H212048   1.393   0.635   4.289
 4031TIP3   OH212049   7.576   5.129   6.501
 4031TIP3    H112050   7.484   5.125   6.528
 4031TIP3    H212051   7.583   5.064   6.431
 4032TIP3   OH212052   3.367   7.014   0.272
 4032TIP3    H112053   3.438   6.990   0.212
 4032TIP3    H212054   3.404   7.082   0.328
 4033TIP3   OH212055   2.222   4.444   3.564
 4033TIP3    H112056   2.244   4.535   3.585
 4033TIP3    H212057   2.289   4.417   3.501
 4034TIP3   OH212058   6.153   4.238   1.796
 4034TIP3    H112059   6.078   4.295   1.810
 4034TIP3    H212060   6.156   4.225   1.702
 4035TIP3   OH212061   5.138   6.650   1.586
 4035TIP3    H112062   5.115   6.617   1.673
 4035TIP3    H212063   5.161   6.571   1.536
 4036TIP3   OH212064   5.346   6.800   0.300
 4036TIP3    H112065   5.375   6.836   0.216
 4036TIP3    H212066   5.397   6.847   0.365
 4037TIP3   OH212067   2.289   7.132   3.773
 4037TIP3    H112068   2.226   7.133   3.702
 4037TIP3    H212069   2.366   7.178   3.738
 4038TIP3   OH212070   0.454   4.876   2.235
 4038TIP3    H112071   0.375   4.856   2.285
 4038TIP3    H212072   0.521   4.892   2.301
 4039TIP3   OH212073   5.281   3.897   6.294
 4039TIP3    H112074   5.326   3.970   6.335
 4039TIP3    H212075   5.188   3.919   6.301
 4040TIP3   OH212076   6.003   3.630   4.999
 4040TIP3    H112077   6.061   3.677   4.939
 4040TIP3    H212078   6.055   3.619   5.079
 4041TIP3   OH212079   3.368   3.900   6.467
 4041TIP3    H112080   3.302   3.927   6.404
 4041TIP3    H212081   3.451   3.905   6.420
 4042TIP3   OH212082   3.217   6.833   5.442
 4042TIP3    H112083   3.234   6.893   5.369
 4042TIP3    H212084   3.302   6.791   5.458
 4043TIP3   OH212085   3.417   6.877   5.978
 4043TIP3    H112086   3.450   6.963   5.953
 4043TIP3    H212087   3.330   6.871   5.938
 4044TIP3   OH212088   0.198   5.366   2.728
 4044TIP3    H112089   0.171   5.402   2.643
 4044TIP3    H212090   0.287   5.335   2.714
 4045TIP3   OH212091   6.803   0.484   6.586
 4045TIP3    H112092   6.844   0.398   6.576
 4045TIP3    H212093   6.711   0.465   6.606
 4046TIP3   OH212094   7.382   7.739   5.455
 4046TIP3    H112095   7.454   7.801   5.463
 4046TIP3    H212096   7.317   7.767   5.520
 4047TIP3   OH212097   7.037   0.615   5.312
 4047TIP3    H112098   7.047   0.691   5.369
 4047TIP3    H212099   7.031   0.540   5.371
 4048TIP3   OH212100   0.319   3.196   5.550
 4048TIP3    H112101   0.282   3.233   5.630
 4048TIP3    H212102   0.250   3.207   5.484
 4049TIP3   OH212103   5.594   2.392   5.688
 4049TIP3    H112104   5.543   2.350   5.758
 4049TIP3    H212105   5.587   2.486   5.707
 4050TIP3   OH212106   1.622   6.035   3.464
 4050TIP3    H112107   1.646   6.047   3.556
 4050TIP3    H212108   1.581   5.948   3.461
 4051TIP3   OH212109   2.288   1.893   2.942
 4051TIP3    H112110   2.326   1.950   3.009
 4051TIP3    H212111   2.357   1.829   2.924
 4052TIP3   OH212112   4.987   6.202   0.646
 4052TIP3    H112113   4.930   6.279   0.643
 4052TIP3    H212114   4.961   6.155   0.726
 4053TIP3   OH212115   7.896   1.442   0.663
 4053TIP3    H112116   7.855   1.524   0.691
 4053TIP3    H212117   7.828   1.376   0.675
 4054TIP3   OH212118   8.054   4.502   1.798
 4054TIP3    H112119   8.133   4.462   1.835
 4054TIP3    H212120   7.981   4.455   1.839
 4055TIP3   OH212121   8.244   5.628   1.365
 4055TIP3    H112122   8.288   5.566   1.423
 4055TIP3    H212123   8.173   5.666   1.418
 4056TIP3   OH212124   3.540   5.155   2.415
 4056TIP3    H112125   3.492   5.236   2.430
 4056TIP3    H212126   3.559   5.155   2.321
 4057TIP3   OH212127   5.588   2.415   1.807
 4057TIP3    H112128   5.661   2.477   1.811
 4057TIP3    H212129   5.579   2.384   1.898
 4058TIP3   OH212130   2.441   3.307   5.340
 4058TIP3    H112131   2.392   3.362   5.401
 4058TIP3    H212132   2.455   3.362   5.263
 4059TIP3   OH212133   4.737   7.744   0.696
 4059TIP3    H112134   4.761   7.786   0.779
 4059TIP3    H212135   4.774   7.656   0.703
 4060TIP3   OH212136   1.482   7.250   3.210
 4060TIP3    H112137   1.486   7.218   3.301
 4060TIP3    H212138   1.511   7.341   3.216
 4061TIP3   OH212139   6.937   4.698   5.867
 4061TIP3    H112140   7.027   4.703   5.833
 4061TIP3    H212141   6.893   4.774   5.828
 4062TIP3   OH212142   5.460   4.834   6.757
 4062TIP3    H112143   5.539   4.818   6.706
 4062TIP3    H212144   5.391   4.842   6.691
 4063TIP3   OH212145   6.718   2.319   2.268
 4063TIP3    H112146   6.775   2.251   2.233
 4063TIP3    H212147   6.776   2.374   2.321
 4064TIP3   OH212148   6.312   0.171   3.918
 4064TIP3    H112149   6.374   0.150   3.848
 4064TIP3    H212150   6.308   0.267   3.919
 4065TIP3   OH212151   7.299   1.601   3.384
 4065TIP3    H112152   7.344   1.570   3.463
 4065TIP3    H212153   7.234   1.533   3.365
 4066TIP3   OH212154   2.287   6.664   4.355
 4066TIP3    H112155   2.260   6.611   4.279
 4066TIP3    H212156   2.380   6.679   4.342
 4067TIP3   OH212157   4.969   5.299   0.344
 4067TIP3    H112158   5.062   5.299   0.322
 4067TIP3    H212159   4.958   5.224   0.402
 4068TIP3   OH212160   4.389   6.021   0.634
 4068TIP3    H112161   4.483   6.004   0.625
 4068TIP3    H212162   4.353   5.941   0.673
 4069TIP3   OH212163   2.349   4.581   4.408
 4069TIP3    H112164   2.434   4.570   4.451
 4069TIP3    H212165   2.321   4.492   4.386
 4070TIP3   OH212166   2.889   5.258   0.491
 4070TIP3    H112167   2.904   5.346   0.526
 4070TIP3    H212168   2.853   5.208   0.565
 4071TIP3   OH212169   4.007   2.468   2.346
 4071TIP3    H112170   4.003   2.373   2.337
 4071TIP3    H212171   3.916   2.497   2.338
 4072TIP3   OH212172   6.837   0.877   1.969
 4072TIP3    H112173   6.854   0.881   2.063
 4072TIP3    H212174   6.853   0.966   1.938
 4073TIP3   OH212175   1.675   1.506   0.908
 4073TIP3    H112176   1.687   1.578   0.969
 4073TIP3    H212177   1.734   1.437   0.940
 4074TIP3   OH212178   7.170   2.408   3.373
 4074TIP3    H112179   7.227   2.338   3.405
 4074TIP3    H212180   7.141   2.453   3.452
 4075TIP3   OH212181   6.577   5.964   2.328
 4075TIP3    H112182   6.518   5.895   2.297
 4075TIP3    H212183   6.634   5.919   2.391
 4076TIP3   OH212184   1.321   7.298   4.553
 4076TIP3    H112185   1.302   7.240   4.479
 4076TIP3    H212186   1.415   7.288   4.568
 4077TIP3   OH212187   5.521   1.960   6.618
 4077TIP3    H112188   5.494   1.952   6.527
 4077TIP3    H212189   5.439   1.970   6.667
 4078TIP3   OH212190   4.693   1.440   0.024
 4078TIP3    H112191   4.779   1.415   0.055
 4078TIP3    H212192   4.642   1.359   0.027
 4079TIP3   OH212193   0.560   2.465   2.111
 4079TIP3    H112194   0.479   2.418   2.134
 4079TIP3    H212195   0.531   2.553   2.088
 4080TIP3   OH212196   4.041   3.645   3.957
 4080TIP3    H112197   3.982   3.721   3.960
 4080TIP3    H212198   4.016   3.599   3.877
 4081TIP3   OH212199   7.247   5.377   5.453
 4081TIP3    H112200   7.316   5.316   5.427
 4081TIP3    H212201   7.283   5.464   5.435
 4082TIP3   OH212202   5.423   5.686   1.124
 4082TIP3    H112203   5.386   5.645   1.046
 4082TIP3    H212204   5.414   5.620   1.192
 4083TIP3   OH212205   0.466   0.212   0.333
 4083TIP3    H112206   0.416   0.283   0.293
 4083TIP3    H212207   0.401   0.144   0.352
 4084TIP3   OH212208   3.749   3.891   0.400
 4084TIP3    H112209   3.800   3.884   0.481
 4084TIP3    H212210   3.695   3.969   0.412
 4085TIP3   OH212211   2.193   0.576   3.715
 4085TIP3    H112212   2.177   0.671   3.717
 4085TIP3    H212213   2.288   0.568   3.710
 4086TIP3   OH212214   8.219   0.070   5.039
 4086TIP3    H112215   8.306   0.108   5.046
 4086TIP3    H212216   8.199   0.070   4.945
 4087TIP3   OH212217   3.972   1.975   4.561
 4087TIP3    H112218   3.976   2.018   4.647
 4087TIP3    H212219   3.979   1.882   4.581
 4088TIP3   OH212220   1.543   0.153   1.891
 4088TIP3    H112221   1.569   0.234   1.847
 4088TIP3    H212222   1.554   0.172   1.984
 4089TIP3   OH212223   3.437   5.626   1.233
 4089TIP3    H112224   3.366   5.593   1.177
 4089TIP3    H212225   3.393   5.663   1.309
 4090TIP3   OH212226   5.401   7.469   4.328
 4090TIP3    H112227   5.332   7.498   4.269
 4090TIP3    H212228   5.419   7.378   4.303
 4091TIP3   OH212229   2.967   1.679   6.300
 4091TIP3    H112230   2.889   1.660   6.353
 4091TIP3    H212231   3.033   1.616   6.331
 4092TIP3   OH212232   4.793   2.200   5.766
 4092TIP3    H112233   4.770   2.213   5.858
 4092TIP3    H212234   4.808   2.106   5.758
 4093TIP3   OH212235   2.013   1.190   6.080
 4093TIP3    H112236   1.976   1.179   5.993
 4093TIP3    H212237   2.010   1.103   6.119
 4094TIP3   OH212238   1.874   3.812   1.923
 4094TIP3    H112239   1.820   3.735   1.939
 4094TIP3    H212240   1.900   3.841   2.010
 4095TIP3   OH212241   0.718   2.937   1.896
 4095TIP3    H112242   0.755   2.933   1.808
 4095TIP3    H212243   0.747   3.022   1.930
 4096TIP3   OH212244   5.068   2.560   4.532
 4096TIP3    H112245   4.988   2.608   4.509
 4096TIP3    H212246   5.073   2.568   4.627
 4097TIP3   OH212247   0.880   2.503   0.862
 4097TIP3    H112248   0.881   2.498   0.958
 4097TIP3    H212249   0.796   2.544   0.841
 4098TIP3   OH212250   2.291   4.005   1.559
 4098TIP3    H112251   2.231   3.932   1.577
 4098TIP3    H212252   2.356   3.967   1.500
 4099TIP3   OH212253   2.765   4.726   3.877
 4099TIP3    H112254   2.729   4.662   3.938
 4099TIP3    H212255   2.692   4.751   3.821
 4100TIP3   OH212256   0.210   3.582   5.790
 4100TIP3    H112257   0.157   3.607   5.715
 4100TIP3    H212258   0.243   3.495   5.769
 4101TIP3   OH212259   6.942   6.516   1.946
 4101TIP3    H112260   7.029   6.533   1.983
 4101TIP3    H212261   6.887   6.586   1.980
 4102TIP3   OH212262   4.044   6.215   1.021
 4102TIP3    H112263   3.983   6.179   1.085
 4102TIP3    H212264   4.005   6.194   0.936
 4103TIP3   OH212265   0.372   2.494   2.552
 4103TIP3    H112266   0.431   2.544   2.497
 4103TIP3    H212267   0.300   2.554   2.571
 4104TIP3   OH212268   3.208   5.037   0.969
 4104TIP3    H112269   3.222   4.996   0.884
 4104TIP3    H212270   3.166   4.970   1.022
 4105TIP3   OH212271   2.938   0.775   6.516
 4105TIP3    H112272   2.843   0.769   6.507
 4105TIP3    H212273   2.967   0.684   6.525
 4106TIP3   OH212274   2.180   3.528   0.550
 4106TIP3    H112275   2.230   3.517   0.630
 4106TIP3    H212276   2.154   3.439   0.526
 4107TIP3   OH212277   6.675   3.748   5.506
 4107TIP3    H112278   6.719   3.832   5.513
 4107TIP3    H212279   6.621   3.742   5.585
 4108TIP3   OH212280   1.150   0.896   5.617
 4108TIP3    H112281   1.205   0.899   5.539
 4108TIP3    H212282   1.155   0.985   5.652
 4109TIP3   OH212283   5.333   3.401   0.892
 4109TIP3    H112284   5.287   3.317   0.882
 4109TIP3    H212285   5.384   3.392   0.972
 4110TIP3   OH212286   0.319   5.318   1.418
 4110TIP3    H112287   0.392   5.308   1.478
 4110TIP3    H212288   0.333   5.252   1.350
 4111TIP3   OH212289   5.171   7.563   4.183
 4111TIP3    H112290   5.183   7.607   4.099
 4111TIP3    H212291   5.122   7.484   4.163
 4112TIP3   OH212292   5.811   7.079   0.387
 4112TIP3    H112293   5.868   7.145   0.426
 4112TIP3    H212294   5.849   7.062   0.301
 4113TIP3   OH212295   4.244   3.557   0.889
 4113TIP3    H112296   4.170   3.520   0.937
 4113TIP3    H212297   4.313   3.567   0.956
 4114TIP3   OH212298   5.473   0.203   2.349
 4114TIP3    H112299   5.469   0.230   2.257
 4114TIP3    H212300   5.508   0.114   2.347
 4115TIP3   OH212301   0.117   4.736   2.963
 4115TIP3    H112302   0.210   4.724   2.985
 4115TIP3    H212303   0.096   4.823   2.996
 4116TIP3   OH212304   8.146   5.701   0.969
 4116TIP3    H112305   8.230   5.748   0.964
 4116TIP3    H212306   8.164   5.627   1.027
 4117TIP3   OH212307   0.225   3.203   0.259
 4117TIP3    H112308   0.142   3.167   0.290
 4117TIP3    H212309   0.285   3.189   0.332
 4118TIP3   OH212310   6.614   2.676   5.019
 4118TIP3    H112311   6.576   2.727   4.948
 4118TIP3    H212312   6.696   2.641   4.984
 4119TIP3   OH212313   0.174   5.509   2.458
 4119TIP3    H112314   0.224   5.453   2.398
 4119TIP3    H212315   0.238   5.538   2.522
 4120TIP3   OH212316   4.899   3.060   1.889
 4120TIP3    H112317   4.991   3.055   1.863
 4120TIP3    H212318   4.880   3.154   1.888
 4121TIP3   OH212319   7.742   1.926   5.624
 4121TIP3    H112320   7.801   1.998   5.602
 4121TIP3    H212321   7.740   1.871   5.546
 4122TIP3   OH212322   5.891   4.896   2.950
 4122TIP3    H112323   5.934   4.942   2.877
 4122TIP3    H212324   5.961   4.843   2.989
 4123TIP3   OH212325   0.500   0.246   4.222
 4123TIP3    H112326   0.443   0.175   4.192
 4123TIP3    H212327   0.445   0.299   4.280
 4124TIP3   OH212328   3.846   0.045   2.568
 4124TIP3    H112329   3.879  -0.026   2.514
 4124TIP3    H212330   3.915   0.060   2.633
 4125TIP3   OH212331   5.948   2.635   5.603
 4125TIP3    H112332   5.860   2.667   5.622
 4125TIP3    H212333   5.993   2.709   5.562
 4126TIP3   OH212334   2.169   2.381   0.663
 4126TIP3    H112335   2.168   2.375   0.758
 4126TIP3    H212336   2.177   2.291   0.633
 4127TIP3   OH212337   4.613   5.776   6.449
 4127TIP3    H112338   4.683   5.809   6.504
 4127TIP3    H212339   4.533   5.792   6.499
 4128TIP3   OH212340   4.144   5.743   0.014
 4128TIP3    H112341   4.208   5.810   0.039
 4128TIP3    H212342   4.064   5.792  -0.006
 4129TIP3   OH212343   1.242   3.509   0.835
 4129TIP3    H112344   1.170   3.535   0.893
 4129TIP3    H212345   1.321   3.544   0.877
 4130TIP3   OH212346   4.514   0.975   3.045
 4130TIP3    H112347   4.561   0.895   3.020
 4130TIP3    H212348   4.579   1.045   3.037
 4131TIP3   OH212349   7.430   6.918   6.061
 4131TIP3    H112350   7.414   7.011   6.078
 4131TIP3    H212351   7.382   6.873   6.131
 4132TIP3   OH212352   4.591   2.836   3.739
 4132TIP3    H112353   4.557   2.793   3.817
 4132TIP3    H212354   4.614   2.924   3.767
 4133TIP3   OH212355   7.115   5.220   2.656
 4133TIP3    H112356   7.139   5.228   2.564
 4133TIP3    H212357   7.050   5.150   2.659
 4134TIP3   OH212358   1.519   0.771   1.131
 4134TIP3    H112359   1.449   0.835   1.143
 4134TIP3    H212360   1.494   0.723   1.052
 4135TIP3   OH212361   7.168   3.118   2.198
 4135TIP3    H112362   7.215   3.200   2.186
 4135TIP3    H212363   7.077   3.139   2.175
 4136TIP3   OH212364   6.890   7.765   6.126
 4136TIP3    H112365   6.848   7.803   6.204
 4136TIP3    H212366   6.835   7.795   6.053
 4137TIP3   OH212367   5.339   6.182   5.652
 4137TIP3    H112368   5.375   6.160   5.566
 4137TIP3    H212369   5.364   6.108   5.707
 4138TIP3   OH212370   5.437   6.160   0.986
 4138TIP3    H112371   5.523   6.189   0.954
 4138TIP3    H212372   5.375   6.189   0.918
 4139TIP3   OH212373   5.096   4.416   1.850
 4139TIP3    H112374   5.173   4.360   1.854
 4139TIP3    H212375   5.045   4.393   1.927
 4140TIP3   OH212376   6.154   6.468   2.492
 4140TIP3    H112377   6.155   6.559   2.462
 4140TIP3    H212378   6.169   6.416   2.413
 4141TIP3   OH212379   1.518   0.818   3.784
 4141TIP3    H112380   1.499   0.736   3.738
 4141TIP3    H212381   1.588   0.859   3.732
 4142TIP3   OH212382   7.072   3.786   0.857
 4142TIP3    H112383   7.150   3.842   0.859
 4142TIP3    H212384   7.006   3.838   0.811
 4143TIP3   OH212385   2.575   6.525   2.311
 4143TIP3    H112386   2.614   6.467   2.376
 4143TIP3    H212387   2.541   6.599   2.362
 4144TIP3   OH212388   6.705   3.251   2.436
 4144TIP3    H112389   6.726   3.206   2.518
 4144TIP3    H212390   6.717   3.344   2.456
 4145TIP3   OH212391   5.215   6.561  -0.016
 4145TIP3    H112392   5.154   6.492  -0.042
 4145TIP3    H212393   5.236   6.541   0.075
 4146TIP3   OH212394   0.385   2.445   0.610
 4146TIP3    H112395   0.441   2.493   0.549
 4146TIP3    H212396   0.445   2.393   0.663
 4147TIP3   OH212397   0.748   1.473   3.916
 4147TIP3    H112398   0.812   1.415   3.877
 4147TIP3    H212399   0.792   1.510   3.993
 4148TIP3   OH212400   1.824   7.331   6.800
 4148TIP3    H112401   1.780   7.376   6.727
 4148TIP3    H212402   1.872   7.259   6.758
 4149TIP3   OH212403   1.525   3.534   0.973
 4149TIP3    H112404   1.481   3.619   0.979
 4149TIP3    H212405   1.568   3.523   1.058
 4150TIP3   OH212406   6.746   3.248   5.993
 4150TIP3    H112407   6.713   3.276   6.078
 4150TIP3    H212408   6.741   3.153   5.995
 4151TIP3   OH212409   7.800   0.494   1.083
 4151TIP3    H112410   7.849   0.429   1.134
 4151TIP3    H212411   7.792   0.569   1.141
 4152TIP3   OH212412   2.571   0.134   3.957
 4152TIP3    H112413   2.576   0.073   4.030
 4152TIP3    H212414   2.478   0.150   3.945
 4153TIP3   OH212415   1.415   0.730   1.909
 4153TIP3    H112416   1.343   0.777   1.867
 4153TIP3    H212417   1.399   0.638   1.887
 4154TIP3   OH212418   0.071   0.249   3.978
 4154TIP3    H112419   0.117   0.170   3.950
 4154TIP3    H212420   0.117   0.321   3.936
 4155TIP3   OH212421   3.449   3.617   0.034
 4155TIP3    H112422   3.520   3.680   0.047
 4155TIP3    H212423   3.487   3.549  -0.022
 4156TIP3   OH212424   4.972   1.563   4.456
 4156TIP3    H112425   4.979   1.652   4.421
 4156TIP3    H212426   4.878   1.547   4.463
 4157TIP3   OH212427   0.354   2.584   6.644
 4157TIP3    H112428   0.271   2.632   6.652
 4157TIP3    H212429   0.422   2.651   6.656
 4158TIP3   OH212430   0.203   0.179   1.786
 4158TIP3    H112431   0.188   0.267   1.822
 4158TIP3    H212432   0.278   0.190   1.727
 4159TIP3   OH212433   5.203   1.289   3.783
 4159TIP3    H112434   5.276   1.350   3.795
 4159TIP3    H212435   5.241   1.216   3.735
 4160TIP3   OH212436   3.957   7.203   5.890
 4160TIP3    H112437   3.898   7.156   5.948
 4160TIP3    H212438   3.992   7.275   5.944
 4161TIP3   OH212439   1.004   3.921   1.160
 4161TIP3    H112440   1.020   3.905   1.067
 4161TIP3    H212441   1.071   3.983   1.186
 4162TIP3   OH212442   4.502   4.496   5.236
 4162TIP3    H112443   4.491   4.590   5.220
 4162TIP3    H212444   4.568   4.490   5.305
 4163TIP3   OH212445   2.631   5.240   2.457
 4163TIP3    H112446   2.569   5.178   2.495
 4163TIP3    H212447   2.704   5.241   2.519
 4164TIP3   OH212448   0.166   3.617   5.270
 4164TIP3    H112449   0.256   3.594   5.246
 4164TIP3    H212450   0.124   3.638   5.186
 4165TIP3   OH212451   5.413   2.659   3.559
 4165TIP3    H112452   5.378   2.577   3.594
 4165TIP3    H212453   5.351   2.684   3.490
 4166TIP3   OH212454   1.078   5.263   2.695
 4166TIP3    H112455   1.131   5.184   2.692
 4166TIP3    H212456   1.044   5.266   2.785
 4167TIP3   OH212457   0.068   3.412   3.417
 4167TIP3    H112458   0.070   3.483   3.353
 4167TIP3    H212459   0.087   3.454   3.501
 4168TIP3   OH212460   5.837   2.979   0.736
 4168TIP3    H112461   5.902   2.927   0.782
 4168TIP3    H212462   5.847   2.955   0.644
 4169TIP3   OH212463   4.826   5.351   0.131
 4169TIP3    H112464   4.877   5.401   0.066
 4169TIP3    H212465   4.886   5.339   0.204
 4170TIP3   OH212466   6.839   0.844   6.709
 4170TIP3    H112467   6.922   0.796   6.705
 4170TIP3    H212468   6.774   0.778   6.733
 4171TIP3   OH212469   0.143   7.186   1.321
 4171TIP3    H112470   0.130   7.227   1.407
 4171TIP3    H212471   0.201   7.246   1.274
 4172TIP3   OH212472   4.375   7.541   3.699
 4172TIP3    H112473   4.412   7.533   3.787
 4172TIP3    H212474   4.336   7.456   3.682
 4173TIP3   OH212475   5.085   7.091   2.013
 4173TIP3    H112476   5.071   7.185   1.996
 4173TIP3    H212477   5.018   7.047   1.961
 4174TIP3   OH212478   0.518   1.823   0.059
 4174TIP3    H112479   0.507   1.867   0.144
 4174TIP3    H212480   0.612   1.812   0.049
 4175TIP3   OH212481   0.073   2.447   5.300
 4175TIP3    H112482   0.051   2.363   5.260
 4175TIP3    H212483   0.083   2.427   5.393
 4176TIP3   OH212484   1.109   3.161   6.533
 4176TIP3    H112485   1.108   3.223   6.606
 4176TIP3    H212486   1.018   3.155   6.506
 4177TIP3   OH212487   4.356   0.074   1.809
 4177TIP3    H112488   4.370   0.089   1.903
 4177TIP3    H212489   4.442   0.052   1.775
 4178TIP3   OH212490   7.133   3.247   1.771
 4178TIP3    H112491   7.201   3.306   1.804
 4178TIP3    H212492   7.147   3.165   1.817
 4179TIP3   OH212493   2.181   4.988   4.035
 4179TIP3    H112494   2.179   4.895   4.012
 4179TIP3    H212495   2.254   5.024   3.984
 4180TIP3   OH212496   1.102   2.790   0.315
 4180TIP3    H112497   1.190   2.794   0.353
 4180TIP3    H212498   1.107   2.720   0.250
 4181TIP3   OH212499   2.293   3.383   1.677
 4181TIP3    H112500   2.225   3.317   1.688
 4181TIP3    H212501   2.368   3.349   1.726
 4182TIP3   OH212502   8.093   4.505   1.513
 4182TIP3    H112503   8.000   4.525   1.502
 4182TIP3    H212504   8.104   4.495   1.608
 4183TIP3   OH212505   4.674   7.741   4.694
 4183TIP3    H112506   4.677   7.648   4.716
 4183TIP3    H212507   4.614   7.746   4.620
 4184TIP3   OH212508   6.277   1.823   5.115
 4184TIP3    H112509   6.356   1.873   5.132
 4184TIP3    H212510   6.223   1.880   5.060
 4185TIP3   OH212511   1.315   5.219   0.899
 4185TIP3    H112512   1.313   5.299   0.846
 4185TIP3    H212513   1.291   5.149   0.839
 4186TIP3   OH212514   3.764   7.756   2.369
 4186TIP3    H112515   3.850   7.714   2.365
 4186TIP3    H212516   3.778   7.835   2.421
 4187TIP3   OH212517   7.797   5.704   6.517
 4187TIP3    H112518   7.784   5.730   6.425
 4187TIP3    H212519   7.872   5.755   6.546
 4188TIP3   OH212520   7.640   7.001   0.279
 4188TIP3    H112521   7.642   6.999   0.183
 4188TIP3    H212522   7.550   7.024   0.300
 4189TIP3   OH212523   4.046   4.172   0.135
 4189TIP3    H112524   4.129   4.220   0.139
 4189TIP3    H212525   4.068   4.090   0.092
 4190TIP3   OH212526   6.131   4.594   0.601
 4190TIP3    H112527   6.145   4.547   0.519
 4190TIP3    H212528   6.045   4.635   0.592
 4191TIP3   OH212529   3.017   4.443   6.677
 4191TIP3    H112530   2.924   4.440   6.657
 4191TIP3    H212531   3.036   4.536   6.689
 4192TIP3   OH212532   5.818   7.678   6.679
 4192TIP3    H112533   5.726   7.652   6.684
 4192TIP3    H212534   5.853   7.628   6.605
 4193TIP3   OH212535   6.314   2.083   4.122
 4193TIP3    H112536   6.277   2.109   4.037
 4193TIP3    H212537   6.273   2.144   4.184
 4194TIP3   OH212538   4.302   4.114   1.272
 4194TIP3    H112539   4.258   4.188   1.314
 4194TIP3    H212540   4.271   4.116   1.182
 4195TIP3   OH212541   6.906   2.524   4.677
 4195TIP3    H112542   6.920   2.604   4.627
 4195TIP3    H212543   6.973   2.464   4.647
 4196TIP3   OH212544   2.938   2.485   0.847
 4196TIP3    H112545   2.896   2.537   0.778
 4196TIP3    H212546   2.964   2.404   0.803
 4197TIP3   OH212547   3.136   0.563   2.847
 4197TIP3    H112548   3.187   0.640   2.824
 4197TIP3    H212549   3.095   0.586   2.931
 4198TIP3   OH212550   6.589   1.256   0.533
 4198TIP3    H112551   6.634   1.308   0.466
 4198TIP3    H212552   6.614   1.296   0.616
 4199TIP3   OH212553   7.953   7.290   4.575
 4199TIP3    H112554   7.907   7.305   4.493
 4199TIP3    H212555   7.902   7.337   4.640
 4200TIP3   OH212556   2.419   7.167   0.508
 4200TIP3    H112557   2.327   7.141   0.508
 4200TIP3    H212558   2.417   7.262   0.524
 4201TIP3   OH212559   5.221   2.992   4.979
 4201TIP3    H112560   5.204   2.898   4.974
 4201TIP3    H212561   5.261   3.005   5.065
 4202TIP3   OH212562   4.341   6.870   6.534
 4202TIP3    H112563   4.322   6.928   6.608
 4202TIP3    H212564   4.397   6.802   6.571
 4203TIP3   OH212565   6.339   7.399   6.595
 4203TIP3    H112566   6.313   7.308   6.583
 4203TIP3    H212567   6.434   7.397   6.603
 4204TIP3   OH212568   8.024   3.074   4.379
 4204TIP3    H112569   8.042   3.010   4.447
 4204TIP3    H212570   8.056   3.033   4.298
 4205TIP3   OH212571   8.107   2.583   1.883
 4205TIP3    H112572   8.176   2.549   1.825
 4205TIP3    H212573   8.031   2.528   1.863
 4206TIP3   OH212574   4.954   4.528   6.584
 4206TIP3    H112575   4.981   4.511   6.494
 4206TIP3    H212576   4.859   4.541   6.579
 4207TIP3   OH212577   1.735   0.009   6.617
 4207TIP3    H112578   1.658   0.028   6.670
 4207TIP3    H212579   1.801   0.073   6.645
 4208TIP3   OH212580   7.174   6.245   2.875
 4208TIP3    H112581   7.174   6.332   2.916
 4208TIP3    H212582   7.082   6.227   2.858
 4209TIP3   OH212583   5.273   5.664   2.500
 4209TIP3    H112584   5.286   5.746   2.549
 4209TIP3    H212585   5.202   5.683   2.440
 4210TIP3   OH212586   4.762   2.367   3.372
 4210TIP3    H112587   4.696   2.303   3.397
 4210TIP3    H212588   4.715   2.451   3.370
 4211TIP3   OH212589   3.613   1.477   1.418
 4211TIP3    H112590   3.663   1.480   1.499
 4211TIP3    H212591   3.543   1.413   1.435
 4212TIP3   OH212592   3.279   2.726   1.409
 4212TIP3    H112593   3.356   2.674   1.430
 4212TIP3    H212594   3.205   2.668   1.425
 4213TIP3   OH212595   6.173   7.020   2.830
 4213TIP3    H112596   6.194   7.100   2.878
 4213TIP3    H212597   6.115   7.049   2.759
 4214TIP3   OH212598   4.157   5.462   5.266
 4214TIP3    H112599   4.173   5.409   5.344
 4214TIP3    H212600   4.062   5.464   5.257
 4215TIP3   OH212601   7.296   4.009   6.050
 4215TIP3    H112602   7.383   3.982   6.021
 4215TIP3    H212603   7.312   4.083   6.108
 4216TIP3   OH212604   6.942   1.462   6.295
 4216TIP3    H112605   6.938   1.370   6.272
 4216TIP3    H212606   7.023   1.471   6.345
 4217TIP3   OH212607   6.401   2.858   0.052
 4217TIP3    H112608   6.425   2.771   0.084
 4217TIP3    H212609   6.314   2.846   0.013
 4218TIP3   OH212610   0.734   3.711   5.078
 4218TIP3    H112611   0.697   3.735   4.993
 4218TIP3    H212612   0.829   3.709   5.063
 4219TIP3   OH212613   4.184   4.495   3.618
 4219TIP3    H112614   4.161   4.574   3.569
 4219TIP3    H212615   4.180   4.523   3.710
 4220TIP3   OH212616   4.895   0.534   1.692
 4220TIP3    H112617   4.893   0.560   1.600
 4220TIP3    H212618   4.959   0.463   1.695
 4221TIP3   OH212619   8.118   0.357   1.432
 4221TIP3    H112620   8.034   0.331   1.469
 4221TIP3    H212621   8.114   0.453   1.428
 4222TIP3   OH212622   8.224   5.204   2.519
 4222TIP3    H112623   8.180   5.288   2.534
 4222TIP3    H212624   8.241   5.203   2.425
 4223TIP3   OH212625   2.613   6.207   2.834
 4223TIP3    H112626   2.630   6.293   2.795
 4223TIP3    H212627   2.571   6.157   2.764
 4224TIP3   OH212628   6.474   6.032   4.403
 4224TIP3    H112629   6.495   5.950   4.358
 4224TIP3    H212630   6.381   6.046   4.384
 4225TIP3   OH212631   0.446   7.293   1.538
 4225TIP3    H112632   0.416   7.339   1.460
 4225TIP3    H212633   0.431   7.354   1.610
 4226TIP3   OH212634   2.768   7.746   5.073
 4226TIP3    H112635   2.696   7.683   5.085
 4226TIP3    H212636   2.761   7.772   4.981
 4227TIP3   OH212637   7.082   6.739   5.895
 4227TIP3    H112638   7.001   6.695   5.869
 4227TIP3    H212639   7.091   6.721   5.988
 4228TIP3   OH212640   2.789   3.938   0.553
 4228TIP3    H112641   2.786   3.942   0.458
 4228TIP3    H212642   2.716   3.993   0.583
 4229TIP3   OH212643   5.649   1.836   1.695
 4229TIP3    H112644   5.734   1.834   1.738
 4229TIP3    H212645   5.669   1.827   1.602
 4230TIP3   OH212646   7.668   1.366   2.426
 4230TIP3    H112647   7.638   1.453   2.451
 4230TIP3    H212648   7.729   1.381   2.354
 4231TIP3   OH212649   5.397   7.264   4.102
 4231TIP3    H112650   5.444   7.196   4.150
 4231TIP3    H212651   5.307   7.230   4.094
 4232TIP3   OH212652   7.497   6.970   4.969
 4232TIP3    H112653   7.419   6.938   5.014
 4232TIP3    H212654   7.495   7.065   4.982
 4233TIP3   OH212655   6.291   0.300   5.908
 4233TIP3    H112656   6.218   0.296   5.847
 4233TIP3    H212657   6.340   0.219   5.893
 4234TIP3   OH212658   6.479   5.359   4.212
 4234TIP3    H112659   6.544   5.397   4.272
 4234TIP3    H212660   6.524   5.354   4.128
 4235TIP3   OH212661   1.268   4.442   3.115
 4235TIP3    H112662   1.295   4.534   3.108
 4235TIP3    H212663   1.189   4.443   3.167
 4236TIP3   OH212664   0.422   4.083   1.079
 4236TIP3    H112665   0.384   4.055   1.163
 4236TIP3    H212666   0.516   4.067   1.089
 4237TIP3   OH212667   4.234   1.734   6.486
 4237TIP3    H112668   4.263   1.786   6.410
 4237TIP3    H212669   4.172   1.791   6.532
 4238TIP3   OH212670   4.586   5.099   0.324
 4238TIP3    H112671   4.639   5.072   0.249
 4238TIP3    H212672   4.496   5.093   0.294
 4239TIP3   OH212673   8.183   1.943   2.173
 4239TIP3    H112674   8.168   2.026   2.130
 4239TIP3    H212675   8.140   1.952   2.258
 4240TIP3   OH212676   6.682   6.176   3.796
 4240TIP3    H112677   6.686   6.206   3.706
 4240TIP3    H212678   6.730   6.242   3.846
 4241TIP3   OH212679   0.423   0.791   6.308
 4241TIP3    H112680   0.361   0.858   6.336
 4241TIP3    H212681   0.388   0.758   6.226
 4242TIP3   OH212682   3.063   7.459   5.981
 4242TIP3    H112683   3.044   7.365   5.983
 4242TIP3    H212684   3.126   7.470   5.910
 4243TIP3   OH212685   4.235   0.732   5.347
 4243TIP3    H112686   4.191   0.817   5.355
 4243TIP3    H212687   4.212   0.686   5.428
 4244TIP3   OH212688   2.299   2.089   0.730
 4244TIP3    H112689   2.385   2.061   0.698
 4244TIP3    H212690   2.281   2.033   0.805
 4245TIP3   OH212691   0.580   2.367   3.056
 4245TIP3    H112692   0.576   2.285   3.007
 4245TIP3    H212693   0.508   2.361   3.119
 4246TIP3   OH212694   2.522   4.282   2.836
 4246TIP3    H112695   2.566   4.251   2.915
 4246TIP3    H212696   2.429   4.279   2.857
 4247TIP3   OH212697   0.375   0.938   1.928
 4247TIP3    H112698   0.392   0.924   1.835
 4247TIP3    H212699   0.288   0.900   1.942
 4248TIP3   OH212700   0.468   1.382   1.997
 4248TIP3    H112701   0.457   1.383   1.902
 4248TIP3    H212702   0.492   1.291   2.017
 4249TIP3   OH212703   7.787   5.802   6.234
 4249TIP3    H112704   7.741   5.724   6.205
 4249TIP3    H212705   7.719   5.858   6.271
 4250TIP3   OH212706   2.725   6.076   0.050
 4250TIP3    H112707   2.744   6.161   0.012
 4250TIP3    H212708   2.767   6.013  -0.009
 4251TIP3   OH212709   0.388   0.714   5.566
 4251TIP3    H112710   0.467   0.702   5.513
 4251TIP3    H212711   0.326   0.651   5.531
 4252TIP3   OH212712   0.311   1.767   6.329
 4252TIP3    H112713   0.296   1.862   6.322
 4252TIP3    H212714   0.380   1.749   6.264
 4253TIP3   OH212715   5.759   7.713   2.154
 4253TIP3    H112716   5.779   7.793   2.107
 4253TIP3    H212717   5.705   7.662   2.093
 4254TIP3   OH212718   0.394   5.235   0.153
 4254TIP3    H112719   0.367   5.244   0.061
 4254TIP3    H212720   0.377   5.144   0.174
 4255TIP3   OH212721   4.061   5.940   4.232
 4255TIP3    H112722   4.131   6.006   4.230
 4255TIP3    H212723   3.980   5.991   4.224
 4256TIP3   OH212724   4.806   1.770   6.356
 4256TIP3    H112725   4.745   1.816   6.414
 4256TIP3    H212726   4.819   1.830   6.283
 4257TIP3   OH212727   3.677   1.522   0.780
 4257TIP3    H112728   3.633   1.465   0.716
 4257TIP3    H212729   3.739   1.464   0.824
 4258TIP3   OH212730   5.359   4.730   3.375
 4258TIP3    H112731   5.356   4.790   3.301
 4258TIP3    H212732   5.386   4.647   3.337
 4259TIP3   OH212733   2.202   7.364   2.057
 4259TIP3    H112734   2.261   7.315   1.999
 4259TIP3    H212735   2.131   7.394   2.000
 4260TIP3   OH212736   0.982   5.665   0.846
 4260TIP3    H112737   0.899   5.623   0.868
 4260TIP3    H212738   0.968   5.758   0.866
 4261TIP3   OH212739   7.949   4.591   5.543
 4261TIP3    H112740   7.872   4.561   5.495
 4261TIP3    H212741   7.956   4.531   5.617
 4262TIP3   OH212742   0.863   3.832   3.418
 4262TIP3    H112743   0.895   3.860   3.504
 4262TIP3    H212744   0.802   3.902   3.392
 4263TIP3   OH212745   7.860   3.545   5.155
 4263TIP3    H112746   7.882   3.493   5.232
 4263TIP3    H212747   7.925   3.615   5.154
 4264TIP3   OH212748   1.239   6.345   4.756
 4264TIP3    H112749   1.200   6.258   4.761
 4264TIP3    H212750   1.169   6.401   4.723
 4265TIP3   OH212751   1.241   0.837   3.992
 4265TIP3    H112752   1.329   0.801   3.979
 4265TIP3    H212753   1.204   0.841   3.903
 4266TIP3   OH212754   4.409   5.561   0.365
 4266TIP3    H112755   4.405   5.505   0.287
 4266TIP3    H212756   4.408   5.500   0.439
 4267TIP3   OH212757   6.517   4.806   5.936
 4267TIP3    H112758   6.550   4.819   5.847
 4267TIP3    H212759   6.444   4.867   5.944
 4268TIP3   OH212760   6.241   4.258   4.491
 4268TIP3    H112761   6.193   4.193   4.440
 4268TIP3    H212762   6.308   4.208   4.537
 4269TIP3   OH212763   6.940   1.409   1.971
 4269TIP3    H112764   6.927   1.473   1.900
 4269TIP3    H212765   6.992   1.456   2.036
 4270TIP3   OH212766   7.991   3.820   4.260
 4270TIP3    H112767   8.025   3.879   4.327
 4270TIP3    H212768   8.005   3.732   4.296
 4271TIP3   OH212769   7.690   1.485   6.345
 4271TIP3    H112770   7.599   1.507   6.363
 4271TIP3    H212771   7.723   1.559   6.295
 4272TIP3   OH212772   1.554   6.211   3.223
 4272TIP3    H112773   1.529   6.280   3.284
 4272TIP3    H212774   1.551   6.131   3.276
 4273TIP3   OH212775   4.807   1.775   2.895
 4273TIP3    H112776   4.831   1.782   2.803
 4273TIP3    H212777   4.789   1.682   2.909
 4274TIP3   OH212778   1.578   7.571   5.989
 4274TIP3    H112779   1.556   7.534   5.904
 4274TIP3    H212780   1.598   7.495   6.044
 4275TIP3   OH212781   6.748   4.391   5.922
 4275TIP3    H112782   6.754   4.297   5.934
 4275TIP3    H212783   6.783   4.408   5.835
 4276TIP3   OH212784   0.538   1.035   4.818
 4276TIP3    H112785   0.517   1.011   4.908
 4276TIP3    H212786   0.501   1.123   4.807
 4277TIP3   OH212787   4.605   0.940   0.339
 4277TIP3    H112788   4.673   1.006   0.353
 4277TIP3    H212789   4.524   0.990   0.331
 4278TIP3   OH212790   3.297   2.121   3.278
 4278TIP3    H112791   3.285   2.179   3.353
 4278TIP3    H212792   3.388   2.134   3.251
 4279TIP3   OH212793   5.017   5.087   3.875
 4279TIP3    H112794   5.064   5.082   3.791
 4279TIP3    H212795   4.933   5.044   3.858
 4280TIP3   OH212796   3.910   0.773   5.796
 4280TIP3    H112797   3.980   0.779   5.731
 4280TIP3    H212798   3.883   0.682   5.795
 4281TIP3   OH212799   6.335   1.474   4.422
 4281TIP3    H112800   6.293   1.542   4.370
 4281TIP3    H212801   6.323   1.502   4.513
 4282TIP3   OH212802   6.526   5.491   0.155
 4282TIP3    H112803   6.562   5.423   0.098
 4282TIP3    H212804   6.598   5.553   0.167
 4283TIP3   OH212805   3.242   7.811   1.669
 4283TIP3    H112806   3.191   7.741   1.628
 4283TIP3    H212807   3.330   7.774   1.677
 4284TIP3   OH212808   4.845   2.737   4.437
 4284TIP3    H112809   4.874   2.800   4.502
 4284TIP3    H212810   4.800   2.669   4.487
 4285TIP3   OH212811   1.084   4.308   5.147
 4285TIP3    H112812   1.037   4.380   5.106
 4285TIP3    H212813   1.137   4.350   5.216
 4286TIP3   OH212814   3.883   3.665   0.787
 4286TIP3    H112815   3.901   3.629   0.700
 4286TIP3    H212816   3.926   3.605   0.848
 4287TIP3   OH212817   0.305   3.319   0.578
 4287TIP3    H112818   0.377   3.351   0.632
 4287TIP3    H212819   0.228   3.364   0.612
 4288TIP3   OH212820   6.314   6.770   2.719
 4288TIP3    H112821   6.278   6.857   2.732
 4288TIP3    H212822   6.242   6.710   2.738
 4289TIP3   OH212823   0.110   3.316   5.010
 4289TIP3    H112824   0.027   3.340   5.051
 4289TIP3    H212825   0.170   3.304   5.083
 4290TIP3   OH212826   0.482   1.927   0.328
 4290TIP3    H112827   0.527   1.883   0.400
 4290TIP3    H212828   0.389   1.910   0.344
 4291TIP3   OH212829   5.647   3.616   2.238
 4291TIP3    H112830   5.712   3.677   2.203
 4291TIP3    H212831   5.564   3.644   2.199
 4292TIP3   OH212832   8.133   0.242   2.430
 4292TIP3    H112833   8.228   0.249   2.438
 4292TIP3    H212834   8.101   0.329   2.453
 4293TIP3   OH212835   1.016   5.553   4.321
 4293TIP3    H112836   1.093   5.608   4.310
 4293TIP3    H212837   1.048   5.476   4.368
 4294TIP3   OH212838   8.056   6.829   4.288
 4294TIP3    H112839   8.057   6.913   4.335
 4294TIP3    H212840   8.049   6.853   4.196
 4295TIP3   OH212841   8.047   4.883   1.073
 4295TIP3    H112842   8.001   4.962   1.100
 4295TIP3    H212843   8.138   4.896   1.101
 4296TIP3   OH212844   5.352   6.801   3.900
 4296TIP3    H112845   5.444   6.817   3.919
 4296TIP3    H212846   5.306   6.830   3.979
 4297TIP3   OH212847   6.397   0.141   6.544
 4297TIP3    H112848   6.398   0.046   6.560
 4297TIP3    H212849   6.309   0.158   6.510
 4298TIP3   OH212850   7.601   0.309   0.284
 4298TIP3    H112851   7.523   0.305   0.228
 4298TIP3    H212852   7.593   0.233   0.341
 4299TIP3   OH212853   6.772   6.796   5.530
 4299TIP3    H112854   6.785   6.863   5.597
 4299TIP3    H212855   6.710   6.734   5.569
 4300TIP3   OH212856   5.335   5.744   1.761
 4300TIP3    H112857   5.302   5.668   1.713
 4300TIP3    H212858   5.261   5.771   1.816
 4301TIP3   OH212859   0.564   5.246   4.974
 4301TIP3    H112860   0.526   5.158   4.969
 4301TIP3    H212861   0.537   5.290   4.894
 4302TIP3   OH212862   8.235   2.210   5.211
 4302TIP3    H112863   8.314   2.159   5.228
 4302TIP3    H212864   8.229   2.214   5.115
 4303TIP3   OH212865   3.131   3.154   6.255
 4303TIP3    H112866   3.131   3.102   6.175
 4303TIP3    H212867   3.200   3.219   6.242
 4304TIP3   OH212868   5.723   1.908   5.065
 4304TIP3    H112869   5.678   1.967   5.004
 4304TIP3    H212870   5.765   1.967   5.128
 4305TIP3   OH212871   2.498   6.846   1.850
 4305TIP3    H112872   2.535   6.792   1.779
 4305TIP3    H212873   2.477   6.783   1.919
 4306TIP3   OH212874   5.889   2.194   2.853
 4306TIP3    H112875   5.847   2.205   2.939
 4306TIP3    H212876   5.917   2.102   2.852
 4307TIP3   OH212877   8.094   7.683   0.011
 4307TIP3    H112878   8.082   7.734   0.091
 4307TIP3    H212879   8.147   7.608   0.038
 4308TIP3   OH212880   7.609   4.914   1.170
 4308TIP3    H112881   7.522   4.883   1.193
 4308TIP3    H212882   7.595   4.970   1.093
 4309TIP3   OH212883   8.301   2.600   0.385
 4309TIP3    H112884   8.301   2.650   0.303
 4309TIP3    H212885   8.216   2.619   0.425
 4310TIP3   OH212886   4.879   5.731   6.088
 4310TIP3    H112887   4.859   5.813   6.042
 4310TIP3    H212888   4.793   5.695   6.110
 4311TIP3   OH212889   6.611   0.764   5.175
 4311TIP3    H112890   6.650   0.828   5.116
 4311TIP3    H212891   6.605   0.810   5.259
 4312TIP3   OH212892   1.966   3.973   4.604
 4312TIP3    H112893   1.884   3.926   4.585
 4312TIP3    H212894   2.016   3.913   4.660
 4313TIP3   OH212895   2.724   4.910   0.803
 4313TIP3    H112896   2.657   4.933   0.867
 4313TIP3    H212897   2.786   4.856   0.852
 4314TIP3   OH212898   6.064   0.946   2.998
 4314TIP3    H112899   6.090   0.940   2.906
 4314TIP3    H212900   6.035   1.037   3.008
 4315TIP3   OH212901   5.437   2.870   5.701
 4315TIP3    H112902   5.458   2.932   5.631
 4315TIP3    H212903   5.493   2.794   5.684
 4316TIP3   OH212904   6.756   3.153   2.885
 4316TIP3    H112905   6.682   3.206   2.917
 4316TIP3    H212906   6.809   3.137   2.963
 4317TIP3   OH212907   0.096   2.461   4.710
 4317TIP3    H112908   0.029   2.478   4.644
 4317TIP3    H212909   0.114   2.368   4.703
 4318TIP3   OH212910   3.344   4.497   3.105
 4318TIP3    H112911   3.401   4.433   3.149
 4318TIP3    H212912   3.267   4.504   3.162
 4319TIP3   OH212913   7.749   3.256   3.938
 4319TIP3    H112914   7.817   3.242   3.873
 4319TIP3    H212915   7.682   3.190   3.918
 4320TIP3   OH212916   3.917   5.366   5.563
 4320TIP3    H112917   3.833   5.410   5.557
 4320TIP3    H212918   3.898   5.282   5.606
 4321TIP3   OH212919   3.518   2.367   6.646
 4321TIP3    H112920   3.492   2.459   6.644
 4321TIP3    H212921   3.537   2.350   6.738
 4322TIP3   OH212922   2.781   7.258   6.204
 4322TIP3    H112923   2.692   7.276   6.235
 4322TIP3    H212924   2.825   7.344   6.206
 4323TIP3   OH212925   0.573   1.135   1.996
 4323TIP3    H112926   0.557   1.051   1.955
 4323TIP3    H212927   0.564   1.118   2.090
 4324TIP3   OH212928   0.866   5.012   1.422
 4324TIP3    H112929   0.954   5.023   1.460
 4324TIP3    H212930   0.808   5.059   1.482
 4325TIP3   OH212931   6.328   2.305   5.816
 4325TIP3    H112932   6.260   2.371   5.805
 4325TIP3    H212933   6.284   2.232   5.859
 4326TIP3   OH212934   4.241   5.204   1.272
 4326TIP3    H112935   4.250   5.234   1.182
 4326TIP3    H212936   4.147   5.188   1.282
 4327TIP3   OH212937   7.664   2.440   4.563
 4327TIP3    H112938   7.680   2.414   4.654
 4327TIP3    H212939   7.644   2.533   4.569
 4328TIP3   OH212940   4.471   2.085   4.341
 4328TIP3    H112941   4.528   2.015   4.371
 4328TIP3    H212942   4.403   2.041   4.290
 4329TIP3   OH212943   3.745   2.585   0.030
 4329TIP3    H112944   3.780   2.500   0.057
 4329TIP3    H212945   3.653   2.582   0.054
 4330TIP3   OH212946   5.005   2.396   1.651
 4330TIP3    H112947   5.004   2.305   1.621
 4330TIP3    H212948   4.932   2.402   1.712
 4331TIP3   OH212949   1.393   5.073   1.125
 4331TIP3    H112950   1.354   5.103   1.043
 4331TIP3    H212951   1.469   5.021   1.098
 4332TIP3   OH212952   1.854   3.806   0.078
 4332TIP3    H112953   1.817   3.815  -0.010
 4332TIP3    H212954   1.867   3.712   0.088
 4333TIP3   OH212955   2.932   5.819   5.107
 4333TIP3    H112956   2.885   5.794   5.028
 4333TIP3    H212957   2.969   5.737   5.141
 4334TIP3   OH212958   4.633   0.903   2.634
 4334TIP3    H112959   4.727   0.922   2.635
 4334TIP3    H212960   4.615   0.864   2.720
 4335TIP3   OH212961   4.058   5.960   2.229
 4335TIP3    H112962   4.141   5.945   2.273
 4335TIP3    H212963   4.074   5.936   2.138
 4336TIP3   OH212964   5.590   2.752   1.252
 4336TIP3    H112965   5.562   2.661   1.245
 4336TIP3    H212966   5.633   2.758   1.337
 4337TIP3   OH212967   4.380   3.167   5.938
 4337TIP3    H112968   4.318   3.095   5.953
 4337TIP3    H212969   4.367   3.191   5.846
 4338TIP3   OH212970   3.969   6.207   0.566
 4338TIP3    H112971   3.957   6.149   0.642
 4338TIP3    H212972   4.053   6.181   0.529
 4339TIP3   OH212973   2.795   7.343   1.213
 4339TIP3    H112974   2.858   7.355   1.142
 4339TIP3    H212975   2.764   7.431   1.234
 4340TIP3   OH212976   2.027   3.820   2.891
 4340TIP3    H112977   1.956   3.880   2.869
 4340TIP3    H212978   2.074   3.807   2.809
 4341TIP3   OH212979   1.241   3.565   6.334
 4341TIP3    H112980   1.310   3.630   6.329
 4341TIP3    H212981   1.250   3.526   6.421
 4342TIP3   OH212982   7.875   2.895   0.805
 4342TIP3    H112983   7.856   2.968   0.865
 4342TIP3    H212984   7.906   2.824   0.862
 4343TIP3   OH212985   3.791   1.925   4.351
 4343TIP3    H112986   3.768   1.834   4.368
 4343TIP3    H212987   3.866   1.942   4.407
 4344TIP3   OH212988   0.507   4.903   5.589
 4344TIP3    H112989   0.524   4.929   5.679
 4344TIP3    H212990   0.583   4.934   5.540
 4345TIP3   OH212991   5.884   6.610   4.751
 4345TIP3    H112992   5.832   6.667   4.694
 4345TIP3    H212993   5.951   6.573   4.692
 4346TIP3   OH212994   1.776   2.883   1.815
 4346TIP3    H112995   1.748   2.797   1.844
 4346TIP3    H212996   1.734   2.894   1.729
 4347TIP3   OH212997   5.010   6.850   5.708
 4347TIP3    H112998   4.926   6.818   5.673
 4347TIP3    H212999   5.016   6.808   5.794
 4348TIP3   OH213000   5.195   5.845   2.223
 4348TIP3    H113001   5.254   5.787   2.270
 4348TIP3    H213002   5.167   5.909   2.288
 4349TIP3   OH213003   6.748   2.606   1.184
 4349TIP3    H113004   6.723   2.616   1.276
 4349TIP3    H213005   6.733   2.692   1.145
 4350TIP3   OH213006   0.664   5.555   5.938
 4350TIP3    H113007   0.662   5.486   5.872
 4350TIP3    H213008   0.575   5.591   5.937
 4351TIP3   OH213009   5.992   2.742   4.919
 4351TIP3    H113010   5.961   2.833   4.919
 4351TIP3    H213011   6.084   2.749   4.945
 4352TIP3   OH213012   5.338   0.762   6.592
 4352TIP3    H113013   5.357   0.835   6.534
 4352TIP3    H213014   5.424   0.729   6.619
 4353TIP3   OH213015   7.907   4.871   0.612
 4353TIP3    H113016   7.829   4.838   0.657
 4353TIP3    H213017   7.881   4.876   0.520
 4354TIP3   OH213018   2.033   5.005   2.305
 4354TIP3    H113019   2.105   5.067   2.300
 4354TIP3    H213020   2.005   5.007   2.396
 4355TIP3   OH213021   7.872   4.249   6.252
 4355TIP3    H113022   7.927   4.307   6.199
 4355TIP3    H213023   7.932   4.181   6.283
 4356TIP3   OH213024   4.072   2.873   4.747
 4356TIP3    H113025   3.992   2.918   4.721
 4356TIP3    H213026   4.104   2.923   4.822
 4357TIP3   OH213027   1.663   6.907   0.665
 4357TIP3    H113028   1.733   6.958   0.704
 4357TIP3    H213029   1.698   6.818   0.660
 4358TIP3   OH213030   6.886   5.635   3.407
 4358TIP3    H113031   6.980   5.639   3.425
 4358TIP3    H213032   6.876   5.672   3.320
 4359TIP3   OH213033   4.147   5.316   5.854
 4359TIP3    H113034   4.213   5.369   5.810
 4359TIP3    H213035   4.196   5.264   5.917
 4360TIP3   OH213036   4.875   6.119   0.072
 4360TIP3    H113037   4.923   6.080  -0.001
 4360TIP3    H213038   4.916   6.080   0.150
 4361TIP3   OH213039   4.288   5.409   3.341
 4361TIP3    H113040   4.352   5.342   3.318
 4361TIP3    H213041   4.310   5.484   3.286
 4362TIP3   OH213042   4.263   7.328   1.249
 4362TIP3    H113043   4.304   7.246   1.277
 4362TIP3    H213044   4.336   7.382   1.220
 4363TIP3   OH213045   1.158   6.953   4.610
 4363TIP3    H113046   1.101   6.880   4.586
 4363TIP3    H213047   1.216   6.965   4.535
 4364TIP3   OH213048   2.113   2.393   6.168
 4364TIP3    H113049   2.163   2.327   6.215
 4364TIP3    H213050   2.174   2.428   6.103
 4365TIP3   OH213051   3.585   3.827   2.483
 4365TIP3    H113052   3.631   3.903   2.518
 4365TIP3    H213053   3.637   3.752   2.511
 4366TIP3   OH213054   6.679   6.531   6.149
 4366TIP3    H113055   6.635   6.469   6.208
 4366TIP3    H213056   6.677   6.487   6.064
 4367TIP3   OH213057   1.405   4.732   4.340
 4367TIP3    H113058   1.408   4.741   4.245
 4367TIP3    H213059   1.313   4.746   4.362
 4368TIP3   OH213060   1.735   3.909   3.314
 4368TIP3    H113061   1.766   3.998   3.301
 4368TIP3    H213062   1.717   3.903   3.408
 4369TIP3   OH213063   3.567   4.760   5.536
 4369TIP3    H113064   3.536   4.711   5.461
 4369TIP3    H213065   3.529   4.716   5.612
 4370TIP3   OH213066   0.959   6.076   3.092
 4370TIP3    H113067   0.920   5.998   3.132
 4370TIP3    H213068   0.897   6.100   3.023
 4371TIP3   OH213069   0.387   0.965   1.385
 4371TIP3    H113070   0.382   1.030   1.314
 4371TIP3    H213071   0.406   0.883   1.341
 4372TIP3   OH213072   7.244   4.682   3.348
 4372TIP3    H113073   7.294   4.602   3.358
 4372TIP3    H213074   7.171   4.658   3.291
 4373TIP3   OH213075   4.566   2.326   4.448
 4373TIP3    H113076   4.523   2.243   4.429
 4373TIP3    H213077   4.495   2.389   4.460
 4374TIP3   OH213078   3.633   0.790   6.246
 4374TIP3    H113079   3.694   0.747   6.306
 4374TIP3    H213080   3.601   0.719   6.190
 4375TIP3   OH213081   0.781   6.723   3.910
 4375TIP3    H113082   0.744   6.641   3.941
 4375TIP3    H213083   0.869   6.726   3.949
 4376TIP3   OH213084   1.402   7.235   5.998
 4376TIP3    H113085   1.426   7.293   6.070
 4376TIP3    H213086   1.461   7.259   5.926
 4377TIP3   OH213087   2.788   0.350   0.333
 4377TIP3    H113088   2.783   0.320   0.243
 4377TIP3    H213089   2.804   0.270   0.384
 4378TIP3   OH213090   5.704   6.110   0.349
 4378TIP3    H113091   5.724   6.070   0.265
 4378TIP3    H213092   5.609   6.124   0.348
 4379TIP3   OH213093   2.172   6.963   3.050
 4379TIP3    H113094   2.116   6.926   2.982
 4379TIP3    H213095   2.158   7.058   3.044
 4380TIP3   OH213096   8.246   6.514   1.133
 4380TIP3    H113097   8.308   6.563   1.188
 4380TIP3    H213098   8.262   6.422   1.156
 4381TIP3   OH213099   0.915   5.057   1.136
 4381TIP3    H113100   0.989   5.008   1.172
 4381TIP3    H213101   0.874   5.098   1.212
 4382TIP3   OH213102   4.804   4.916   3.788
 4382TIP3    H113103   4.808   4.957   3.702
 4382TIP3    H213104   4.804   4.822   3.770
 4383TIP3   OH213105   1.040   0.703   2.701
 4383TIP3    H113106   0.945   0.712   2.713
 4383TIP3    H213107   1.077   0.779   2.747
 4384TIP3   OH213108   3.689   0.544   2.163
 4384TIP3    H113109   3.638   0.607   2.212
 4384TIP3    H213110   3.628   0.473   2.143
 4385TIP3   OH213111   6.674   2.987   6.000
 4385TIP3    H113112   6.583   3.003   6.024
 4385TIP3    H213113   6.699   2.910   6.052
 4386TIP3   OH213114   2.875   4.244   4.297
 4386TIP3    H113115   2.962   4.260   4.333
 4386TIP3    H213116   2.891   4.215   4.207
 4387TIP3   OH213117   3.201   1.679   3.743
 4387TIP3    H113118   3.287   1.712   3.716
 4387TIP3    H213119   3.213   1.585   3.752
 4388TIP3   OH213120   2.799   7.097   3.424
 4388TIP3    H113121   2.798   7.193   3.415
 4388TIP3    H213122   2.885   7.071   3.393
 4389TIP3   OH213123   2.823   2.247   4.066
 4389TIP3    H113124   2.870   2.238   3.983
 4389TIP3    H213125   2.891   2.271   4.129
 4390TIP3   OH213126   4.101   2.504   4.571
 4390TIP3    H113127   4.066   2.453   4.644
 4390TIP3    H213128   4.027   2.516   4.512
 4391TIP3   OH213129   2.530   4.117   2.600
 4391TIP3    H113130   2.451   4.063   2.612
 4391TIP3    H213131   2.545   4.156   2.686
 4392TIP3   OH213132   0.835   3.072   2.605
 4392TIP3    H113133   0.801   3.147   2.558
 4392TIP3    H213134   0.917   3.103   2.644
 4393TIP3   OH213135   0.519   4.278   1.286
 4393TIP3    H113136   0.543   4.295   1.377
 4393TIP3    H213137   0.460   4.203   1.291
 4394TIP3   OH213138   4.303   6.750   1.850
 4394TIP3    H113139   4.249   6.775   1.925
 4394TIP3    H213140   4.315   6.655   1.859
 4395TIP3   OH213141   3.878   6.738   3.661
 4395TIP3    H113142   3.867   6.819   3.711
 4395TIP3    H213143   3.960   6.701   3.694
 4396TIP3   OH213144   4.223   2.477   5.266
 4396TIP3    H113145   4.222   2.390   5.306
 4396TIP3    H213146   4.130   2.499   5.255
 4397TIP3   OH213147   7.377   0.329   6.764
 4397TIP3    H113148   7.394   0.382   6.842
 4397TIP3    H213149   7.376   0.392   6.692
 4398TIP3   OH213150   1.792   7.376   1.144
 4398TIP3    H113151   1.788   7.471   1.149
 4398TIP3    H213152   1.885   7.355   1.155
 4399TIP3   OH213153   5.504   4.173   2.549
 4399TIP3    H113154   5.506   4.178   2.454
 4399TIP3    H213155   5.442   4.241   2.576
 4400TIP3   OH213156   0.493   4.250   4.693
 4400TIP3    H113157   0.411   4.228   4.649
 4400TIP3    H213158   0.561   4.228   4.630
 4401TIP3   OH213159   0.528   5.803   3.001
 4401TIP3    H113160   0.517   5.710   2.980
 4401TIP3    H213161   0.441   5.841   2.988
 4402TIP3   OH213162   3.610   7.459   5.916
 4402TIP3    H113163   3.623   7.409   5.997
 4402TIP3    H213164   3.617   7.394   5.846
 4403TIP3   OH213165   4.335   0.161   3.665
 4403TIP3    H113166   4.359   0.075   3.700
 4403TIP3    H213167   4.377   0.164   3.579
 4404TIP3   OH213168   6.395   1.814   0.224
 4404TIP3    H113169   6.422   1.877   0.158
 4404TIP3    H213170   6.425   1.852   0.307
 4405TIP3   OH213171   1.463   5.963   1.809
 4405TIP3    H113172   1.489   6.020   1.882
 4405TIP3    H213173   1.537   5.903   1.799
 4406TIP3   OH213174   3.828   1.916   1.363
 4406TIP3    H113175   3.754   1.925   1.302
 4406TIP3    H213176   3.861   2.005   1.372
 4407TIP3   OH213177   2.712   1.661   2.586
 4407TIP3    H113178   2.668   1.695   2.663
 4407TIP3    H213179   2.697   1.566   2.590
 4408TIP3   OH213180   2.697   7.292   4.430
 4408TIP3    H113181   2.752   7.307   4.507
 4408TIP3    H213182   2.732   7.212   4.392
 4409TIP3   OH213183   7.969   4.203   4.270
 4409TIP3    H113184   7.912   4.251   4.210
 4409TIP3    H213185   8.057   4.229   4.245
 4410TIP3   OH213186   0.999   3.762   2.427
 4410TIP3    H113187   0.968   3.835   2.479
 4410TIP3    H213188   0.952   3.769   2.344
 4411TIP3   OH213189   1.353   4.568   6.063
 4411TIP3    H113190   1.374   4.662   6.068
 4411TIP3    H213191   1.328   4.545   6.153
 4412TIP3   OH213192   1.044   2.611   5.545
 4412TIP3    H113193   1.042   2.561   5.627
 4412TIP3    H213194   1.134   2.643   5.540
 4413TIP3   OH213195   3.147   1.552   6.451
 4413TIP3    H113196   3.227   1.559   6.399
 4413TIP3    H213197   3.138   1.638   6.492
 4414TIP3   OH213198   1.993   6.768   5.064
 4414TIP3    H113199   1.910   6.781   5.018
 4414TIP3    H213200   2.041   6.706   5.009
 4415TIP3   OH213201   1.607   6.458   5.025
 4415TIP3    H113202   1.666   6.392   5.061
 4415TIP3    H213203   1.532   6.408   4.993
 4416TIP3   OH213204   4.608   6.370   1.565
 4416TIP3    H113205   4.531   6.315   1.555
 4416TIP3    H213206   4.631   6.396   1.476
 4417TIP3   OH213207   5.028   4.550   4.385
 4417TIP3    H113208   4.997   4.561   4.475
 4417TIP3    H213209   5.006   4.460   4.363
 4418TIP3   OH213210   0.133   2.392   2.268
 4418TIP3    H113211   0.076   2.380   2.344
 4418TIP3    H213212   0.187   2.468   2.290
 4419TIP3   OH213213   6.357   4.575   6.241
 4419TIP3    H113214   6.371   4.667   6.264
 4419TIP3    H213215   6.442   4.546   6.208
 4420TIP3   OH213216   4.660   0.015   6.720
 4420TIP3    H113217   4.683   0.056   6.636
 4420TIP3    H213218   4.576  -0.028   6.703
 4421TIP3   OH213219   4.984   4.524   4.651
 4421TIP3    H113220   4.993   4.566   4.736
 4421TIP3    H213221   5.025   4.438   4.662
 4422TIP3   OH213222   1.850   7.115   4.085
 4422TIP3    H113223   1.865   7.140   4.177
 4422TIP3    H213224   1.760   7.143   4.067
 4423TIP3   OH213225   0.927   7.097   5.945
 4423TIP3    H113226   1.013   7.139   5.939
 4423TIP3    H213227   0.871   7.162   5.986
 4424TIP3   OH213228   7.854   1.768   1.621
 4424TIP3    H113229   7.819   1.735   1.703
 4424TIP3    H213230   7.940   1.727   1.613
 4425TIP3   OH213231   6.766   1.125   6.414
 4425TIP3    H113232   6.738   1.206   6.457
 4425TIP3    H213233   6.822   1.154   6.342
 4426TIP3   OH213234   4.258   1.387   4.993
 4426TIP3    H113235   4.225   1.315   5.046
 4426TIP3    H213236   4.193   1.397   4.922
 4427TIP3   OH213237   3.553   5.692   0.435
 4427TIP3    H113238   3.477   5.658   0.389
 4427TIP3    H213239   3.544   5.787   0.427
 4428TIP3   OH213240   5.002   1.590   1.565
 4428TIP3    H113241   4.992   1.564   1.473
 4428TIP3    H213242   5.021   1.684   1.560
 4429TIP3   OH213243   6.040   7.347   4.090
 4429TIP3    H113244   6.023   7.427   4.141
 4429TIP3    H213245   6.012   7.276   4.147
 4430TIP3   OH213246   6.888   2.989   5.836
 4430TIP3    H113247   6.865   3.028   5.751
 4430TIP3    H213248   6.804   2.974   5.879
 4431TIP3   OH213249   8.215   0.764   1.860
 4431TIP3    H113250   8.290   0.756   1.919
 4431TIP3    H213251   8.250   0.747   1.773
 4432TIP3   OH213252   5.976   2.561   4.726
 4432TIP3    H113253   5.989   2.630   4.791
 4432TIP3    H213254   5.964   2.608   4.643
 4433TIP3   OH213255   0.428   6.449   4.910
 4433TIP3    H113256   0.420   6.544   4.922
 4433TIP3    H213257   0.391   6.411   4.990
 4434TIP3   OH213258   2.309   1.946   6.472
 4434TIP3    H113259   2.220   1.977   6.488
 4434TIP3    H213260   2.358   2.025   6.451
 4435TIP3   OH213261   1.147   0.134   4.018
 4435TIP3    H113262   1.072   0.078   3.998
 4435TIP3    H213263   1.203   0.081   4.074
 4436TIP3   OH213264   6.001   0.505   1.418
 4436TIP3    H113265   6.077   0.448   1.426
 4436TIP3    H213266   5.954   0.495   1.500
 4437TIP3   OH213267   5.336   6.778   4.921
 4437TIP3    H113268   5.352   6.854   4.976
 4437TIP3    H213269   5.403   6.783   4.853
 4438TIP3   OH213270   2.191   7.297   2.733
 4438TIP3    H113271   2.172   7.284   2.640
 4438TIP3    H213272   2.283   7.324   2.735
 4439TIP3   OH213273   0.575   2.757   2.735
 4439TIP3    H113274   0.543   2.686   2.678
 4439TIP3    H213275   0.594   2.713   2.818
 4440TIP3   OH213276   2.749   5.419   5.021
 4440TIP3    H113277   2.710   5.337   5.051
 4440TIP3    H213278   2.706   5.487   5.074
 4441TIP3   OH213279   5.792   4.380   2.503
 4441TIP3    H113280   5.812   4.322   2.576
 4441TIP3    H213281   5.700   4.404   2.517
 4442TIP3   OH213282   2.822   7.033   1.194
 4442TIP3    H113283   2.872   7.032   1.276
 4442TIP3    H213284   2.795   7.124   1.184
 4443TIP3   OH213285   8.162   6.262   0.996
 4443TIP3    H113286   8.242   6.258   1.048
 4443TIP3    H213287   8.177   6.200   0.925
 4444TIP3   OH213288   5.848   3.787   4.308
 4444TIP3    H113289   5.882   3.739   4.384
 4444TIP3    H213290   5.785   3.727   4.268
 4445TIP3   OH213291   8.230   3.329   5.881
 4445TIP3    H113292   8.234   3.346   5.975
 4445TIP3    H213293   8.149   3.372   5.852
 4446TIP3   OH213294   7.681   0.158   2.565
 4446TIP3    H113295   7.708   0.237   2.518
 4446TIP3    H213296   7.763   0.121   2.598
 4447TIP3   OH213297   8.142   5.822   3.298
 4447TIP3    H113298   8.233   5.853   3.302
 4447TIP3    H213299   8.116   5.835   3.207
 4448TIP3   OH213300   3.658   4.907   3.424
 4448TIP3    H113301   3.692   4.845   3.488
 4448TIP3    H213302   3.736   4.950   3.388
 4449TIP3   OH213303   5.023   4.608   0.079
 4449TIP3    H113304   4.937   4.633   0.045
 4449TIP3    H213305   5.070   4.575   0.002
 4450TIP3   OH213306   8.229   3.903   3.011
 4450TIP3    H113307   8.237   3.899   3.106
 4450TIP3    H213308   8.227   3.997   2.992
 4451TIP3   OH213309   2.408   5.523   2.129
 4451TIP3    H113310   2.496   5.538   2.093
 4451TIP3    H213311   2.420   5.452   2.192
 4452TIP3   OH213312   5.376   3.580   6.289
 4452TIP3    H113313   5.309   3.640   6.322
 4452TIP3    H213314   5.374   3.506   6.349
 4453TIP3   OH213315   3.209   6.821   4.967
 4453TIP3    H113316   3.168   6.736   4.986
 4453TIP3    H213317   3.252   6.809   4.883
 4454TIP3   OH213318   8.155   4.463   6.534
 4454TIP3    H113319   8.216   4.529   6.567
 4454TIP3    H213320   8.078   4.513   6.506
 4455TIP3   OH213321   7.425   3.463   1.682
 4455TIP3    H113322   7.379   3.420   1.611
 4455TIP3    H213323   7.486   3.397   1.715
 4456TIP3   OH213324   1.814   2.356   1.625
 4456TIP3    H113325   1.834   2.364   1.718
 4456TIP3    H213326   1.897   2.373   1.581
 4457TIP3   OH213327   7.142   3.362   0.206
 4457TIP3    H113328   7.209   3.388   0.143
 4457TIP3    H213329   7.164   3.410   0.285
 4458TIP3   OH213330   7.108   5.301   2.093
 4458TIP3    H113331   7.035   5.346   2.135
 4458TIP3    H213332   7.092   5.312   2.000
 4459TIP3   OH213333   2.644   0.220   3.287
 4459TIP3    H113334   2.629   0.262   3.371
 4459TIP3    H213335   2.557   0.201   3.253
 4460TIP3   OH213336   4.823   5.906   5.877
 4460TIP3    H113337   4.774   5.986   5.900
 4460TIP3    H213338   4.810   5.897   5.783
 4461TIP3   OH213339   6.045   0.226   5.312
 4461TIP3    H113340   5.982   0.221   5.240
 4461TIP3    H213341   6.117   0.169   5.285
 4462TIP3   OH213342   3.884   6.104   1.195
 4462TIP3    H113343   3.804   6.156   1.194
 4462TIP3    H213344   3.855   6.016   1.219
 4463TIP3   OH213345   7.368   0.491   4.577
 4463TIP3    H113346   7.278   0.508   4.548
 4463TIP3    H213347   7.358   0.441   4.658
 4464TIP3   OH213348   2.999   4.621   6.120
 4464TIP3    H113349   2.928   4.569   6.082
 4464TIP3    H213350   2.971   4.712   6.112
 4465TIP3   OH213351   1.630   5.154   3.662
 4465TIP3    H113352   1.560   5.105   3.706
 4465TIP3    H213353   1.622   5.130   3.570
 4466TIP3   OH213354   5.208   0.857   5.364
 4466TIP3    H113355   5.248   0.894   5.286
 4466TIP3    H213356   5.154   0.785   5.332
 4467TIP3   OH213357   4.349   1.321   4.077
 4467TIP3    H113358   4.311   1.378   4.011
 4467TIP3    H213359   4.378   1.380   4.146
 4468TIP3   OH213360   2.794   2.627   1.342
 4468TIP3    H113361   2.879   2.620   1.300
 4468TIP3    H213362   2.736   2.660   1.273
 4469TIP3   OH213363   8.166   3.146   2.696
 4469TIP3    H113364   8.156   3.061   2.740
 4469TIP3    H213365   8.223   3.128   2.622
 4470TIP3   OH213366   7.722   4.295   6.648
 4470TIP3    H113367   7.682   4.323   6.566
 4470TIP3    H213368   7.753   4.375   6.689
 4471TIP3   OH213369   3.718   4.645   2.735
 4471TIP3    H113370   3.680   4.618   2.818
 4471TIP3    H213371   3.712   4.741   2.736
 4472TIP3   OH213372   3.571   2.911   0.243
 4472TIP3    H113373   3.585   2.941   0.333
 4472TIP3    H213374   3.588   2.989   0.190
 4473TIP3   OH213375   6.375   0.868   0.342
 4473TIP3    H113376   6.342   0.955   0.365
 4473TIP3    H213377   6.414   0.836   0.423
 4474TIP3   OH213378   8.282   6.395   5.280
 4474TIP3    H113379   8.209   6.359   5.229
 4474TIP3    H213380   8.358   6.384   5.224
 4475TIP3   OH213381   1.249   3.968   0.969
 4475TIP3    H113382   1.193   4.030   0.922
 4475TIP3    H213383   1.328   4.018   0.988
 4476TIP3   OH213384   3.929   4.628   0.583
 4476TIP3    H113385   3.956   4.714   0.614
 4476TIP3    H213386   3.865   4.645   0.514
 4477TIP3   OH213387   1.772   4.751   2.402
 4477TIP3    H113388   1.723   4.745   2.484
 4477TIP3    H213389   1.838   4.682   2.408
 4478TIP3   OH213390   0.611   7.015   1.069
 4478TIP3    H113391   0.598   6.945   1.005
 4478TIP3    H213392   0.563   6.987   1.146
 4479TIP3   OH213393   6.802   1.347   5.507
 4479TIP3    H113394   6.803   1.313   5.596
 4479TIP3    H213395   6.738   1.292   5.461
 4480TIP3   OH213396   5.738   5.421   2.178
 4480TIP3    H113397   5.754   5.338   2.222
 4480TIP3    H213398   5.649   5.446   2.204
 4481TIP3   OH213399   5.181   2.502   6.297
 4481TIP3    H113400   5.234   2.566   6.344
 4481TIP3    H213401   5.173   2.537   6.208
 4482TIP3   OH213402   7.196   4.220   0.903
 4482TIP3    H113403   7.208   4.177   0.819
 4482TIP3    H213404   7.141   4.159   0.953
 4483TIP3   OH213405  -0.003   3.004   6.599
 4483TIP3    H113406   0.062   2.994   6.669
 4483TIP3    H213407   0.023   3.084   6.553
 4484TIP3   OH213408   5.181   5.491   3.425
 4484TIP3    H113409   5.261   5.485   3.372
 4484TIP3    H213410   5.152   5.581   3.416
 4485TIP3   OH213411   4.594   0.942   6.010
 4485TIP3    H113412   4.516   0.948   5.955
 4485TIP3    H213413   4.640   0.864   5.977
 4486TIP3   OH213414   1.200   0.372   2.682
 4486TIP3    H113415   1.123   0.428   2.671
 4486TIP3    H213416   1.169   0.284   2.658
 4487TIP3   OH213417   0.878   1.547   2.634
 4487TIP3    H113418   0.916   1.515   2.552
 4487TIP3    H213419   0.896   1.641   2.634
 4488TIP3   OH213420   4.951   3.734   5.454
 4488TIP3    H113421   4.857   3.733   5.471
 4488TIP3    H213422   4.990   3.748   5.541
 4489TIP3   OH213423   4.088   6.943   1.930
 4489TIP3    H113424   4.173   6.981   1.909
 4489TIP3    H213425   4.047   6.927   1.845
 4490TIP3   OH213426   2.453   7.218   5.387
 4490TIP3    H113427   2.542   7.186   5.370
 4490TIP3    H213428   2.464   7.285   5.454
 4491TIP3   OH213429   7.869   1.623   2.450
 4491TIP3    H113430   7.917   1.648   2.371
 4491TIP3    H213431   7.853   1.706   2.495
 4492TIP3   OH213432   1.737   7.341   1.527
 4492TIP3    H113433   1.666   7.364   1.587
 4492TIP3    H213434   1.693   7.309   1.448
 4493TIP3   OH213435   5.098   1.712   5.225
 4493TIP3    H113436   5.189   1.741   5.220
 4493TIP3    H213437   5.047   1.793   5.231
 4494TIP3   OH213438   4.159   4.408   3.014
 4494TIP3    H113439   4.073   4.448   3.021
 4494TIP3    H213440   4.145   4.317   3.039
 4495TIP3   OH213441   1.152   3.783   4.312
 4495TIP3    H113442   1.239   3.746   4.328
 4495TIP3    H213443   1.095   3.706   4.304
 4496TIP3   OH213444   1.765   1.405   3.154
 4496TIP3    H113445   1.783   1.394   3.247
 4496TIP3    H213446   1.686   1.352   3.139
 4497TIP3   OH213447   1.534   5.754   4.182
 4497TIP3    H113448   1.504   5.806   4.108
 4497TIP3    H213449   1.531   5.815   4.256
 4498TIP3   OH213450   2.081   5.268   2.090
 4498TIP3    H113451   2.154   5.214   2.122
 4498TIP3    H213452   2.012   5.204   2.069
 4499TIP3   OH213453   6.240   2.350   3.229
 4499TIP3    H113454   6.291   2.270   3.245
 4499TIP3    H213455   6.249   2.400   3.310
 4500TIP3   OH213456   3.251   6.422   6.745
 4500TIP3    H113457   3.234   6.396   6.654
 4500TIP3    H213458   3.169   6.463   6.773
 4501TIP3   OH213459   1.662   3.375   2.317
 4501TIP3    H113460   1.696   3.315   2.251
 4501TIP3    H213461   1.588   3.329   2.356
 4502TIP3   OH213462   0.468   3.841   1.868
 4502TIP3    H113463   0.447   3.879   1.783
 4502TIP3    H213464   0.442   3.749   1.860
 4503TIP3   OH213465   7.951   5.722   5.009
 4503TIP3    H113466   7.920   5.632   5.007
 4503TIP3    H213467   7.929   5.758   4.923
 4504TIP3   OH213468   6.524   0.979   5.356
 4504TIP3    H113469   6.492   0.956   5.443
 4504TIP3    H213470   6.468   0.931   5.296
 4505TIP3   OH213471   1.465   4.901   1.438
 4505TIP3    H113472   1.391   4.956   1.411
 4505TIP3    H213473   1.542   4.945   1.402
 4506TIP3   OH213474   5.269   7.018   5.052
 4506TIP3    H113475   5.191   6.970   5.025
 4506TIP3    H213476   5.287   6.984   5.140
 4507TIP3   OH213477   6.119   6.418   1.711
 4507TIP3    H113478   6.105   6.443   1.620
 4507TIP3    H213479   6.085   6.492   1.761
 4508TIP3   OH213480   0.617   0.948   3.081
 4508TIP3    H113481   0.653   0.993   3.157
 4508TIP3    H213482   0.687   0.951   3.016
 4509TIP3   OH213483   4.355   0.909   1.089
 4509TIP3    H113484   4.388   0.968   1.021
 4509TIP3    H213485   4.347   0.964   1.167
 4510TIP3   OH213486   1.458   4.937   5.563
 4510TIP3    H113487   1.524   4.898   5.620
 4510TIP3    H213488   1.461   5.031   5.582
 4511TIP3   OH213489   4.730   2.586   5.249
 4511TIP3    H113490   4.811   2.619   5.289
 4511TIP3    H213491   4.668   2.579   5.322
 4512TIP3   OH213492   2.894   6.409   2.860
 4512TIP3    H113493   2.940   6.352   2.799
 4512TIP3    H213494   2.963   6.463   2.899
 4513TIP3   OH213495   4.917   1.568   1.256
 4513TIP3    H113496   4.842   1.563   1.316
 4513TIP3    H213497   4.890   1.630   1.189
 4514TIP3   OH213498   8.206   3.976   3.262
 4514TIP3    H113499   8.244   3.976   3.350
 4514TIP3    H213500   8.115   3.950   3.275
 4515TIP3   OH213501   4.939   4.396   0.760
 4515TIP3    H113502   4.933   4.425   0.669
 4515TIP3    H213503   4.966   4.304   0.755
 4516TIP3   OH213504   3.431   1.304   1.583
 4516TIP3    H113505   3.347   1.344   1.602
 4516TIP3    H213506   3.483   1.318   1.662
 4517TIP3   OH213507   6.468   6.064   4.934
 4517TIP3    H113508   6.405   6.115   4.984
 4517TIP3    H213509   6.461   6.097   4.845
 4518TIP3   OH213510   2.539   7.682   2.697
 4518TIP3    H113511   2.466   7.737   2.668
 4518TIP3    H213512   2.609   7.744   2.717
 4519TIP3   OH213513   2.358   0.451   4.799
 4519TIP3    H113514   2.340   0.531   4.847
 4519TIP3    H213515   2.324   0.467   4.711
 4520TIP3   OH213516   5.026   7.445   6.472
 4520TIP3    H113517   5.103   7.399   6.505
 4520TIP3    H213518   4.968   7.453   6.548
 4521TIP3   OH213519   2.641   4.883   1.459
 4521TIP3    H113520   2.599   4.940   1.524
 4521TIP3    H213521   2.594   4.800   1.467
 4522TIP3   OH213522   4.489   4.105   3.779
 4522TIP3    H113523   4.469   4.186   3.733
 4522TIP3    H213524   4.521   4.046   3.711
 4523TIP3   OH213525   7.400   6.968   0.428
 4523TIP3    H113526   7.362   6.884   0.455
 4523TIP3    H213527   7.465   6.987   0.495
 4524TIP3   OH213528   0.871   6.087   4.047
 4524TIP3    H113529   0.910   6.174   4.056
 4524TIP3    H213530   0.779   6.105   4.025
 4525TIP3   OH213531   7.541   7.014   5.789
 4525TIP3    H113532   7.609   6.982   5.848
 4525TIP3    H213533   7.460   7.003   5.838
 4526TIP3   OH213534   6.256   3.120   4.916
 4526TIP3    H113535   6.269   3.121   4.821
 4526TIP3    H213536   6.208   3.202   4.933
 4527TIP3   OH213537   4.824   7.089   4.214
 4527TIP3    H113538   4.793   7.178   4.199
 4527TIP3    H213539   4.882   7.097   4.290
 4528TIP3   OH213540   0.678   7.392   4.420
 4528TIP3    H113541   0.630   7.362   4.497
 4528TIP3    H213542   0.743   7.454   4.455
 4529TIP3   OH213543   1.237   3.516   5.657
 4529TIP3    H113544   1.211   3.590   5.712
 4529TIP3    H213545   1.196   3.533   5.572
 4530TIP3   OH213546   6.489   1.297   3.613
 4530TIP3    H113547   6.479   1.278   3.706
 4530TIP3    H213548   6.554   1.367   3.609
 4531TIP3   OH213549   3.935   7.183   6.219
 4531TIP3    H113550   4.023   7.153   6.242
 4531TIP3    H213551   3.947   7.272   6.187
 4532TIP3   OH213552   7.677   6.763   4.173
 4532TIP3    H113553   7.681   6.838   4.232
 4532TIP3    H213554   7.757   6.713   4.192
 4533TIP3   OH213555   1.720   6.460   0.382
 4533TIP3    H113556   1.639   6.413   0.364
 4533TIP3    H213557   1.695   6.529   0.444
 4534TIP3   OH213558   4.731   3.720   4.761
 4534TIP3    H113559   4.689   3.740   4.844
 4534TIP3    H213560   4.663   3.676   4.710
 4535TIP3   OH213561   4.975   2.645   0.839
 4535TIP3    H113562   4.890   2.642   0.883
 4535TIP3    H213563   5.020   2.719   0.880
 4536TIP3   OH213564   0.918   2.031   4.288
 4536TIP3    H113565   0.833   2.050   4.326
 4536TIP3    H213566   0.981   2.050   4.358
 4537TIP3   OH213567   7.527   2.020   2.503
 4537TIP3    H113568   7.589   1.952   2.530
 4537TIP3    H213569   7.476   2.039   2.582
 4538TIP3   OH213570   6.937   4.517   1.624
 4538TIP3    H113571   6.882   4.439   1.626
 4538TIP3    H213572   7.013   4.494   1.678
 4539TIP3   OH213573   5.775   0.300   3.548
 4539TIP3    H113574   5.820   0.280   3.466
 4539TIP3    H213575   5.836   0.270   3.616
 4540TIP3   OH213576   0.497   1.144   2.263
 4540TIP3    H113577   0.501   1.220   2.321
 4540TIP3    H213578   0.406   1.114   2.268
 4541TIP3   OH213579   7.958   2.042   5.345
 4541TIP3    H113580   7.933   2.131   5.369
 4541TIP3    H213581   7.880   2.007   5.301
 4542TIP3   OH213582   6.195   5.065   5.453
 4542TIP3    H113583   6.252   5.022   5.517
 4542TIP3    H213584   6.243   5.144   5.428
 4543TIP3   OH213585   2.280   4.861   1.877
 4543TIP3    H113586   2.293   4.832   1.968
 4543TIP3    H213587   2.263   4.780   1.828
 4544TIP3   OH213588   4.945   1.039   4.178
 4544TIP3    H113589   4.985   1.126   4.176
 4544TIP3    H213590   4.967   1.004   4.264
 4545TIP3   OH213591   0.399   7.008   0.140
 4545TIP3    H113592   0.348   6.929   0.156
 4545TIP3    H213593   0.367   7.071   0.204
 4546TIP3   OH213594   3.671   3.442   4.099
 4546TIP3    H113595   3.599   3.405   4.151
 4546TIP3    H213596   3.627   3.484   4.024
 4547TIP3   OH213597   5.090   0.146   3.952
 4547TIP3    H113598   5.184   0.158   3.937
 4547TIP3    H213599   5.085   0.071   4.011
 4548TIP3   OH213600   6.215   6.965   2.120
 4548TIP3    H113601   6.222   7.008   2.035
 4548TIP3    H213602   6.305   6.960   2.152
 4549TIP3   OH213603   4.502   3.457   1.008
 4549TIP3    H113604   4.513   3.476   1.101
 4549TIP3    H213605   4.553   3.377   0.993
 4550TIP3   OH213606   8.159   7.728   4.662
 4550TIP3    H113607   8.065   7.746   4.655
 4550TIP3    H213608   8.164   7.633   4.676
 4551TIP3   OH213609   2.715   2.259   0.367
 4551TIP3    H113610   2.642   2.243   0.427
 4551TIP3    H213611   2.677   2.254   0.280
 4552TIP3   OH213612   7.116   1.879   1.862
 4552TIP3    H113613   7.158   1.874   1.948
 4552TIP3    H213614   7.189   1.880   1.800
 4553TIP3   OH213615   5.748   5.985   6.754
 4553TIP3    H113616   5.825   6.039   6.738
 4553TIP3    H213617   5.676   6.033   6.714
 4554TIP3   OH213618   5.148   4.455   5.927
 4554TIP3    H113619   5.204   4.530   5.949
 4554TIP3    H213620   5.060   4.492   5.922
 4555TIP3   OH213621   0.738   5.501   4.359
 4555TIP3    H113622   0.769   5.478   4.446
 4555TIP3    H213623   0.799   5.569   4.329
 4556TIP3   OH213624   0.938   1.219   1.106
 4556TIP3    H113625   0.977   1.296   1.148
 4556TIP3    H213626   0.852   1.211   1.147
 4557TIP3   OH213627   2.081   4.503   2.954
 4557TIP3    H113628   2.052   4.466   2.870
 4557TIP3    H213629   2.125   4.585   2.930
 4558TIP3   OH213630   2.930   2.760   2.662
 4558TIP3    H113631   2.846   2.780   2.704
 4558TIP3    H213632   2.907   2.712   2.583
 4559TIP3   OH213633   1.062   1.243   3.294
 4559TIP3    H113634   1.098   1.239   3.205
 4559TIP3    H213635   1.137   1.235   3.351
 4560TIP3   OH213636   5.333   1.806   2.065
 4560TIP3    H113637   5.364   1.746   2.132
 4560TIP3    H213638   5.256   1.763   2.027
 4561TIP3   OH213639   0.230   1.298   0.569
 4561TIP3    H113640   0.259   1.346   0.647
 4561TIP3    H213641   0.155   1.348   0.536
 4562TIP3   OH213642   0.381   6.235   0.361
 4562TIP3    H113643   0.366   6.177   0.435
 4562TIP3    H213644   0.442   6.187   0.305
 4563TIP3   OH213645   6.089   0.064   1.338
 4563TIP3    H113646   6.102  -0.011   1.396
 4563TIP3    H213647   6.074   0.025   1.252
 4564TIP3   OH213648   7.381   0.747   2.320
 4564TIP3    H113649   7.335   0.676   2.278
 4564TIP3    H213650   7.372   0.730   2.414
 4565TIP3   OH213651   4.370   1.848   6.245
 4565TIP3    H113652   4.347   1.923   6.190
 4565TIP3    H213653   4.306   1.781   6.221
 4566TIP3   OH213654   4.270   5.338   2.991
 4566TIP3    H113655   4.204   5.360   2.925
 4566TIP3    H213656   4.297   5.423   3.027
 4567TIP3   OH213657   1.695   3.389   5.228
 4567TIP3    H113658   1.603   3.416   5.222
 4567TIP3    H213659   1.739   3.439   5.160
 4568TIP3   OH213660   0.210   6.185   2.268
 4568TIP3    H113661   0.155   6.209   2.343
 4568TIP3    H213662   0.255   6.266   2.245
 4569TIP3   OH213663   0.619   4.424   2.110
 4569TIP3    H113664   0.554   4.374   2.159
 4569TIP3    H213665   0.582   4.512   2.103
 4570TIP3   OH213666   6.855   3.299   4.460
 4570TIP3    H113667   6.871   3.353   4.538
 4570TIP3    H213668   6.801   3.227   4.490
 4571TIP3   OH213669   4.183   2.735   0.737
 4571TIP3    H113670   4.241   2.763   0.808
 4571TIP3    H213671   4.178   2.640   0.746
 4572TIP3   OH213672   5.273   4.968   6.021
 4572TIP3    H113673   5.250   4.878   6.000
 4572TIP3    H213674   5.363   4.978   5.990
 4573TIP3   OH213675   4.463   3.412   0.017
 4573TIP3    H113676   4.426   3.369  -0.060
 4573TIP3    H213677   4.401   3.394   0.087
 4574TIP3   OH213678   1.796   5.775   3.299
 4574TIP3    H113679   1.727   5.759   3.364
 4574TIP3    H213680   1.755   5.756   3.215
 4575TIP3   OH213681   1.954   4.704   4.629
 4575TIP3    H113682   1.972   4.673   4.540
 4575TIP3    H213683   1.928   4.626   4.677
 4576TIP3   OH213684   6.480   3.008   2.980
 4576TIP3    H113685   6.439   2.922   2.992
 4576TIP3    H213686   6.449   3.038   2.895
 4577TIP3   OH213687   2.809   0.801   1.660
 4577TIP3    H113688   2.877   0.735   1.675
 4577TIP3    H213689   2.733   0.751   1.630
 4578TIP3   OH213690   8.186   6.832   0.270
 4578TIP3    H113691   8.187   6.779   0.349
 4578TIP3    H213692   8.208   6.920   0.301
 4579TIP3   OH213693   6.632   2.809   5.253
 4579TIP3    H113694   6.632   2.744   5.323
 4579TIP3    H213695   6.640   2.758   5.173
 4580TIP3   OH213696   3.619   5.963   2.138
 4580TIP3    H113697   3.561   6.019   2.086
 4580TIP3    H213698   3.600   5.986   2.229
 4581TIP3   OH213699   0.437   1.074   2.621
 4581TIP3    H113700   0.501   1.010   2.591
 4581TIP3    H213701   0.399   1.036   2.700
 4582TIP3   OH213702   2.882   5.475   0.901
 4582TIP3    H113703   2.797   5.509   0.872
 4582TIP3    H213704   2.910   5.538   0.968
 4583TIP3   OH213705   1.776   4.389   3.765
 4583TIP3    H113706   1.838   4.440   3.817
 4583TIP3    H213707   1.826   4.367   3.686
 4584TIP3   OH213708   2.261   4.224   0.112
 4584TIP3    H113709   2.178   4.185   0.085
 4584TIP3    H213710   2.260   4.219   0.207
 4585TIP3   OH213711   1.931   5.406   0.371
 4585TIP3    H113712   1.997   5.444   0.429
 4585TIP3    H213713   1.927   5.466   0.297
 4586TIP3   OH213714   6.865   5.034   3.785
 4586TIP3    H113715   6.864   5.103   3.851
 4586TIP3    H213716   6.847   5.079   3.702
 4587TIP3   OH213717   0.698   7.785   6.357
 4587TIP3    H113718   0.634   7.842   6.313
 4587TIP3    H213719   0.700   7.816   6.447
 4588TIP3   OH213720   6.891   5.161   0.963
 4588TIP3    H113721   6.882   5.069   0.936
 4588TIP3    H213722   6.802   5.189   0.983
 4589TIP3   OH213723   3.910   5.686   2.189
 4589TIP3    H113724   3.999   5.664   2.217
 4589TIP3    H213725   3.865   5.712   2.269
 4590TIP3   OH213726   7.218   6.365   5.901
 4590TIP3    H113727   7.240   6.307   5.828
 4590TIP3    H213728   7.294   6.423   5.909
 4591TIP3   OH213729   4.406   4.659   1.850
 4591TIP3    H113730   4.418   4.719   1.923
 4591TIP3    H213731   4.440   4.706   1.774
 4592TIP3   OH213732   6.022   4.240   5.444
 4592TIP3    H113733   6.113   4.244   5.474
 4592TIP3    H213734   6.008   4.323   5.398
 4593TIP3   OH213735   4.554   2.276   0.854
 4593TIP3    H113736   4.569   2.244   0.943
 4593TIP3    H213737   4.601   2.360   0.850
 4594TIP3   OH213738   5.071   6.440   2.964
 4594TIP3    H113739   5.065   6.425   2.869
 4594TIP3    H213740   4.983   6.468   2.989
 4595TIP3   OH213741   8.102   5.131   5.550
 4595TIP3    H113742   8.076   5.040   5.533
 4595TIP3    H213743   8.108   5.137   5.646
 4596TIP3   OH213744   6.103   4.959   1.505
 4596TIP3    H113745   6.091   5.052   1.523
 4596TIP3    H213746   6.103   4.918   1.591
 4597TIP3   OH213747   2.081   5.369   2.351
 4597TIP3    H113748   2.081   5.332   2.262
 4597TIP3    H213749   1.995   5.408   2.361
 4598TIP3   OH213750   1.837   3.967   2.778
 4598TIP3    H113751   1.751   3.975   2.818
 4598TIP3    H213752   1.828   4.010   2.693
 4599TIP3   OH213753   2.618   7.791   6.387
 4599TIP3    H113754   2.538   7.744   6.407
 4599TIP3    H213755   2.591   7.883   6.379
 4600TIP3   OH213756   4.657   1.634   3.551
 4600TIP3    H113757   4.632   1.592   3.469
 4600TIP3    H213758   4.707   1.568   3.598
 4601TIP3   OH213759   7.507   2.146   3.826
 4601TIP3    H113760   7.577   2.173   3.886
 4601TIP3    H213761   7.479   2.228   3.784
 4602TIP3   OH213762   6.731   7.405   4.088
 4602TIP3    H113763   6.723   7.362   4.003
 4602TIP3    H213764   6.772   7.339   4.144
 4603TIP3   OH213765   4.175   1.977   3.422
 4603TIP3    H113766   4.224   2.048   3.465
 4603TIP3    H213767   4.239   1.907   3.410
 4604TIP3   OH213768   5.295   6.572   2.870
 4604TIP3    H113769   5.248   6.537   2.946
 4604TIP3    H213770   5.228   6.614   2.817
 4605TIP3   OH213771   7.549   5.407   5.579
 4605TIP3    H113772   7.553   5.420   5.484
 4605TIP3    H213773   7.518   5.317   5.589
 4606TIP3   OH213774   6.106   5.280   2.091
 4606TIP3    H113775   6.113   5.373   2.112
 4606TIP3    H213776   6.175   5.238   2.142
 4607TIP3   OH213777   6.090   1.541   1.962
 4607TIP3    H113778   6.111   1.458   1.919
 4607TIP3    H213779   6.023   1.517   2.027
 4608TIP3   OH213780   5.154   3.132   2.640
 4608TIP3    H113781   5.164   3.102   2.730
 4608TIP3    H213782   5.199   3.066   2.587
 4609TIP3   OH213783   7.262   6.346   0.151
 4609TIP3    H113784   7.317   6.318   0.078
 4609TIP3    H213785   7.188   6.285   0.149
 4610TIP3   OH213786   4.295   6.018   4.295
 4610TIP3    H113787   4.311   6.106   4.261
 4610TIP3    H213788   4.361   6.006   4.364
 4611TIP3   OH213789   0.408   5.251   5.649
 4611TIP3    H113790   0.365   5.334   5.632
 4611TIP3    H213791   0.337   5.186   5.648
 4612TIP3   OH213792   6.740   2.961   0.247
 4612TIP3    H113793   6.735   3.051   0.214
 4612TIP3    H213794   6.775   2.969   0.335
 4613TIP3   OH213795   5.892   3.880   0.664
 4613TIP3    H113796   5.871   3.797   0.621
 4613TIP3    H213797   5.884   3.860   0.758
 4614TIP3   OH213798   0.939   1.671   5.065
 4614TIP3    H113799   0.975   1.655   4.978
 4614TIP3    H213800   1.005   1.726   5.108
 4615TIP3   OH213801   6.810   5.587   3.072
 4615TIP3    H113802   6.733   5.536   3.045
 4615TIP3    H213803   6.774   5.672   3.099
 4616TIP3   OH213804   2.617   7.005   0.148
 4616TIP3    H113805   2.705   7.007   0.111
 4616TIP3    H213806   2.629   7.032   0.239
 4617TIP3   OH213807   6.882   2.557   6.061
 4617TIP3    H113808   6.837   2.473   6.051
 4617TIP3    H213809   6.944   2.543   6.133
 4618TIP3   OH213810   1.977   5.309   0.748
 4618TIP3    H113811   1.956   5.375   0.813
 4618TIP3    H213812   2.049   5.346   0.697
 4619TIP3   OH213813   2.250   7.421   3.917
 4619TIP3    H113814   2.290   7.335   3.930
 4619TIP3    H213815   2.324   7.481   3.915
 4620TIP3   OH213816   0.928   5.236   3.439
 4620TIP3    H113817   0.915   5.331   3.435
 4620TIP3    H213818   0.999   5.224   3.502
 4621TIP3   OH213819   1.237   5.660   2.086
 4621TIP3    H113820   1.229   5.755   2.093
 4621TIP3    H213821   1.301   5.636   2.153
 4622TIP3   OH213822   5.169   1.055   5.549
 4622TIP3    H113823   5.177   0.984   5.486
 4622TIP3    H213824   5.129   1.127   5.500
 4623TIP3   OH213825   4.350   1.146   6.369
 4623TIP3    H113826   4.284   1.077   6.369
 4623TIP3    H213827   4.332   1.197   6.447
 4624TIP3   OH213828   7.611   0.211   3.046
 4624TIP3    H113829   7.553   0.198   2.971
 4624TIP3    H213830   7.591   0.139   3.105
 4625TIP3   OH213831   1.685   6.653   2.168
 4625TIP3    H113832   1.758   6.592   2.165
 4625TIP3    H213833   1.663   6.670   2.076
 4626TIP3   OH213834   3.269   1.444   1.290
 4626TIP3    H113835   3.233   1.508   1.228
 4626TIP3    H213836   3.205   1.441   1.361
 4627TIP3   OH213837   5.745   5.975   5.281
 4627TIP3    H113838   5.767   5.895   5.233
 4627TIP3    H213839   5.803   6.042   5.245
 4628TIP3   OH213840   6.369   1.848   3.263
 4628TIP3    H113841   6.302   1.872   3.199
 4628TIP3    H213842   6.447   1.830   3.210
 4629TIP3   OH213843   2.548   0.006   0.770
 4629TIP3    H113844   2.494   0.065   0.822
 4629TIP3    H213845   2.638   0.023   0.800
 4630TIP3   OH213846   7.944   3.879   6.243
 4630TIP3    H113847   7.870   3.883   6.304
 4630TIP3    H213848   8.002   3.950   6.271
 4631TIP3   OH213849   6.785   5.265   2.974
 4631TIP3    H113850   6.722   5.337   2.979
 4631TIP3    H213851   6.778   5.221   3.059
 4632TIP3   OH213852   1.818   5.758   2.857
 4632TIP3    H113853   1.739   5.786   2.903
 4632TIP3    H213854   1.887   5.815   2.890
 4633TIP3   OH213855   0.562   3.735   2.396
 4633TIP3    H113856   0.529   3.758   2.308
 4633TIP3    H213857   0.482   3.721   2.447
 4634TIP3   OH213858   3.486   1.190   3.818
 4634TIP3    H113859   3.475   1.197   3.724
 4634TIP3    H213860   3.534   1.108   3.831
 4635TIP3   OH213861   6.062   0.451   3.506
 4635TIP3    H113862   6.105   0.528   3.543
 4635TIP3    H213863   6.001   0.422   3.574
 4636TIP3   OH213864   7.081   4.909   2.315
 4636TIP3    H113865   7.096   4.833   2.371
 4636TIP3    H213866   7.113   4.881   2.229
 4637TIP3   OH213867   5.697   2.240   4.511
 4637TIP3    H113868   5.782   2.259   4.550
 4637TIP3    H213869   5.640   2.224   4.586
 4638TIP3   OH213870   5.958   5.263   0.153
 4638TIP3    H113871   5.975   5.198   0.084
 4638TIP3    H213872   6.038   5.262   0.206
 4639TIP3   OH213873   2.205   2.004   3.816
 4639TIP3    H113874   2.119   2.043   3.802
 4639TIP3    H213875   2.251   2.016   3.733
 4640TIP3   OH213876   2.330   2.929   3.221
 4640TIP3    H113877   2.358   2.979   3.145
 4640TIP3    H213878   2.254   2.977   3.255
 4641TIP3   OH213879   7.930   6.549   3.121
 4641TIP3    H113880   7.872   6.625   3.124
 4641TIP3    H213881   7.872   6.475   3.103
 4642TIP3   OH213882   4.392   1.612   3.684
 4642TIP3    H113883   4.483   1.641   3.678
 4642TIP3    H213884   4.392   1.524   3.646
 4643TIP3   OH213885   5.343   1.575   0.926
 4643TIP3    H113886   5.356   1.482   0.943
 4643TIP3    H213887   5.392   1.592   0.845
 4644TIP3   OH213888   0.972   3.089   1.204
 4644TIP3    H113889   1.022   3.010   1.181
 4644TIP3    H213890   0.893   3.084   1.149
 4645TIP3   OH213891   5.302   1.068   4.783
 4645TIP3    H113892   5.220   1.044   4.742
 4645TIP3    H213893   5.364   0.999   4.757
 4646TIP3   OH213894   3.661   0.341   3.100
 4646TIP3    H113895   3.617   0.256   3.104
 4646TIP3    H213896   3.615   0.394   3.166
 4647TIP3   OH213897   0.952   2.185   0.942
 4647TIP3    H113898   0.986   2.245   0.875
 4647TIP3    H213899   0.896   2.124   0.893
 4648TIP3   OH213900   0.551   6.792   0.913
 4648TIP3    H113901   0.473   6.785   0.858
 4648TIP3    H213902   0.614   6.733   0.872
 4649TIP3   OH213903   0.603   7.204   0.429
 4649TIP3    H113904   0.611   7.183   0.522
 4649TIP3    H213905   0.524   7.158   0.401
 4650TIP3   OH213906   5.885   5.773   6.412
 4650TIP3    H113907   5.978   5.776   6.386
 4650TIP3    H213908   5.883   5.717   6.489
 4651TIP3   OH213909   6.924   6.739   2.479
 4651TIP3    H113910   6.894   6.665   2.533
 4651TIP3    H213911   6.933   6.701   2.391
 4652TIP3   OH213912   1.841   5.236   1.473
 4652TIP3    H113913   1.881   5.152   1.494
 4652TIP3    H213914   1.915   5.295   1.457
 4653TIP3   OH213915   3.260   1.860   3.351
 4653TIP3    H113916   3.261   1.956   3.360
 4653TIP3    H213917   3.186   1.832   3.405
 4654TIP3   OH213918   7.246   1.857   3.492
 4654TIP3    H113919   7.248   1.781   3.434
 4654TIP3    H213920   7.323   1.849   3.547
 4655TIP3   OH213921   2.661   0.593   5.535
 4655TIP3    H113922   2.716   0.671   5.533
 4655TIP3    H213923   2.709   0.531   5.591
 4656TIP3   OH213924   5.416   4.620   0.148
 4656TIP3    H113925   5.471   4.634   0.225
 4656TIP3    H213926   5.355   4.552   0.174
 4657TIP3   OH213927   3.278   3.858   0.912
 4657TIP3    H113928   3.195   3.907   0.913
 4657TIP3    H213929   3.277   3.808   0.994
 4658TIP3   OH213930   6.902   1.141   4.532
 4658TIP3    H113931   6.902   1.045   4.529
 4658TIP3    H213932   6.861   1.168   4.449
 4659TIP3   OH213933   7.012   6.169   0.188
 4659TIP3    H113934   7.000   6.119   0.108
 4659TIP3    H213935   6.938   6.145   0.243
 4660TIP3   OH213936   0.582   2.082   5.801
 4660TIP3    H113937   0.579   2.046   5.712
 4660TIP3    H213938   0.515   2.034   5.849
 4661TIP3   OH213939   2.155   7.190   4.522
 4661TIP3    H113940   2.209   7.118   4.488
 4661TIP3    H213941   2.187   7.267   4.476
 4662TIP3   OH213942   8.280   7.199   0.566
 4662TIP3    H113943   8.239   7.169   0.647
 4662TIP3    H213944   8.228   7.275   0.540
 4663TIP3   OH213945   4.732   4.875   0.032
 4663TIP3    H113946   4.817   4.881   0.074
 4663TIP3    H213947   4.709   4.965   0.010
 4664TIP3   OH213948   5.281   6.218   2.858
 4664TIP3    H113949   5.255   6.130   2.885
 4664TIP3    H213950   5.209   6.248   2.803
 4665TIP3   OH213951   8.291   1.620   6.544
 4665TIP3    H113952   8.268   1.528   6.560
 4665TIP3    H213953   8.282   1.631   6.449
 4666TIP3   OH213954   5.270   3.015   2.890
 4666TIP3    H113955   5.353   3.060   2.904
 4666TIP3    H213956   5.245   2.983   2.976
 4667TIP3   OH213957   1.103   4.028   2.119
 4667TIP3    H113958   1.125   4.070   2.202
 4667TIP3    H213959   1.126   3.936   2.132
 4668TIP3   OH213960   0.194   6.020   1.190
 4668TIP3    H113961   0.250   5.963   1.243
 4668TIP3    H213962   0.182   5.972   1.108
 4669TIP3   OH213963   4.376   5.589   3.581
 4669TIP3    H113964   4.395   5.513   3.525
 4669TIP3    H213965   4.324   5.554   3.653
 4670TIP3   OH213966   4.414   2.681   5.012
 4670TIP3    H113967   4.427   2.762   4.963
 4670TIP3    H213968   4.388   2.710   5.099
 4671TIP3   OH213969   4.187   3.636   6.292
 4671TIP3    H113970   4.280   3.615   6.300
 4671TIP3    H213971   4.183   3.731   6.294
 4672TIP3   OH213972   6.994   0.840   0.735
 4672TIP3    H113973   6.973   0.845   0.828
 4672TIP3    H213974   7.080   0.881   0.727
 4673TIP3   OH213975   6.448   7.824   6.370
 4673TIP3    H113976   6.439   7.742   6.419
 4673TIP3    H213977   6.364   7.869   6.382
 4674TIP3   OH213978   2.781   3.079   2.309
 4674TIP3    H113979   2.690   3.103   2.294
 4674TIP3    H213980   2.799   3.107   2.398
 4675TIP3   OH213981   7.425   2.458   6.553
 4675TIP3    H113982   7.414   2.546   6.590
 4675TIP3    H213983   7.479   2.471   6.475
 4676TIP3   OH213984   7.362   6.811   5.600
 4676TIP3    H113985   7.381   6.869   5.674
 4676TIP3    H213986   7.442   6.810   5.548
 4677TIP3   OH213987   5.130   6.379   4.526
 4677TIP3    H113988   5.216   6.372   4.565
 4677TIP3    H213989   5.069   6.380   4.600
 4678TIP3   OH213990   6.522   6.660   0.065
 4678TIP3    H113991   6.576   6.582   0.049
 4678TIP3    H213992   6.546   6.688   0.153
 4679TIP3   OH213993   7.221   2.382   1.783
 4679TIP3    H113994   7.258   2.426   1.707
 4679TIP3    H213995   7.141   2.430   1.804
 4680TIP3   OH213996   7.058   0.585   1.166
 4680TIP3    H113997   7.102   0.629   1.239
 4680TIP3    H213998   6.995   0.526   1.208
 4681TIP3   OH213999   2.123   5.923   6.236
 4681TIP3    H114000   2.130   5.976   6.156
 4681TIP3    H214001   2.029   5.919   6.254
 4682TIP3   OH214002   4.180   3.913   6.262
 4682TIP3    H114003   4.212   3.935   6.174
 4682TIP3    H214004   4.136   3.992   6.293
 4683TIP3   OH214005   3.064   1.251   4.243
 4683TIP3    H114006   3.065   1.239   4.148
 4683TIP3    H214007   2.992   1.194   4.273
 4684TIP3   OH214008   7.897   4.315   1.265
 4684TIP3    H114009   7.893   4.356   1.351
 4684TIP3    H214010   7.845   4.235   1.273
 4685TIP3   OH214011   2.195   7.205   6.081
 4685TIP3    H114012   2.176   7.293   6.048
 4685TIP3    H214013   2.111   7.161   6.082
 4686TIP3   OH214014   8.281   4.760   4.681
 4686TIP3    H114015   8.267   4.740   4.588
 4686TIP3    H214016   8.202   4.729   4.724
 4687TIP3   OH214017   6.958   6.357   2.197
 4687TIP3    H114018   6.918   6.391   2.117
 4687TIP3    H214019   6.994   6.272   2.173
 4688TIP3   OH214020   3.359   2.763   3.538
 4688TIP3    H114021   3.353   2.708   3.460
 4688TIP3    H214022   3.270   2.798   3.548
 4689TIP3   OH214023   0.825   6.512   4.401
 4689TIP3    H114024   0.866   6.471   4.325
 4689TIP3    H214025   0.731   6.505   4.385
 4690TIP3   OH214026   5.708   3.150   3.478
 4690TIP3    H114027   5.732   3.236   3.444
 4690TIP3    H214028   5.695   3.164   3.572
 4691TIP3   OH214029   1.036   6.352   1.070
 4691TIP3    H114030   0.945   6.329   1.088
 4691TIP3    H214031   1.046   6.338   0.975
 4692TIP3   OH214032   8.286   1.356   6.260
 4692TIP3    H114033   8.193   1.334   6.266
 4692TIP3    H214034   8.289   1.452   6.255
 4693TIP3   OH214035   3.550   0.315   6.139
 4693TIP3    H114036   3.493   0.244   6.168
 4693TIP3    H214037   3.621   0.271   6.092
 4694TIP3   OH214038   4.021   1.566   2.492
 4694TIP3    H114039   4.079   1.545   2.565
 4694TIP3    H214040   3.952   1.621   2.531
 4695TIP3   OH214041   3.774   1.161   5.474
 4695TIP3    H114042   3.695   1.145   5.422
 4695TIP3    H214043   3.841   1.182   5.409
 4696TIP3   OH214044   5.433   6.575   3.263
 4696TIP3    H114045   5.428   6.664   3.299
 4696TIP3    H214046   5.343   6.553   3.239
 4697TIP3   OH214047   6.925   6.285   6.276
 4697TIP3    H114048   6.933   6.301   6.182
 4697TIP3    H214049   6.843   6.236   6.284
 4698TIP3   OH214050   3.588   6.423   1.426
 4698TIP3    H114051   3.557   6.484   1.494
 4698TIP3    H214052   3.552   6.338   1.453
 4699TIP3   OH214053   1.335   6.444   6.735
 4699TIP3    H114054   1.302   6.533   6.740
 4699TIP3    H214055   1.257   6.389   6.736
 4700TIP3   OH214056   3.210   3.651   4.924
 4700TIP3    H114057   3.248   3.650   5.012
 4700TIP3    H214058   3.271   3.702   4.872
 4701TIP3   OH214059   1.100   2.651   6.440
 4701TIP3    H114060   1.140   2.595   6.506
 4701TIP3    H214061   1.173   2.679   6.384
 4702TIP3   OH214062   7.247   0.158   2.019
 4702TIP3    H114063   7.263   0.244   1.982
 4702TIP3    H214064   7.159   0.135   1.988
 4703TIP3   OH214065   4.183   3.501   5.751
 4703TIP3    H114066   4.227   3.416   5.749
 4703TIP3    H214067   4.207   3.539   5.835
 4704TIP3   OH214068   0.609   7.741   3.784
 4704TIP3    H114069   0.532   7.697   3.747
 4704TIP3    H214070   0.646   7.790   3.711
 4705TIP3   OH214071   1.896   2.745   2.824
 4705TIP3    H114072   1.837   2.778   2.891
 4705TIP3    H214073   1.889   2.808   2.752
 4706TIP3   OH214074   6.079   1.550   4.226
 4706TIP3    H114075   6.089   1.600   4.145
 4706TIP3    H214076   6.069   1.617   4.294
 4707TIP3   OH214077   3.520   4.664   1.141
 4707TIP3    H114078   3.508   4.626   1.054
 4707TIP3    H214079   3.516   4.759   1.127
 4708TIP3   OH214080   1.210   7.372   0.922
 4708TIP3    H114081   1.211   7.302   0.857
 4708TIP3    H214082   1.163   7.335   0.997
 4709TIP3   OH214083   7.159   7.208   2.328
 4709TIP3    H114084   7.107   7.219   2.249
 4709TIP3    H214085   7.249   7.199   2.296
 4710TIP3   OH214086   3.774   2.688   1.619
 4710TIP3    H114087   3.777   2.598   1.652
 4710TIP3    H214088   3.843   2.734   1.667
 4711TIP3   OH214089   0.682   0.425   3.616
 4711TIP3    H114090   0.702   0.356   3.679
 4711TIP3    H214091   0.630   0.382   3.549
 4712TIP3   OH214092   0.905   6.254   5.636
 4712TIP3    H114093   0.879   6.179   5.689
 4712TIP3    H214094   0.891   6.226   5.546
 4713TIP3   OH214095   0.685   7.109   4.505
 4713TIP3    H114096   0.592   7.125   4.518
 4713TIP3    H214097   0.711   7.170   4.435
 4714TIP3   OH214098   1.426   3.729   3.640
 4714TIP3    H114099   1.459   3.818   3.626
 4714TIP3    H214100   1.420   3.720   3.735
 4715TIP3   OH214101   3.536   3.672   2.934
 4715TIP3    H114102   3.538   3.649   3.027
 4715TIP3    H214103   3.623   3.648   2.901
 4716TIP3   OH214104   6.363   2.045   4.554
 4716TIP3    H114105   6.429   1.977   4.553
 4716TIP3    H214106   6.384   2.099   4.630
 4717TIP3   OH214107   8.191   2.825   0.225
 4717TIP3    H114108   8.138   2.903   0.210
 4717TIP3    H214109   8.135   2.769   0.278
 4718TIP3   OH214110   5.788   6.755   1.541
 4718TIP3    H114111   5.745   6.765   1.625
 4718TIP3    H214112   5.838   6.836   1.529
 4719TIP3   OH214113   0.071   0.267   0.472
 4719TIP3    H114114   0.048   0.187   0.425
 4719TIP3    H214115   0.048   0.338   0.411
 4720TIP3   OH214116   1.246   6.322   2.454
 4720TIP3    H114117   1.158   6.359   2.444
 4720TIP3    H214118   1.233   6.228   2.450
 4721TIP3   OH214119   8.169   1.155   2.958
 4721TIP3    H114120   8.164   1.173   2.864
 4721TIP3    H214121   8.158   1.060   2.965
 4722TIP3   OH214122   7.979   3.739   3.782
 4722TIP3    H114123   8.001   3.808   3.845
 4722TIP3    H214124   8.037   3.756   3.707
 4723TIP3   OH214125   6.673   4.855   3.856
 4723TIP3    H114126   6.658   4.778   3.802
 4723TIP3    H214127   6.747   4.900   3.815
 4724TIP3   OH214128   5.609   1.345   2.477
 4724TIP3    H114129   5.563   1.300   2.548
 4724TIP3    H214130   5.645   1.275   2.423
 4725TIP3   OH214131   7.953   0.779   1.048
 4725TIP3    H114132   7.882   0.767   1.110
 4725TIP3    H214133   7.984   0.868   1.063
 4726TIP3   OH214134   2.833   4.576   3.285
 4726TIP3    H114135   2.758   4.540   3.331
 4726TIP3    H214136   2.797   4.648   3.233
 4727TIP3   OH214137   6.230   7.360   5.649
 4727TIP3    H114138   6.166   7.381   5.581
 4727TIP3    H214139   6.217   7.266   5.666
 4728TIP3   OH214140   2.388   5.530   4.834
 4728TIP3    H114141   2.377   5.591   4.760
 4728TIP3    H214142   2.401   5.587   4.910
 4729TIP3   OH214143   7.233   3.171   3.223
 4729TIP3    H114144   7.144   3.164   3.189
 4729TIP3    H214145   7.278   3.093   3.189
 4730TIP3   OH214146   8.166   0.907   3.109
 4730TIP3    H114147   8.181   0.961   3.187
 4730TIP3    H214148   8.074   0.883   3.114
 4731TIP3   OH214149   3.985   7.678   5.155
 4731TIP3    H114150   3.911   7.618   5.166
 4731TIP3    H214151   3.951   7.747   5.098
 4732TIP3   OH214152   1.070   0.553   4.362
 4732TIP3    H114153   1.132   0.614   4.401
 4732TIP3    H214154   1.030   0.507   4.437
 4733TIP3   OH214155   7.977   5.304   0.147
 4733TIP3    H114156   7.983   5.387   0.196
 4733TIP3    H214157   7.932   5.327   0.066
 4734TIP3   OH214158   8.008   4.480   4.210
 4734TIP3    H114159   8.072   4.539   4.169
 4734TIP3    H214160   7.955   4.448   4.136
 4735TIP3   OH214161   4.589   5.323   3.372
 4735TIP3    H114162   4.605   5.330   3.466
 4735TIP3    H214163   4.595   5.229   3.354
 4736TIP3   OH214164   0.631   2.844   5.653
 4736TIP3    H114165   0.674   2.765   5.621
 4736TIP3    H214166   0.545   2.843   5.610
 4737TIP3   OH214167   2.452   3.925   3.202
 4737TIP3    H114168   2.491   3.892   3.121
 4737TIP3    H214169   2.360   3.939   3.181
 4738TIP3   OH214170   0.832   5.026   1.807
 4738TIP3    H114171   0.900   4.975   1.850
 4738TIP3    H214172   0.770   5.047   1.877
 4739TIP3   OH214173   3.977   2.421   3.169
 4739TIP3    H114174   3.947   2.401   3.080
 4739TIP3    H214175   3.960   2.514   3.179
 4740TIP3   OH214176   6.081   5.626   3.952
 4740TIP3    H114177   6.176   5.639   3.947
 4740TIP3    H214178   6.069   5.533   3.933
 4741TIP3   OH214179   5.430   6.137   1.617
 4741TIP3    H114180   5.354   6.177   1.575
 4741TIP3    H214181   5.433   6.048   1.582
 4742TIP3   OH214182   2.206   1.621   2.323
 4742TIP3    H114183   2.133   1.673   2.357
 4742TIP3    H214184   2.281   1.648   2.374
 4743TIP3   OH214185   6.618   1.410   0.817
 4743TIP3    H114186   6.691   1.472   0.818
 4743TIP3    H214187   6.547   1.457   0.862
 4744TIP3   OH214188   4.813   3.476   2.458
 4744TIP3    H114189   4.814   3.451   2.365
 4744TIP3    H214190   4.731   3.525   2.469
 4745TIP3   OH214191   7.927   6.454   5.415
 4745TIP3    H114192   8.000   6.506   5.382
 4745TIP3    H214193   7.867   6.517   5.454
 4746TIP3   OH214194   5.638   3.897   3.980
 4746TIP3    H114195   5.638   3.805   4.009
 4746TIP3    H214196   5.596   3.895   3.894
 4747TIP3   OH214197   5.323   0.511   6.392
 4747TIP3    H114198   5.337   0.586   6.334
 4747TIP3    H214199   5.318   0.548   6.479
 4748TIP3   OH214200   3.611   0.991   5.607
 4748TIP3    H114201   3.590   1.014   5.697
 4748TIP3    H214202   3.694   1.035   5.590
 4749TIP3   OH214203   7.857   6.774   5.459
 4749TIP3    H114204   7.902   6.853   5.429
 4749TIP3    H214205   7.765   6.790   5.441
 4750TIP3   OH214206   3.582   2.504   6.146
 4750TIP3    H114207   3.546   2.431   6.095
 4750TIP3    H214208   3.588   2.470   6.235
 4751TIP3   OH214209   6.848   3.748   3.840
 4751TIP3    H114210   6.875   3.802   3.766
 4751TIP3    H214211   6.755   3.767   3.851
 4752TIP3   OH214212   6.860   7.504   2.163
 4752TIP3    H114213   6.801   7.568   2.202
 4752TIP3    H214214   6.882   7.444   2.234
 4753TIP3   OH214215   6.984   1.080   1.674
 4753TIP3    H114216   6.952   1.107   1.588
 4753TIP3    H214217   7.069   1.123   1.683
 4754TIP3   OH214218   5.865   3.031   2.734
 4754TIP3    H114219   5.923   3.088   2.785
 4754TIP3    H214220   5.902   2.944   2.743
 4755TIP3   OH214221   2.761   1.450   1.872
 4755TIP3    H114222   2.784   1.536   1.906
 4755TIP3    H214223   2.680   1.427   1.918
 4756TIP3   OH214224   5.202   4.960   1.321
 4756TIP3    H114225   5.170   5.042   1.360
 4756TIP3    H214226   5.264   4.988   1.254
 4757TIP3   OH214227   7.260   2.365   6.328
 4757TIP3    H114228   7.233   2.415   6.405
 4757TIP3    H214229   7.355   2.376   6.324
 4758TIP3   OH214230   8.010   1.005   0.257
 4758TIP3    H114231   7.954   1.035   0.186
 4758TIP3    H214232   8.085   0.964   0.213
 4759TIP3   OH214233   8.078   2.789   5.403
 4759TIP3    H114234   8.170   2.812   5.393
 4759TIP3    H214235   8.075   2.732   5.479
 4760TIP3   OH214236   6.415   5.174   2.166
 4760TIP3    H114237   6.409   5.218   2.081
 4760TIP3    H214238   6.477   5.103   2.152
 4761TIP3   OH214239   2.630   0.202   0.122
 4761TIP3    H114240   2.556   0.176   0.176
 4761TIP3    H214241   2.691   0.127   0.127
 4762TIP3   OH214242   4.969   7.630   5.510
 4762TIP3    H114243   4.964   7.623   5.415
 4762TIP3    H214244   4.904   7.696   5.533
 4763TIP3   OH214245   6.380   1.144   0.388
 4763TIP3    H114246   6.465   1.167   0.424
 4763TIP3    H214247   6.345   1.226   0.354
 4764TIP3   OH214248   1.955   5.102   4.528
 4764TIP3    H114249   1.975   5.026   4.473
 4764TIP3    H214250   1.984   5.177   4.476
 4765TIP3   OH214251   1.204   3.506   3.344
 4765TIP3    H114252   1.261   3.558   3.287
 4765TIP3    H214253   1.199   3.556   3.425
 4766TIP3   OH214254   8.113   2.877   4.199
 4766TIP3    H114255   8.172   2.814   4.158
 4766TIP3    H214256   8.027   2.860   4.161
 4767TIP3   OH214257   1.146   6.798   4.962
 4767TIP3    H114258   1.150   6.893   4.951
 4767TIP3    H214259   1.063   6.774   4.919
 4768TIP3   OH214260   4.811   4.146   5.603
 4768TIP3    H114261   4.828   4.108   5.689
 4768TIP3    H214262   4.865   4.093   5.543
 4769TIP3   OH214263   0.259   3.194   3.003
 4769TIP3    H114264   0.285   3.116   3.053
 4769TIP3    H214265   0.164   3.196   3.011
 4770TIP3   OH214266   2.148   0.681   1.556
 4770TIP3    H114267   2.132   0.759   1.502
 4770TIP3    H214268   2.112   0.609   1.505
 4771TIP3   OH214269   2.429   5.137   2.656
 4771TIP3    H114270   2.373   5.174   2.588
 4771TIP3    H214271   2.477   5.212   2.691
 4772TIP3   OH214272   0.778   7.499   3.732
 4772TIP3    H114273   0.755   7.580   3.685
 4772TIP3    H214274   0.796   7.527   3.821
 4773TIP3   OH214275   2.208   4.605   0.853
 4773TIP3    H114276   2.156   4.642   0.924
 4773TIP3    H214277   2.234   4.681   0.801
 4774TIP3   OH214278   2.238   4.264   2.822
 4774TIP3    H114279   2.159   4.297   2.779
 4774TIP3    H214280   2.215   4.262   2.915
 4775TIP3   OH214281   3.202   6.180   6.255
 4775TIP3    H114282   3.153   6.101   6.235
 4775TIP3    H214283   3.174   6.243   6.189
 4776TIP3   OH214284   3.486   4.040   5.208
 4776TIP3    H114285   3.534   4.047   5.126
 4776TIP3    H214286   3.534   3.974   5.259
 4777TIP3   OH214287   6.443   0.354   3.374
 4777TIP3    H114288   6.421   0.340   3.466
 4777TIP3    H214289   6.538   0.362   3.373
 4778TIP3   OH214290   8.210   7.717   2.136
 4778TIP3    H114291   8.200   7.642   2.077
 4778TIP3    H214292   8.143   7.704   2.203
 4779TIP3   OH214293   2.932   1.249   6.506
 4779TIP3    H114294   2.929   1.310   6.580
 4779TIP3    H214295   2.981   1.174   6.539
 4780TIP3   OH214296   2.090   3.316   5.757
 4780TIP3    H114297   2.119   3.368   5.831
 4780TIP3    H214298   2.001   3.348   5.738
 4781TIP3   OH214299   0.782   2.266   5.705
 4781TIP3    H114300   0.695   2.228   5.694
 4781TIP3    H214301   0.769   2.360   5.695
 4782TIP3   OH214302   3.703   3.421   6.144
 4782TIP3    H114303   3.684   3.328   6.157
 4782TIP3    H214304   3.788   3.435   6.186
 4783TIP3   OH214305   6.249   7.435   4.501
 4783TIP3    H114306   6.191   7.504   4.533
 4783TIP3    H214307   6.204   7.354   4.522
 4784TIP3   OH214308   3.437   6.994   6.643
 4784TIP3    H114309   3.516   6.958   6.602
 4784TIP3    H214310   3.425   7.079   6.602
 4785TIP3   OH214311   2.557   0.482   1.157
 4785TIP3    H114312   2.519   0.510   1.240
 4785TIP3    H214313   2.558   0.386   1.163
 4786TIP3   OH214314   5.960   2.792   2.903
 4786TIP3    H114315   5.976   2.751   2.987
 4786TIP3    H214316   5.944   2.884   2.923
 4787TIP3   OH214317   4.963   0.846   3.977
 4787TIP3    H114318   5.011   0.878   3.900
 4787TIP3    H214319   4.960   0.920   4.037
 4788TIP3   OH214320   6.809   5.688   2.244
 4788TIP3    H114321   6.903   5.695   2.226
 4788TIP3    H214322   6.796   5.738   2.325
 4789TIP3   OH214323   4.344   5.296   6.045
 4789TIP3    H114324   4.437   5.309   6.062
 4789TIP3    H214325   4.324   5.209   6.082
 4790TIP3   OH214326   3.330   4.216   1.321
 4790TIP3    H114327   3.404   4.184   1.372
 4790TIP3    H214328   3.343   4.311   1.317
 4791TIP3   OH214329   5.161   7.041   1.252
 4791TIP3    H114330   5.116   7.088   1.181
 4791TIP3    H214331   5.129   6.951   1.246
 4792TIP3   OH214332   1.123   7.667   0.087
 4792TIP3    H114333   1.064   7.650   0.160
 4792TIP3    H214334   1.104   7.596   0.025
 4793TIP3   OH214335   6.579   3.411   1.863
 4793TIP3    H114336   6.672   3.421   1.886
 4793TIP3    H214337   6.571   3.320   1.835
 4794TIP3   OH214338   6.724   3.378   0.953
 4794TIP3    H114339   6.719   3.416   1.040
 4794TIP3    H214340   6.697   3.449   0.894
 4795TIP3   OH214341   1.917   5.576   0.851
 4795TIP3    H114342   1.884   5.627   0.778
 4795TIP3    H214343   2.009   5.601   0.858
 4796TIP3   OH214344   2.184   4.290   3.105
 4796TIP3    H114345   2.146   4.362   3.053
 4796TIP3    H214346   2.274   4.316   3.121
 4797TIP3   OH214347   5.012   4.191   2.206
 4797TIP3    H114348   4.962   4.273   2.198
 4797TIP3    H214349   5.038   4.188   2.298
 4798TIP3   OH214350   2.099   7.476   1.168
 4798TIP3    H114351   2.192   7.496   1.157
 4798TIP3    H214352   2.063   7.552   1.214
 4799TIP3   OH214353   7.365   6.963   0.815
 4799TIP3    H114354   7.421   6.979   0.891
 4799TIP3    H214355   7.392   6.877   0.782
 4800TIP3   OH214356   0.813   0.247   0.943
 4800TIP3    H114357   0.817   0.192   1.021
 4800TIP3    H214358   0.863   0.325   0.965
 4801TIP3   OH214359   3.172   6.098   0.278
 4801TIP3    H114360   3.135   6.147   0.352
 4801TIP3    H214361   3.151   6.150   0.201
 4802TIP3   OH214362   4.632   4.542   1.514
 4802TIP3    H114363   4.699   4.610   1.526
 4802TIP3    H214364   4.555   4.576   1.559
 4803TIP3   OH214365   0.570   0.153   3.774
 4803TIP3    H114366   0.500   0.092   3.750
 4803TIP3    H214367   0.641   0.133   3.713
 4804TIP3   OH214368   5.100   4.354   0.414
 4804TIP3    H114369   5.026   4.369   0.355
 4804TIP3    H214370   5.120   4.440   0.451
 4805TIP3   OH214371   6.761   4.449   4.944
 4805TIP3    H114372   6.760   4.386   5.015
 4805TIP3    H214373   6.773   4.534   4.987
 4806TIP3   OH214374   0.431   3.408   4.261
 4806TIP3    H114375   0.342   3.420   4.228
 4806TIP3    H214376   0.487   3.447   4.195
 4807TIP3   OH214377   2.039   2.318   6.451
 4807TIP3    H114378   2.009   2.326   6.361
 4807TIP3    H214379   2.060   2.408   6.478
 4808TIP3   OH214380   3.921   5.140   5.797
 4808TIP3    H114381   3.926   5.044   5.806
 4808TIP3    H214382   4.007   5.171   5.825
 4809TIP3   OH214383   4.879   4.341   5.238
 4809TIP3    H114384   4.790   4.310   5.257
 4809TIP3    H214385   4.865   4.423   5.190
 4810TIP3   OH214386   0.941   2.627   4.090
 4810TIP3    H114387   0.863   2.607   4.141
 4810TIP3    H214388   0.907   2.658   4.006
 4811TIP3   OH214389   3.251   2.787   4.064
 4811TIP3    H114390   3.347   2.778   4.064
 4811TIP3    H214391   3.225   2.754   4.151
 4812TIP3   OH214392   3.233   3.802   1.446
 4812TIP3    H114393   3.195   3.887   1.468
 4812TIP3    H214394   3.327   3.814   1.462
 4813TIP3   OH214395   1.118   1.147   3.790
 4813TIP3    H114396   1.107   1.139   3.885
 4813TIP3    H214397   1.195   1.093   3.770
 4814TIP3   OH214398   4.261   7.171   0.101
 4814TIP3    H114399   4.257   7.256   0.057
 4814TIP3    H214400   4.342   7.174   0.152
 4815TIP3   OH214401   7.582   1.529   1.597
 4815TIP3    H114402   7.550   1.616   1.574
 4815TIP3    H214403   7.672   1.527   1.564
 4816TIP3   OH214404   5.260   0.170   3.254
 4816TIP3    H114405   5.203   0.228   3.305
 4816TIP3    H214406   5.215   0.161   3.170
 4817TIP3   OH214407   1.280   3.463   0.493
 4817TIP3    H114408   1.276   3.379   0.448
 4817TIP3    H214409   1.355   3.508   0.453
 4818TIP3   OH214410   0.369   0.474   0.980
 4818TIP3    H114411   0.352   0.547   1.039
 4818TIP3    H214412   0.345   0.396   1.030
 4819TIP3   OH214413   3.660   6.202   4.553
 4819TIP3    H114414   3.656   6.192   4.458
 4819TIP3    H214415   3.711   6.281   4.567
 4820TIP3   OH214416   5.511   6.006   3.040
 4820TIP3    H114417   5.515   6.101   3.029
 4820TIP3    H214418   5.432   5.991   3.092
 4821TIP3   OH214419   0.109   6.910   4.303
 4821TIP3    H114420   0.120   6.837   4.364
 4821TIP3    H214421   0.190   6.912   4.252
 4822TIP3   OH214422   8.001   4.709   3.141
 4822TIP3    H114423   7.915   4.667   3.142
 4822TIP3    H214424   8.008   4.752   3.226
 4823TIP3   OH214425   7.671   3.781   6.057
 4823TIP3    H114426   7.695   3.864   6.097
 4823TIP3    H214427   7.698   3.789   5.965
 4824TIP3   OH214428   7.367   1.020   3.093
 4824TIP3    H114429   7.298   1.009   3.158
 4824TIP3    H214430   7.385   0.931   3.062
 4825TIP3   OH214431   3.903   4.763   1.977
 4825TIP3    H114432   3.976   4.717   2.018
 4825TIP3    H214433   3.893   4.721   1.891
 4826TIP3   OH214434   1.790   0.670   3.571
 4826TIP3    H114435   1.799   0.657   3.666
 4826TIP3    H214436   1.781   0.765   3.561
 4827TIP3   OH214437   7.121   1.817   6.022
 4827TIP3    H114438   7.164   1.807   6.108
 4827TIP3    H214439   7.193   1.810   5.959
 4828TIP3   OH214440   8.140   7.217   1.298
 4828TIP3    H114441   8.076   7.146   1.296
 4828TIP3    H214442   8.225   7.172   1.306
 4829TIP3   OH214443   1.930   5.813   4.964
 4829TIP3    H114444   2.014   5.858   4.953
 4829TIP3    H214445   1.865   5.883   4.960
 4830TIP3   OH214446   0.990   0.246   4.374
 4830TIP3    H114447   1.015   0.223   4.463
 4830TIP3    H214448   0.914   0.303   4.384
 4831TIP3   OH214449   6.099   1.482   4.973
 4831TIP3    H114450   6.063   1.550   4.916
 4831TIP3    H214451   6.057   1.401   4.943
 4832TIP3   OH214452   5.367   2.914   6.167
 4832TIP3    H114453   5.330   2.934   6.081
 4832TIP3    H214454   5.324   2.975   6.227
 4833TIP3   OH214455   8.195   7.452   1.184
 4833TIP3    H114456   8.195   7.368   1.230
 4833TIP3    H214457   8.157   7.433   1.098
 4834TIP3   OH214458   2.534   6.146   2.354
 4834TIP3    H114459   2.580   6.228   2.374
 4834TIP3    H214460   2.466   6.171   2.291
 4835TIP3   OH214461   1.629   6.819   2.388
 4835TIP3    H114462   1.659   6.758   2.321
 4835TIP3    H214463   1.590   6.891   2.338
 4836TIP3   OH214464   5.682   6.193   3.313
 4836TIP3    H114465   5.739   6.133   3.362
 4836TIP3    H214466   5.607   6.207   3.370
 4837TIP3   OH214467   3.651   0.476   2.845
 4837TIP3    H114468   3.646   0.404   2.908
 4837TIP3    H214469   3.736   0.465   2.803
 4838TIP3   OH214470   0.830   5.044   2.453
 4838TIP3    H114471   0.924   5.031   2.457
 4838TIP3    H214472   0.793   4.961   2.482
 4839TIP3   OH214473   0.494   1.148   6.236
 4839TIP3    H114474   0.507   1.234   6.278
 4839TIP3    H214475   0.418   1.112   6.280
 4840TIP3   OH214476   5.526   2.436   3.014
 4840TIP3    H114477   5.621   2.436   3.027
 4840TIP3    H214478   5.501   2.529   3.020
 4841TIP3   OH214479   4.223   4.954   2.120
 4841TIP3    H114480   4.214   4.885   2.186
 4841TIP3    H214481   4.311   4.943   2.086
 4842TIP3   OH214482   2.566   4.025   6.684
 4842TIP3    H114483   2.554   3.982   6.769
 4842TIP3    H214484   2.625   4.098   6.702
 4843TIP3   OH214485   1.554   0.841   0.089
 4843TIP3    H114486   1.502   0.883   0.158
 4843TIP3    H214487   1.556   0.749   0.114
 4844TIP3   OH214488   5.900   3.139   0.199
 4844TIP3    H114489   5.927   3.048   0.188
 4844TIP3    H214490   5.851   3.160   0.119
 4845TIP3   OH214491   5.965   6.751   3.926
 4845TIP3    H114492   6.031   6.765   3.995
 4845TIP3    H214493   5.887   6.722   3.973
 4846TIP3   OH214494   2.111   0.597   4.099
 4846TIP3    H114495   2.021   0.578   4.071
 4846TIP3    H214496   2.102   0.638   4.184
 4847TIP3   OH214497   5.811   6.973   4.044
 4847TIP3    H114498   5.856   7.017   4.115
 4847TIP3    H214499   5.879   6.921   4.001
 4848TIP3   OH214500   4.406   4.592   0.271
 4848TIP3    H114501   4.322   4.638   0.271
 4848TIP3    H214502   4.446   4.616   0.188
 4849TIP3   OH214503   1.130   5.936   2.192
 4849TIP3    H114504   1.051   5.900   2.151
 4849TIP3    H214505   1.135   6.025   2.158
 4850TIP3   OH214506   5.774   2.152   4.873
 4850TIP3    H114507   5.846   2.215   4.879
 4850TIP3    H214508   5.812   2.077   4.828
 4851TIP3   OH214509   6.644   2.008   1.003
 4851TIP3    H114510   6.553   1.983   0.986
 4851TIP3    H214511   6.660   2.081   0.944
 4852TIP3   OH214512   7.013   0.550   4.202
 4852TIP3    H114513   6.925   0.538   4.166
 4852TIP3    H214514   7.041   0.635   4.168
 4853TIP3   OH214515   7.211   2.850   2.401
 4853TIP3    H114516   7.224   2.866   2.307
 4853TIP3    H214517   7.224   2.935   2.442
 4854TIP3   OH214518   7.168   5.809   2.080
 4854TIP3    H114519   7.231   5.743   2.110
 4854TIP3    H214520   7.126   5.840   2.161
 4855TIP3   OH214521   7.714   0.255   4.060
 4855TIP3    H114522   7.703   0.290   4.149
 4855TIP3    H214523   7.624   0.242   4.029
 4856TIP3   OH214524   3.044   2.567   3.874
 4856TIP3    H114525   3.137   2.572   3.894
 4856TIP3    H214526   3.001   2.570   3.959
 4857TIP3   OH214527   8.064   4.199   0.313
 4857TIP3    H114528   7.996   4.223   0.249
 4857TIP3    H214529   8.110   4.281   0.330
 4858TIP3   OH214530   1.800   6.301   2.867
 4858TIP3    H114531   1.826   6.377   2.918
 4858TIP3    H214532   1.710   6.284   2.893
 4859TIP3   OH214533   1.850   4.183   1.864
 4859TIP3    H114534   1.917   4.134   1.911
 4859TIP3    H214535   1.772   4.127   1.867
 4860TIP3   OH214536   6.407   6.275   2.984
 4860TIP3    H114537   6.312   6.272   2.980
 4860TIP3    H214538   6.428   6.368   2.974
 4861TIP3   OH214539   7.332   1.815   5.179
 4861TIP3    H114540   7.307   1.752   5.111
 4861TIP3    H214541   7.274   1.890   5.165
 4862TIP3   OH214542   0.427   4.276   1.817
 4862TIP3    H114543   0.460   4.272   1.727
 4862TIP3    H214544   0.420   4.185   1.844
 4863TIP3   OH214545   5.759   7.396   3.516
 4863TIP3    H114546   5.719   7.386   3.602
 4863TIP3    H214547   5.691   7.435   3.462
 4864TIP3   OH214548   6.246   3.983   0.367
 4864TIP3    H114549   6.300   3.931   0.307
 4864TIP3    H214550   6.160   3.942   0.363
 4865TIP3   OH214551   8.096   4.284   6.731
 4865TIP3    H114552   8.084   4.347   6.802
 4865TIP3    H214553   8.126   4.337   6.657
 4866TIP3   OH214554   0.059   3.133   1.650
 4866TIP3    H114555   0.018   3.138   1.563
 4866TIP3    H214556  -0.015   3.136   1.711
 4867TIP3   OH214557   7.267   3.789   0.207
 4867TIP3    H114558   7.224   3.749   0.131
 4867TIP3    H214559   7.263   3.722   0.275
 4868TIP3   OH214560   6.841   0.011   0.935
 4868TIP3    H114561   6.748  -0.001   0.913
 4868TIP3    H214562   6.887   0.001   0.852
 4869TIP3   OH214563   6.981   3.406  -0.007
 4869TIP3    H114564   7.014   3.334  -0.060
 4869TIP3    H214565   7.039   3.410   0.069
 4870TIP3   OH214566   6.195   3.180   5.828
 4870TIP3    H114567   6.136   3.256   5.833
 4870TIP3    H214568   6.282   3.217   5.838
 4871TIP3   OH214569   6.184   4.239   1.293
 4871TIP3    H114570   6.276   4.258   1.276
 4871TIP3    H214571   6.181   4.209   1.384
 4872TIP3   OH214572   5.418   4.005   4.207
 4872TIP3    H114573   5.338   4.025   4.159
 4872TIP3    H214574   5.391   3.997   4.298
 4873TIP3   OH214575   6.632   7.083   0.959
 4873TIP3    H114576   6.562   7.029   0.922
 4873TIP3    H214577   6.590   7.131   1.030
 4874TIP3   OH214578   5.089   7.790   1.524
 4874TIP3    H114579   5.177   7.752   1.518
 4874TIP3    H214580   5.093   7.868   1.469
 4875TIP3   OH214581   7.243   4.555   4.618
 4875TIP3    H114582   7.200   4.508   4.690
 4875TIP3    H214583   7.330   4.517   4.614
 4876TIP3   OH214584   7.548   5.977   3.023
 4876TIP3    H114585   7.529   6.006   2.934
 4876TIP3    H214586   7.463   5.977   3.067
 4877TIP3   OH214587   3.865   0.970   3.120
 4877TIP3    H114588   3.926   0.906   3.157
 4877TIP3    H214589   3.786   0.920   3.100
 4878TIP3   OH214590   6.690   2.633   0.783
 4878TIP3    H114591   6.677   2.689   0.707
 4878TIP3    H214592   6.605   2.590   0.796
 4879TIP3   OH214593   0.258   2.633   0.928
 4879TIP3    H114594   0.211   2.660   0.849
 4879TIP3    H214595   0.326   2.700   0.940
 4880TIP3   OH214596   1.684   3.406   4.506
 4880TIP3    H114597   1.604   3.415   4.455
 4880TIP3    H214598   1.748   3.461   4.461
 4881TIP3   OH214599   0.767   4.534   4.774
 4881TIP3    H114600   0.814   4.618   4.777
 4881TIP3    H214601   0.709   4.543   4.699
 4882TIP3   OH214602   4.929   1.459   5.197
 4882TIP3    H114603   4.838   1.449   5.227
 4882TIP3    H214604   4.945   1.553   5.202
 4883TIP3   OH214605   3.742   6.495   4.690
 4883TIP3    H114606   3.715   6.442   4.765
 4883TIP3    H214607   3.753   6.583   4.726
 4884TIP3   OH214608   7.553   4.175   2.343
 4884TIP3    H114609   7.605   4.236   2.291
 4884TIP3    H214610   7.463   4.204   2.329
 4885TIP3   OH214611   3.832   7.595   5.437
 4885TIP3    H114612   3.846   7.687   5.460
 4885TIP3    H214613   3.746   7.592   5.397
 4886TIP3   OH214614   3.222   5.558   1.055
 4886TIP3    H114615   3.237   5.476   1.008
 4886TIP3    H214616   3.128   5.558   1.075
 4887TIP3   OH214617   4.047   1.689   3.490
 4887TIP3    H114618   3.953   1.673   3.489
 4887TIP3    H214619   4.066   1.726   3.403
 4888TIP3   OH214620   8.120   1.723   4.429
 4888TIP3    H114621   8.124   1.672   4.510
 4888TIP3    H214622   8.209   1.756   4.418
 4889TIP3   OH214623   5.405   3.042   4.063
 4889TIP3    H114624   5.433   3.010   3.977
 4889TIP3    H214625   5.329   2.989   4.086
 4890TIP3   OH214626   1.949   5.820   3.829
 4890TIP3    H114627   1.951   5.915   3.816
 4890TIP3    H214628   1.934   5.784   3.742
 4891TIP3   OH214629   5.440   0.630   4.855
 4891TIP3    H114630   5.468   0.548   4.814
 4891TIP3    H214631   5.485   0.631   4.940
 4892TIP3   OH214632   3.853   6.669   2.827
 4892TIP3    H114633   3.846   6.623   2.743
 4892TIP3    H214634   3.774   6.723   2.831
 4893TIP3   OH214635   0.977   5.708   5.336
 4893TIP3    H114636   0.913   5.735   5.270
 4893TIP3    H214637   0.946   5.623   5.366
 4894TIP3   OH214638   2.881   1.796   6.763
 4894TIP3    H114639   2.957   1.778   6.708
 4894TIP3    H214640   2.840   1.872   6.722
 4895TIP3   OH214641   5.862   7.749   5.515
 4895TIP3    H114642   5.794   7.745   5.447
 4895TIP3    H214643   5.832   7.817   5.575
 4896TIP3   OH214644   5.644   1.164   0.383
 4896TIP3    H114645   5.558   1.205   0.395
 4896TIP3    H214646   5.626   1.071   0.375
 4897TIP3   OH214647   3.989   0.552   6.164
 4897TIP3    H114648   4.007   0.621   6.228
 4897TIP3    H214649   3.894   0.552   6.155
 4898TIP3   OH214650   1.380   6.653   2.131
 4898TIP3    H114651   1.417   6.573   2.169
 4898TIP3    H214652   1.449   6.687   2.075
 4899TIP3   OH214653   7.366   6.370   3.304
 4899TIP3    H114654   7.428   6.442   3.316
 4899TIP3    H214655   7.357   6.332   3.391
 4900TIP3   OH214656   1.186   2.777   1.370
 4900TIP3    H114657   1.142   2.815   1.294
 4900TIP3    H214658   1.142   2.692   1.382
 4901TIP3   OH214659   7.516   7.643   6.682
 4901TIP3    H114660   7.439   7.628   6.737
 4901TIP3    H214661   7.527   7.739   6.681
 4902TIP3   OH214662   7.806   7.222   0.172
 4902TIP3    H114663   7.809   7.296   0.111
 4902TIP3    H214664   7.825   7.146   0.118
 4903TIP3   OH214665   2.841   3.448   2.957
 4903TIP3    H114666   2.789   3.515   3.002
 4903TIP3    H214667   2.867   3.387   3.026
 4904TIP3   OH214668   5.354   1.745   1.621
 4904TIP3    H114669   5.348   1.683   1.548
 4904TIP3    H214670   5.449   1.757   1.634
 4905TIP3   OH214671   6.386   5.782   2.613
 4905TIP3    H114672   6.338   5.865   2.611
 4905TIP3    H214673   6.439   5.787   2.693
 4906TIP3   OH214674   3.337   0.222   5.602
 4906TIP3    H114675   3.293   0.295   5.645
 4906TIP3    H214676   3.385   0.178   5.672
 4907TIP3   OH214677   1.252   0.024   6.677
 4907TIP3    H114678   1.259   0.112   6.642
 4907TIP3    H214679   1.198  -0.023   6.613
 4908TIP3   OH214680   7.886   7.020   0.513
 4908TIP3    H114681   7.958   7.021   0.576
 4908TIP3    H214682   7.830   7.092   0.539
 4909TIP3   OH214683   6.961   0.371   5.639
 4909TIP3    H114684   6.951   0.282   5.672
 4909TIP3    H214685   7.030   0.409   5.694
 4910TIP3   OH214686   4.304   4.432   4.175
 4910TIP3    H114687   4.308   4.339   4.195
 4910TIP3    H214688   4.392   4.465   4.191
 4911TIP3   OH214689   2.515   3.383   2.419
 4911TIP3    H114690   2.545   3.407   2.331
 4911TIP3    H214691   2.533   3.290   2.426
 4912TIP3   OH214692   2.833   7.066   2.705
 4912TIP3    H114693   2.833   7.161   2.716
 4912TIP3    H214694   2.746   7.038   2.732
 4913TIP3   OH214695   7.895   1.033   0.003
 4913TIP3    H114696   7.901   0.937   0.001
 4913TIP3    H214697   7.810   1.050   0.044
 4914TIP3   OH214698   4.314   7.498   4.561
 4914TIP3    H114699   4.281   7.525   4.646
 4914TIP3    H214700   4.238   7.504   4.503
 4915TIP3   OH214701   2.451   7.583   3.115
 4915TIP3    H114702   2.421   7.492   3.114
 4915TIP3    H214703   2.410   7.623   3.039
 4916TIP3   OH214704   4.992   7.650   2.965
 4916TIP3    H114705   4.897   7.658   2.975
 4916TIP3    H214706   5.003   7.599   2.885
 4917TIP3   OH214707   2.695   3.903   0.198
 4917TIP3    H114708   2.773   3.949   0.230
 4917TIP3    H214709   2.639   3.894   0.276
 4918TIP3   OH214710   0.688   0.384   5.673
 4918TIP3    H114711   0.734   0.468   5.674
 4918TIP3    H214712   0.596   0.407   5.684
 4919TIP3   OH214713   3.312   5.528   3.255
 4919TIP3    H114714   3.311   5.466   3.327
 4919TIP3    H214715   3.308   5.473   3.176
 4920TIP3   OH214716   4.443   5.883   5.089
 4920TIP3    H114717   4.399   5.850   5.167
 4920TIP3    H214718   4.501   5.952   5.121
 4921TIP3   OH214719   0.494   5.436   1.103
 4921TIP3    H114720   0.427   5.368   1.094
 4921TIP3    H214721   0.573   5.389   1.131
 4922TIP3   OH214722   5.414   4.476   1.646
 4922TIP3    H114723   5.497   4.493   1.601
 4922TIP3    H214724   5.348   4.519   1.591
 4923TIP3   OH214725   5.860   0.794   5.005
 4923TIP3    H114726   5.867   0.796   4.909
 4923TIP3    H214727   5.914   0.868   5.034
 4924TIP3   OH214728   0.942   5.106   2.896
 4924TIP3    H114729   0.981   5.019   2.889
 4924TIP3    H214730   0.925   5.117   2.990
 4925TIP3   OH214731   5.748   5.956   3.830
 4925TIP3    H114732   5.692   6.027   3.796
 4925TIP3    H214733   5.771   5.905   3.753
 4926TIP3   OH214734   2.527   5.581   0.062
 4926TIP3    H114735   2.622   5.591   0.063
 4926TIP3    H214736   2.498   5.629  -0.015
 4927TIP3   OH214737   7.274   4.806   3.119
 4927TIP3    H114738   7.228   4.886   3.092
 4927TIP3    H214739   7.253   4.797   3.212
 4928TIP3   OH214740   4.569   5.091   5.072
 4928TIP3    H114741   4.489   5.133   5.041
 4928TIP3    H214742   4.629   5.097   4.998
 4929TIP3   OH214743   1.620   5.368   6.629
 4929TIP3    H114744   1.532   5.331   6.622
 4929TIP3    H214745   1.634   5.412   6.545
 4930TIP3   OH214746   2.862   7.112   4.890
 4930TIP3    H114747   2.789   7.099   4.950
 4930TIP3    H214748   2.827   7.167   4.821
 4931TIP3   OH214749   4.154   7.420   4.009
 4931TIP3    H114750   4.095   7.468   3.951
 4931TIP3    H214751   4.242   7.446   3.982
 4932TIP3   OH214752   4.985   5.942   3.171
 4932TIP3    H114753   4.915   5.926   3.235
 4932TIP3    H214754   4.953   5.901   3.091
 4933TIP3   OH214755   4.454   4.875   1.995
 4933TIP3    H114756   4.525   4.901   1.936
 4933TIP3    H214757   4.498   4.835   2.070
 4934TIP3   OH214758   0.974   7.097   3.829
 4934TIP3    H114759   1.021   7.178   3.808
 4934TIP3    H214760   0.888   7.125   3.859
 4935TIP3   OH214761   1.532   3.446   5.830
 4935TIP3    H114762   1.540   3.372   5.771
 4935TIP3    H214763   1.569   3.520   5.782
 4936TIP3   OH214764   8.049   2.519   3.705
 4936TIP3    H114765   8.085   2.432   3.719
 4936TIP3    H214766   8.069   2.540   3.614
 4937TIP3   OH214767   0.512   4.317   1.561
 4937TIP3    H114768   0.573   4.372   1.609
 4937TIP3    H214769   0.445   4.378   1.530
 4938TIP3   OH214770   7.860   1.027   3.639
 4938TIP3    H114771   7.850   0.932   3.642
 4938TIP3    H214772   7.926   1.046   3.706
 4939TIP3   OH214773   3.977   2.838   1.762
 4939TIP3    H114774   3.914   2.907   1.741
 4939TIP3    H214775   4.052   2.856   1.705
 4940TIP3   OH214776   6.051   6.444   0.784
 4940TIP3    H114777   5.977   6.469   0.840
 4940TIP3    H214778   6.024   6.361   0.745
 4941TIP3   OH214779   6.250   0.959   0.113
 4941TIP3    H114780   6.314   0.979   0.181
 4941TIP3    H214781   6.219   0.871   0.133
 4942TIP3   OH214782   0.046   7.475   4.016
 4942TIP3    H114783   0.054   7.525   4.097
 4942TIP3    H214784   0.073   7.535   3.947
 4943TIP3   OH214785   3.710   2.721   2.705
 4943TIP3    H114786   3.652   2.788   2.740
 4943TIP3    H214787   3.666   2.639   2.724
 4944TIP3   OH214788   1.321   3.460   6.592
 4944TIP3    H114789   1.381   3.511   6.647
 4944TIP3    H214790   1.374   3.385   6.563
 4945TIP3   OH214791   8.039   6.209   5.591
 4945TIP3    H114792   7.992   6.184   5.671
 4945TIP3    H214793   7.979   6.186   5.520
 4946TIP3   OH214794   6.713   7.449   1.631
 4946TIP3    H114795   6.692   7.391   1.558
 4946TIP3    H214796   6.795   7.490   1.606
 4947TIP3   OH214797   5.757   5.896   1.444
 4947TIP3    H114798   5.685   5.940   1.399
 4947TIP3    H214799   5.715   5.840   1.509
 4948TIP3   OH214800   2.358   3.072   6.636
 4948TIP3    H114801   2.302   3.011   6.588
 4948TIP3    H214802   2.330   3.064   6.727
 4949TIP3   OH214803   8.182   7.777   5.569
 4949TIP3    H114804   8.119   7.821   5.513
 4949TIP3    H214805   8.144   7.782   5.657
 4950TIP3   OH214806   4.649   4.410   4.649
 4950TIP3    H114807   4.737   4.397   4.613
 4950TIP3    H214808   4.661   4.409   4.744
 4951TIP3   OH214809   5.766   4.181   1.393
 4951TIP3    H114810   5.772   4.271   1.361
 4951TIP3    H214811   5.699   4.185   1.461
 4952TIP3   OH214812   2.760   0.502   3.319
 4952TIP3    H114813   2.750   0.548   3.403
 4952TIP3    H214814   2.672   0.470   3.298
 4953TIP3   OH214815   4.153   4.407   5.319
 4953TIP3    H114816   4.142   4.381   5.227
 4953TIP3    H214817   4.222   4.472   5.317
 4954TIP3   OH214818   5.928   0.342   4.022
 4954TIP3    H114819   5.894   0.432   4.028
 4954TIP3    H214820   5.873   0.292   4.084
 4955TIP3   OH214821   4.075   1.099   1.788
 4955TIP3    H114822   4.090   1.063   1.701
 4955TIP3    H214823   4.098   1.028   1.848
 4956TIP3   OH214824   6.858   0.601   2.746
 4956TIP3    H114825   6.807   0.523   2.768
 4956TIP3    H214826   6.862   0.651   2.827
 4957TIP3   OH214827   3.986   2.602   3.745
 4957TIP3    H114828   3.944   2.516   3.747
 4957TIP3    H214829   3.913   2.664   3.735
 4958TIP3   OH214830   6.699   4.492   0.210
 4958TIP3    H114831   6.725   4.438   0.135
 4958TIP3    H214832   6.726   4.581   0.186
 4959TIP3   OH214833   2.033   2.517   0.422
 4959TIP3    H114834   2.092   2.497   0.494
 4959TIP3    H214835   1.965   2.572   0.461
 4960TIP3   OH214836   0.905   2.972   4.879
 4960TIP3    H114837   0.890   2.896   4.936
 4960TIP3    H214838   0.869   2.946   4.794
 4961TIP3   OH214839   6.451   7.262   4.418
 4961TIP3    H114840   6.405   7.345   4.419
 4961TIP3    H214841   6.420   7.216   4.497
 4962TIP3   OH214842   2.664   5.312   5.315
 4962TIP3    H114843   2.613   5.276   5.242
 4962TIP3    H214844   2.618   5.392   5.340
 4963TIP3   OH214845   5.339   5.355   2.094
 4963TIP3    H114846   5.363   5.447   2.100
 4963TIP3    H214847   5.275   5.351   2.023
 4964TIP3   OH214848   6.163   6.302   1.445
 4964TIP3    H114849   6.079   6.312   1.400
 4964TIP3    H214850   6.154   6.221   1.494
 4965TIP3   OH214851   6.423   7.241   1.568
 4965TIP3    H114852   6.503   7.241   1.516
 4965TIP3    H214853   6.411   7.332   1.594
 4966TIP3   OH214854   4.964   7.453   4.020
 4966TIP3    H114855   4.889   7.512   4.014
 4966TIP3    H214856   4.929   7.368   3.994
 4967TIP3   OH214857   0.923   0.968   4.085
 4967TIP3    H114858   0.892   0.971   3.995
 4967TIP3    H214859   0.901   0.880   4.115
 4968TIP3   OH214860   3.078   5.554   1.408
 4968TIP3    H114861   3.063   5.510   1.492
 4968TIP3    H214862   3.043   5.642   1.421
 4969TIP3   OH214863   3.693   5.912   3.222
 4969TIP3    H114864   3.748   5.921   3.144
 4969TIP3    H214865   3.749   5.869   3.286
 4970TIP3   OH214866   0.760   0.357   3.898
 4970TIP3    H114867   0.755   0.453   3.892
 4970TIP3    H214868   0.820   0.341   3.971
 4971TIP3   OH214869   1.200   5.949   5.258
 4971TIP3    H114870   1.130   5.986   5.205
 4971TIP3    H214871   1.226   6.020   5.317
 4972TIP3   OH214872   8.076   3.963   2.449
 4972TIP3    H114873   8.046   3.983   2.538
 4972TIP3    H214874   8.070   4.046   2.402
 4973TIP3   OH214875   7.563   1.479   5.524
 4973TIP3    H114876   7.475   1.507   5.548
 4973TIP3    H214877   7.597   1.551   5.471
 4974TIP3   OH214878   2.198   3.089   2.745
 4974TIP3    H114879   2.103   3.097   2.744
 4974TIP3    H214880   2.215   3.008   2.793
 4975TIP3   OH214881   5.876   3.453   2.978
 4975TIP3    H114882   5.825   3.436   2.898
 4975TIP3    H214883   5.931   3.527   2.955
 4976TIP3   OH214884   6.765   7.027   3.441
 4976TIP3    H114885   6.698   7.050   3.505
 4976TIP3    H214886   6.716   7.013   3.359
 4977TIP3   OH214887   7.238   0.121   0.983
 4977TIP3    H114888   7.323   0.137   1.023
 4977TIP3    H214889   7.247   0.037   0.939
 4978TIP3   OH214890   1.003   5.836   6.287
 4978TIP3    H114891   1.004   5.929   6.263
 4978TIP3    H214892   0.911   5.810   6.281
 4979TIP3   OH214893   1.261   5.133   3.141
 4979TIP3    H114894   1.235   5.218   3.106
 4979TIP3    H214895   1.356   5.138   3.149
 4980TIP3   OH214896   6.518   5.612   5.811
 4980TIP3    H114897   6.534   5.569   5.895
 4980TIP3    H214898   6.584   5.681   5.806
 4981TIP3   OH214899   3.111   6.648   6.420
 4981TIP3    H114900   3.047   6.666   6.351
 4981TIP3    H214901   3.133   6.555   6.408
 4982TIP3   OH214902   5.330   4.702   1.014
 4982TIP3    H114903   5.318   4.797   1.009
 4982TIP3    H214904   5.249   4.665   0.979
 4983TIP3   OH214905   2.616   7.019   6.094
 4983TIP3    H114906   2.665   7.072   6.157
 4983TIP3    H214907   2.649   6.930   6.106
 4984TIP3   OH214908   6.713   4.285   5.635
 4984TIP3    H114909   6.707   4.303   5.541
 4984TIP3    H214910   6.781   4.345   5.666
 4985TIP3   OH214911   6.084   0.580   4.211
 4985TIP3    H114912   6.056   0.665   4.176
 4985TIP3    H214913   6.136   0.540   4.142
 4986TIP3   OH214914   0.780   2.917   3.075
 4986TIP3    H114915   0.854   2.977   3.084
 4986TIP3    H214916   0.736   2.945   2.995
 4987TIP3   OH214917   2.721   6.022   1.234
 4987TIP3    H114918   2.719   5.991   1.144
 4987TIP3    H214919   2.632   6.007   1.266
 4988TIP3   OH214920   0.727   1.939   1.721
 4988TIP3    H114921   0.805   1.895   1.686
 4988TIP3    H214922   0.738   1.935   1.816
 4989TIP3   OH214923   2.403   7.063   5.113
 4989TIP3    H114924   2.447   6.979   5.096
 4989TIP3    H214925   2.319   7.038   5.151
 4990TIP3   OH214926   7.898   2.414   1.790
 4990TIP3    H114927   7.905   2.360   1.711
 4990TIP3    H214928   7.866   2.353   1.858
 4991TIP3   OH214929   7.826   5.417   5.610
 4991TIP3    H114930   7.783   5.400   5.527
 4991TIP3    H214931   7.894   5.482   5.590
 4992TIP3   OH214932   4.176   2.246   0.239
 4992TIP3    H114933   4.101   2.194   0.210
 4992TIP3    H214934   4.167   2.249   0.334
 4993TIP3   OH214935   6.397   0.054   5.775
 4993TIP3    H114936   6.356  -0.004   5.711
 4993TIP3    H214937   6.488   0.025   5.779
 4994TIP3   OH214938   3.170   4.175   5.011
 4994TIP3    H114939   3.077   4.153   5.023
 4994TIP3    H214940   3.193   4.224   5.090
 4995TIP3   OH214941   2.576   3.693   4.996
 4995TIP3    H114942   2.654   3.658   5.040
 4995TIP3    H214943   2.576   3.786   5.018
 4996TIP3   OH214944   3.930   1.611   5.183
 4996TIP3    H114945   3.944   1.574   5.270
 4996TIP3    H214946   3.992   1.685   5.179
 4997TIP3   OH214947   2.235   1.561   0.791
 4997TIP3    H114948   2.204   1.646   0.762
 4997TIP3    H214949   2.203   1.500   0.724
 4998TIP3   OH214950   1.455   3.318   4.311
 4998TIP3    H114951   1.383   3.304   4.373
 4998TIP3    H214952   1.519   3.250   4.333
 4999TIP3   OH214953   5.249   4.893   1.882
 4999TIP3    H114954   5.302   4.917   1.806
 4999TIP3    H214955   5.288   4.940   1.955
 5000TIP3   OH214956   4.863   7.425   6.675
 5000TIP3    H114957   4.843   7.339   6.638
 5000TIP3    H214958   4.777   7.465   6.688
 5001TIP3   OH214959   7.307   1.321   3.938
 5001TIP3    H114960   7.335   1.308   4.028
 5001TIP3    H214961   7.211   1.322   3.942
 5002TIP3   OH214962   1.594   3.485   6.329
 5002TIP3    H114963   1.657   3.421   6.298
 5002TIP3    H214964   1.510   3.456   6.292
 5003TIP3   OH214965   2.739   0.778   2.281
 5003TIP3    H114966   2.644   0.781   2.295
 5003TIP3    H214967   2.749   0.744   2.193
 5004TIP3   OH214968   1.797   6.450   4.260
 5004TIP3    H114969   1.864   6.382   4.265
 5004TIP3    H214970   1.715   6.405   4.280
 5005TIP3   OH214971   8.263   1.371   6.669
 5005TIP3    H114972   8.214   1.365   6.751
 5005TIP3    H214973   8.247   1.288   6.626
 5006TIP3   OH214974   6.134   1.796   6.690
 5006TIP3    H114975   6.144   1.841   6.606
 5006TIP3    H214976   6.145   1.703   6.670
 5007TIP3   OH214977   1.659   7.797   2.201
 5007TIP3    H114978   1.713   7.784   2.123
 5007TIP3    H214979   1.574   7.760   2.178
 5008TIP3   OH214980   0.782   7.034   2.442
 5008TIP3    H114981   0.869   6.999   2.459
 5008TIP3    H214982   0.793   7.088   2.364
 5009TIP3   OH214983   6.100   4.904   3.648
 5009TIP3    H114984   6.063   4.965   3.712
 5009TIP3    H214985   6.144   4.837   3.702
 5010TIP3   OH214986   8.057   1.514   4.629
 5010TIP3    H114987   8.054   1.479   4.718
 5010TIP3    H214988   8.005   1.453   4.578
 5011TIP3   OH214989   5.593   4.085   4.637
 5011TIP3    H114990   5.590   3.990   4.626
 5011TIP3    H214991   5.501   4.111   4.649
 5012TIP3   OH214992   5.718   7.107   1.384
 5012TIP3    H114993   5.781   7.037   1.369
 5012TIP3    H214994   5.632   7.065   1.378
 5013TIP3   OH214995   2.028   0.324   3.785
 5013TIP3    H114996   1.951   0.346   3.733
 5013TIP3    H214997   2.086   0.399   3.776
 5014TIP3   OH214998   7.467   1.247   4.948
 5014TIP3    H114999   7.529   1.235   5.019
 5014TIP3    H215000   7.445   1.157   4.921
 5015TIP3   OH215001   1.720   2.389   4.166
 5015TIP3    H115002   1.675   2.418   4.086
 5015TIP3    H215003   1.690   2.448   4.234
 5016TIP3   OH215004   0.286   6.890   2.790
 5016TIP3    H115005   0.240   6.928   2.866
 5016TIP3    H215006   0.294   6.963   2.728
 5017TIP3   OH215007   7.659   7.006   0.894
 5017TIP3    H115008   7.654   6.964   0.980
 5017TIP3    H215009   7.680   7.098   0.913
 5018TIP3   OH215010   0.547   2.044   4.837
 5018TIP3    H115011   0.461   2.085   4.845
 5018TIP3    H215012   0.542   1.995   4.755
 5019TIP3   OH215013   0.918   3.450   4.460
 5019TIP3    H115014   0.874   3.409   4.386
 5019TIP3    H215015   0.979   3.384   4.492
 5020TIP3   OH215016   5.507   2.486   4.500
 5020TIP3    H115017   5.557   2.405   4.518
 5020TIP3    H215018   5.565   2.556   4.529
 5021TIP3   OH215019   6.261   4.125   5.031
 5021TIP3    H115020   6.339   4.179   5.041
 5021TIP3    H215021   6.293   4.042   4.994
 5022TIP3   OH215022   4.157   2.968   0.132
 5022TIP3    H115023   4.219   2.922   0.187
 5022TIP3    H215024   4.074   2.923   0.146
 5023TIP3   OH215025   4.640   2.590   4.247
 5023TIP3    H115026   4.588   2.651   4.300
 5023TIP3    H215027   4.719   2.575   4.298
 5024TIP3   OH215028   1.628   0.305   4.034
 5024TIP3    H115029   1.723   0.313   4.035
 5024TIP3    H215030   1.610   0.229   3.979
 5025TIP3   OH215031   2.601   5.073   1.262
 5025TIP3    H115032   2.662   5.035   1.198
 5025TIP3    H215033   2.624   5.029   1.344
 5026TIP3   OH215034   5.412   4.383   0.764
 5026TIP3    H115035   5.471   4.443   0.718
 5026TIP3    H215036   5.344   4.439   0.801
 5027TIP3   OH215037   2.589   6.702   3.783
 5027TIP3    H115038   2.554   6.717   3.870
 5027TIP3    H215039   2.527   6.745   3.724
 5028TIP3   OH215040   4.253   4.944   5.068
 5028TIP3    H115041   4.217   5.032   5.078
 5028TIP3    H215042   4.316   4.951   4.996
 5029TIP3   OH215043   0.831   5.285   4.234
 5029TIP3    H115044   0.788   5.306   4.151
 5029TIP3    H215045   0.804   5.355   4.294
 5030TIP3   OH215046   7.100   7.620   4.997
 5030TIP3    H115047   7.071   7.630   4.906
 5030TIP3    H215048   7.096   7.709   5.033
 5031TIP3   OH215049   2.381   0.265   3.692
 5031TIP3    H115050   2.430   0.335   3.649
 5031TIP3    H215051   2.420   0.184   3.659
 5032TIP3   OH215052   1.802   1.451   4.266
 5032TIP3    H115053   1.842   1.532   4.298
 5032TIP3    H215054   1.833   1.442   4.176
 5033TIP3   OH215055   5.716   5.722   0.386
 5033TIP3    H115056   5.778   5.763   0.446
 5033TIP3    H215057   5.728   5.768   0.303
 5034TIP3   OH215058   6.307   3.839   1.759
 5034TIP3    H115059   6.373   3.793   1.812
 5034TIP3    H215060   6.333   3.822   1.669
 5035TIP3   OH215061   3.040   6.710   0.614
 5035TIP3    H115062   3.086   6.764   0.679
 5035TIP3    H215063   3.004   6.774   0.552
 5036TIP3   OH215064   0.102   3.377   6.744
 5036TIP3    H115065   0.177   3.408   6.693
 5036TIP3    H215066   0.047   3.455   6.756
 5037TIP3   OH215067   8.033   3.033   5.909
 5037TIP3    H115068   8.028   3.006   6.001
 5037TIP3    H215069   8.122   3.067   5.899
 5038TIP3   OH215070   2.125   1.212   3.610
 5038TIP3    H115071   2.197   1.195   3.670
 5038TIP3    H215072   2.079   1.127   3.604
 5039TIP3   OH215073   2.408   7.028   4.763
 5039TIP3    H115074   2.363   6.944   4.776
 5039TIP3    H215075   2.450   7.019   4.678
 5040TIP3   OH215076   4.412   6.381   5.036
 5040TIP3    H115077   4.431   6.465   5.079
 5040TIP3    H215078   4.385   6.405   4.948
 5041TIP3   OH215079   1.543   2.256   2.918
 5041TIP3    H115080   1.562   2.343   2.955
 5041TIP3    H215081   1.587   2.195   2.977
 5042TIP3   OH215082   3.577   7.578   3.550
 5042TIP3    H115083   3.573   7.581   3.454
 5042TIP3    H215084   3.490   7.550   3.577
 5043TIP3   OH215085   2.726   6.409   0.321
 5043TIP3    H115086   2.646   6.446   0.359
 5043TIP3    H215087   2.794   6.475   0.340
 5044TIP3   OH215088   0.990   7.155   0.245
 5044TIP3    H115089   1.067   7.196   0.208
 5044TIP3    H215090   1.000   7.062   0.223
 5045TIP3   OH215091   6.857   6.535   2.867
 5045TIP3    H115092   6.901   6.597   2.925
 5045TIP3    H215093   6.798   6.589   2.815
 5046TIP3   OH215094   4.878   7.730   6.506
 5046TIP3    H115095   4.831   7.787   6.568
 5046TIP3    H215096   4.811   7.668   6.475
 5047TIP3   OH215097   5.722   4.393   0.056
 5047TIP3    H115098   5.748   4.472   0.105
 5047TIP3    H215099   5.801   4.367   0.009
 5048TIP3   OH215100   3.468   1.249   1.247
 5048TIP3    H115101   3.514   1.282   1.170
 5048TIP3    H215102   3.398   1.312   1.263
 5049TIP3   OH215103   2.310   4.899   2.463
 5049TIP3    H115104   2.228   4.933   2.500
 5049TIP3    H215105   2.358   4.864   2.538
 5050TIP3   OH215106   6.127   4.448   4.899
 5050TIP3    H115107   6.108   4.395   4.976
 5050TIP3    H215108   6.069   4.524   4.906
 5051TIP3   OH215109   3.842   5.748   3.984
 5051TIP3    H115110   3.794   5.693   3.922
 5051TIP3    H215111   3.918   5.696   4.010
 5052TIP3   OH215112   0.232   2.331   0.909
 5052TIP3    H115113   0.203   2.331   1.000
 5052TIP3    H215114   0.232   2.423   0.883
 5053TIP3   OH215115   3.196   1.690   0.413
 5053TIP3    H115116   3.246   1.748   0.355
 5053TIP3    H215117   3.146   1.635   0.353
 5054TIP3   OH215118   0.850   0.909   3.412
 5054TIP3    H115119   0.861   0.903   3.317
 5054TIP3    H215120   0.829   0.819   3.439
 5055TIP3   OH215121   7.211   5.467   6.162
 5055TIP3    H115122   7.193   5.376   6.186
 5055TIP3    H215123   7.278   5.461   6.094
 5056TIP3   OH215124   0.111   0.433   1.580
 5056TIP3    H115125   0.062   0.378   1.642
 5056TIP3    H215126   0.044   0.468   1.521
 5057TIP3   OH215127   0.520   6.875   1.396
 5057TIP3    H115128   0.599   6.881   1.449
 5057TIP3    H215129   0.448   6.874   1.459
 5058TIP3   OH215130   3.543   3.035   4.848
 5058TIP3    H115131   3.590   3.036   4.932
 5058TIP3    H215132   3.528   3.127   4.827
 5059TIP3   OH215133   7.911   6.913   0.242
 5059TIP3    H115134   7.996   6.869   0.254
 5059TIP3    H215135   7.909   6.935   0.148
 5060TIP3   OH215136   7.825   3.633   2.588
 5060TIP3    H115137   7.766   3.567   2.549
 5060TIP3    H215138   7.856   3.592   2.668
 5061TIP3   OH215139   1.304   0.684   4.832
 5061TIP3    H115140   1.211   0.676   4.813
 5061TIP3    H215141   1.346   0.622   4.773
 5062TIP3   OH215142   1.957   2.232   3.191
 5062TIP3    H115143   1.885   2.172   3.170
 5062TIP3    H215144   1.931   2.270   3.275
 5063TIP3   OH215145   4.413   1.855   3.442
 5063TIP3    H115146   4.496   1.841   3.398
 5063TIP3    H215147   4.429   1.928   3.502
 5064TIP3   OH215148   5.082   1.731   6.673
 5064TIP3    H115149   5.093   1.790   6.748
 5064TIP3    H215150   4.989   1.710   6.673
 5065TIP3   OH215151   5.154   5.708   0.165
 5065TIP3    H115152   5.205   5.780   0.126
 5065TIP3    H215153   5.146   5.732   0.258
 5066TIP3   OH215154   7.229   5.084   1.558
 5066TIP3    H115155   7.186   5.026   1.495
 5066TIP3    H215156   7.309   5.038   1.583
 5067TIP3   OH215157   1.790   3.472   6.041
 5067TIP3    H115158   1.761   3.402   6.100
 5067TIP3    H215159   1.835   3.425   5.970
 5068TIP3   OH215160   0.540   7.766   2.808
 5068TIP3    H115161   0.554   7.831   2.877
 5068TIP3    H215162   0.625   7.723   2.798
 5069TIP3   OH215163   2.447   6.689   3.102
 5069TIP3    H115164   2.495   6.607   3.093
 5069TIP3    H215165   2.487   6.733   3.177
 5070TIP3   OH215166   6.607   1.647   3.862
 5070TIP3    H115167   6.515   1.640   3.887
 5070TIP3    H215168   6.631   1.558   3.836
 5071TIP3   OH215169   0.351   7.328   3.757
 5071TIP3    H115170   0.440   7.354   3.733
 5071TIP3    H215171   0.349   7.234   3.741
 5072TIP3   OH215172   2.080   0.282   6.451
 5072TIP3    H115173   2.028   0.272   6.371
 5072TIP3    H215174   2.070   0.199   6.497
 5073TIP3   OH215175   6.491   4.883   5.117
 5073TIP3    H115176   6.419   4.852   5.062
 5073TIP3    H215177   6.491   4.978   5.104
 5074TIP3   OH215178   3.811   5.534   0.252
 5074TIP3    H115179   3.893   5.492   0.226
 5074TIP3    H215180   3.800   5.606   0.190
 5075TIP3   OH215181   4.393   6.043   0.247
 5075TIP3    H115182   4.351   6.008   0.325
 5075TIP3    H215183   4.484   6.011   0.252
 5076TIP3   OH215184   1.929   5.804   5.617
 5076TIP3    H115185   2.024   5.797   5.610
 5076TIP3    H215186   1.899   5.713   5.629
 5077TIP3   OH215187   1.185   1.027   2.719
 5077TIP3    H115188   1.157   1.097   2.660
 5077TIP3    H215189   1.253   0.981   2.671
 5078TIP3   OH215190   2.570   7.045   2.798
 5078TIP3    H115191   2.509   6.980   2.832
 5078TIP3    H215192   2.525   7.082   2.722
 5079TIP3   OH215193   3.546   4.550   6.243
 5079TIP3    H115194   3.481   4.575   6.308
 5079TIP3    H215195   3.548   4.455   6.246
 5080TIP3   OH215196   6.533   0.707   6.362
 5080TIP3    H115197   6.532   0.781   6.423
 5080TIP3    H215198   6.459   0.723   6.303
 5081TIP3   OH215199   6.927   5.693   3.934
 5081TIP3    H115200   6.927   5.788   3.934
 5081TIP3    H215201   6.943   5.669   3.842
 5082TIP3   OH215202   4.274   1.665   4.250
 5082TIP3    H115203   4.278   1.620   4.334
 5082TIP3    H215204   4.195   1.631   4.207
 5083TIP3   OH215205   1.244   6.813   0.734
 5083TIP3    H115206   1.203   6.746   0.789
 5083TIP3    H215207   1.298   6.764   0.672
 5084TIP3   OH215208   5.368   3.357   3.522
 5084TIP3    H115209   5.428   3.397   3.585
 5084TIP3    H215210   5.421   3.340   3.445
 5085TIP3   OH215211   2.400   3.667   0.766
 5085TIP3    H115212   2.473   3.729   0.769
 5085TIP3    H215213   2.327   3.714   0.807
 5086TIP3   OH215214   1.305   4.230   1.127
 5086TIP3    H115215   1.252   4.294   1.175
 5086TIP3    H215216   1.293   4.148   1.176
 5087TIP3   OH215217   7.016   5.199   6.578
 5087TIP3    H115218   6.950   5.130   6.580
 5087TIP3    H215219   6.970   5.275   6.542
 5088TIP3   OH215220   4.356   2.890   2.945
 5088TIP3    H115221   4.324   2.926   2.862
 5088TIP3    H215222   4.294   2.819   2.966
 5089TIP3   OH215223   1.654   6.156   2.602
 5089TIP3    H115224   1.603   6.079   2.627
 5089TIP3    H215225   1.594   6.229   2.611
 5090TIP3   OH215226   6.156   3.493   0.471
 5090TIP3    H115227   6.185   3.551   0.401
 5090TIP3    H215228   6.237   3.456   0.506
 5091TIP3   OH215229   0.586   3.238   3.628
 5091TIP3    H115230   0.653   3.241   3.696
 5091TIP3    H215231   0.515   3.293   3.662
 5092TIP3   OH215232   3.567   2.309   5.874
 5092TIP3    H115233   3.577   2.214   5.872
 5092TIP3    H215234   3.644   2.342   5.829
 5093TIP3   OH215235   7.334   4.955   0.286
 5093TIP3    H115236   7.376   4.994   0.362
 5093TIP3    H215237   7.404   4.905   0.243
 5094TIP3   OH215238   2.801   5.326   5.567
 5094TIP3    H115239   2.886   5.282   5.568
 5094TIP3    H215240   2.773   5.322   5.476
 5095TIP3   OH215241   0.351   3.275   4.820
 5095TIP3    H115242   0.301   3.203   4.781
 5095TIP3    H215243   0.290   3.315   4.883
 5096TIP3   OH215244   6.672   2.249   0.598
 5096TIP3    H115245   6.715   2.319   0.550
 5096TIP3    H215246   6.595   2.228   0.546
 5097TIP3   OH215247   7.923   4.085   2.087
 5097TIP3    H115248   8.009   4.076   2.128
 5097TIP3    H215249   7.871   4.014   2.125
 5098TIP3   OH215250   5.124   0.246   6.588
 5098TIP3    H115251   5.035   0.280   6.600
 5098TIP3    H215252   5.114   0.175   6.524
 5099TIP3   OH215253   5.552   1.873   0.930
 5099TIP3    H115254   5.517   1.962   0.925
 5099TIP3    H215255   5.545   1.839   0.841
 5100TIP3   OH215256   2.368   6.255   1.583
 5100TIP3    H115257   2.318   6.330   1.549
 5100TIP3    H215258   2.436   6.294   1.638
 5101TIP3   OH215259   2.642   6.995   1.476
 5101TIP3    H115260   2.633   6.957   1.389
 5101TIP3    H215261   2.692   6.931   1.526
 5102TIP3   OH215262   1.857   0.218   4.591
 5102TIP3    H115263   1.883   0.221   4.499
 5102TIP3    H215264   1.923   0.269   4.637
 5103TIP3   OH215265   4.183   0.755   5.707
 5103TIP3    H115266   4.264   0.731   5.752
 5103TIP3    H215267   4.208   0.830   5.653
 5104TIP3   OH215268   5.839   4.492   0.837
 5104TIP3    H115269   5.934   4.478   0.848
 5104TIP3    H215270   5.823   4.579   0.873
 5105TIP3   OH215271   0.314   0.029   4.856
 5105TIP3    H115272   0.291   0.114   4.820
 5105TIP3    H215273   0.380   0.048   4.923
 5106TIP3   OH215274   5.090   3.421   5.059
 5106TIP3    H115275   5.014   3.477   5.045
 5106TIP3    H215276   5.138   3.423   4.976
 5107TIP3   OH215277   1.377   5.368  -0.009
 5107TIP3    H115278   1.390   5.300   0.057
 5107TIP3    H215279   1.444   5.434   0.011
 5108TIP3   OH215280   7.254   0.188   1.609
 5108TIP3    H115281   7.237   0.248   1.536
 5108TIP3    H215282   7.328   0.135   1.579
 5109TIP3   OH215283   2.282   4.266   5.831
 5109TIP3    H115284   2.199   4.312   5.825
 5109TIP3    H215285   2.265   4.192   5.889
 5110TIP3   OH215286   3.312   7.372   2.611
 5110TIP3    H115287   3.279   7.457   2.583
 5110TIP3    H215288   3.241   7.336   2.666
 5111TIP3   OH215289   4.782   7.266   0.835
 5111TIP3    H115290   4.711   7.274   0.900
 5111TIP3    H215291   4.738   7.240   0.754
 5112TIP3   OH215292   3.221   0.144   3.924
 5112TIP3    H115293   3.229   0.052   3.899
 5112TIP3    H215294   3.310   0.169   3.949
 5113TIP3   OH215295   6.303   4.192   0.513
 5113TIP3    H115296   6.253   4.121   0.474
 5113TIP3    H215297   6.239   4.261   0.528
 5114TIP3   OH215298   5.890   5.707   4.149
 5114TIP3    H115299   5.875   5.797   4.119
 5114TIP3    H215300   5.942   5.666   4.080
 5115TIP3   OH215301   4.933   2.315   0.410
 5115TIP3    H115302   4.981   2.357   0.481
 5115TIP3    H215303   4.843   2.346   0.421
 5116TIP3   OH215304   0.586   6.457   2.948
 5116TIP3    H115305   0.581   6.532   2.889
 5116TIP3    H215306   0.547   6.487   3.030
 5117TIP3   OH215307   3.501   4.290   6.412
 5117TIP3    H115308   3.440   4.360   6.390
 5117TIP3    H215309   3.464   4.249   6.490
 5118TIP3   OH215310   6.265   5.608   0.485
 5118TIP3    H115311   6.280   5.676   0.550
 5118TIP3    H215312   6.283   5.649   0.401
 5119TIP3   OH215313   0.206   3.661   2.268
 5119TIP3    H115314   0.274   3.600   2.242
 5119TIP3    H215315   0.134   3.606   2.299
 5120TIP3   OH215316   0.098   7.277   3.839
 5120TIP3    H115317   0.189   7.291   3.814
 5120TIP3    H215318   0.085   7.332   3.916
 5121TIP3   OH215319   4.146   0.423   2.395
 5121TIP3    H115320   4.067   0.451   2.349
 5121TIP3    H215321   4.139   0.327   2.398
 5122TIP3   OH215322   0.973   0.590   3.395
 5122TIP3    H115323   0.946   0.532   3.325
 5122TIP3    H215324   1.026   0.535   3.453
 5123TIP3   OH215325   1.347   2.631   4.727
 5123TIP3    H115326   1.282   2.575   4.770
 5123TIP3    H215327   1.422   2.631   4.787
 5124TIP3   OH215328   7.512   0.721   4.130
 5124TIP3    H115329   7.567   0.704   4.053
 5124TIP3    H215330   7.441   0.658   4.123
 5125TIP3   OH215331   6.783   6.169   1.146
 5125TIP3    H115332   6.827   6.221   1.078
 5125TIP3    H215333   6.690   6.185   1.132
 5126TIP3   OH215334   0.562   1.087   4.335
 5126TIP3    H115335   0.534   1.140   4.261
 5126TIP3    H215336   0.533   0.998   4.314
 5127TIP3   OH215337   6.603   1.702   1.387
 5127TIP3    H115338   6.597   1.792   1.356
 5127TIP3    H215339   6.690   1.697   1.428
 5128TIP3   OH215340   2.473   2.604   5.722
 5128TIP3    H115341   2.391   2.578   5.681
 5128TIP3    H215342   2.521   2.650   5.654
 5129TIP3   OH215343   2.841   5.725   5.654
 5129TIP3    H115344   2.774   5.660   5.673
 5129TIP3    H215345   2.808   5.774   5.578
 5130TIP3   OH215346   3.183   5.945   3.497
 5130TIP3    H115347   3.141   5.861   3.519
 5130TIP3    H215348   3.235   5.967   3.574
 5131TIP3   OH215349   1.067   3.044   0.885
 5131TIP3    H115350   0.982   3.066   0.847
 5131TIP3    H215351   1.130   3.093   0.833
 5132TIP3   OH215352   4.030   1.587   6.716
 5132TIP3    H115353   4.060   1.547   6.634
 5132TIP3    H215354   4.009   1.514   6.773
 5133TIP3   OH215355   4.984   4.660   2.210
 5133TIP3    H115356   4.993   4.635   2.302
 5133TIP3    H215357   5.062   4.625   2.167
 5134TIP3   OH215358   0.062   6.254   1.207
 5134TIP3    H115359   0.020   6.254   1.293
 5134TIP3    H215360   0.111   6.172   1.204
 5135TIP3   OH215361   4.063   6.391   4.908
 5135TIP3    H115362   3.983   6.409   4.958
 5135TIP3    H215363   4.071   6.296   4.910
 5136TIP3   OH215364   2.773   1.158   0.134
 5136TIP3    H115365   2.832   1.204   0.074
 5136TIP3    H215366   2.735   1.088   0.082
 5137TIP3   OH215367   1.496   5.159   2.731
 5137TIP3    H115368   1.552   5.082   2.743
 5137TIP3    H215369   1.417   5.139   2.782
 5138TIP3   OH215370   6.990   6.965   6.016
 5138TIP3    H115371   6.906   6.936   6.049
 5138TIP3    H215372   7.021   6.893   5.961
 5139TIP3   OH215373   6.075   6.342   4.200
 5139TIP3    H115374   6.110   6.316   4.285
 5139TIP3    H215375   5.980   6.336   4.211
 5140TIP3   OH215376   8.281   1.385   4.324
 5140TIP3    H115377   8.345   1.434   4.374
 5140TIP3    H215378   8.234   1.450   4.273
 5141TIP3   OH215379   5.310   4.419   4.777
 5141TIP3    H115380   5.372   4.475   4.824
 5141TIP3    H215381   5.244   4.396   4.842
 5142TIP3   OH215382   4.278   1.563   3.933
 5142TIP3    H115383   4.204   1.620   3.953
 5142TIP3    H215384   4.314   1.598   3.851
 5143TIP3   OH215385   7.595   7.025   0.609
 5143TIP3    H115386   7.631   7.112   0.621
 5143TIP3    H215387   7.615   6.979   0.690
 5144TIP3   OH215388   5.437   7.334   2.639
 5144TIP3    H115389   5.457   7.345   2.732
 5144TIP3    H215390   5.500   7.391   2.594
 5145TIP3   OH215391   5.139   3.216   5.458
 5145TIP3    H115392   5.101   3.294   5.419
 5145TIP3    H215393   5.126   3.226   5.552
 5146TIP3   OH215394   5.430   5.895   6.667
 5146TIP3    H115395   5.487   5.905   6.591
 5146TIP3    H215396   5.408   5.801   6.668
 5147TIP3   OH215397   2.609   4.385   6.071
 5147TIP3    H115398   2.543   4.376   6.002
 5147TIP3    H215399   2.691   4.403   6.025
 5148TIP3   OH215400   1.554   3.158   0.410
 5148TIP3    H115401   1.469   3.201   0.415
 5148TIP3    H215402   1.552   3.093   0.480
 5149TIP3   OH215403   4.746   5.869   2.350
 5149TIP3    H115404   4.821   5.816   2.379
 5149TIP3    H215405   4.786   5.949   2.315
 5150TIP3   OH215406   4.255   7.640   0.664
 5150TIP3    H115407   4.173   7.685   0.645
 5150TIP3    H215408   4.315   7.670   0.596
 5151TIP3   OH215409   5.680   6.707   3.752
 5151TIP3    H115410   5.724   6.700   3.837
 5151TIP3    H215411   5.698   6.797   3.723
 5152TIP3   OH215412   3.130   1.761   6.638
 5152TIP3    H115413   3.190   1.836   6.638
 5152TIP3    H215414   3.161   1.706   6.710
 5153TIP3   OH215415   2.427   5.067   3.886
 5153TIP3    H115416   2.487   5.139   3.906
 5153TIP3    H215417   2.366   5.104   3.823
 5154TIP3   OH215418   2.581   0.208   2.298
 5154TIP3    H115419   2.553   0.299   2.286
 5154TIP3    H215420   2.652   0.196   2.235
 5155TIP3   OH215421   4.576   4.782   6.514
 5155TIP3    H115422   4.610   4.805   6.600
 5155TIP3    H215423   4.481   4.783   6.524
 5156TIP3   OH215424   3.177   0.752   1.485
 5156TIP3    H115425   3.230   0.738   1.407
 5156TIP3    H215426   3.107   0.687   1.479
 5157TIP3   OH215427   5.405   3.717   3.681
 5157TIP3    H115428   5.310   3.719   3.673
 5157TIP3    H215429   5.426   3.624   3.691
 5158TIP3   OH215430   7.134   2.267   4.507
 5158TIP3    H115431   7.145   2.360   4.486
 5158TIP3    H215432   7.114   2.226   4.423
 5159TIP3   OH215433   4.145   2.074   4.369
 5159TIP3    H115434   4.173   2.013   4.301
 5159TIP3    H215435   4.084   2.024   4.423
 5160TIP3   OH215436   0.025   1.694   0.640
 5160TIP3    H115437   0.039   1.707   0.546
 5160TIP3    H215438   0.001   1.781   0.673
 5161TIP3   OH215439   3.357   4.184   0.232
 5161TIP3    H115440   3.398   4.206   0.148
 5161TIP3    H215441   3.422   4.129   0.276
 5162TIP3   OH215442   1.787   4.897   0.558
 5162TIP3    H115443   1.816   4.934   0.642
 5162TIP3    H215444   1.691   4.899   0.563
 5163TIP3   OH215445   0.857   4.721   1.699
 5163TIP3    H115446   0.765   4.746   1.706
 5163TIP3    H215447   0.899   4.795   1.657
 5164TIP3   OH215448   5.494   0.207   3.028
 5164TIP3    H115449   5.578   0.201   2.982
 5164TIP3    H215450   5.511   0.265   3.102
 5165TIP3   OH215451   0.789   1.597   6.606
 5165TIP3    H115452   0.748   1.524   6.652
 5165TIP3    H215453   0.759   1.588   6.515
 5166TIP3   OH215454   2.076   7.358   3.239
 5166TIP3    H115455   2.093   7.328   3.150
 5166TIP3    H215456   2.115   7.445   3.243
 5167TIP3   OH215457   4.382   0.011   2.840
 5167TIP3    H115458   4.301   0.014   2.892
 5167TIP3    H215459   4.373   0.083   2.778
 5168TIP3   OH215460   1.807   6.428   3.278
 5168TIP3    H115461   1.880   6.477   3.317
 5168TIP3    H215462   1.729   6.470   3.312
 5169TIP3   OH215463   1.193   1.666   6.658
 5169TIP3    H115464   1.183   1.746   6.605
 5169TIP3    H215465   1.267   1.685   6.715
 5170TIP3   OH215466   2.224   0.986   5.362
 5170TIP3    H115467   2.247   0.907   5.314
 5170TIP3    H215468   2.158   0.957   5.425
 5171TIP3   OH215469   8.132   0.919   4.333
 5171TIP3    H115470   8.160   0.839   4.290
 5171TIP3    H215471   8.150   0.989   4.269
 5172TIP3   OH215472   3.507   0.879   3.934
 5172TIP3    H115473   3.596   0.915   3.938
 5172TIP3    H215474   3.499   0.826   4.013
 5173TIP3   OH215475   1.828   4.809   6.508
 5173TIP3    H115476   1.843   4.877   6.573
 5173TIP3    H215477   1.739   4.777   6.527
 5174TIP3   OH215478   4.850   6.287   5.291
 5174TIP3    H115479   4.906   6.348   5.242
 5174TIP3    H215480   4.908   6.214   5.313
 5175TIP3   OH215481   7.574   6.602   5.645
 5175TIP3    H115482   7.652   6.556   5.675
 5175TIP3    H215483   7.545   6.652   5.721
 5176TIP3   OH215484   7.755   3.129   5.511
 5176TIP3    H115485   7.772   3.035   5.511
 5176TIP3    H215486   7.677   3.139   5.456
 5177TIP3   OH215487   1.649   3.710   6.081
 5177TIP3    H115488   1.717   3.731   6.145
 5177TIP3    H215489   1.675   3.626   6.044
 5178TIP3   OH215490   5.922   0.582   5.439
 5178TIP3    H115491   5.871   0.661   5.418
 5178TIP3    H215492   5.944   0.545   5.353
 5179TIP3   OH215493   3.318   4.362   2.312
 5179TIP3    H115494   3.345   4.360   2.404
 5179TIP3    H215495   3.379   4.301   2.268
 5180TIP3   OH215496   0.209   2.589   3.137
 5180TIP3    H115497   0.202   2.643   3.216
 5180TIP3    H215498   0.212   2.499   3.169
 5181TIP3   OH215499   4.317   3.753   3.688
 5181TIP3    H115500   4.229   3.718   3.678
 5181TIP3    H215501   4.374   3.685   3.652
 5182TIP3   OH215502   7.211   4.115   1.565
 5182TIP3    H115503   7.287   4.122   1.622
 5182TIP3    H215504   7.247   4.102   1.478
 5183TIP3   OH215505   1.734   5.837   0.154
 5183TIP3    H115506   1.642   5.849   0.175
 5183TIP3    H215507   1.736   5.824   0.059
 5184TIP3   OH215508   7.370   1.196   3.340
 5184TIP3    H115509   7.385   1.163   3.251
 5184TIP3    H215510   7.378   1.291   3.333
 5185TIP3   OH215511   4.784   0.471   1.266
 5185TIP3    H115512   4.758   0.426   1.186
 5185TIP3    H215513   4.712   0.531   1.285
 5186TIP3   OH215514   4.953   3.215   3.386
 5186TIP3    H115515   4.996   3.204   3.301
 5186TIP3    H215516   4.860   3.205   3.367
 5187TIP3   OH215517   0.184   2.638   0.590
 5187TIP3    H115518   0.149   2.607   0.507
 5187TIP3    H215519   0.249   2.572   0.614
 5188TIP3   OH215520   0.687   6.148   6.450
 5188TIP3    H115521   0.730   6.062   6.449
 5188TIP3    H215522   0.703   6.183   6.537
 5189TIP3   OH215523   0.156   1.902   2.910
 5189TIP3    H115524   0.085   1.931   2.852
 5189TIP3    H215525   0.191   1.983   2.948
 5190TIP3   OH215526   1.166   4.991   5.293
 5190TIP3    H115527   1.241   5.049   5.282
 5190TIP3    H215528   1.193   4.910   5.249
 5191TIP3   OH215529   1.378   1.064   4.461
 5191TIP3    H115530   1.389   0.995   4.527
 5191TIP3    H215531   1.467   1.093   4.441
 5192TIP3   OH215532   7.029   5.935   2.294
 5192TIP3    H115533   7.057   6.011   2.344
 5192TIP3    H215534   6.975   5.972   2.223
 5193TIP3   OH215535   8.102   5.718   2.207
 5193TIP3    H115536   8.064   5.679   2.128
 5193TIP3    H215537   8.195   5.728   2.186
 5194TIP3   OH215538   6.971   2.302   5.628
 5194TIP3    H115539   6.962   2.209   5.647
 5194TIP3    H215540   7.048   2.330   5.678
 5195TIP3   OH215541   4.659   2.400   0.418
 5195TIP3    H115542   4.619   2.318   0.447
 5195TIP3    H215543   4.632   2.464   0.483
 5196TIP3   OH215544   3.313   6.090   4.331
 5196TIP3    H115545   3.244   6.024   4.340
 5196TIP3    H215546   3.335   6.113   4.421
 5197TIP3   OH215547   6.445   5.091   0.200
 5197TIP3    H115548   6.482   5.154   0.137
 5197TIP3    H215549   6.512   5.023   0.208
 5198TIP3   OH215550   0.498   4.994   1.815
 5198TIP3    H115551   0.524   4.917   1.764
 5198TIP3    H215552   0.439   5.042   1.757
 5199TIP3   OH215553   4.839   0.894   2.125
 5199TIP3    H115554   4.764   0.920   2.071
 5199TIP3    H215555   4.856   0.803   2.099
 5200TIP3   OH215556   0.767   1.307   6.706
 5200TIP3    H115557   0.700   1.256   6.752
 5200TIP3    H215558   0.736   1.312   6.616
 5201TIP3   OH215559   2.220   3.748   6.613
 5201TIP3    H115560   2.244   3.840   6.629
 5201TIP3    H215561   2.249   3.731   6.523
 5202TIP3   OH215562   6.550   1.565   6.269
 5202TIP3    H115563   6.475   1.611   6.308
 5202TIP3    H215564   6.613   1.557   6.341
 5203TIP3   OH215565   3.285   1.865   6.129
 5203TIP3    H115566   3.305   1.776   6.160
 5203TIP3    H215567   3.253   1.911   6.206
 5204TIP3   OH215568   3.843   1.375   4.425
 5204TIP3    H115569   3.865   1.368   4.332
 5204TIP3    H215570   3.773   1.440   4.429
 5205TIP3   OH215571   7.510   7.524   3.762
 5205TIP3    H115572   7.517   7.609   3.717
 5205TIP3    H215573   7.531   7.460   3.694
 5206TIP3   OH215574   7.667   5.185   3.483
 5206TIP3    H115575   7.710   5.256   3.531
 5206TIP3    H215576   7.642   5.122   3.550
 5207TIP3   OH215577   4.751   7.428   2.696
 5207TIP3    H115578   4.806   7.350   2.710
 5207TIP3    H215579   4.718   7.417   2.607
 5208TIP3   OH215580   3.986   2.621   5.399
 5208TIP3    H115581   3.950   2.597   5.313
 5208TIP3    H215582   3.978   2.541   5.451
 5209TIP3   OH215583   2.780   6.863   6.589
 5209TIP3    H115584   2.823   6.916   6.522
 5209TIP3    H215585   2.787   6.915   6.669
 5210TIP3   OH215586   0.030   4.164   2.987
 5210TIP3    H115587   0.111   4.131   2.947
 5210TIP3    H215588   0.060   4.233   3.047
 5211TIP3   OH215589   4.462   6.245   0.065
 5211TIP3    H115590   4.548   6.285   0.081
 5211TIP3    H215591   4.450   6.185   0.139
 5212TIP3   OH215592   4.695   3.796   2.400
 5212TIP3    H115593   4.781   3.837   2.388
 5212TIP3    H215594   4.662   3.833   2.482
 5213TIP3   OH215595   1.986   7.579   3.517
 5213TIP3    H115596   2.021   7.519   3.452
 5213TIP3    H215597   1.927   7.526   3.570
 5214TIP3   OH215598   4.748   1.687   0.135
 5214TIP3    H115599   4.723   1.616   0.076
 5214TIP3    H215600   4.816   1.734   0.089
 5215TIP3   OH215601   4.022   3.235   6.127
 5215TIP3    H115602   4.049   3.293   6.199
 5215TIP3    H215603   4.011   3.293   6.052
 5216TIP3   OH215604   7.782   3.043   3.551
 5216TIP3    H115605   7.751   2.953   3.558
 5216TIP3    H215606   7.829   3.047   3.468
 5217TIP3   OH215607   7.906   6.653   0.029
 5217TIP3    H115608   7.840   6.652   0.098
 5217TIP3    H215609   7.920   6.746   0.011
 5218TIP3   OH215610   8.026   6.465   5.087
 5218TIP3    H115611   7.970   6.543   5.088
 5218TIP3    H215612   7.968   6.394   5.061
 5219TIP3   OH215613   1.607   4.962   0.983
 5219TIP3    H115614   1.569   4.941   0.898
 5219TIP3    H215615   1.617   4.877   1.026
 5220TIP3   OH215616   4.398   0.222   4.591
 5220TIP3    H115617   4.394   0.128   4.570
 5220TIP3    H215618   4.467   0.229   4.657
 5221TIP3   OH215619   5.218   0.920   5.999
 5221TIP3    H115620   5.305   0.882   5.985
 5221TIP3    H215621   5.235   1.003   6.043
 5222TIP3   OH215622   5.218   2.308   2.984
 5222TIP3    H115623   5.170   2.231   2.953
 5222TIP3    H215624   5.153   2.358   3.034
 5223TIP3   OH215625   5.289   3.132   3.294
 5223TIP3    H115626   5.255   3.086   3.370
 5223TIP3    H215627   5.383   3.118   3.297
 5224TIP3   OH215628   0.922   7.188   6.317
 5224TIP3    H115629   0.947   7.269   6.361
 5224TIP3    H215630   0.849   7.154   6.368
 5225TIP3   OH215631   4.522   2.207   3.390
 5225TIP3    H115632   4.456   2.268   3.359
 5225TIP3    H215633   4.505   2.198   3.483
 5226TIP3   OH215634   1.955   0.677   2.452
 5226TIP3    H115635   1.912   0.652   2.533
 5226TIP3    H215636   1.902   0.747   2.416
 5227TIP3   OH215637   7.162   2.400   4.122
 5227TIP3    H115638   7.148   2.453   4.200
 5227TIP3    H215639   7.129   2.454   4.050
 5228TIP3   OH215640   7.555   2.881   2.905
 5228TIP3    H115641   7.487   2.937   2.867
 5228TIP3    H215642   7.622   2.942   2.937
 5229TIP3   OH215643   1.392   3.882   4.108
 5229TIP3    H115644   1.402   3.815   4.175
 5229TIP3    H215645   1.319   3.936   4.138
 5230TIP3   OH215646   3.075   6.595   4.936
 5230TIP3    H115647   3.029   6.532   4.992
 5230TIP3    H215648   3.071   6.556   4.848
 5231TIP3   OH215649   6.495   0.155   3.694
 5231TIP3    H115650   6.539   0.075   3.725
 5231TIP3    H215651   6.548   0.184   3.620
 5232TIP3   OH215652   0.807   2.860   2.156
 5232TIP3    H115653   0.830   2.905   2.238
 5232TIP3    H215654   0.818   2.926   2.088
 5233TIP3   OH215655   2.565   6.019   1.778
 5233TIP3    H115656   2.472   6.041   1.783
 5233TIP3    H215657   2.588   6.036   1.686
 5234TIP3   OH215658   5.013   2.138   1.563
 5234TIP3    H115659   5.082   2.110   1.624
 5234TIP3    H215660   5.009   2.068   1.498
 5235TIP3   OH215661   6.672   7.026   4.063
 5235TIP3    H115662   6.643   6.978   4.140
 5235TIP3    H215663   6.602   7.014   3.999
 5236TIP3   OH215664   3.621   6.626   2.078
 5236TIP3    H115665   3.562   6.583   2.016
 5236TIP3    H215666   3.566   6.650   2.152
 5237TIP3   OH215667   3.323   3.727   6.207
 5237TIP3    H115668   3.402   3.693   6.250
 5237TIP3    H215669   3.275   3.649   6.180
 5238TIP3   OH215670   4.958   7.361   3.625
 5238TIP3    H115671   4.995   7.310   3.697
 5238TIP3    H215672   4.900   7.299   3.580
 5239TIP3   OH215673   4.015   2.176   0.610
 5239TIP3    H115674   3.933   2.195   0.564
 5239TIP3    H215675   3.999   2.092   0.654
 5240TIP3   OH215676   6.123   0.677   0.619
 5240TIP3    H115677   6.079   0.753   0.582
 5240TIP3    H215678   6.162   0.709   0.700
 5241TIP3   OH215679   7.925   5.270   6.433
 5241TIP3    H115680   7.857   5.311   6.486
 5241TIP3    H215681   7.982   5.342   6.407
 5242TIP3   OH215682   5.835   6.217   2.015
 5242TIP3    H115683   5.753   6.266   2.015
 5242TIP3    H215684   5.814   6.137   2.063
 5243TIP3   OH215685   1.766   1.492   6.677
 5243TIP3    H115686   1.754   1.406   6.638
 5243TIP3    H215687   1.691   1.543   6.646
 5244TIP3   OH215688   3.334   6.735   5.205
 5244TIP3    H115689   3.388   6.803   5.246
 5244TIP3    H215690   3.289   6.780   5.133
 5245TIP3   OH215691   2.023   3.441   3.470
 5245TIP3    H115692   1.969   3.443   3.391
 5245TIP3    H215693   1.989   3.368   3.521
 5246TIP3   OH215694   0.281   4.106   3.863
 5246TIP3    H115695   0.319   4.194   3.868
 5246TIP3    H215696   0.197   4.114   3.909
 5247TIP3   OH215697   3.597   6.565   4.129
 5247TIP3    H115698   3.623   6.602   4.044
 5247TIP3    H215699   3.645   6.482   4.135
 5248TIP3   OH215700   2.745   2.084   5.218
 5248TIP3    H115701   2.821   2.141   5.204
 5248TIP3    H215702   2.694   2.092   5.138
 5249TIP3   OH215703   2.769   4.549   2.944
 5249TIP3    H115704   2.799   4.469   2.988
 5249TIP3    H215705   2.816   4.620   2.988
 5250TIP3   OH215706   1.773   4.041   5.162
 5250TIP3    H115707   1.869   4.046   5.163
 5250TIP3    H215708   1.753   3.964   5.216
 5251TIP3   OH215709   2.059   1.207   3.310
 5251TIP3    H115710   1.969   1.177   3.326
 5251TIP3    H215711   2.094   1.226   3.397
 5252TIP3   OH215712   3.843   4.339   3.816
 5252TIP3    H115713   3.797   4.336   3.733
 5252TIP3    H215714   3.917   4.279   3.805
 5253TIP3   OH215715   1.346   0.261   0.382
 5253TIP3    H115716   1.338   0.315   0.303
 5253TIP3    H215717   1.300   0.180   0.361
 5254TIP3   OH215718   5.279   5.125   5.587
 5254TIP3    H115719   5.248   5.035   5.582
 5254TIP3    H215720   5.321   5.142   5.503
 5255TIP3   OH215721   5.700   1.738   2.199
 5255TIP3    H115722   5.652   1.725   2.117
 5255TIP3    H215723   5.782   1.689   2.186
 5256TIP3   OH215724   2.931   4.910   3.286
 5256TIP3    H115725   2.856   4.887   3.341
 5256TIP3    H215726   3.003   4.921   3.348
 5257TIP3   OH215727   5.100   7.047   2.327
 5257TIP3    H115728   5.107   6.960   2.288
 5257TIP3    H215729   5.014   7.079   2.300
 5258TIP3   OH215730   1.547   0.686   5.365
 5258TIP3    H115731   1.560   0.603   5.318
 5258TIP3    H215732   1.501   0.742   5.302
 5259TIP3   OH215733   7.506   3.942   0.256
 5259TIP3    H115734   7.543   3.951   0.168
 5259TIP3    H215735   7.419   3.906   0.241
 5260TIP3   OH215736   7.082   0.547   3.908
 5260TIP3    H115737   7.043   0.466   3.874
 5260TIP3    H215738   7.172   0.523   3.931
 5261TIP3   OH215739   3.121   6.521   2.086
 5261TIP3    H115740   3.072   6.591   2.128
 5261TIP3    H215741   3.065   6.492   2.014
 5262TIP3   OH215742   8.196   0.684   1.159
 5262TIP3    H115743   8.263   0.729   1.107
 5262TIP3    H215744   8.113   0.712   1.121
 5263TIP3   OH215745   4.409   7.521   0.291
 5263TIP3    H115746   4.453   7.530   0.376
 5263TIP3    H215747   4.477   7.488   0.232
 5264TIP3   OH215748   4.731   0.912   5.679
 5264TIP3    H115749   4.666   0.982   5.674
 5264TIP3    H215750   4.808   0.954   5.718
 5265TIP3   OH215751   1.736   1.996   5.075
 5265TIP3    H115752   1.703   1.943   5.148
 5265TIP3    H215753   1.690   1.962   4.998
 5266TIP3   OH215754   4.778   6.418   2.476
 5266TIP3    H115755   4.780   6.396   2.383
 5266TIP3    H215756   4.837   6.493   2.485
 5267TIP3   OH215757   5.161   2.080   3.335
 5267TIP3    H115758   5.122   2.164   3.362
 5267TIP3    H215759   5.203   2.047   3.414
 5268TIP3   OH215760   6.109   2.251   5.453
 5268TIP3    H115761   6.024   2.270   5.493
 5268TIP3    H215762   6.113   2.156   5.448
 5269TIP3   OH215763   4.490   5.974   4.500
 5269TIP3    H115764   4.449   5.959   4.586
 5269TIP3    H215765   4.489   5.888   4.458
 5270TIP3   OH215766   0.705   4.332   6.499
 5270TIP3    H115767   0.754   4.317   6.418
 5270TIP3    H215768   0.716   4.426   6.517
 5271TIP3   OH215769   7.684   4.855   2.340
 5271TIP3    H115770   7.590   4.862   2.356
 5271TIP3    H215771   7.724   4.913   2.405
 5272TIP3   OH215772   6.719   2.294   0.001
 5272TIP3    H115773   6.624   2.293   0.017
 5272TIP3    H215774   6.752   2.217   0.048
 5273TIP3   OH215775   2.344   6.529   6.046
 5273TIP3    H115776   2.292   6.545   5.967
 5273TIP3    H215777   2.345   6.613   6.092
 5274TIP3   OH215778   0.223   4.514   0.792
 5274TIP3    H115779   0.184   4.597   0.765
 5274TIP3    H215780   0.255   4.530   0.881
 5275TIP3   OH215781   6.757   6.534   2.571
 5275TIP3    H115782   6.723   6.462   2.625
 5275TIP3    H215783   6.682   6.592   2.560
 5276TIP3   OH215784   8.182   2.474   4.519
 5276TIP3    H115785   8.123   2.525   4.463
 5276TIP3    H215786   8.213   2.403   4.463
 5277TIP3   OH215787   6.459   0.242   2.194
 5277TIP3    H115788   6.474   0.226   2.287
 5277TIP3    H215789   6.363   0.247   2.186
 5278TIP3   OH215790   2.085   4.616   2.555
 5278TIP3    H115791   2.121   4.656   2.476
 5278TIP3    H215792   2.162   4.586   2.604
 5279TIP3   OH215793   5.273   0.695   1.803
 5279TIP3    H115794   5.315   0.631   1.745
 5279TIP3    H215795   5.338   0.763   1.815
 5280TIP3   OH215796   4.624   4.895   4.010
 5280TIP3    H115797   4.566   4.971   4.001
 5280TIP3    H215798   4.680   4.899   3.932
 5281TIP3   OH215799   5.040   2.387   5.220
 5281TIP3    H115800   5.116   2.356   5.269
 5281TIP3    H215801   4.998   2.449   5.280
 5282TIP3   OH215802   0.531   7.616   4.279
 5282TIP3    H115803   0.464   7.558   4.315
 5282TIP3    H215804   0.613   7.586   4.319
 5283TIP3   OH215805   6.123   6.557   2.837
 5283TIP3    H115806   6.093   6.489   2.778
 5283TIP3    H215807   6.051   6.568   2.900
 5284TIP3   OH215808   5.347   7.774   1.521
 5284TIP3    H115809   5.409   7.793   1.592
 5284TIP3    H215810   5.386   7.817   1.444
 5285TIP3   OH215811   4.598   3.192   3.646
 5285TIP3    H115812   4.532   3.242   3.693
 5285TIP3    H215813   4.671   3.253   3.633
 5286TIP3   OH215814   5.044   1.034   2.404
 5286TIP3    H115815   5.014   1.070   2.321
 5286TIP3    H215816   5.008   1.092   2.471
 5287TIP3   OH215817   2.434   4.384   3.166
 5287TIP3    H115818   2.468   4.422   3.247
 5287TIP3    H215819   2.448   4.452   3.099
 5288TIP3   OH215820   2.594   3.938   6.077
 5288TIP3    H115821   2.630   4.027   6.071
 5288TIP3    H215822   2.660   3.882   6.036
 5289TIP3   OH215823   7.051   0.832   5.471
 5289TIP3    H115824   7.057   0.908   5.414
 5289TIP3    H215825   6.958   0.819   5.486
 5290TIP3   OH215826   4.769   4.801   1.885
 5290TIP3    H115827   4.860   4.782   1.908
 5290TIP3    H215828   4.722   4.719   1.902
 5291TIP3   OH215829   3.731   2.114   0.142
 5291TIP3    H115830   3.812   2.150   0.106
 5291TIP3    H215831   3.676   2.191   0.159
 5292TIP3   OH215832   6.845   0.486   4.592
 5292TIP3    H115833   6.792   0.531   4.658
 5292TIP3    H215834   6.782   0.430   4.546
 5293TIP3   OH215835   0.183   1.665   5.911
 5293TIP3    H115836   0.244   1.689   5.841
 5293TIP3    H215837   0.174   1.570   5.903
 5294TIP3   OH215838   2.743   2.395   4.593
 5294TIP3    H115839   2.654   2.359   4.595
 5294TIP3    H215840   2.800   2.319   4.579
 5295TIP3   OH215841   7.015   1.871   6.645
 5295TIP3    H115842   7.104   1.899   6.664
 5295TIP3    H215843   7.019   1.775   6.648
 5296TIP3   OH215844   4.834   5.270   3.016
 5296TIP3    H115845   4.929   5.271   3.032
 5296TIP3    H215846   4.802   5.197   3.067
 5297TIP3   OH215847   0.186   7.781   6.628
 5297TIP3    H115848   0.110   7.773   6.685
 5297TIP3    H215849   0.204   7.875   6.624
 5298TIP3   OH215850   1.670   1.239   6.572
 5298TIP3    H115851   1.731   1.167   6.554
 5298TIP3    H215852   1.617   1.247   6.493
 5299TIP3   OH215853   7.627   6.072   5.422
 5299TIP3    H115854   7.706   6.105   5.378
 5299TIP3    H215855   7.580   6.150   5.450
 5300TIP3   OH215856   6.076   3.633   5.876
 5300TIP3    H115857   5.983   3.648   5.863
 5300TIP3    H215858   6.080   3.568   5.947
 5301TIP3   OH215859   4.330   5.777   6.096
 5301TIP3    H115860   4.280   5.747   6.172
 5301TIP3    H215861   4.307   5.714   6.027
 5302TIP3   OH215862   0.983   1.661   3.946
 5302TIP3    H115863   0.988   1.741   3.998
 5302TIP3    H215864   0.940   1.689   3.864
 5303TIP3   OH215865   3.876   3.595   5.299
 5303TIP3    H115866   3.884   3.620   5.391
 5303TIP3    H215867   3.896   3.502   5.297
 5304TIP3   OH215868   5.331   6.549   1.928
 5304TIP3    H115869   5.402   6.486   1.918
 5304TIP3    H215870   5.315   6.553   2.022
 5305TIP3   OH215871   0.619   6.966   6.688
 5305TIP3    H115872   0.557   6.989   6.758
 5305TIP3    H215873   0.563   6.943   6.614
 5306TIP3   OH215874   1.195   2.461   6.083
 5306TIP3    H115875   1.167   2.550   6.061
 5306TIP3    H215876   1.124   2.425   6.136
 5307TIP3   OH215877   3.796   4.889   1.665
 5307TIP3    H115878   3.741   4.839   1.606
 5307TIP3    H215879   3.765   4.979   1.657
 5308TIP3   OH215880   7.562   6.740   5.902
 5308TIP3    H115881   7.650   6.739   5.939
 5308TIP3    H215882   7.517   6.812   5.946
 5309TIP3   OH215883   4.976   6.915   6.388
 5309TIP3    H115884   4.998   6.839   6.334
 5309TIP3    H215885   5.056   6.968   6.390
 5310TIP3   OH215886   5.676   3.376   1.341
 5310TIP3    H115887   5.689   3.304   1.279
 5310TIP3    H215888   5.702   3.454   1.292
 5311TIP3   OH215889   2.430   0.024   3.525
 5311TIP3    H115890   2.365  -0.045   3.538
 5311TIP3    H215891   2.397   0.074   3.450
 5312TIP3   OH215892   1.000   3.653   1.271
 5312TIP3    H115893   0.973   3.735   1.230
 5312TIP3    H215894   1.085   3.673   1.310
 5313TIP3   OH215895   0.486   3.546   2.110
 5313TIP3    H115896   0.429   3.550   2.034
 5313TIP3    H215897   0.565   3.594   2.084
 5314TIP3   OH215898   7.811   2.261   4.395
 5314TIP3    H115899   7.749   2.326   4.427
 5314TIP3    H215900   7.885   2.267   4.455
 5315TIP3   OH215901   6.619   0.845   5.794
 5315TIP3    H115902   6.564   0.857   5.716
 5315TIP3    H215903   6.643   0.752   5.792
 5316TIP3   OH215904   7.710   1.521   2.817
 5316TIP3    H115905   7.674   1.472   2.891
 5316TIP3    H215906   7.670   1.481   2.740
 5317TIP3   OH215907   6.443   2.917   5.771
 5317TIP3    H115908   6.453   2.828   5.737
 5317TIP3    H215909   6.494   2.971   5.711
 5318TIP3   OH215910   2.655   4.888   0.511
 5318TIP3    H115911   2.741   4.905   0.473
 5318TIP3    H215912   2.673   4.847   0.596
 5319TIP3   OH215913   6.894   3.778   2.477
 5319TIP3    H115914   6.929   3.785   2.566
 5319TIP3    H215915   6.875   3.869   2.452
 5320TIP3   OH215916   0.785   2.771   0.352
 5320TIP3    H115917   0.876   2.790   0.372
 5320TIP3    H215918   0.786   2.745   0.260
 5321TIP3   OH215919   1.564   3.395   0.098
 5321TIP3    H115920   1.581   3.301   0.103
 5321TIP3    H215921   1.488   3.409   0.155
 5322TIP3   OH215922   6.694   1.676   2.008
 5322TIP3    H115923   6.744   1.733   1.950
 5322TIP3    H215924   6.614   1.657   1.961
 5323TIP3   OH215925   6.522   3.621   0.894
 5323TIP3    H115926   6.600   3.602   0.841
 5323TIP3    H215927   6.470   3.680   0.839
 5324TIP3   OH215928   3.988   0.883   4.287
 5324TIP3    H115929   4.077   0.872   4.320
 5324TIP3    H215930   3.941   0.929   4.357
 5325TIP3   OH215931   2.611   7.267   5.102
 5325TIP3    H115932   2.540   7.206   5.120
 5325TIP3    H215933   2.672   7.255   5.175
 5326TIP3   OH215934   2.827   1.102   4.290
 5326TIP3    H115935   2.749   1.114   4.345
 5326TIP3    H215936   2.873   1.028   4.329
 5327TIP3   OH215937   2.990   6.258   6.733
 5327TIP3    H115938   2.987   6.215   6.819
 5327TIP3    H215939   3.068   6.223   6.691
 5328TIP3   OH215940   7.851   0.215   1.840
 5328TIP3    H115941   7.942   0.237   1.863
 5328TIP3    H215942   7.802   0.295   1.859
 5329TIP3   OH215943   0.161   1.336   2.115
 5329TIP3    H115944   0.159   1.318   2.021
 5329TIP3    H215945   0.154   1.431   2.122
 5330TIP3   OH215946   4.448   0.278   5.172
 5330TIP3    H115947   4.446   0.226   5.252
 5330TIP3    H215948   4.525   0.334   5.181
 5331TIP3   OH215949   2.377   1.928   5.575
 5331TIP3    H115950   2.392   1.903   5.484
 5331TIP3    H215951   2.284   1.911   5.590
 5332TIP3   OH215952   1.713   5.988   4.991
 5332TIP3    H115953   1.664   6.044   4.932
 5332TIP3    H215954   1.685   5.899   4.968
 5333TIP3   OH215955   0.865   7.133   5.135
 5333TIP3    H115956   0.894   7.162   5.049
 5333TIP3    H215957   0.878   7.209   5.192
 5334TIP3   OH215958   6.227   2.951   0.636
 5334TIP3    H115959   6.232   3.037   0.595
 5334TIP3    H215960   6.164   2.963   0.708
 5335TIP3   OH215961   7.124   2.135   6.467
 5335TIP3    H115962   7.200   2.129   6.409
 5335TIP3    H215963   7.153   2.094   6.549
 5336TIP3   OH215964   8.128   5.153   4.243
 5336TIP3    H115965   8.065   5.213   4.204
 5336TIP3    H215966   8.132   5.177   4.335
 5337TIP3   OH215967   7.735   5.691   4.558
 5337TIP3    H115968   7.743   5.765   4.498
 5337TIP3    H215969   7.715   5.616   4.501
 5338TIP3   OH215970   5.456   0.933   2.529
 5338TIP3    H115971   5.393   0.863   2.545
 5338TIP3    H215972   5.504   0.904   2.451
 5339TIP3   OH215973   6.136   1.666   3.653
 5339TIP3    H115974   6.078   1.599   3.617
 5339TIP3    H215975   6.206   1.674   3.589
 5340TIP3   OH215976   8.267   0.214   6.033
 5340TIP3    H115977   8.236   0.301   6.055
 5340TIP3    H215978   8.244   0.160   6.108
 5341TIP3   OH215979   0.352   6.789   2.471
 5341TIP3    H115980   0.271   6.813   2.517
 5341TIP3    H215981   0.421   6.826   2.526
 5342TIP3   OH215982   0.791   0.440   0.596
 5342TIP3    H115983   0.864   0.402   0.645
 5342TIP3    H215984   0.726   0.369   0.590
 5343TIP3   OH215985   4.821   4.861   0.687
 5343TIP3    H115986   4.885   4.801   0.650
 5343TIP3    H215987   4.796   4.918   0.615
 5344TIP3   OH215988   2.599   5.900   2.420
 5344TIP3    H115989   2.554   5.983   2.400
 5344TIP3    H215990   2.675   5.927   2.472
 5345TIP3   OH215991   3.627   4.135   5.560
 5345TIP3    H115992   3.572   4.153   5.484
 5345TIP3    H215993   3.583   4.178   5.633
 5346TIP3   OH215994   4.145   1.171   0.945
 5346TIP3    H115995   4.138   1.245   0.885
 5346TIP3    H215996   4.234   1.177   0.981
 5347TIP3   OH215997   5.552   7.548   3.674
 5347TIP3    H115998   5.530   7.639   3.653
 5347TIP3    H215999   5.469   7.502   3.671
 5348TIP3   OH216000   2.447   5.447   1.807
 5348TIP3    H116001   2.366   5.450   1.857
 5348TIP3    H216002   2.475   5.538   1.801
 5349TIP3   OH216003   4.782   5.828   5.612
 5349TIP3    H116004   4.704   5.773   5.604
 5349TIP3    H216005   4.845   5.790   5.550
 5350TIP3   OH216006   0.030   0.256   5.741
 5350TIP3    H116007   0.041   0.342   5.782
 5350TIP3    H216008  -0.036   0.212   5.795
 5351TIP3   OH216009   2.056   1.292   6.438
 5351TIP3    H116010   2.070   1.380   6.405
 5351TIP3    H216011   2.144   1.260   6.457
 5352TIP3   OH216012   5.250   5.756   5.155
 5352TIP3    H116013   5.193   5.687   5.191
 5352TIP3    H216014   5.190   5.815   5.110
 5353TIP3   OH216015   0.438   1.350   2.676
 5353TIP3    H116016   0.432   1.254   2.670
 5353TIP3    H216017   0.403   1.381   2.593
 5354TIP3   OH216018   3.235   7.403   4.713
 5354TIP3    H116019   3.191   7.363   4.788
 5354TIP3    H216020   3.232   7.497   4.732
 5355TIP3   OH216021   5.348   3.974   5.751
 5355TIP3    H116022   5.387   4.019   5.676
 5355TIP3    H216023   5.309   4.044   5.804
 5356TIP3   OH216024   2.242   7.603   0.336
 5356TIP3    H116025   2.273   7.612   0.246
 5356TIP3    H216026   2.286   7.672   0.384
 5357TIP3   OH216027   0.723   3.772   1.018
 5357TIP3    H116028   0.747   3.681   1.038
 5357TIP3    H216029   0.766   3.790   0.934
 5358TIP3   OH216030   5.179   2.094   0.049
 5358TIP3    H116031   5.149   2.132   0.132
 5358TIP3    H216032   5.264   2.135   0.033
 5359TIP3   OH216033   2.988   2.691   3.213
 5359TIP3    H116034   2.948   2.750   3.277
 5359TIP3    H216035   2.926   2.618   3.206
 5360TIP3   OH216036   1.584   0.434   2.987
 5360TIP3    H116037   1.555   0.457   3.075
 5360TIP3    H216038   1.518   0.372   2.955
 5361TIP3   OH216039   4.019   6.312   0.251
 5361TIP3    H116040   3.924   6.310   0.251
 5361TIP3    H216041   4.041   6.398   0.286
 5362TIP3   OH216042   4.368   7.134   1.876
 5362TIP3    H116043   4.387   7.225   1.855
 5362TIP3    H216044   4.454   7.094   1.886
 5363TIP3   OH216045   3.585   0.218   4.620
 5363TIP3    H116046   3.650   0.161   4.579
 5363TIP3    H216047   3.637   0.289   4.658
 5364TIP3   OH216048   5.713   2.727   0.759
 5364TIP3    H116049   5.731   2.815   0.724
 5364TIP3    H216050   5.675   2.680   0.685
 5365TIP3   OH216051   8.036   6.755   4.662
 5365TIP3    H116052   8.012   6.797   4.744
 5365TIP3    H216053   8.110   6.806   4.629
 5366TIP3   OH216054   2.415   6.777   5.741
 5366TIP3    H116055   2.342   6.723   5.772
 5366TIP3    H216056   2.439   6.739   5.657
 5367TIP3   OH216057   0.236   6.473   6.402
 5367TIP3    H116058   0.324   6.505   6.422
 5367TIP3    H216059   0.187   6.488   6.483
 5368TIP3   OH216060   7.258   4.898   0.576
 5368TIP3    H116061   7.187   4.930   0.520
 5368TIP3    H216062   7.218   4.828   0.628
 5369TIP3   OH216063   2.502   0.557   2.887
 5369TIP3    H116064   2.471   0.478   2.844
 5369TIP3    H216065   2.509   0.533   2.980
 5370TIP3   OH216066   5.276   6.173   3.282
 5370TIP3    H116067   5.252   6.089   3.243
 5370TIP3    H216068   5.361   6.157   3.323
 5371TIP3   OH216069   0.769   5.282   5.411
 5371TIP3    H116070   0.841   5.309   5.467
 5371TIP3    H216071   0.738   5.200   5.449
 5372TIP3   OH216072   2.572   1.624   0.306
 5372TIP3    H116073   2.491   1.642   0.258
 5372TIP3    H216074   2.558   1.537   0.344
 5373TIP3   OH216075   1.776   5.350   2.152
 5373TIP3    H116076   1.767   5.386   2.240
 5373TIP3    H216077   1.813   5.263   2.166
 5374TIP3   OH216078   6.824   4.473   0.686
 5374TIP3    H116079   6.766   4.475   0.610
 5374TIP3    H216080   6.889   4.406   0.666
 5375TIP3   OH216081   4.710   2.724   6.356
 5375TIP3    H116082   4.740   2.653   6.413
 5375TIP3    H216083   4.789   2.751   6.309
 5376TIP3   OH216084   6.679   7.266   5.423
 5376TIP3    H116085   6.671   7.340   5.364
 5376TIP3    H216086   6.755   7.217   5.392
 5377TIP3   OH216087   3.585   2.784   2.005
 5377TIP3    H116088   3.588   2.690   1.993
 5377TIP3    H216089   3.499   2.810   1.972
 5378TIP3   OH216090   7.989   0.369   0.871
 5378TIP3    H116091   8.021   0.318   0.796
 5378TIP3    H216092   8.066   0.381   0.927
 5379TIP3   OH216093   6.178   2.330   1.340
 5379TIP3    H116094   6.232   2.375   1.405
 5379TIP3    H216095   6.100   2.303   1.388
 5380TIP3   OH216096   7.362   6.738   5.221
 5380TIP3    H116097   7.294   6.712   5.158
 5380TIP3    H216098   7.350   6.833   5.230
 5381TIP3   OH216099   1.198   3.916   6.213
 5381TIP3    H116100   1.203   3.963   6.130
 5381TIP3    H216101   1.248   3.836   6.198
 5382TIP3   OH216102   3.315   7.118   3.887
 5382TIP3    H116103   3.332   7.047   3.949
 5382TIP3    H216104   3.361   7.092   3.807
 5383TIP3   OH216105   7.522   4.213   1.219
 5383TIP3    H116106   7.607   4.174   1.240
 5383TIP3    H216107   7.542   4.304   1.198
 5384TIP3   OH216108   6.719   7.235   5.693
 5384TIP3    H116109   6.704   7.246   5.599
 5384TIP3    H216110   6.720   7.324   5.728
 5385TIP3   OH216111   3.092   2.295   5.885
 5385TIP3    H116112   3.096   2.262   5.975
 5385TIP3    H216113   3.171   2.348   5.876
 5386TIP3   OH216114   3.578   3.201   5.491
 5386TIP3    H116115   3.593   3.295   5.500
 5386TIP3    H216116   3.655   3.169   5.444
 5387TIP3   OH216117   7.255   2.612   1.372
 5387TIP3    H116118   7.345   2.593   1.344
 5387TIP3    H216119   7.214   2.654   1.296
 5388TIP3   OH216120   2.216   4.635   1.744
 5388TIP3    H116121   2.280   4.565   1.729
 5388TIP3    H216122   2.191   4.663   1.656
 5389TIP3   OH216123   0.662   3.366   6.070
 5389TIP3    H116124   0.697   3.438   6.017
 5389TIP3    H216125   0.722   3.293   6.054
 5390TIP3   OH216126   1.626   5.109   4.214
 5390TIP3    H116127   1.634   5.142   4.124
 5390TIP3    H216128   1.683   5.167   4.265
 5391TIP3   OH216129   2.329   0.570   1.765
 5391TIP3    H116130   2.276   0.608   1.695
 5391TIP3    H216131   2.364   0.489   1.727
 5392TIP3   OH216132   0.832   1.799   1.363
 5392TIP3    H116133   0.786   1.741   1.304
 5392TIP3    H216134   0.794   1.885   1.348
 5393TIP3   OH216135   6.736   6.687   0.254
 5393TIP3    H116136   6.766   6.615   0.309
 5393TIP3    H216137   6.780   6.674   0.170
 5394TIP3   OH216138   1.566   2.880   6.788
 5394TIP3    H116139   1.655   2.845   6.796
 5394TIP3    H216140   1.570   2.938   6.712
 5395TIP3   OH216141   1.461   7.154   5.284
 5395TIP3    H116142   1.488   7.066   5.313
 5395TIP3    H216143   1.539   7.208   5.298
 5396TIP3   OH216144   1.583   6.538   2.525
 5396TIP3    H116145   1.594   6.575   2.613
 5396TIP3    H216146   1.600   6.611   2.466
 5397TIP3   OH216147   2.563   4.737   1.206
 5397TIP3    H116148   2.509   4.743   1.285
 5397TIP3    H216149   2.625   4.668   1.224
 5398TIP3   OH216150   7.805   0.807   6.508
 5398TIP3    H116151   7.721   0.805   6.553
 5398TIP3    H216152   7.803   0.730   6.451
 5399TIP3   OH216153   7.561   5.867   0.045
 5399TIP3    H116154   7.637   5.828   0.088
 5399TIP3    H216155   7.494   5.871   0.113
 5400TIP3   OH216156   8.192   3.823   1.046
 5400TIP3    H116157   8.240   3.741   1.034
 5400TIP3    H216158   8.256   3.891   1.025
 5401TIP3   OH216159   2.294   3.846   3.849
 5401TIP3    H116160   2.320   3.914   3.787
 5401TIP3    H216161   2.367   3.784   3.849
 5402TIP3   OH216162   5.259   2.031   1.192
 5402TIP3    H116163   5.293   2.028   1.281
 5402TIP3    H216164   5.236   2.123   1.178
 5403TIP3   OH216165   1.439   5.514   3.846
 5403TIP3    H116166   1.479   5.599   3.864
 5403TIP3    H216167   1.345   5.529   3.857
 5404TIP3   OH216168   0.871   0.574   2.459
 5404TIP3    H116169   0.808   0.627   2.411
 5404TIP3    H216170   0.917   0.525   2.391
 5405TIP3   OH216171   4.306   5.887   5.680
 5405TIP3    H116172   4.301   5.961   5.619
 5405TIP3    H216173   4.311   5.810   5.623
 5406TIP3   OH216174   2.108   3.526   6.738
 5406TIP3    H116175   2.151   3.592   6.683
 5406TIP3    H216176   2.179   3.468   6.766
 5407TIP3   OH216177   3.746   0.419   3.907
 5407TIP3    H116178   3.735   0.326   3.926
 5407TIP3    H216179   3.813   0.422   3.839
 5408TIP3   OH216180   0.259   2.731   1.450
 5408TIP3    H116181   0.275   2.688   1.366
 5408TIP3    H216182   0.332   2.792   1.460
 5409TIP3   OH216183   4.745   1.509   2.951
 5409TIP3    H116184   4.717   1.417   2.960
 5409TIP3    H216185   4.748   1.542   3.041
 5410TIP3   OH216186   1.827   4.514   5.451
 5410TIP3    H116187   1.868   4.515   5.537
 5410TIP3    H216188   1.900   4.527   5.390
 5411TIP3   OH216189   8.036   4.708   0.425
 5411TIP3    H116190   8.039   4.756   0.508
 5411TIP3    H216191   8.104   4.748   0.371
 5412TIP3   OH216192   4.810   3.472   4.288
 5412TIP3    H116193   4.867   3.410   4.335
 5412TIP3    H216194   4.733   3.421   4.265
 5413TIP3   OH216195   7.374   5.822   4.461
 5413TIP3    H116196   7.360   5.750   4.523
 5413TIP3    H216197   7.308   5.887   4.485
 5414TIP3   OH216198   3.196   4.690   5.684
 5414TIP3    H116199   3.201   4.722   5.774
 5414TIP3    H216200   3.283   4.655   5.665
 5415TIP3   OH216201   5.558   5.211   1.845
 5415TIP3    H116202   5.590   5.125   1.821
 5415TIP3    H216203   5.481   5.195   1.899
 5416TIP3   OH216204   3.667   4.095   3.946
 5416TIP3    H116205   3.619   4.078   3.865
 5416TIP3    H216206   3.717   4.174   3.928
 5417TIP3   OH216207   1.416   7.736   2.623
 5417TIP3    H116208   1.346   7.753   2.687
 5417TIP3    H216209   1.488   7.700   2.675
 5418TIP3   OH216210   5.041   3.971   3.313
 5418TIP3    H116211   5.115   3.962   3.374
 5418TIP3    H216212   5.031   4.065   3.302
 5419TIP3   OH216213   3.844   1.445   1.617
 5419TIP3    H116214   3.844   1.538   1.593
 5419TIP3    H216215   3.818   1.445   1.709
 5420TIP3   OH216216   6.218   7.232   2.992
 5420TIP3    H116217   6.133   7.275   2.984
 5420TIP3    H216218   6.232   7.225   3.086
 5421TIP3   OH216219   6.939   5.566   1.709
 5421TIP3    H116220   6.880   5.528   1.775
 5421TIP3    H216221   7.009   5.607   1.760
 5422TIP3   OH216222   4.940   5.726   1.181
 5422TIP3    H116223   4.964   5.817   1.201
 5422TIP3    H216224   4.981   5.710   1.096
 5423TIP3   OH216225   1.100   1.155   4.539
 5423TIP3    H116226   1.060   1.152   4.452
 5423TIP3    H216227   1.194   1.143   4.523
 5424TIP3   OH216228   6.720   2.560   1.982
 5424TIP3    H116229   6.687   2.471   1.990
 5424TIP3    H216230   6.677   2.595   1.905
 5425TIP3   OH216231   4.183   0.938   0.605
 5425TIP3    H116232   4.201   0.951   0.698
 5425TIP3    H216233   4.097   0.979   0.591
 5426TIP3   OH216234   4.514   7.390   2.184
 5426TIP3    H116235   4.604   7.422   2.176
 5426TIP3    H216236   4.461   7.456   2.139
 5427TIP3   OH216237   6.916   2.861   1.879
 5427TIP3    H116238   6.879   2.818   1.801
 5427TIP3    H216239   7.010   2.859   1.864
 5428TIP3   OH216240   7.533   5.875   6.296
 5428TIP3    H116241   7.539   5.926   6.377
 5428TIP3    H216242   7.467   5.808   6.314
 5429TIP3   OH216243   5.845   2.514   2.481
 5429TIP3    H116244   5.875   2.552   2.564
 5429TIP3    H216245   5.814   2.427   2.504
 5430TIP3   OH216246   1.882   7.129   2.837
 5430TIP3    H116247   1.797   7.158   2.870
 5430TIP3    H216248   1.876   7.137   2.742
 5431TIP3   OH216249   3.046   6.664   4.271
 5431TIP3    H116250   3.119   6.703   4.320
 5431TIP3    H216251   3.039   6.575   4.305
 5432TIP3   OH216252   7.908   4.386   5.736
 5432TIP3    H116253   7.871   4.325   5.672
 5432TIP3    H216254   7.832   4.422   5.782
 5433TIP3   OH216255   6.877   5.412   2.256
 5433TIP3    H116256   6.950   5.466   2.287
 5433TIP3    H216257   6.804   5.473   2.247
 5434TIP3   OH216258   2.367   6.120   6.033
 5434TIP3    H116259   2.274   6.104   6.014
 5434TIP3    H216260   2.405   6.144   5.949
 5435TIP3   OH216261   3.736   5.152   5.334
 5435TIP3    H116262   3.815   5.119   5.292
 5435TIP3    H216263   3.744   5.126   5.425
 5436TIP3   OH216264   3.281   3.146   1.818
 5436TIP3    H116265   3.191   3.127   1.846
 5436TIP3    H216266   3.300   3.232   1.855
 5437TIP3   OH216267   1.933   4.330   0.222
 5437TIP3    H116268   1.989   4.366   0.291
 5437TIP3    H216269   1.862   4.287   0.269
 5438TIP3   OH216270   6.713   7.236   4.472
 5438TIP3    H116271   6.624   7.259   4.445
 5438TIP3    H216272   6.739   7.306   4.533
 5439TIP3   OH216273   2.486   5.301   6.338
 5439TIP3    H116274   2.410   5.252   6.370
 5439TIP3    H216275   2.530   5.240   6.278
 5440TIP3   OH216276   3.536   3.806   3.601
 5440TIP3    H116277   3.619   3.762   3.582
 5440TIP3    H216278   3.560   3.877   3.661
 5441TIP3   OH216279   2.416   3.500   6.086
 5441TIP3    H116280   2.393   3.585   6.049
 5441TIP3    H216281   2.511   3.496   6.081
 5442TIP3   OH216282   3.302   7.115   2.415
 5442TIP3    H116283   3.231   7.091   2.474
 5442TIP3    H216284   3.262   7.172   2.350
 5443TIP3   OH216285   6.577   4.113   5.821
 5443TIP3    H116286   6.632   4.165   5.763
 5443TIP3    H216287   6.491   4.154   5.817
 5444TIP3   OH216288   1.425   5.629   6.156
 5444TIP3    H116289   1.454   5.572   6.084
 5444TIP3    H216290   1.472   5.597   6.233
 5445TIP3   OH216291   0.842   5.139   3.165
 5445TIP3    H116292   0.872   5.100   3.247
 5445TIP3    H216293   0.749   5.159   3.182
 5446TIP3   OH216294   1.969   1.472   0.939
 5446TIP3    H116295   1.914   1.465   0.861
 5446TIP3    H216296   2.037   1.406   0.926
 5447TIP3   OH216297   5.798   3.365   5.627
 5447TIP3    H116298   5.728   3.329   5.681
 5447TIP3    H216299   5.766   3.450   5.599
 5448TIP3   OH216300   2.590   2.339   5.365
 5448TIP3    H116301   2.574   2.432   5.347
 5448TIP3    H216302   2.636   2.308   5.287
 5449TIP3   OH216303   6.720   0.866   0.613
 5449TIP3    H116304   6.784   0.851   0.683
 5449TIP3    H216305   6.770   0.856   0.533
 5450TIP3   OH216306   7.761   4.904   5.687
 5450TIP3    H116307   7.749   4.893   5.593
 5450TIP3    H216308   7.856   4.904   5.699
 5451TIP3   OH216309   6.919   4.466   5.726
 5451TIP3    H116310   6.976   4.499   5.657
 5451TIP3    H216311   6.901   4.542   5.781
 5452TIP3   OH216312   1.402   1.789   6.448
 5452TIP3    H116313   1.328   1.846   6.426
 5452TIP3    H216314   1.473   1.849   6.470
 5453TIP3   OH216315   6.626   6.664   0.997
 5453TIP3    H116316   6.615   6.700   0.909
 5453TIP3    H216317   6.607   6.571   0.988
 5454TIP3   OH216318   4.940   6.892   5.380
 5454TIP3    H116319   4.889   6.827   5.428
 5454TIP3    H216320   5.004   6.924   5.443
 5455TIP3   OH216321   0.237   2.658   2.337
 5455TIP3    H116322   0.294   2.733   2.352
 5455TIP3    H216323   0.158   2.677   2.388
 5456TIP3   OH216324   8.226   4.128   4.477
 5456TIP3    H116325   8.272   4.115   4.394
 5456TIP3    H216326   8.163   4.056   4.481
 5457TIP3   OH216327   5.732   7.687   4.675
 5457TIP3    H116328   5.774   7.733   4.748
 5457TIP3    H216329   5.645   7.725   4.668
 5458TIP3   OH216330   2.830   4.837   6.055
 5458TIP3    H116331   2.819   4.788   5.973
 5458TIP3    H216332   2.871   4.919   6.028
 5459TIP3   OH216333   3.863   0.788   1.226
 5459TIP3    H116334   3.810   0.866   1.241
 5459TIP3    H216335   3.954   0.817   1.240
 5460TIP3   OH216336   1.356   6.553   6.244
 5460TIP3    H116337   1.425   6.600   6.196
 5460TIP3    H216338   1.400   6.518   6.321
 5461TIP3   OH216339   2.835   4.284   1.366
 5461TIP3    H116340   2.878   4.211   1.322
 5461TIP3    H216341   2.882   4.292   1.450
 5462TIP3   OH216342   4.685   4.171   3.044
 5462TIP3    H116343   4.736   4.165   2.964
 5462TIP3    H216344   4.719   4.102   3.100
 5463TIP3   OH216345   4.868   4.079   3.808
 5463TIP3    H116346   4.890   3.988   3.786
 5463TIP3    H216347   4.873   4.126   3.725
 5464TIP3   OH216348   1.056   1.396   1.304
 5464TIP3    H116349   1.045   1.491   1.298
 5464TIP3    H216350   1.069   1.379   1.398
 5465TIP3   OH216351   7.838   1.067   4.648
 5465TIP3    H116352   7.814   1.036   4.560
 5465TIP3    H216353   7.927   1.036   4.661
 5466TIP3   OH216354   0.687   6.486   4.040
 5466TIP3    H116355   0.624   6.520   4.104
 5466TIP3    H216356   0.676   6.391   4.044
 5467TIP3   OH216357   5.691   5.904   0.171
 5467TIP3    H116358   5.706   5.976   0.110
 5467TIP3    H216359   5.681   5.827   0.115
 5468TIP3   OH216360   2.138   0.193   2.386
 5468TIP3    H116361   2.182   0.276   2.368
 5468TIP3    H216362   2.050   0.203   2.350
 5469TIP3   OH216363   4.037   0.984   5.406
 5469TIP3    H116364   3.952   1.028   5.395
 5469TIP3    H216365   4.065   0.965   5.316
 5470TIP3   OH216366   1.104   2.477   0.585
 5470TIP3    H116367   1.027   2.428   0.614
 5470TIP3    H216368   1.109   2.459   0.491
 5471TIP3   OH216369   4.613   1.773   0.342
 5471TIP3    H116370   4.665   1.750   0.265
 5471TIP3    H216371   4.657   1.849   0.378
 5472TIP3   OH216372   1.145   0.862   6.328
 5472TIP3    H116373   1.227   0.826   6.362
 5472TIP3    H216374   1.080   0.841   6.395
 5473TIP3   OH216375   7.810   6.090   6.580
 5473TIP3    H116376   7.873   6.071   6.649
 5473TIP3    H216377   7.863   6.105   6.502
 5474TIP3   OH216378   6.139   1.884   3.825
 5474TIP3    H116379   6.130   1.833   3.744
 5474TIP3    H216380   6.218   1.937   3.810
 5475TIP3   OH216381   3.136   5.349   4.185
 5475TIP3    H116382   3.103   5.377   4.271
 5475TIP3    H216383   3.151   5.255   4.194
 5476TIP3   OH216384   4.289   1.133   4.763
 5476TIP3    H116385   4.209   1.184   4.772
 5476TIP3    H216386   4.306   1.099   4.851
 5477TIP3   OH216387   2.188   4.364   1.965
 5477TIP3    H116388   2.162   4.272   1.957
 5477TIP3    H216389   2.130   4.400   2.032
 5478TIP3   OH216390   5.764   6.260   4.004
 5478TIP3    H116391   5.694   6.216   3.956
 5478TIP3    H216392   5.798   6.325   3.942
 5479TIP3   OH216393   3.129   4.281   2.963
 5479TIP3    H116394   3.091   4.321   2.885
 5479TIP3    H216395   3.221   4.307   2.961
 5480TIP3   OH216396   2.727   3.569   1.591
 5480TIP3    H116397   2.810   3.602   1.626
 5480TIP3    H216398   2.674   3.551   1.668
 5481TIP3   OH216399   7.147   1.760   1.596
 5481TIP3    H116400   7.230   1.740   1.640
 5481TIP3    H216401   7.124   1.679   1.551
 5482TIP3   OH216402   5.919   2.728   4.508
 5482TIP3    H116403   5.946   2.818   4.529
 5482TIP3    H216404   5.961   2.709   4.424
 5483TIP3   OH216405   2.746   7.187   0.494
 5483TIP3    H116406   2.787   7.240   0.426
 5483TIP3    H216407   2.664   7.157   0.455
 5484TIP3   OH216408   1.483   4.518   0.241
 5484TIP3    H116409   1.473   4.598   0.294
 5484TIP3    H216410   1.495   4.551   0.152
 5485TIP3   OH216411   1.423   6.473   4.414
 5485TIP3    H116412   1.448   6.500   4.503
 5485TIP3    H216413   1.471   6.392   4.399
 5486TIP3   OH216414   4.083   4.136   5.342
 5486TIP3    H116415   4.140   4.075   5.389
 5486TIP3    H216416   4.126   4.221   5.351
 5487TIP3   OH216417   0.876   1.270   5.296
 5487TIP3    H116418   0.825   1.191   5.317
 5487TIP3    H216419   0.836   1.339   5.348
 5488TIP3   OH216420   1.718   7.039   5.153
 5488TIP3    H116421   1.703   6.945   5.163
 5488TIP3    H216422   1.793   7.045   5.094
 5489TIP3   OH216423   0.394   5.880   2.438
 5489TIP3    H116424   0.318   5.828   2.409
 5489TIP3    H216425   0.355   5.957   2.481
 5490TIP3   OH216426   7.438   2.679   6.192
 5490TIP3    H116427   7.383   2.737   6.138
 5490TIP3    H216428   7.487   2.738   6.248
 5491TIP3   OH216429   1.424   5.586   1.420
 5491TIP3    H116430   1.456   5.534   1.347
 5491TIP3    H216431   1.461   5.545   1.498
 5492TIP3   OH216432   1.488   2.578   6.488
 5492TIP3    H116433   1.571   2.529   6.495
 5492TIP3    H216434   1.453   2.578   6.577
 5493TIP3   OH216435   6.811   2.394   4.041
 5493TIP3    H116436   6.825   2.363   4.130
 5493TIP3    H216437   6.802   2.315   3.988
 5494TIP3   OH216438   4.799   3.752   6.267
 5494TIP3    H116439   4.840   3.837   6.253
 5494TIP3    H216440   4.844   3.715   6.343
 5495TIP3   OH216441   2.567   7.449   1.632
 5495TIP3    H116442   2.516   7.476   1.556
 5495TIP3    H216443   2.632   7.389   1.597
 5496TIP3   OH216444   0.649   0.187   0.128
 5496TIP3    H116445   0.601   0.117   0.084
 5496TIP3    H216446   0.618   0.185   0.218
 5497TIP3   OH216447   7.765   4.044   1.310
 5497TIP3    H116448   7.814   3.976   1.265
 5497TIP3    H216449   7.728   4.001   1.387
 5498TIP3   OH216450   1.380   6.349   5.542
 5498TIP3    H116451   1.305   6.407   5.555
 5498TIP3    H216452   1.343   6.261   5.539
 5499TIP3   OH216453   0.718   1.690   5.248
 5499TIP3    H116454   0.652   1.718   5.184
 5499TIP3    H216455   0.790   1.658   5.195
 5500TIP3   OH216456   1.001   4.314   5.988
 5500TIP3    H116457   0.905   4.316   5.992
 5500TIP3    H216458   1.022   4.365   5.910
 5501TIP3   OH216459   7.249   0.164   5.863
 5501TIP3    H116460   7.191   0.240   5.863
 5501TIP3    H216461   7.247   0.131   5.953
 5502TIP3   OH216462   3.050   2.677   0.467
 5502TIP3    H116463   3.035   2.588   0.498
 5502TIP3    H216464   3.103   2.718   0.534
 5503TIP3   OH216465   4.924   1.491   6.402
 5503TIP3    H116466   4.831   1.474   6.411
 5503TIP3    H216467   4.931   1.587   6.396
 5504TIP3   OH216468   4.058   5.785   2.832
 5504TIP3    H116469   4.113   5.829   2.768
 5504TIP3    H216470   3.990   5.849   2.854
 5505TIP3   OH216471   0.191   7.730   0.020
 5505TIP3    H116472   0.156   7.803  -0.032
 5505TIP3    H216473   0.139   7.731   0.100
 5506TIP3   OH216474   7.621   3.794   2.808
 5506TIP3    H116475   7.698   3.767   2.859
 5506TIP3    H216476   7.605   3.721   2.748
 5507TIP3   OH216477   8.223   1.466   2.238
 5507TIP3    H116478   8.262   1.535   2.185
 5507TIP3    H216479   8.129   1.470   2.218
 5508TIP3   OH216480   6.568   5.803   5.023
 5508TIP3    H116481   6.541   5.874   4.965
 5508TIP3    H216482   6.654   5.830   5.056
 5509TIP3   OH216483   1.291   6.989   1.214
 5509TIP3    H116484   1.347   7.018   1.142
 5509TIP3    H216485   1.346   6.929   1.264
 5510TIP3   OH216486   6.894   4.546   1.345
 5510TIP3    H116487   6.880   4.519   1.435
 5510TIP3    H216488   6.871   4.469   1.293
 5511TIP3   OH216489   8.046   3.616   4.422
 5511TIP3    H116490   8.057   3.525   4.448
 5511TIP3    H216491   7.959   3.639   4.455
 5512TIP3   OH216492   3.490   0.860   5.391
 5512TIP3    H116493   3.522   0.912   5.465
 5512TIP3    H216494   3.524   0.772   5.408
 5513TIP3   OH216495   1.667   5.023   4.563
 5513TIP3    H116496   1.761   5.040   4.566
 5513TIP3    H216497   1.653   4.977   4.480
 5514TIP3   OH216498   2.795   3.216   4.203
 5514TIP3    H116499   2.890   3.221   4.191
 5514TIP3    H216500   2.761   3.292   4.155
 5515TIP3   OH216501   4.901   4.104   1.711
 5515TIP3    H116502   4.957   4.075   1.784
 5515TIP3    H216503   4.849   4.027   1.688
 5516TIP3   OH216504   1.830   5.898   6.004
 5516TIP3    H116505   1.865   5.824   6.054
 5516TIP3    H216506   1.907   5.938   5.963
 5517TIP3   OH216507   4.408   3.819   5.814
 5517TIP3    H116508   4.356   3.876   5.871
 5517TIP3    H216509   4.415   3.737   5.862
 5518TIP3   OH216510   0.685   1.937   6.509
 5518TIP3    H116511   0.640   2.020   6.523
 5518TIP3    H216512   0.633   1.872   6.557
 5519TIP3   OH216513   8.009   6.709   1.364
 5519TIP3    H116514   8.090   6.717   1.413
 5519TIP3    H216515   8.005   6.616   1.339
 5520TIP3   OH216516   0.797   7.349   0.261
 5520TIP3    H116517   0.874   7.293   0.250
 5520TIP3    H216518   0.729   7.290   0.294
 5521TIP3   OH216519   0.447   3.755   0.956
 5521TIP3    H116520   0.539   3.778   0.939
 5521TIP3    H216521   0.397   3.817   0.903
 5522TIP3   OH216522   8.250   1.534   0.054
 5522TIP3    H116523   8.247   1.621   0.092
 5522TIP3    H216524   8.235   1.547  -0.040
 5523TIP3   OH216525   1.535   5.918   6.221
 5523TIP3    H116526   1.442   5.901   6.229
 5523TIP3    H216527   1.557   5.896   6.130
 5524TIP3   OH216528   1.051   2.518   5.827
 5524TIP3    H116529   0.990   2.482   5.891
 5524TIP3    H216530   1.026   2.610   5.819
 5525TIP3   OH216531   3.812   3.246   0.027
 5525TIP3    H116532   3.896   3.242   0.072
 5525TIP3    H216533   3.756   3.299   0.084
 5526TIP3   OH216534   8.171   6.627   3.418
 5526TIP3    H116535   8.079   6.655   3.426
 5526TIP3    H216536   8.186   6.573   3.495
 5527TIP3   OH216537   2.560   4.845   6.339
 5527TIP3    H116538   2.542   4.810   6.425
 5527TIP3    H216539   2.530   4.778   6.278
 5528TIP3   OH216540   3.221   4.800   2.190
 5528TIP3    H116541   3.276   4.854   2.134
 5528TIP3    H216542   3.265   4.800   2.275
 5529TIP3   OH216543   4.319   2.754   6.259
 5529TIP3    H116544   4.296   2.829   6.204
 5529TIP3    H216545   4.383   2.788   6.321
 5530TIP3   OH216546   1.655   3.204   4.085
 5530TIP3    H116547   1.613   3.135   4.033
 5530TIP3    H216548   1.728   3.234   4.031
 5531TIP3   OH216549   0.899   3.805   2.156
 5531TIP3    H116550   0.859   3.729   2.115
 5531TIP3    H216551   0.918   3.865   2.084
 5532TIP3   OH216552   5.581   4.056   2.952
 5532TIP3    H116553   5.563   4.141   2.992
 5532TIP3    H216554   5.667   4.065   2.912
 5533TIP3   OH216555   1.609   4.521   3.492
 5533TIP3    H116556   1.553   4.557   3.560
 5533TIP3    H216557   1.696   4.557   3.511
 5534TIP3   OH216558   2.918   7.486   6.216
 5534TIP3    H116559   2.939   7.545   6.288
 5534TIP3    H216560   2.985   7.503   6.150
 5535TIP3   OH216561   6.979   0.003   2.379
 5535TIP3    H116562   6.991   0.095   2.399
 5535TIP3    H216563   7.057  -0.022   2.330
 5536TIP3   OH216564   8.218   6.256   1.441
 5536TIP3    H116565   8.256   6.266   1.528
 5536TIP3    H216566   8.162   6.179   1.447
 5537TIP3   OH216567   0.876   7.449   5.805
 5537TIP3    H116568   0.840   7.415   5.886
 5537TIP3    H216569   0.932   7.522   5.832
 5538TIP3   OH216570   5.902   2.097   5.771
 5538TIP3    H116571   5.895   2.173   5.713
 5538TIP3    H216572   5.996   2.086   5.784
 5539TIP3   OH216573   7.285   1.966   6.641
 5539TIP3    H116574   7.332   1.888   6.613
 5539TIP3    H216575   7.328   2.038   6.595
 5540TIP3   OH216576   2.091   1.435   2.020
 5540TIP3    H116577   2.122   1.366   1.960
 5540TIP3    H216578   2.164   1.496   2.026
 5541TIP3   OH216579   6.556   1.295   6.522
 5541TIP3    H116580   6.594   1.368   6.474
 5541TIP3    H216581   6.462   1.310   6.520
 5542TIP3   OH216582   5.080   5.394   0.987
 5542TIP3    H116583   5.115   5.365   0.903
 5542TIP3    H216584   5.089   5.318   1.044
 5543TIP3   OH216585   6.815   3.200   0.732
 5543TIP3    H116586   6.866   3.261   0.679
 5543TIP3    H216587   6.739   3.250   0.761
 5544TIP3   OH216588   6.647   4.525   6.166
 5544TIP3    H116589   6.662   4.433   6.143
 5544TIP3    H216590   6.708   4.574   6.110
 5545TIP3   OH216591   2.163   3.776   0.823
 5545TIP3    H116592   2.137   3.854   0.873
 5545TIP3    H216593   2.090   3.761   0.763
 5546TIP3   OH216594   1.685   5.423   1.909
 5546TIP3    H116595   1.747   5.400   1.978
 5546TIP3    H216596   1.635   5.497   1.945
 5547TIP3   OH216597   6.264   5.596   0.811
 5547TIP3    H116598   6.254   5.688   0.785
 5547TIP3    H216599   6.215   5.590   0.893
 5548TIP3   OH216600   5.997   1.432   5.882
 5548TIP3    H116601   6.054   1.368   5.923
 5548TIP3    H216602   6.032   1.442   5.793
 5549TIP3   OH216603   3.907   0.397   3.464
 5549TIP3    H116604   3.892   0.471   3.406
 5549TIP3    H216605   3.821   0.357   3.474
 5550TIP3   OH216606   7.278   3.913   5.641
 5550TIP3    H116607   7.333   3.933   5.716
 5550TIP3    H216608   7.339   3.887   5.572
 5551TIP3   OH216609   7.208   5.914   2.722
 5551TIP3    H116610   7.119   5.912   2.757
 5551TIP3    H216611   7.254   5.977   2.778
 5552TIP3   OH216612   5.472   4.655   5.752
 5552TIP3    H116613   5.563   4.632   5.735
 5552TIP3    H216614   5.461   4.646   5.846
 5553TIP3   OH216615   1.553   7.465   0.170
 5553TIP3    H116616   1.483   7.528   0.184
 5553TIP3    H216617   1.545   7.440   0.078
 5554TIP3   OH216618   0.816   0.782   4.419
 5554TIP3    H116619   0.886   0.835   4.459
 5554TIP3    H216620   0.744   0.789   4.481
 5555TIP3   OH216621   2.420   1.801   4.976
 5555TIP3    H116622   2.479   1.746   5.027
 5555TIP3    H216623   2.334   1.761   4.987
 5556TIP3   OH216624   4.332   2.846   0.326
 5556TIP3    H116625   4.388   2.778   0.364
 5556TIP3    H216626   4.287   2.884   0.401
 5557TIP3   OH216627   8.285   0.185   6.731
 5557TIP3    H116628   8.300   0.137   6.813
 5557TIP3    H216629   8.191   0.200   6.729
 5558TIP3   OH216630   6.974   4.543   3.951
 5558TIP3    H116631   6.966   4.605   4.023
 5558TIP3    H216632   6.918   4.469   3.976
 5559TIP3   OH216633   4.086   5.994   4.700
 5559TIP3    H116634   4.014   6.054   4.717
 5559TIP3    H216635   4.057   5.942   4.625
 5560TIP3   OH216636   5.478   3.320   4.024
 5560TIP3    H116637   5.439   3.370   4.096
 5560TIP3    H216638   5.440   3.232   4.033
 5561TIP3   OH216639   0.431   3.507   6.197
 5561TIP3    H116640   0.491   3.571   6.235
 5561TIP3    H216641   0.488   3.438   6.164
 5562TIP3   OH216642   0.497   1.280   4.145
 5562TIP3    H116643   0.497   1.320   4.058
 5562TIP3    H216644   0.408   1.295   4.177
 5563TIP3   OH216645   6.221   0.212   2.819
 5563TIP3    H116646   6.168   0.210   2.899
 5563TIP3    H216647   6.227   0.121   2.792
 5564TIP3   OH216648   7.897   2.313   6.256
 5564TIP3    H116649   7.847   2.301   6.176
 5564TIP3    H216650   7.877   2.403   6.284
 5565TIP3   OH216651   2.224   5.009   2.808
 5565TIP3    H116652   2.157   5.042   2.749
 5565TIP3    H216653   2.306   5.020   2.760
 5566TIP3   OH216654   1.410   4.162   5.464
 5566TIP3    H116655   1.431   4.156   5.371
 5566TIP3    H216656   1.476   4.106   5.507
 5567TIP3   OH216657   7.372   6.096   4.095
 5567TIP3    H116658   7.435   6.167   4.103
 5567TIP3    H216659   7.370   6.076   4.001
 5568TIP3   OH216660   0.541   0.836   2.138
 5568TIP3    H116661   0.572   0.798   2.056
 5568TIP3    H216662   0.459   0.879   2.114
 5569TIP3   OH216663   1.646   1.582   4.960
 5569TIP3    H116664   1.576   1.597   4.896
 5569TIP3    H216665   1.726   1.583   4.908
 5570TIP3   OH216666   2.335   1.656   6.478
 5570TIP3    H116667   2.304   1.605   6.403
 5570TIP3    H216668   2.312   1.747   6.457
 5571TIP3   OH216669   8.160   4.655   6.264
 5571TIP3    H116670   8.125   4.662   6.353
 5571TIP3    H216671   8.152   4.562   6.242
 5572TIP3   OH216672   0.988   5.311   5.626
 5572TIP3    H116673   1.069   5.275   5.661
 5572TIP3    H216674   0.952   5.364   5.697
 5573TIP3   OH216675   7.214   5.791   6.561
 5573TIP3    H116676   7.227   5.780   6.655
 5573TIP3    H216677   7.285   5.849   6.534
 5574TIP3   OH216678   4.592   2.146   4.711
 5574TIP3    H116679   4.504   2.122   4.741
 5574TIP3    H216680   4.584   2.152   4.616
 5575TIP3   OH216681   2.850   4.746   4.489
 5575TIP3    H116682   2.825   4.816   4.429
 5575TIP3    H216683   2.837   4.784   4.576
 5576TIP3   OH216684   2.595   1.531   0.595
 5576TIP3    H116685   2.592   1.461   0.530
 5576TIP3    H216686   2.655   1.499   0.663
 5577TIP3   OH216687   5.748   6.812   0.024
 5577TIP3    H116688   5.803   6.890   0.013
 5577TIP3    H216689   5.796   6.743  -0.021
 5578TIP3   OH216690   6.621   3.921   1.390
 5578TIP3    H116691   6.648   3.963   1.308
 5578TIP3    H216692   6.702   3.888   1.428
 5579TIP3   OH216693   4.093   2.413   4.063
 5579TIP3    H116694   4.115   2.373   3.979
 5579TIP3    H216695   4.170   2.398   4.118
 5580TIP3   OH216696   2.240   2.926   5.958
 5580TIP3    H116697   2.200   2.970   5.883
 5580TIP3    H216698   2.240   2.992   6.027
 5581TIP3   OH216699   3.311   1.720   2.127
 5581TIP3    H116700   3.282   1.641   2.170
 5581TIP3    H216701   3.316   1.697   2.034
 5582TIP3   OH216702   6.240   0.545   1.035
 5582TIP3    H116703   6.227   0.465   1.087
 5582TIP3    H216704   6.286   0.605   1.094
 5583TIP3   OH216705   3.130   4.873   0.150
 5583TIP3    H116706   3.100   4.962   0.169
 5583TIP3    H216707   3.057   4.817   0.176
 5584TIP3   OH216708   6.044   7.530   5.512
 5584TIP3    H116709   6.054   7.550   5.419
 5584TIP3    H216710   6.004   7.609   5.550
 5585TIP3   OH216711   5.041   2.428   1.359
 5585TIP3    H116712   5.040   2.422   1.455
 5585TIP3    H216713   4.979   2.498   1.339
 5586TIP3   OH216714   5.423   1.633   5.961
 5586TIP3    H116715   5.373   1.569   5.911
 5586TIP3    H216716   5.381   1.635   6.047
 5587TIP3   OH216717   5.938   1.818   4.896
 5587TIP3    H116718   6.012   1.865   4.932
 5587TIP3    H216719   5.866   1.835   4.958
 5588TIP3   OH216720   5.732   5.337   4.523
 5588TIP3    H116721   5.725   5.430   4.501
 5588TIP3    H216722   5.641   5.306   4.523
 5589TIP3   OH216723   0.593   6.634   5.613
 5589TIP3    H116724   0.584   6.615   5.707
 5589TIP3    H216725   0.504   6.626   5.579
 5590TIP3   OH216726   2.957   2.463   6.450
 5590TIP3    H116727   2.946   2.410   6.529
 5590TIP3    H216728   3.029   2.421   6.403
 5591TIP3   OH216729   6.072   3.888   1.527
 5591TIP3    H116730   6.054   3.908   1.435
 5591TIP3    H216731   6.166   3.876   1.532
 5592TIP3   OH216732   3.153   4.399   1.511
 5592TIP3    H116733   3.159   4.303   1.507
 5592TIP3    H216734   3.087   4.415   1.579
 5593TIP3   OH216735   3.028   5.454   5.036
 5593TIP3    H116736   3.080   5.442   4.957
 5593TIP3    H216737   2.938   5.437   5.008
 5594TIP3   OH216738   6.989   2.991   4.068
 5594TIP3    H116739   6.978   3.070   4.014
 5594TIP3    H216740   6.953   2.920   4.015
 5595TIP3   OH216741   0.634   0.683   0.665
 5595TIP3    H116742   0.557   0.673   0.610
 5595TIP3    H216743   0.694   0.615   0.634
 5596TIP3   OH216744   5.364   4.457   2.957
 5596TIP3    H116745   5.424   4.486   3.026
 5596TIP3    H216746   5.414   4.391   2.909
 5597TIP3   OH216747   2.976   7.551   4.476
 5597TIP3    H116748   3.002   7.462   4.451
 5597TIP3    H216749   2.941   7.589   4.396
 5598TIP3   OH216750   2.964   5.338   4.688
 5598TIP3    H116751   2.900   5.267   4.696
 5598TIP3    H216752   3.028   5.319   4.756
 5599TIP3   OH216753   0.650   6.469   5.114
 5599TIP3    H116754   0.666   6.511   5.030
 5599TIP3    H216755   0.555   6.462   5.120
 5600TIP3   OH216756   1.949   3.891   2.181
 5600TIP3    H116757   1.968   3.801   2.207
 5600TIP3    H216758   2.013   3.943   2.230
 5601TIP3   OH216759   5.749   1.691   6.596
 5601TIP3    H116760   5.728   1.718   6.686
 5601TIP3    H216761   5.698   1.751   6.541
 5602TIP3   OH216762   1.988   0.539   0.201
 5602TIP3    H116763   1.987   0.475   0.272
 5602TIP3    H216764   2.072   0.525   0.157
 5603TIP3   OH216765   3.393   1.992   0.378
 5603TIP3    H116766   3.312   2.007   0.329
 5603TIP3    H216767   3.427   2.080   0.394
 5604TIP3   OH216768   7.860   3.327   1.139
 5604TIP3    H116769   7.951   3.355   1.142
 5604TIP3    H216770   7.864   3.234   1.116
 5605TIP3   OH216771   4.192   0.113   5.723
 5605TIP3    H116772   4.212   0.169   5.798
 5605TIP3    H216773   4.221   0.164   5.647
 5606TIP3   OH216774   4.151   5.310   0.843
 5606TIP3    H116775   4.236   5.276   0.869
 5606TIP3    H216776   4.093   5.291   0.917
 5607TIP3   OH216777   4.669   4.222   6.732
 5607TIP3    H116778   4.723   4.249   6.807
 5607TIP3    H216779   4.595   4.283   6.733
 5608TIP3   OH216780   0.188   6.169   5.613
 5608TIP3    H116781   0.128   6.233   5.576
 5608TIP3    H216782   0.143   6.135   5.690
 5609TIP3   OH216783   0.525   5.648   5.549
 5609TIP3    H116784   0.554   5.567   5.589
 5609TIP3    H216785   0.470   5.690   5.615
 5610TIP3   OH216786   5.218   3.884   3.491
 5610TIP3    H116787   5.205   3.791   3.472
 5610TIP3    H216788   5.312   3.892   3.508
 5611TIP3   OH216789   4.033   6.102   5.171
 5611TIP3    H116790   4.110   6.158   5.174
 5611TIP3    H216791   4.068   6.014   5.156
 5612TIP3   OH216792   1.846   4.725   1.609
 5612TIP3    H116793   1.884   4.713   1.696
 5612TIP3    H216794   1.756   4.753   1.626
 5613TIP3   OH216795   7.136   3.620   4.658
 5613TIP3    H116796   7.197   3.574   4.715
 5613TIP3    H216797   7.061   3.640   4.714
 5614TIP3   OH216798   5.863   1.441   3.143
 5614TIP3    H116799   5.798   1.476   3.204
 5614TIP3    H216800   5.936   1.503   3.147
 5615TIP3   OH216801   7.015   1.618   1.807
 5615TIP3    H116802   6.932   1.627   1.759
 5615TIP3    H216803   7.058   1.703   1.796
 5616TIP3   OH216804   1.503   6.679   3.718
 5616TIP3    H116805   1.432   6.642   3.666
 5616TIP3    H216806   1.483   6.653   3.808
 5617TIP3   OH216807   3.916   6.749   3.401
 5617TIP3    H116808   3.996   6.801   3.396
 5617TIP3    H216809   3.898   6.741   3.495
 5618TIP3   OH216810   7.772   6.765   3.182
 5618TIP3    H116811   7.745   6.755   3.273
 5618TIP3    H216812   7.712   6.831   3.146
 5619TIP3   OH216813   6.362   2.065   2.599
 5619TIP3    H116814   6.290   2.082   2.538
 5619TIP3    H216815   6.440   2.098   2.554
 5620TIP3   OH216816   2.763   6.258   4.968
 5620TIP3    H116817   2.721   6.253   4.882
 5620TIP3    H216818   2.692   6.240   5.030
 5621TIP3   OH216819   2.696   4.272   4.491
 5621TIP3    H116820   2.731   4.214   4.559
 5621TIP3    H216821   2.763   4.272   4.422
 5622TIP3   OH216822   3.854   6.697   6.355
 5622TIP3    H116823   3.862   6.624   6.417
 5622TIP3    H216824   3.789   6.668   6.291
 5623TIP3   OH216825   6.344   6.700   1.557
 5623TIP3    H116826   6.374   6.786   1.528
 5623TIP3    H216827   6.280   6.674   1.491
 5624TIP3   OH216828   6.181   0.415   0.617
 5624TIP3    H116829   6.258   0.438   0.669
 5624TIP3    H216830   6.127   0.494   0.620
 5625TIP3   OH216831   5.708   3.441   0.602
 5625TIP3    H116832   5.763   3.412   0.530
 5625TIP3    H216833   5.769   3.478   0.666
 5626TIP3   OH216834   0.289   3.961   3.642
 5626TIP3    H116835   0.271   4.011   3.722
 5626TIP3    H216836   0.324   3.878   3.673
 5627TIP3   OH216837   7.972   5.044   4.774
 5627TIP3    H116838   8.013   5.131   4.776
 5627TIP3    H216839   8.009   5.002   4.697
 5628TIP3   OH216840   3.773   3.195   0.363
 5628TIP3    H116841   3.797   3.283   0.393
 5628TIP3    H216842   3.735   3.209   0.276
 5629TIP3   OH216843   1.729   6.838   3.088
 5629TIP3    H116844   1.677   6.796   3.155
 5629TIP3    H216845   1.665   6.878   3.028
 5630TIP3   OH216846   1.919   3.790   6.160
 5630TIP3    H116847   1.957   3.860   6.107
 5630TIP3    H216848   1.993   3.733   6.181
 5631TIP3   OH216849   1.746   7.718   0.032
 5631TIP3    H116850   1.788   7.681   0.110
 5631TIP3    H216851   1.705   7.643  -0.011
 5632TIP3   OH216852   2.850   0.980   2.804
 5632TIP3    H116853   2.820   0.890   2.791
 5632TIP3    H216854   2.933   0.971   2.852
 5633TIP3   OH216855   1.980   6.206   2.679
 5633TIP3    H116856   1.910   6.269   2.693
 5633TIP3    H216857   2.039   6.218   2.754
 5634TIP3   OH216858   1.448   5.912   6.769
 5634TIP3    H116859   1.436   5.949   6.681
 5634TIP3    H216860   1.509   5.971   6.812
 5635TIP3   OH216861   3.710   1.819   6.668
 5635TIP3    H116862   3.754   1.828   6.752
 5635TIP3    H216863   3.698   1.908   6.636
 5636TIP3   OH216864   4.397   0.999   2.745
 5636TIP3    H116865   4.425   0.956   2.825
 5636TIP3    H216866   4.468   0.982   2.682
 5637TIP3   OH216867   2.882   5.124   5.167
 5637TIP3    H116868   2.795   5.144   5.203
 5637TIP3    H216869   2.864   5.077   5.086
 5638TIP3   OH216870   6.422   2.273   4.993
 5638TIP3    H116871   6.518   2.276   4.990
 5638TIP3    H216872   6.402   2.257   5.085
 5639TIP3   OH216873   2.618   1.184   2.905
 5639TIP3    H116874   2.536   1.157   2.947
 5639TIP3    H216875   2.675   1.108   2.912
 5640TIP3   OH216876   2.533   2.215   4.348
 5640TIP3    H116877   2.509   2.302   4.317
 5640TIP3    H216878   2.588   2.179   4.277
 5641TIP3   OH216879   4.680   2.430   6.011
 5641TIP3    H116880   4.667   2.513   6.057
 5641TIP3    H216881   4.735   2.453   5.936
 5642TIP3   OH216882   0.976   0.473   2.212
 5642TIP3    H116883   0.894   0.476   2.164
 5642TIP3    H216884   1.036   0.528   2.162
 5643TIP3   OH216885   3.321   0.871   4.872
 5643TIP3    H116886   3.331   0.785   4.830
 5643TIP3    H216887   3.408   0.892   4.904
 5644TIP3   OH216888   6.005   3.258   2.293
 5644TIP3    H116889   5.918   3.286   2.323
 5644TIP3    H216890   6.062   3.332   2.312
 5645TIP3   OH216891   1.978   7.428   1.899
 5645TIP3    H116892   1.888   7.422   1.867
 5645TIP3    H216893   2.032   7.429   1.821
 5646TIP3   OH216894   4.066   1.057   2.943
 5646TIP3    H116895   4.063   0.983   2.883
 5646TIP3    H216896   4.014   1.029   3.019
 5647TIP3   OH216897   3.365   5.610   0.233
 5647TIP3    H116898   3.341   5.703   0.238
 5647TIP3    H216899   3.290   5.564   0.270
 5648TIP3   OH216900   7.062   0.291   4.105
 5648TIP3    H116901   7.046   0.380   4.136
 5648TIP3    H216902   7.036   0.292   4.013
 5649TIP3   OH216903   3.082   5.725   3.258
 5649TIP3    H116904   3.055   5.682   3.339
 5649TIP3    H216905   3.169   5.690   3.240
 5650TIP3   OH216906   0.765   4.305   0.343
 5650TIP3    H116907   0.778   4.305   0.438
 5650TIP3    H216908   0.821   4.234   0.311
 5651TIP3   OH216909   3.338   2.278   0.242
 5651TIP3    H116910   3.370   2.278   0.332
 5651TIP3    H216911   3.249   2.311   0.247
 5652TIP3   OH216912   7.162   3.697   1.244
 5652TIP3    H116913   7.252   3.721   1.268
 5652TIP3    H216914   7.173   3.625   1.181
 5653TIP3   OH216915   7.036   2.189   4.775
 5653TIP3    H116916   7.129   2.168   4.783
 5653TIP3    H216917   7.030   2.245   4.698
 5654TIP3   OH216918   0.378   2.563   4.015
 5654TIP3    H116919   0.437   2.590   3.944
 5654TIP3    H216920   0.327   2.641   4.035
 5655TIP3   OH216921   3.202   0.709   0.574
 5655TIP3    H116922   3.151   0.788   0.595
 5655TIP3    H216923   3.242   0.684   0.657
 5656TIP3   OH216924   7.530   3.939   4.972
 5656TIP3    H116925   7.542   3.907   4.882
 5656TIP3    H216926   7.534   4.034   4.964
 5657TIP3   OH216927   7.629   5.902   5.814
 5657TIP3    H116928   7.702   5.857   5.856
 5657TIP3    H216929   7.617   5.981   5.866
 5658TIP3   OH216930   4.708   6.351   0.083
 5658TIP3    H116931   4.750   6.403   0.151
 5658TIP3    H216932   4.766   6.276   0.070
 5659TIP3   OH216933   0.715   1.469   2.842
 5659TIP3    H116934   0.774   1.491   2.914
 5659TIP3    H216935   0.759   1.505   2.764
 5660TIP3   OH216936   0.361   2.315   1.442
 5660TIP3    H116937   0.421   2.379   1.405
 5660TIP3    H216938   0.275   2.358   1.439
 5661TIP3   OH216939   7.288   2.972   1.137
 5661TIP3    H116940   7.378   3.001   1.120
 5661TIP3    H216941   7.296   2.880   1.162
 5662TIP3   OH216942   2.117   3.064   3.065
 5662TIP3    H116943   2.048   2.999   3.077
 5662TIP3    H216944   2.072   3.141   3.030
 5663TIP3   OH216945   4.636   0.367   1.593
 5663TIP3    H116946   4.552   0.328   1.618
 5663TIP3    H216947   4.621   0.401   1.505
 5664TIP3   OH216948   0.035   4.673   5.491
 5664TIP3    H116949   0.019   4.739   5.423
 5664TIP3    H216950   0.110   4.707   5.539
 5665TIP3   OH216951   3.511   7.719   1.640
 5665TIP3    H116952   3.563   7.695   1.563
 5665TIP3    H216953   3.576   7.748   1.705
 5666TIP3   OH216954   4.151   5.941   1.004
 5666TIP3    H116955   4.072   5.894   0.979
 5666TIP3    H216956   4.134   6.032   0.980
 5667TIP3   OH216957   2.174   3.147   4.619
 5667TIP3    H116958   2.149   3.178   4.706
 5667TIP3    H216959   2.101   3.173   4.563
 5668TIP3   OH216960   1.487   6.710   5.013
 5668TIP3    H116961   1.558   6.745   4.959
 5668TIP3    H216962   1.495   6.615   5.005
 5669TIP3   OH216963   7.861   1.016   1.381
 5669TIP3    H116964   7.932   0.974   1.429
 5669TIP3    H216965   7.898   1.037   1.295
 5670TIP3   OH216966   7.980   4.301   5.041
 5670TIP3    H116967   7.971   4.384   4.994
 5670TIP3    H216968   7.890   4.271   5.053
 5671TIP3   OH216969   0.406   4.543   4.652
 5671TIP3    H116970   0.451   4.469   4.611
 5671TIP3    H216971   0.313   4.521   4.646
 5672TIP3   OH216972   6.661   3.739   4.203
 5672TIP3    H116973   6.703   3.671   4.255
 5672TIP3    H216974   6.671   3.709   4.112
 5673TIP3   OH216975   2.349   4.705   3.582
 5673TIP3    H116976   2.330   4.788   3.538
 5673TIP3    H216977   2.421   4.667   3.532
 5674TIP3   OH216978   5.577   4.811   3.499
 5674TIP3    H116979   5.566   4.888   3.556
 5674TIP3    H216980   5.488   4.784   3.479
 5675TIP3   OH216981   3.290   0.931   5.616
 5675TIP3    H116982   3.287   1.027   5.613
 5675TIP3    H216983   3.362   0.907   5.557
 5676TIP3   OH216984   5.675   0.151   6.303
 5676TIP3    H116985   5.731   0.213   6.257
 5676TIP3    H216986   5.587   0.171   6.272
 5677TIP3   OH216987   6.972   1.279   2.287
 5677TIP3    H116988   6.952   1.369   2.263
 5677TIP3    H216989   6.888   1.233   2.283
 5678TIP3   OH216990   4.000   4.508   0.247
 5678TIP3    H116991   3.908   4.484   0.257
 5678TIP3    H216992   4.023   4.553   0.328
 5679TIP3   OH216993   6.252   5.251   5.775
 5679TIP3    H116994   6.347   5.239   5.776
 5679TIP3    H216995   6.240   5.343   5.752
 5680TIP3   OH216996   6.033   3.669   2.914
 5680TIP3    H116997   6.079   3.742   2.955
 5680TIP3    H216998   6.102   3.611   2.884
 5681TIP3   OH216999   6.051   3.633   6.185
 5681TIP3    H117000   6.117   3.573   6.219
 5681TIP3    H217001   5.969   3.603   6.224
 5682TIP3   OH217002   0.966   0.785   6.062
 5682TIP3    H117003   0.913   0.726   6.115
 5682TIP3    H217004   0.953   0.755   5.972
 5683TIP3   OH217005   6.786   6.140   4.393
 5683TIP3    H117006   6.696   6.109   4.384
 5683TIP3    H217007   6.823   6.085   4.462
 5684TIP3   OH217008   5.886   2.336   5.668
 5684TIP3    H117009   5.969   2.381   5.682
 5684TIP3    H217010   5.821   2.392   5.708
 5685TIP3   OH217011   4.261   7.615   6.024
 5685TIP3    H117012   4.310   7.539   6.056
 5685TIP3    H217013   4.253   7.601   5.930
 5686TIP3   OH217014   5.747   1.113   3.597
 5686TIP3    H117015   5.826   1.167   3.604
 5686TIP3    H217016   5.763   1.040   3.656
 5687TIP3   OH217017   6.316   0.703   2.395
 5687TIP3    H117018   6.376   0.692   2.469
 5687TIP3    H217019   6.291   0.795   2.397
 5688TIP3   OH217020   6.499   6.763   2.296
 5688TIP3    H117021   6.523   6.688   2.243
 5688TIP3    H217022   6.487   6.834   2.232
 5689TIP3   OH217023   2.780   7.013   6.349
 5689TIP3    H117024   2.783   7.108   6.338
 5689TIP3    H217025   2.696   6.997   6.392
 5690TIP3   OH217026   5.442   2.868   0.132
 5690TIP3    H117027   5.474   2.951   0.169
 5690TIP3    H217028   5.444   2.883   0.037
 5691TIP3   OH217029   2.027   4.890   2.585
 5691TIP3    H117030   2.021   4.795   2.590
 5691TIP3    H217031   1.960   4.922   2.645
 5692TIP3   OH217032   1.114   1.330   1.576
 5692TIP3    H117033   1.090   1.364   1.662
 5692TIP3    H217034   1.208   1.346   1.569
 5693TIP3   OH217035   6.710   0.178   5.739
 5693TIP3    H117036   6.680   0.216   5.656
 5693TIP3    H217037   6.779   0.116   5.713
 5694TIP3   OH217038   2.085   1.575   2.962
 5694TIP3    H117039   2.125   1.504   3.011
 5694TIP3    H217040   2.131   1.574   2.878
 5695TIP3   OH217041   4.178   5.942   1.972
 5695TIP3    H117042   4.100   5.993   1.949
 5695TIP3    H217043   4.250   6.004   1.970
 5696TIP3   OH217044   0.544   6.499   6.102
 5696TIP3    H117045   0.485   6.534   6.169
 5696TIP3    H217046   0.553   6.407   6.125
 5697TIP3   OH217047   0.364   1.951   5.900
 5697TIP3    H117048   0.407   1.869   5.873
 5697TIP3    H217049   0.277   1.923   5.930
 5698TIP3   OH217050   6.205   7.152   3.257
 5698TIP3    H117051   6.115   7.124   3.242
 5698TIP3    H217052   6.256   7.071   3.250
 5699TIP3   OH217053   7.486   1.715   2.233
 5699TIP3    H117054   7.449   1.627   2.225
 5699TIP3    H217055   7.515   1.720   2.325
 5700TIP3   OH217056   4.055   2.696   3.465
 5700TIP3    H117057   4.055   2.661   3.553
 5700TIP3    H217058   3.963   2.717   3.447
 5701TIP3   OH217059   3.338   4.311   2.593
 5701TIP3    H117060   3.354   4.403   2.615
 5701TIP3    H217061   3.414   4.265   2.628
 5702TIP3   OH217062   1.275   6.636   3.587
 5702TIP3    H117063   1.186   6.607   3.605
 5702TIP3    H217064   1.266   6.728   3.560
 5703TIP3   OH217065   1.168   6.176   5.429
 5703TIP3    H117066   1.209   6.205   5.348
 5703TIP3    H217067   1.074   6.175   5.410
 5704TIP3   OH217068   8.163   6.633   4.894
 5704TIP3    H117069   8.135   6.722   4.913
 5704TIP3    H217070   8.101   6.577   4.942
 5705TIP3   OH217071   8.055   6.225   0.555
 5705TIP3    H117072   7.992   6.291   0.583
 5705TIP3    H217073   8.017   6.142   0.583
 5706TIP3   OH217074   8.000   1.567   6.506
 5706TIP3    H117075   7.995   1.566   6.411
 5706TIP3    H217076   8.019   1.477   6.531
 5707TIP3   OH217077   0.249   6.532   1.556
 5707TIP3    H117078   0.225   6.541   1.649
 5707TIP3    H217079   0.266   6.439   1.545
 5708TIP3   OH217080   4.238   1.133   2.094
 5708TIP3    H117081   4.266   1.218   2.061
 5708TIP3    H217082   4.291   1.120   2.174
 5709TIP3   OH217083   6.960   7.180   2.870
 5709TIP3    H117084   7.008   7.194   2.788
 5709TIP3    H217085   6.977   7.259   2.921
 5710TIP3   OH217086   8.012   6.127   2.933
 5710TIP3    H117087   8.024   6.160   3.022
 5710TIP3    H217088   7.941   6.181   2.898
 5711TIP3   OH217089   5.442   3.386   1.904
 5711TIP3    H117090   5.510   3.430   1.955
 5711TIP3    H217091   5.465   3.404   1.812
 5712TIP3   OH217092   0.269   3.030   5.833
 5712TIP3    H117093   0.322   2.993   5.904
 5712TIP3    H217094   0.333   3.057   5.767
 5713TIP3   OH217095   0.024   0.309   0.754
 5713TIP3    H117096   0.059   0.321   0.666
 5713TIP3    H217097  -0.044   0.242   0.744
 5714TIP3   OH217098   4.843   7.092   3.577
 5714TIP3    H117099   4.807   7.041   3.649
 5714TIP3    H217100   4.811   7.048   3.498
 5715TIP3   OH217101   0.590   5.924   1.179
 5715TIP3    H117102   0.633   5.858   1.125
 5715TIP3    H217103   0.662   5.967   1.226
 5716TIP3   OH217104   3.633   4.320   5.775
 5716TIP3    H117105   3.668   4.407   5.797
 5716TIP3    H217106   3.542   4.323   5.806
 5717TIP3   OH217107   5.419   1.746   1.167
 5717TIP3    H117108   5.365   1.706   1.099
 5717TIP3    H217109   5.463   1.819   1.123
 5718TIP3   OH217110   1.684   6.961   3.862
 5718TIP3    H117111   1.749   6.908   3.908
 5718TIP3    H217112   1.623   6.897   3.825
 5719TIP3   OH217113   5.424   2.905   1.049
 5719TIP3    H117114   5.484   2.846   1.094
 5719TIP3    H217115   5.480   2.975   1.014
 5720TIP3   OH217116   2.761   3.712   4.163
 5720TIP3    H117117   2.691   3.776   4.146
 5720TIP3    H217118   2.816   3.754   4.229
 5721TIP3   OH217119   1.150   2.752   4.248
 5721TIP3    H117120   1.083   2.744   4.181
 5721TIP3    H217121   1.197   2.832   4.225
 5722TIP3   OH217122   3.962   5.181   1.353
 5722TIP3    H117123   3.892   5.239   1.325
 5722TIP3    H217124   3.981   5.207   1.443
 5723TIP3   OH217125   5.404   7.172   5.387
 5723TIP3    H117126   5.478   7.201   5.333
 5723TIP3    H217127   5.419   7.079   5.401
 5724TIP3   OH217128   7.175   2.547   4.520
 5724TIP3    H117129   7.261   2.585   4.502
 5724TIP3    H217130   7.176   2.529   4.614
 5725TIP3   OH217131   0.630   1.150   0.307
 5725TIP3    H117132   0.560   1.090   0.333
 5725TIP3    H217133   0.695   1.143   0.377
 5726TIP3   OH217134   4.152   7.096   6.338
 5726TIP3    H117135   4.231   7.054   6.373
 5726TIP3    H217136   4.112   7.139   6.414
 5727TIP3   OH217137   5.445   0.734   6.232
 5727TIP3    H117138   5.462   0.727   6.138
 5727TIP3    H217139   5.462   0.826   6.252
 5728TIP3   OH217140   1.923   4.225   1.094
 5728TIP3    H117141   1.948   4.316   1.106
 5728TIP3    H217142   1.873   4.224   1.012
 5729TIP3   OH217143   1.254   7.232   3.706
 5729TIP3    H117144   1.302   7.315   3.701
 5729TIP3    H217145   1.179   7.244   3.647
 5730TIP3   OH217146   5.454   4.461   5.347
 5730TIP3    H117147   5.413   4.538   5.386
 5730TIP3    H217148   5.484   4.409   5.422
 5731TIP3   OH217149   0.330   4.948   2.909
 5731TIP3    H117150   0.302   4.941   2.817
 5731TIP3    H217151   0.367   4.862   2.929
 5732TIP3   OH217152   5.729   1.087   2.874
 5732TIP3    H117153   5.799   1.120   2.930
 5732TIP3    H217154   5.659   1.064   2.935
 5733TIP3   OH217155   4.491   4.233   1.471
 5733TIP3    H117156   4.445   4.193   1.397
 5733TIP3    H217157   4.468   4.178   1.546
 5734TIP3   OH217158   0.117   0.650   2.707
 5734TIP3    H117159   0.206   0.657   2.740
 5734TIP3    H217160   0.069   0.718   2.754
 5735TIP3   OH217161   0.778   0.762   1.967
 5735TIP3    H117162   0.865   0.734   1.942
 5735TIP3    H217163   0.760   0.838   1.912
 5736TIP3   OH217164   3.660   1.477   5.807
 5736TIP3    H117165   3.606   1.439   5.737
 5736TIP3    H217166   3.634   1.430   5.886
 5737TIP3   OH217167   1.350   6.803   6.496
 5737TIP3    H117168   1.375   6.716   6.464
 5737TIP3    H217169   1.286   6.785   6.565
 5738TIP3   OH217170   1.991   2.145   3.721
 5738TIP3    H117171   1.897   2.156   3.730
 5738TIP3    H217172   2.021   2.225   3.679
 5739TIP3   OH217173   7.931   6.096   3.899
 5739TIP3    H117174   7.931   6.189   3.879
 5739TIP3    H217175   8.023   6.071   3.901
 5740TIP3   OH217176   3.742   1.511   1.165
 5740TIP3    H117177   3.699   1.523   1.250
 5740TIP3    H217178   3.712   1.585   1.112
 5741TIP3   OH217179   2.122   6.711   4.589
 5741TIP3    H117180   2.037   6.672   4.571
 5741TIP3    H217181   2.176   6.685   4.514
 5742TIP3   OH217182   4.834   0.910   0.052
 5742TIP3    H117183   4.817   0.918   0.146
 5742TIP3    H217184   4.929   0.917   0.043
 5743TIP3   OH217185   1.071   4.036   4.409
 5743TIP3    H117186   1.077   3.950   4.367
 5743TIP3    H217187   0.977   4.051   4.421
 5744TIP3   OH217188   6.240   6.054   3.232
 5744TIP3    H117189   6.205   6.135   3.270
 5744TIP3    H217190   6.163   6.012   3.193
 5745TIP3   OH217191   7.870   7.708   2.632
 5745TIP3    H117192   7.918   7.767   2.574
 5745TIP3    H217193   7.888   7.620   2.597
 5746TIP3   OH217194   5.738   3.352   2.300
 5746TIP3    H117195   5.704   3.428   2.251
 5746TIP3    H217196   5.778   3.390   2.378
 5747TIP3   OH217197   0.968   5.916   0.975
 5747TIP3    H117198   0.884   5.960   0.959
 5747TIP3    H217199   0.987   5.931   1.067
 5748TIP3   OH217200   4.496   1.839   1.629
 5748TIP3    H117201   4.549   1.783   1.572
 5748TIP3    H217202   4.464   1.909   1.572
 5749TIP3   OH217203   2.903   3.866   2.360
 5749TIP3    H117204   2.833   3.931   2.372
 5749TIP3    H217205   2.871   3.788   2.406
 5750TIP3   OH217206   4.894   3.171   2.536
 5750TIP3    H117207   4.977   3.177   2.585
 5750TIP3    H217208   4.849   3.253   2.556
 5751TIP3   OH217209   1.731   4.203   3.293
 5751TIP3    H117210   1.800   4.268   3.286
 5751TIP3    H217211   1.649   4.252   3.282
 5752TIP3   OH217212   5.896   7.423   5.887
 5752TIP3    H117213   5.825   7.390   5.941
 5752TIP3    H217214   5.945   7.345   5.860
 5753TIP3   OH217215   6.627   1.532   5.087
 5753TIP3    H117216   6.626   1.584   5.006
 5753TIP3    H217217   6.712   1.487   5.086
 5754TIP3   OH217218   3.858   6.864   0.875
 5754TIP3    H117219   3.782   6.810   0.893
 5754TIP3    H217220   3.882   6.902   0.960
 5755TIP3   OH217221   6.793   2.322   1.459
 5755TIP3    H117222   6.877   2.354   1.490
 5755TIP3    H217223   6.735   2.327   1.535
 5756TIP3   OH217224   5.406   7.591   1.017
 5756TIP3    H117225   5.473   7.659   1.004
 5756TIP3    H217226   5.425   7.555   1.104
 5757TIP3   OH217227   5.012   5.619   4.912
 5757TIP3    H117228   4.984   5.532   4.883
 5757TIP3    H217229   4.932   5.658   4.948
 5758TIP3   OH217230   6.436   4.798   2.404
 5758TIP3    H117231   6.493   4.739   2.454
 5758TIP3    H217232   6.473   4.885   2.419
 5759TIP3   OH217233   8.021   3.133   5.169
 5759TIP3    H117234   8.100   3.094   5.205
 5759TIP3    H217235   8.015   3.099   5.080
 5760TIP3   OH217236   8.315   6.196   0.549
 5760TIP3    H117237   8.224   6.218   0.534
 5760TIP3    H217238   8.324   6.196   0.645
 5761TIP3   OH217239   0.919   6.146   0.290
 5761TIP3    H117240   0.868   6.079   0.336
 5761TIP3    H217241   1.010   6.119   0.304
 5762TIP3   OH217242   1.449   2.647   0.220
 5762TIP3    H117243   1.384   2.601   0.274
 5762TIP3    H217244   1.521   2.666   0.281
 5763TIP3   OH217245   3.796   6.538   5.364
 5763TIP3    H117246   3.788   6.444   5.347
 5763TIP3    H217247   3.813   6.544   5.458
 5764TIP3   OH217248   2.075   5.927   2.841
 5764TIP3    H117249   2.046   5.900   2.754
 5764TIP3    H217250   2.013   5.995   2.867
 5765TIP3   OH217251   3.089   7.236   3.609
 5765TIP3    H117252   3.153   7.235   3.537
 5765TIP3    H217253   3.067   7.144   3.622
 5766TIP3   OH217254   7.603   0.476   3.410
 5766TIP3    H117255   7.596   0.523   3.492
 5766TIP3    H217256   7.558   0.531   3.346
 5767TIP3   OH217257   1.945   2.888   2.281
 5767TIP3    H117258   2.033   2.886   2.243
 5767TIP3    H217259   1.894   2.941   2.220
 5768TIP3   OH217260   5.728   3.384   3.956
 5768TIP3    H117261   5.637   3.354   3.958
 5768TIP3    H217262   5.752   3.395   4.048
 5769TIP3   OH217263   5.087   4.850   1.055
 5769TIP3    H117264   5.059   4.902   0.980
 5769TIP3    H217265   5.173   4.887   1.079
 5770TIP3   OH217266   4.100   0.213   2.114
 5770TIP3    H117267   4.057   0.144   2.064
 5770TIP3    H217268   4.033   0.247   2.172
 5771TIP3   OH217269   7.588   0.898   2.683
 5771TIP3    H117270   7.668   0.851   2.707
 5771TIP3    H217271   7.619   0.969   2.625
 5772TIP3   OH217272   4.453   5.521   2.631
 5772TIP3    H117273   4.362   5.544   2.610
 5772TIP3    H217274   4.468   5.558   2.717
 5773TIP3   OH217275   0.899   3.696   4.589
 5773TIP3    H117276   0.843   3.765   4.553
 5773TIP3    H217277   0.901   3.630   4.520
 5774TIP3   OH217278   6.466   1.407   1.689
 5774TIP3    H117279   6.402   1.344   1.722
 5774TIP3    H217280   6.550   1.362   1.698
 5775TIP3   OH217281   1.385   5.789   5.141
 5775TIP3    H117282   1.329   5.851   5.187
 5775TIP3    H217283   1.345   5.704   5.157
 5776TIP3   OH217284   1.405   3.274   1.000
 5776TIP3    H117285   1.339   3.271   0.931
 5776TIP3    H217286   1.458   3.351   0.978
 5777TIP3   OH217287   7.644   3.422   2.466
 5777TIP3    H117288   7.568   3.436   2.409
 5777TIP3    H217289   7.680   3.338   2.437
 5778TIP3   OH217290   3.832   2.174   3.194
 5778TIP3    H117291   3.851   2.259   3.156
 5778TIP3    H217292   3.902   2.116   3.162
 5779TIP3   OH217293   3.434   5.116   3.921
 5779TIP3    H117294   3.408   5.207   3.933
 5779TIP3    H217295   3.524   5.113   3.955
 5780TIP3   OH217296   6.299   1.923   1.424
 5780TIP3    H117297   6.277   1.830   1.429
 5780TIP3    H217298   6.330   1.935   1.334
 5781TIP3   OH217299   0.011   1.805   6.065
 5781TIP3    H117300   0.008   1.895   6.031
 5781TIP3    H217301   0.056   1.755   5.997
 5782TIP3   OH217302   2.666   0.765   4.889
 5782TIP3    H117303   2.706   0.680   4.873
 5782TIP3    H217304   2.716   0.802   4.962
 5783TIP3   OH217305   7.166   7.279   4.020
 5783TIP3    H117306   7.199   7.316   3.938
 5783TIP3    H217307   7.116   7.350   4.059
 5784TIP3   OH217308   7.670   7.352   3.197
 5784TIP3    H117309   7.632   7.295   3.263
 5784TIP3    H217310   7.595   7.402   3.163
 5785TIP3   OH217311   4.004   5.730   6.204
 5785TIP3    H117312   4.048   5.645   6.197
 5785TIP3    H217313   3.918   5.709   6.240
 5786TIP3   OH217314   7.065   2.817   5.682
 5786TIP3    H117315   7.036   2.895   5.730
 5786TIP3    H217316   7.089   2.754   5.750
 5787TIP3   OH217317   5.354   0.642   0.469
 5787TIP3    H117318   5.391   0.562   0.507
 5787TIP3    H217319   5.399   0.651   0.384
 5788TIP3   OH217320   0.955   3.725   0.113
 5788TIP3    H117321   0.982   3.682   0.194
 5788TIP3    H217322   1.028   3.782   0.090
 5789TIP3   OH217323   5.000   6.633   4.994
 5789TIP3    H117324   5.014   6.725   5.018
 5789TIP3    H217325   4.933   6.635   4.926
 5790TIP3   OH217326   4.510   2.750   4.426
 5790TIP3    H117327   4.426   2.705   4.432
 5790TIP3    H217328   4.523   2.790   4.512
 5791TIP3   OH217329   0.393   5.070   5.320
 5791TIP3    H117330   0.455   5.001   5.297
 5791TIP3    H217331   0.442   5.152   5.304
 5792TIP3   OH217332   0.337   2.538   4.586
 5792TIP3    H117333   0.363   2.473   4.651
 5792TIP3    H217334   0.253   2.571   4.617
 5793TIP3   OH217335   8.271   1.893   4.251
 5793TIP3    H117336   8.182   1.898   4.216
 5793TIP3    H217337   8.327   1.913   4.176
 5794TIP3   OH217338   8.146   4.394   2.937
 5794TIP3    H117339   8.073   4.386   2.998
 5794TIP3    H217340   8.166   4.304   2.911
 5795TIP3   OH217341   1.623   5.619   6.419
 5795TIP3    H117342   1.533   5.599   6.444
 5795TIP3    H217343   1.664   5.648   6.500
 5796TIP3   OH217344   0.344   7.248   6.362
 5796TIP3    H117345   0.402   7.303   6.309
 5796TIP3    H217346   0.341   7.291   6.447
 5797TIP3   OH217347   2.793   1.393   5.159
 5797TIP3    H117348   2.840   1.374   5.239
 5797TIP3    H217349   2.861   1.412   5.094
 5798TIP3   OH217350   1.256   0.059   3.079
 5798TIP3    H117351   1.329   0.036   3.135
 5798TIP3    H217352   1.277   0.020   2.994
 5799TIP3   OH217353   0.377   7.492   2.439
 5799TIP3    H117354   0.324   7.502   2.360
 5799TIP3    H217355   0.358   7.570   2.491
 5800TIP3   OH217356   6.683   5.475   0.697
 5800TIP3    H117357   6.654   5.524   0.620
 5800TIP3    H217358   6.734   5.402   0.661
 5801TIP3   OH217359   3.531   2.844   4.026
 5801TIP3    H117360   3.609   2.813   4.072
 5801TIP3    H217361   3.546   2.938   4.015
 5802TIP3   OH217362   2.482   7.458   2.097
 5802TIP3    H117363   2.434   7.457   2.015
 5802TIP3    H217364   2.420   7.491   2.161
 5803TIP3   OH217365   6.840   4.250   4.369
 5803TIP3    H117366   6.915   4.264   4.311
 5803TIP3    H217367   6.867   4.289   4.452
 5804TIP3   OH217368   1.291   1.906   4.031
 5804TIP3    H117369   1.299   1.912   3.936
 5804TIP3    H217370   1.224   1.970   4.054
 5805TIP3   OH217371   6.807   1.667   0.368
 5805TIP3    H117372   6.852   1.608   0.308
 5805TIP3    H217373   6.715   1.663   0.342
 5806TIP3   OH217374   0.629   4.503   0.177
 5806TIP3    H117375   0.672   4.455   0.248
 5806TIP3    H217376   0.536   4.500   0.199
 5807TIP3   OH217377   5.850   6.517   1.915
 5807TIP3    H117378   5.906   6.486   1.986
 5807TIP3    H217379   5.761   6.499   1.945
 5808TIP3   OH217380   5.247   7.298   5.014
 5808TIP3    H117381   5.262   7.204   5.011
 5808TIP3    H217382   5.160   7.309   4.975
 5809TIP3   OH217383   0.452   0.137   6.632
 5809TIP3    H117384   0.448   0.042   6.629
 5809TIP3    H217385   0.371   0.166   6.589
 5810TIP3   OH217386   2.006   4.397   2.721
 5810TIP3    H117387   2.012   4.462   2.651
 5810TIP3    H217388   1.919   4.360   2.712
 5811TIP3   OH217389   4.360   4.888   4.240
 5811TIP3    H117390   4.304   4.810   4.230
 5811TIP3    H217391   4.391   4.907   4.151
 5812TIP3   OH217392   7.174   4.626   2.433
 5812TIP3    H117393   7.155   4.538   2.400
 5812TIP3    H217394   7.266   4.622   2.461
 5813TIP3   OH217395   4.584   7.321   5.115
 5813TIP3    H117396   4.633   7.248   5.153
 5813TIP3    H217397   4.559   7.375   5.189
 5814TIP3   OH217398   2.645   5.203   2.191
 5814TIP3    H117399   2.661   5.223   2.283
 5814TIP3    H217400   2.677   5.279   2.143
 5815TIP3   OH217401   7.588   5.336   6.312
 5815TIP3    H117402   7.614   5.274   6.380
 5815TIP3    H217403   7.497   5.312   6.291
 5816TIP3   OH217404   5.954   4.483   4.410
 5816TIP3    H117405   6.023   4.548   4.416
 5816TIP3    H217406   5.965   4.428   4.488
 5817TIP3   OH217407   2.915   4.337   1.060
 5817TIP3    H117408   2.848   4.270   1.076
 5817TIP3    H217409   2.930   4.376   1.146
 5818TIP3   OH217410   2.870   2.919   6.275
 5818TIP3    H117411   2.932   2.893   6.206
 5818TIP3    H217412   2.829   2.836   6.301
 5819TIP3   OH217413   7.455   3.247   2.339
 5819TIP3    H117414   7.381   3.293   2.299
 5819TIP3    H217415   7.501   3.208   2.264
 5820TIP3   OH217416   4.107   5.700   0.554
 5820TIP3    H117417   4.165   5.748   0.613
 5820TIP3    H217418   4.144   5.611   0.552
 5821TIP3   OH217419   6.486   6.457   3.685
 5821TIP3    H117420   6.570   6.489   3.650
 5821TIP3    H217421   6.420   6.512   3.642
 5822TIP3   OH217422   6.689   7.204   2.814
 5822TIP3    H117423   6.775   7.204   2.856
 5822TIP3    H217424   6.639   7.271   2.860
 5823TIP3   OH217425   1.353   3.038   1.175
 5823TIP3    H117426   1.324   3.074   1.258
 5823TIP3    H217427   1.370   3.114   1.120
 5824TIP3   OH217428   2.265   6.484   0.652
 5824TIP3    H117429   2.241   6.499   0.743
 5824TIP3    H217430   2.191   6.434   0.616
 5825TIP3   OH217431   1.938   5.548   2.686
 5825TIP3    H117432   1.883   5.623   2.705
 5825TIP3    H217433   2.002   5.545   2.758
 5826TIP3   OH217434   8.074   2.380   5.958
 5826TIP3    H117435   8.128   2.337   5.892
 5826TIP3    H217436   8.065   2.316   6.028
 5827TIP3   OH217437   7.042   5.220   2.944
 5827TIP3    H117438   7.066   5.240   2.853
 5827TIP3    H217439   6.947   5.214   2.942
 5828TIP3   OH217440   6.744   0.378   2.852
 5828TIP3    H117441   6.682   0.320   2.808
 5828TIP3    H217442   6.699   0.408   2.931
 5829TIP3   OH217443   5.159   4.894   5.432
 5829TIP3    H117444   5.153   4.967   5.370
 5829TIP3    H217445   5.069   4.880   5.461
 5830TIP3   OH217446   1.154   2.746   3.395
 5830TIP3    H117447   1.072   2.791   3.374
 5830TIP3    H217448   1.221   2.794   3.347
 5831TIP3   OH217449   6.286   6.477   4.136
 5831TIP3    H117450   6.221   6.418   4.173
 5831TIP3    H217451   6.285   6.458   4.042
 5832TIP3   OH217452   5.700   4.052   5.789
 5832TIP3    H117453   5.635   3.992   5.753
 5832TIP3    H217454   5.742   4.091   5.712
 5833TIP3   OH217455   3.405   1.671   1.451
 5833TIP3    H117456   3.358   1.633   1.377
 5833TIP3    H217457   3.498   1.658   1.431
 5834TIP3   OH217458   6.777   7.079   4.763
 5834TIP3    H117459   6.698   7.133   4.755
 5834TIP3    H217460   6.846   7.141   4.785
 5835TIP3   OH217461   6.183   6.000   6.549
 5835TIP3    H117462   6.193   5.989   6.643
 5835TIP3    H217463   6.094   6.034   6.538
 5836TIP3   OH217464   3.439   1.136   2.560
 5836TIP3    H117465   3.363   1.094   2.519
 5836TIP3    H217466   3.486   1.177   2.487
 5837TIP3   OH217467   7.003   4.634   6.120
 5837TIP3    H117468   6.981   4.714   6.168
 5837TIP3    H217469   6.970   4.650   6.031
 5838TIP3   OH217470   5.372   0.784   5.138
 5838TIP3    H117471   5.450   0.814   5.091
 5838TIP3    H217472   5.302   0.840   5.105
 5839TIP3   OH217473   2.777   6.380   5.758
 5839TIP3    H117474   2.686   6.351   5.770
 5839TIP3    H217475   2.782   6.463   5.805
 5840TIP3   OH217476   4.476   7.116   3.424
 5840TIP3    H117477   4.506   7.032   3.461
 5840TIP3    H217478   4.435   7.091   3.341
 5841TIP3   OH217479   5.882   5.995   3.394
 5841TIP3    H117480   5.966   5.974   3.355
 5841TIP3    H217481   5.898   5.997   3.488
 5842TIP3   OH217482   7.758   7.096   4.781
 5842TIP3    H117483   7.853   7.109   4.781
 5842TIP3    H217484   7.735   7.083   4.873
 5843TIP3   OH217485   1.222   4.978   6.569
 5843TIP3    H117486   1.250   4.887   6.560
 5843TIP3    H217487   1.193   4.986   6.660
 5844TIP3   OH217488   7.777   1.888   1.134
 5844TIP3    H117489   7.701   1.889   1.076
 5844TIP3    H217490   7.744   1.854   1.217
 5845TIP3   OH217491   1.681   0.281   2.647
 5845TIP3    H117492   1.606   0.304   2.591
 5845TIP3    H217493   1.668   0.189   2.668
 5846TIP3   OH217494   4.241   3.280   2.402
 5846TIP3    H117495   4.308   3.233   2.452
 5846TIP3    H217496   4.291   3.335   2.341
 5847TIP3   OH217497   1.563   6.559   1.118
 5847TIP3    H117498   1.593   6.523   1.201
 5847TIP3    H217499   1.473   6.587   1.135
 5848TIP3   OH217500   6.020   4.703   4.906
 5848TIP3    H117501   6.041   4.789   4.943
 5848TIP3    H217502   5.925   4.702   4.900
 5849TIP3   OH217503   0.669   1.884   3.191
 5849TIP3    H117504   0.615   1.866   3.114
 5849TIP3    H217505   0.758   1.891   3.158
 5850TIP3   OH217506   2.163   5.953   4.914
 5850TIP3    H117507   2.248   5.988   4.942
 5850TIP3    H217508   2.172   5.943   4.819
 5851TIP3   OH217509   4.038   4.705   3.501
 5851TIP3    H117510   4.069   4.773   3.562
 5851TIP3    H217511   4.088   4.720   3.421
 5852TIP3   OH217512   3.336   5.902   5.478
 5852TIP3    H117513   3.409   5.842   5.461
 5852TIP3    H217514   3.304   5.926   5.391
 5853TIP3   OH217515   7.688   6.726   2.403
 5853TIP3    H117516   7.646   6.670   2.468
 5853TIP3    H217517   7.647   6.812   2.416
 5854TIP3   OH217518   7.540   4.882   4.019
 5854TIP3    H117519   7.520   4.929   3.939
 5854TIP3    H217520   7.460   4.835   4.041
 5855TIP3   OH217521   6.491   1.575   2.456
 5855TIP3    H117522   6.398   1.587   2.435
 5855TIP3    H217523   6.532   1.657   2.427
 5856TIP3   OH217524   5.101   4.716   6.704
 5856TIP3    H117525   5.042   4.653   6.662
 5856TIP3    H217526   5.138   4.766   6.631
 5857TIP3   OH217527   3.663   0.251   2.556
 5857TIP3    H117528   3.739   0.198   2.583
 5857TIP3    H217529   3.598   0.235   2.624
 5858TIP3   OH217530   6.910   5.263   4.869
 5858TIP3    H117531   6.901   5.187   4.927
 5858TIP3    H217532   6.825   5.307   4.874
 5859TIP3   OH217533   7.146   4.018   3.151
 5859TIP3    H117534   7.136   3.926   3.175
 5859TIP3    H217535   7.104   4.066   3.222
 5860TIP3   OH217536   3.150   6.082   1.998
 5860TIP3    H117537   3.228   6.134   1.983
 5860TIP3    H217538   3.090   6.107   1.928
 5861TIP3   OH217539   2.204   1.595   6.711
 5861TIP3    H117540   2.277   1.606   6.772
 5861TIP3    H217541   2.238   1.626   6.627
 5862TIP3   OH217542   3.698   7.781   2.871
 5862TIP3    H117543   3.605   7.768   2.851
 5862TIP3    H217544   3.742   7.709   2.826
 5863TIP3   OH217545   6.386   6.811   1.798
 5863TIP3    H117546   6.425   6.745   1.856
 5863TIP3    H217547   6.357   6.762   1.721
 5864TIP3   OH217548   6.773   2.489   5.749
 5864TIP3    H117549   6.744   2.400   5.728
 5864TIP3    H217550   6.868   2.482   5.756
 5865TIP3   OH217551   0.423   3.266   5.972
 5865TIP3    H117552   0.507   3.294   6.007
 5865TIP3    H217553   0.376   3.230   6.048
 5866TIP3   OH217554   0.845   3.908   0.330
 5866TIP3    H117555   0.864   3.854   0.254
 5866TIP3    H217556   0.926   3.956   0.347
 5867TIP3   OH217557   6.082   6.650   6.305
 5867TIP3    H117558   6.083   6.689   6.217
 5867TIP3    H217559   6.149   6.581   6.301
 5868TIP3   OH217560   4.887   7.111   0.152
 5868TIP3    H117561   4.921   7.084   0.237
 5868TIP3    H217562   4.943   7.185   0.126
 5869TIP3   OH217563   0.295   4.335   0.013
 5869TIP3    H117564   0.229   4.270   0.037
 5869TIP3    H217565   0.326   4.370   0.096
 5870TIP3   OH217566   6.738   6.633   4.404
 5870TIP3    H117567   6.805   6.699   4.421
 5870TIP3    H217568   6.656   6.675   4.431
 5871TIP3   OH217569   7.922   5.729   4.741
 5871TIP3    H117570   7.974   5.800   4.703
 5871TIP3    H217571   7.855   5.710   4.676
 5872TIP3   OH217572   3.350   3.392   4.508
 5872TIP3    H117573   3.296   3.443   4.448
 5872TIP3    H217574   3.388   3.323   4.454
 5873TIP3   OH217575   2.550   3.127   4.184
 5873TIP3    H117576   2.643   3.149   4.183
 5873TIP3    H217577   2.511   3.184   4.117
 5874TIP3   OH217578   7.794   0.291   2.821
 5874TIP3    H117579   7.729   0.342   2.772
 5874TIP3    H217580   7.742   0.241   2.884
 5875TIP3   OH217581   7.284   4.200   2.290
 5875TIP3    H117582   7.262   4.129   2.230
 5875TIP3    H217583   7.202   4.218   2.337
 5876TIP3   OH217584   0.247   7.107   5.361
 5876TIP3    H117585   0.154   7.113   5.339
 5876TIP3    H217586   0.253   7.138   5.451
 5877TIP3   OH217587   3.147   6.585   5.497
 5877TIP3    H117588   3.076   6.556   5.440
 5877TIP3    H217589   3.152   6.680   5.482
 5878TIP3   OH217590   0.238   4.891   3.362
 5878TIP3    H117591   0.331   4.915   3.354
 5878TIP3    H217592   0.238   4.796   3.370
 5879TIP3   OH217593   2.058   6.332   0.897
 5879TIP3    H117594   2.106   6.249   0.889
 5879TIP3    H217595   2.107   6.382   0.961
 5880TIP3   OH217596   7.589   6.270   4.071
 5880TIP3    H117597   7.673   6.296   4.109
 5880TIP3    H217598   7.606   6.266   3.977
 5881TIP3   OH217599   2.368   3.785   6.044
 5881TIP3    H117600   2.350   3.777   5.950
 5881TIP3    H217601   2.439   3.848   6.049
 5882TIP3   OH217602   3.862   1.530   4.913
 5882TIP3    H117603   3.890   1.551   5.003
 5882TIP3    H217604   3.944   1.507   4.868
 5883TIP3   OH217605   7.723   6.327   3.056
 5883TIP3    H117606   7.760   6.329   2.968
 5883TIP3    H217607   7.632   6.301   3.043
 5884TIP3   OH217608   4.185   0.591   3.772
 5884TIP3    H117609   4.173   0.614   3.864
 5884TIP3    H217610   4.246   0.657   3.738
 5885TIP3   OH217611   2.780   7.288   0.886
 5885TIP3    H117612   2.757   7.381   0.880
 5885TIP3    H217613   2.870   7.288   0.919
 5886TIP3   OH217614   3.857   6.085   4.184
 5886TIP3    H117615   3.766   6.060   4.194
 5886TIP3    H217616   3.867   6.164   4.237
 5887TIP3   OH217617   4.216   2.133   2.903
 5887TIP3    H117618   4.306   2.167   2.905
 5887TIP3    H217619   4.162   2.212   2.909
 5888TIP3   OH217620   3.997   0.849   2.788
 5888TIP3    H117621   4.045   0.774   2.751
 5888TIP3    H217622   3.905   0.823   2.784
 5889TIP3   OH217623   3.487   7.186   2.633
 5889TIP3    H117624   3.445   7.272   2.634
 5889TIP3    H217625   3.454   7.144   2.554
 5890TIP3   OH217626   1.764   6.368   6.124
 5890TIP3    H117627   1.755   6.291   6.067
 5890TIP3    H217628   1.701   6.431   6.090
 5891TIP3   OH217629   3.025   5.528   5.675
 5891TIP3    H117630   3.050   5.545   5.584
 5891TIP3    H217631   2.974   5.604   5.700
 5892TIP3   OH217632   1.043   3.192   4.904
 5892TIP3    H117633   0.990   3.117   4.878
 5892TIP3    H217634   1.073   3.171   4.992
 5893TIP3   OH217635   6.450   0.008   3.149
 5893TIP3    H117636   6.441   0.102   3.136
 5893TIP3    H217637   6.473  -0.027   3.063
 5894TIP3   OH217638   2.437   4.247   4.445
 5894TIP3    H117639   2.528   4.272   4.456
 5894TIP3    H217640   2.405   4.229   4.534
 5895TIP3   OH217641   0.453   7.468   0.482
 5895TIP3    H117642   0.527   7.490   0.538
 5895TIP3    H217643   0.409   7.396   0.526
 5896TIP3   OH217644   3.683   4.781   4.034
 5896TIP3    H117645   3.705   4.713   3.970
 5896TIP3    H217646   3.589   4.774   4.045
 5897TIP3   OH217647   3.254   5.407   3.015
 5897TIP3    H117648   3.176   5.402   2.961
 5897TIP3    H217649   3.327   5.394   2.954
 5898TIP3   OH217650   1.089   4.613   4.730
 5898TIP3    H117651   1.176   4.596   4.695
 5898TIP3    H217652   1.088   4.707   4.749
 5899TIP3   OH217653   7.792   0.253   3.403
 5899TIP3    H117654   7.730   0.326   3.409
 5899TIP3    H217655   7.762   0.203   3.327
 5900TIP3   OH217656   5.722   5.063   3.115
 5900TIP3    H117657   5.738   5.153   3.085
 5900TIP3    H217658   5.785   5.010   3.067
 5901TIP3   OH217659   6.031   3.137   6.227
 5901TIP3    H117660   6.021   3.055   6.275
 5901TIP3    H217661   5.964   3.132   6.159
 5902TIP3   OH217662   4.522   1.651   6.481
 5902TIP3    H117663   4.434   1.686   6.491
 5902TIP3    H217664   4.576   1.726   6.459
 5903TIP3   OH217665   7.595   6.980   2.429
 5903TIP3    H117666   7.503   6.989   2.407
 5903TIP3    H217667   7.641   7.028   2.361
 5904TIP3   OH217668   2.083   0.281   1.715
 5904TIP3    H117669   2.002   0.259   1.670
 5904TIP3    H217670   2.065   0.364   1.759
 5905TIP3   OH217671   3.641   7.477   5.612
 5905TIP3    H117672   3.732   7.504   5.599
 5905TIP3    H217673   3.595   7.558   5.635
 5906TIP3   OH217674   4.863   1.902   3.543
 5906TIP3    H117675   4.923   1.913   3.469
 5906TIP3    H217676   4.824   1.816   3.530
 5907TIP3   OH217677   0.882   1.524   0.804
 5907TIP3    H117678   0.835   1.460   0.858
 5907TIP3    H217679   0.889   1.482   0.718
 5908TIP3   OH217680   5.645   1.000   5.953
 5908TIP3    H117681   5.734   1.033   5.940
 5908TIP3    H217682   5.592   1.052   5.891
 5909TIP3   OH217683   4.817   0.818   2.415
 5909TIP3    H117684   4.864   0.848   2.337
 5909TIP3    H217685   4.728   0.853   2.405
 5910TIP3   OH217686   7.558   4.638   4.388
 5910TIP3    H117687   7.526   4.548   4.383
 5910TIP3    H217688   7.590   4.656   4.300
 5911TIP3   OH217689   6.117   5.336   1.341
 5911TIP3    H117690   6.107   5.258   1.286
 5911TIP3    H217691   6.185   5.387   1.297
 5912TIP3   OH217692   5.597   0.851   2.323
 5912TIP3    H117693   5.656   0.846   2.248
 5912TIP3    H217694   5.545   0.771   2.317
 5913TIP3   OH217695   1.552   4.856   2.990
 5913TIP3    H117696   1.626   4.863   2.930
 5913TIP3    H217697   1.563   4.770   3.031
 5914TIP3   OH217698   1.527   4.540   1.144
 5914TIP3    H117699   1.501   4.561   1.233
 5914TIP3    H217700   1.562   4.623   1.109
 5915TIP3   OH217701   1.808   1.318   5.098
 5915TIP3    H117702   1.884   1.313   5.155
 5915TIP3    H217703   1.767   1.402   5.120
 5916TIP3   OH217704   2.022   0.125   0.849
 5916TIP3    H117705   2.031   0.217   0.876
 5916TIP3    H217706   1.956   0.127   0.780
 5917TIP3   OH217707   5.544   4.580   2.468
 5917TIP3    H117708   5.552   4.577   2.372
 5917TIP3    H217709   5.613   4.641   2.495
 5918TIP3   OH217710   0.706   3.026   4.283
 5918TIP3    H117711   0.748   2.966   4.344
 5918TIP3    H217712   0.724   2.989   4.197
 5919TIP3   OH217713   1.366   0.938   3.257
 5919TIP3    H117714   1.283   0.900   3.288
 5919TIP3    H217715   1.358   1.031   3.278
 5920TIP3   OH217716   1.096   3.790   1.575
 5920TIP3    H117717   1.087   3.811   1.668
 5920TIP3    H217718   1.190   3.798   1.558
 5921TIP3   OH217719   2.717   6.122   2.113
 5921TIP3    H117720   2.662   6.047   2.091
 5921TIP3    H217721   2.656   6.196   2.119
 5922TIP3   OH217722   0.305   3.150   6.203
 5922TIP3    H117723   0.347   3.072   6.240
 5922TIP3    H217724   0.307   3.213   6.275
 5923TIP3   OH217725   1.159   7.751   1.120
 5923TIP3    H117726   1.178   7.659   1.139
 5923TIP3    H217727   1.190   7.799   1.196
 5924TIP3   OH217728   2.158   6.961   5.204
 5924TIP3    H117729   2.120   7.032   5.257
 5924TIP3    H217730   2.082   6.913   5.170
 5925TIP3   OH217731   5.123   5.221   1.211
 5925TIP3    H117732   5.218   5.222   1.217
 5925TIP3    H217733   5.095   5.300   1.256
 5926TIP3   OH217734   3.313   7.449   1.080
 5926TIP3    H117735   3.309   7.478   0.989
 5926TIP3    H217736   3.392   7.394   1.084
 5927TIP3   OH217737   1.603   4.010   2.516
 5927TIP3    H117738   1.687   4.051   2.539
 5927TIP3    H217739   1.538   4.061   2.565
 5928TIP3   OH217740   1.730   0.275   3.646
 5928TIP3    H117741   1.653   0.238   3.602
 5928TIP3    H217742   1.705   0.366   3.664
 5929TIP3   OH217743   0.430   3.067   4.242
 5929TIP3    H117744   0.521   3.046   4.263
 5929TIP3    H217745   0.431   3.083   4.147
 5930TIP3   OH217746   2.281   2.895   3.626
 5930TIP3    H117747   2.364   2.908   3.579
 5930TIP3    H217748   2.242   2.982   3.631
 5931TIP3   OH217749   8.189   6.465   3.082
 5931TIP3    H117750   8.095   6.482   3.078
 5931TIP3    H217751   8.213   6.441   2.993
 5932TIP3   OH217752   5.930   1.837   5.385
 5932TIP3    H117753   5.977   1.765   5.345
 5932TIP3    H217754   5.838   1.810   5.384
 5933TIP3   OH217755   8.202   2.907   1.088
 5933TIP3    H117756   8.223   2.877   1.176
 5933TIP3    H217757   8.168   2.829   1.043
 5934TIP3   OH217758   0.991   1.957   1.124
 5934TIP3    H117759   0.985   1.878   1.070
 5934TIP3    H217760   0.971   2.029   1.064
 5935TIP3   OH217761   6.395   5.345   0.754
 5935TIP3    H117762   6.366   5.436   0.749
 5935TIP3    H217763   6.490   5.349   0.739
 5936TIP3   OH217764   0.720   5.103   6.367
 5936TIP3    H117765   0.808   5.086   6.400
 5936TIP3    H217766   0.677   5.017   6.366
 5937TIP3   OH217767   8.253   6.346   5.543
 5937TIP3    H117768   8.254   6.356   5.448
 5937TIP3    H217769   8.178   6.290   5.561
 5938TIP3   OH217770   6.392   4.648   1.255
 5938TIP3    H117771   6.410   4.644   1.161
 5938TIP3    H217772   6.297   4.652   1.262
 5939TIP3   OH217773   0.111   0.299   4.235
 5939TIP3    H117774   0.021   0.301   4.267
 5939TIP3    H217775   0.102   0.280   4.142
 5940TIP3   OH217776   2.339   2.547   0.881
 5940TIP3    H117777   2.286   2.487   0.935
 5940TIP3    H217778   2.338   2.630   0.930
 5941TIP3   OH217779   4.453   0.576   6.326
 5941TIP3    H117780   4.514   0.583   6.252
 5941TIP3    H217781   4.456   0.483   6.350
 5942TIP3   OH217782   4.168   5.154   2.312
 5942TIP3    H117783   4.179   5.118   2.400
 5942TIP3    H217784   4.210   5.090   2.255
 5943TIP3   OH217785   5.649   2.076   0.642
 5943TIP3    H117786   5.697   2.006   0.597
 5943TIP3    H217787   5.557   2.056   0.625
 5944TIP3   OH217788   3.276   4.871   5.029
 5944TIP3    H117789   3.361   4.827   5.029
 5944TIP3    H217790   3.221   4.816   5.086
 5945TIP3   OH217791   5.882   2.289   1.159
 5945TIP3    H117792   5.903   2.200   1.129
 5945TIP3    H217793   5.832   2.275   1.240
 5946TIP3   OH217794   3.906   6.563   0.792
 5946TIP3    H117795   3.973   6.630   0.780
 5946TIP3    H217796   3.918   6.533   0.882
 5947TIP3   OH217797   0.698   2.282   1.016
 5947TIP3    H117798   0.791   2.286   1.041
 5947TIP3    H217799   0.668   2.198   1.049
 5948TIP3   OH217800   4.245   0.994   4.041
 5948TIP3    H117801   4.207   1.053   4.106
 5948TIP3    H217802   4.169   0.958   3.994
 5949TIP3   OH217803   0.613   5.408   2.264
 5949TIP3    H117804   0.622   5.474   2.196
 5949TIP3    H217805   0.704   5.385   2.286
 5950TIP3   OH217806   0.711   0.672   3.501
 5950TIP3    H117807   0.626   0.707   3.527
 5950TIP3    H217808   0.696   0.579   3.488
 5951TIP3   OH217809   2.852   3.847   4.377
 5951TIP3    H117810   2.785   3.899   4.422
 5951TIP3    H217811   2.866   3.771   4.434
 5952TIP3   OH217812   1.858   7.335   0.664
 5952TIP3    H117813   1.764   7.315   0.672
 5952TIP3    H217814   1.881   7.305   0.576
 5953TIP3   OH217815   8.151   2.786   3.772
 5953TIP3    H117816   8.135   2.846   3.699
 5953TIP3    H217817   8.102   2.707   3.749
 5954TIP3   OH217818   6.681   3.656   5.254
 5954TIP3    H117819   6.727   3.578   5.285
 5954TIP3    H217820   6.643   3.694   5.334
 5955TIP3   OH217821   0.619   6.201   4.012
 5955TIP3    H117822   0.537   6.160   3.984
 5955TIP3    H217823   0.611   6.207   4.108
 5956TIP3   OH217824   3.078   7.795   4.833
 5956TIP3    H117825   2.998   7.842   4.810
 5956TIP3    H217826   3.118   7.770   4.750
 5957TIP3   OH217827   6.449   3.512   1.113
 5957TIP3    H117828   6.529   3.534   1.160
 5957TIP3    H217829   6.467   3.536   1.022
 5958TIP3   OH217830   6.270   7.100   1.057
 5958TIP3    H117831   6.176   7.116   1.050
 5958TIP3    H217832   6.278   7.004   1.059
 5959TIP3   OH217833   7.370   7.477   3.169
 5959TIP3    H117834   7.348   7.569   3.151
 5959TIP3    H217835   7.291   7.428   3.144
 5960TIP3   OH217836   5.192   6.489   2.483
 5960TIP3    H117837   5.104   6.503   2.446
 5960TIP3    H217838   5.215   6.574   2.522
 5961TIP3   OH217839   4.575   6.964   4.014
 5961TIP3    H117840   4.661   6.949   3.976
 5961TIP3    H217841   4.589   7.033   4.079
 5962TIP3   OH217842   2.743   4.205   4.943
 5962TIP3    H117843   2.662   4.250   4.965
 5962TIP3    H217844   2.714   4.123   4.903
 5963TIP3   OH217845   1.262   0.636   6.461
 5963TIP3    H117846   1.330   0.578   6.427
 5963TIP3    H217847   1.296   0.666   6.546
 5964TIP3   OH217848   6.350   3.376   1.506
 5964TIP3    H117849   6.260   3.378   1.476
 5964TIP3    H217850   6.380   3.287   1.484
 5965TIP3   OH217851   1.336   6.333   2.925
 5965TIP3    H117852   1.345   6.349   2.831
 5965TIP3    H217853   1.271   6.397   2.955
 5966TIP3   OH217854   3.846   1.063   3.575
 5966TIP3    H117855   3.906   0.995   3.604
 5966TIP3    H217856   3.780   1.017   3.524
 5967TIP3   OH217857   1.380   7.277   1.343
 5967TIP3    H117858   1.465   7.253   1.307
 5967TIP3    H217859   1.325   7.200   1.330
 5968TIP3   OH217860   2.841   2.989   4.533
 5968TIP3    H117861   2.879   3.069   4.570
 5968TIP3    H217862   2.902   2.963   4.464
 5969TIP3   OH217863   2.520   1.597   1.283
 5969TIP3    H117864   2.476   1.528   1.332
 5969TIP3    H217865   2.485   1.678   1.319
 5970TIP3   OH217866   2.648   3.440   2.174
 5970TIP3    H117867   2.739   3.456   2.195
 5970TIP3    H217868   2.648   3.360   2.122
 5971TIP3   OH217869   2.312   2.984   3.920
 5971TIP3    H117870   2.288   2.943   3.837
 5971TIP3    H217871   2.247   2.953   3.983
 5972TIP3   OH217872   6.791   5.836   1.936
 5972TIP3    H117873   6.821   5.892   2.008
 5972TIP3    H217874   6.843   5.756   1.945
 5973TIP3   OH217875   1.656   4.439   5.842
 5973TIP3    H117876   1.594   4.494   5.794
 5973TIP3    H217877   1.733   4.495   5.854
 5974TIP3   OH217878   3.971   2.233   3.626
 5974TIP3    H117879   3.941   2.184   3.549
 5974TIP3    H217880   3.896   2.234   3.685
 5975TIP3   OH217881   6.600   4.501   0.962
 5975TIP3    H117882   6.660   4.541   1.025
 5975TIP3    H217883   6.565   4.425   1.007
 5976TIP3   OH217884   6.270   4.439   0.799
 5976TIP3    H117885   6.230   4.391   0.872
 5976TIP3    H217886   6.204   4.439   0.731
 5977TIP3   OH217887   2.122   0.838   3.841
 5977TIP3    H117888   2.161   0.791   3.915
 5977TIP3    H217889   2.051   0.889   3.879
 5978TIP3   OH217890   7.718   0.447   3.106
 5978TIP3    H117891   7.632   0.488   3.111
 5978TIP3    H217892   7.701   0.360   3.071
 5979TIP3   OH217893   1.750   6.173   0.236
 5979TIP3    H117894   1.800   6.221   0.171
 5979TIP3    H217895   1.677   6.134   0.187
 5980TIP3   OH217896   2.993   3.025   2.598
 5980TIP3    H117897   2.975   2.937   2.632
 5980TIP3    H217898   3.024   3.010   2.508
 5981TIP3   OH217899   2.466   5.476   5.577
 5981TIP3    H117900   2.440   5.415   5.646
 5981TIP3    H217901   2.385   5.522   5.553
 5982TIP3   OH217902   3.834   5.873   1.998
 5982TIP3    H117903   3.864   5.807   2.061
 5982TIP3    H217904   3.761   5.917   2.042
 5983TIP3   OH217905   1.422   1.359   4.639
 5983TIP3    H117906   1.387   1.389   4.555
 5983TIP3    H217907   1.345   1.347   4.695
 5984TIP3   OH217908   5.534   7.703   4.063
 5984TIP3    H117909   5.462   7.687   4.002
 5984TIP3    H217910   5.568   7.617   4.084
 5985TIP3   OH217911   8.240   7.852   4.919
 5985TIP3    H117912   8.204   7.814   4.838
 5985TIP3    H217913   8.239   7.780   4.982
 5986TIP3   OH217914   6.005   5.980   5.426
 5986TIP3    H117915   5.915   5.969   5.456
 5986TIP3    H217916   6.026   5.896   5.383
 5987TIP3   OH217917   7.072   1.519   1.457
 5987TIP3    H117918   7.104   1.485   1.374
 5987TIP3    H217919   7.127   1.478   1.523
 5988TIP3   OH217920   0.664   2.298   4.389
 5988TIP3    H117921   0.680   2.280   4.482
 5988TIP3    H217922   0.629   2.215   4.355
 5989TIP3   OH217923   5.898   3.719   0.359
 5989TIP3    H117924   5.804   3.705   0.367
 5989TIP3    H217925   5.922   3.675   0.278
 5990TIP3   OH217926   0.115   3.019   3.192
 5990TIP3    H117927   0.192   2.985   3.146
 5990TIP3    H217928   0.151   3.072   3.263
 5991TIP3   OH217929   0.520   2.236   0.063
 5991TIP3    H117930   0.539   2.330   0.060
 5991TIP3    H217931   0.580   2.198  -0.002
 5992TIP3   OH217932   6.927   2.486   0.743
 5992TIP3    H117933   6.927   2.486   0.648
 5992TIP3    H217934   6.852   2.540   0.768
 5993TIP3   OH217935   1.773   2.467   3.272
 5993TIP3    H117936   1.700   2.470   3.210
 5993TIP3    H217937   1.731   2.468   3.358
 5994TIP3   OH217938   2.914   2.433   0.522
 5994TIP3    H117939   2.903   2.390   0.437
 5994TIP3    H217940   2.924   2.362   0.585
 5995TIP3   OH217941   4.024   1.995   5.520
 5995TIP3    H117942   3.986   1.922   5.568
 5995TIP3    H217943   4.058   1.956   5.440
 5996TIP3   OH217944   6.460   5.021   3.817
 5996TIP3    H117945   6.405   4.943   3.819
 5996TIP3    H217946   6.550   4.987   3.812
 5997TIP3   OH217947   3.731   1.023   2.108
 5997TIP3    H117948   3.671   0.969   2.160
 5997TIP3    H217949   3.791   1.061   2.172
 5998TIP3   OH217950   5.474   5.037   5.033
 5998TIP3    H117951   5.413   5.109   5.018
 5998TIP3    H217952   5.420   4.958   5.031
 5999TIP3   OH217953   6.629   7.667   2.421
 5999TIP3    H117954   6.632   7.581   2.381
 5999TIP3    H217955   6.701   7.667   2.485
 6000TIP3   OH217956   2.654   1.647   3.570
 6000TIP3    H117957   2.707   1.611   3.642
 6000TIP3    H217958   2.660   1.742   3.582
 6001TIP3   OH217959   4.625   5.959   1.008
 6001TIP3    H117960   4.661   6.029   0.954
 6001TIP3    H217961   4.690   5.946   1.077
 6002TIP3   OH217962   6.618   3.105   1.726
 6002TIP3    H117963   6.636   3.065   1.811
 6002TIP3    H217964   6.534   3.067   1.699
 6003TIP3   OH217965   3.997   6.802   6.689
 6003TIP3    H117966   3.910   6.841   6.698
 6003TIP3    H217967   3.980   6.710   6.666
 6004TIP3   OH217968   7.444   2.562   4.934
 6004TIP3    H117969   7.521   2.611   4.907
 6004TIP3    H217970   7.477   2.501   5.000
 6005TIP3   OH217971   0.244   4.492   5.896
 6005TIP3    H117972   0.311   4.526   5.837
 6005TIP3    H217973   0.243   4.398   5.880
 6006TIP3   OH217974   4.882   2.026   4.141
 6006TIP3    H117975   4.890   2.087   4.214
 6006TIP3    H217976   4.932   2.066   4.070
 6007TIP3   OH217977   4.728   7.434   1.728
 6007TIP3    H117978   4.649   7.424   1.676
 6007TIP3    H217979   4.747   7.528   1.725
 6008TIP3   OH217980   6.905   1.169   0.451
 6008TIP3    H117981   6.837   1.225   0.413
 6008TIP3    H217982   6.987   1.212   0.427
 6009TIP3   OH217983   1.097   0.273   6.178
 6009TIP3    H117984   1.058   0.272   6.090
 6009TIP3    H217985   1.167   0.338   6.172
 6010TIP3   OH217986   1.473   2.576   1.230
 6010TIP3    H117987   1.409   2.630   1.277
 6010TIP3    H217988   1.542   2.560   1.294
 6011TIP3   OH217989   6.065   6.920   4.664
 6011TIP3    H117990   6.072   6.996   4.721
 6011TIP3    H217991   6.016   6.856   4.715
 6012TIP3   OH217992   5.296   0.671   2.083
 6012TIP3    H117993   5.265   0.689   1.995
 6012TIP3    H217994   5.371   0.730   2.096
 6013TIP3   OH217995   2.093  -0.007   3.142
 6013TIP3    H117996   2.147   0.053   3.194
 6013TIP3    H217997   2.150  -0.034   3.070
 6014TIP3   OH217998   7.972   1.835   3.257
 6014TIP3    H117999   7.943   1.746   3.238
 6014TIP3    H218000   8.022   1.861   3.179
 6015TIP3   OH218001   1.078   1.458   3.471
 6015TIP3    H118002   1.130   1.527   3.429
 6015TIP3    H218003   1.050   1.402   3.399
 6016TIP3   OH218004   1.369   6.642   0.560
 6016TIP3    H118005   1.331   6.554   0.552
 6016TIP3    H218006   1.463   6.628   0.554
 6017TIP3   OH218007   7.862   0.261   0.076
 6017TIP3    H118008   7.848   0.194   0.143
 6017TIP3    H218009   7.834   0.220  -0.006
 6018TIP3   OH218010   6.984   3.156   0.295
 6018TIP3    H118011   7.038   3.235   0.285
 6018TIP3    H218012   6.900   3.181   0.257
 6019TIP3   OH218013   7.753   7.169   2.282
 6019TIP3    H118014   7.795   7.211   2.207
 6019TIP3    H218015   7.780   7.222   2.357
 6020TIP3   OH218016   2.648   4.518   3.655
 6020TIP3    H118017   2.603   4.558   3.581
 6020TIP3    H218018   2.581   4.510   3.723
 6021TIP3   OH218019   8.009   2.625   5.622
 6021TIP3    H118020   7.994   2.698   5.683
 6021TIP3    H218021   7.926   2.615   5.576
 6022TIP3   OH218022   6.150   7.096   5.704
 6022TIP3    H118023   6.202   7.016   5.700
 6022TIP3    H218024   6.100   7.088   5.785
 6023TIP3   OH218025   6.785   4.977   0.582
 6023TIP3    H118026   6.785   4.893   0.535
 6023TIP3    H218027   6.692   4.997   0.594
 6024TIP3   OH218028   3.891   1.207   1.509
 6024TIP3    H118029   3.888   1.293   1.552
 6024TIP3    H218030   3.801   1.191   1.481
 6025TIP3   OH218031   0.113   3.928   4.391
 6025TIP3    H118032   0.138   3.938   4.483
 6025TIP3    H218033   0.090   3.836   4.382
 6026TIP3   OH218034   5.004   5.019   0.838
 6026TIP3    H118035   5.066   5.052   0.773
 6026TIP3    H218036   4.940   4.969   0.788
 6027TIP3   OH218037   5.399   3.422   4.394
 6027TIP3    H118038   5.364   3.350   4.447
 6027TIP3    H218039   5.357   3.411   4.309
 6028TIP3   OH218040   5.242   3.193   1.231
 6028TIP3    H118041   5.231   3.102   1.256
 6028TIP3    H218042   5.201   3.243   1.302
 6029TIP3   OH218043   4.052   2.482   0.829
 6029TIP3    H118044   4.110   2.444   0.895
 6029TIP3    H218045   3.965   2.481   0.870
 6030TIP3   OH218046   2.926   7.228   6.554
 6030TIP3    H118047   2.925   7.313   6.597
 6030TIP3    H218048   2.867   7.173   6.605
 6031TIP3   OH218049   3.497   3.965   0.794
 6031TIP3    H118050   3.490   4.048   0.842
 6031TIP3    H218051   3.425   3.912   0.827
 6032TIP3   OH218052   3.581   3.808   4.877
 6032TIP3    H118053   3.653   3.858   4.916
 6032TIP3    H218054   3.513   3.874   4.859
 6033TIP3   OH218055   1.139   0.145   4.964
 6033TIP3    H118056   1.217   0.105   4.926
 6033TIP3    H218057   1.127   0.098   5.047
 6034TIP3   OH218058   3.920   1.772   5.690
 6034TIP3    H118059   3.923   1.677   5.689
 6034TIP3    H218060   3.837   1.794   5.647
 6035TIP3   OH218061   3.748   1.244   4.990
 6035TIP3    H118062   3.783   1.291   4.914
 6035TIP3    H218063   3.689   1.307   5.032
 6036TIP3   OH218064   7.707   3.714   0.821
 6036TIP3    H118065   7.762   3.638   0.839
 6036TIP3    H218066   7.739   3.747   0.737
 6037TIP3   OH218067   5.981   2.134   4.348
 6037TIP3    H118068   5.929   2.142   4.428
 6037TIP3    H218069   5.951   2.052   4.308
 6038TIP3   OH218070   2.354   5.347   1.048
 6038TIP3    H118071   2.383   5.320   1.135
 6038TIP3    H218072   2.395   5.432   1.034
 6039TIP3   OH218073   7.548   3.752   2.275
 6039TIP3    H118074   7.608   3.824   2.294
 6039TIP3    H218075   7.605   3.681   2.244
 6040TIP3   OH218076   4.294   2.967   2.655
 6040TIP3    H118077   4.341   3.046   2.629
 6040TIP3    H218078   4.217   2.964   2.598
 6041TIP3   OH218079   5.370   5.629   2.051
 6041TIP3    H118080   5.292   5.683   2.044
 6041TIP3    H218081   5.433   5.670   1.992
 6042TIP3   OH218082   3.199   4.300   4.085
 6042TIP3    H118083   3.164   4.363   4.023
 6042TIP3    H218084   3.222   4.224   4.031
 6043TIP3   OH218085   6.572   2.650   2.317
 6043TIP3    H118086   6.592   2.587   2.387
 6043TIP3    H218087   6.638   2.634   2.250
 6044TIP3   OH218088   5.461   5.536   0.131
 6044TIP3    H118089   5.461   5.589   0.211
 6044TIP3    H218090   5.514   5.587   0.069
 6045TIP3   OH218091   5.823   7.336   6.304
 6045TIP3    H118092   5.813   7.295   6.218
 6045TIP3    H218093   5.742   7.386   6.315
 6046TIP3   OH218094   0.749   7.726   6.033
 6046TIP3    H118095   0.816   7.707   6.098
 6046TIP3    H218096   0.797   7.748   5.953
 6047TIP3   OH218097   1.322   0.920   1.234
 6047TIP3    H118098   1.305   0.983   1.164
 6047TIP3    H218099   1.235   0.890   1.261
 6048TIP3   OH218100   4.130   5.485   2.302
 6048TIP3    H118101   4.095   5.398   2.284
 6048TIP3    H218102   4.218   5.469   2.335
 6049TIP3   OH218103   2.679   4.128   1.992
 6049TIP3    H118104   2.720   4.042   1.991
 6049TIP3    H218105   2.751   4.188   2.013
 6050TIP3   OH218106   5.870   5.703   5.454
 6050TIP3    H118107   5.869   5.737   5.364
 6050TIP3    H218108   5.799   5.639   5.456
 6051TIP3   OH218109   3.033   1.792   2.872
 6051TIP3    H118110   2.968   1.765   2.938
 6051TIP3    H218111   3.003   1.878   2.843
 6052TIP3   OH218112   1.373   0.530   3.141
 6052TIP3    H118113   1.316   0.501   3.069
 6052TIP3    H218114   1.364   0.626   3.141
 6053TIP3   OH218115   7.130   5.163   2.390
 6053TIP3    H118116   7.123   5.070   2.367
 6053TIP3    H218117   7.066   5.206   2.333
 6054TIP3   OH218118   5.629   0.727   3.562
 6054TIP3    H118119   5.599   0.657   3.504
 6054TIP3    H218120   5.698   0.687   3.614
 6055TIP3   OH218121   5.629   3.157   3.044
 6055TIP3    H118122   5.590   3.155   2.956
 6055TIP3    H218123   5.608   3.245   3.077
 6056TIP3   OH218124   4.188   5.591   0.954
 6056TIP3    H118125   4.253   5.658   0.975
 6056TIP3    H218126   4.223   5.546   0.877
 6057TIP3   OH218127   8.272   2.995   5.262
 6057TIP3    H118128   8.280   2.900   5.277
 6057TIP3    H218129   8.260   3.004   5.168
 6058TIP3   OH218130   3.223   2.557   2.639
 6058TIP3    H118131   3.291   2.584   2.701
 6058TIP3    H218132   3.167   2.497   2.689
 6059TIP3   OH218133   1.577   7.604   1.442
 6059TIP3    H118134   1.517   7.678   1.454
 6059TIP3    H218135   1.620   7.621   1.358
 6060TIP3   OH218136   5.353   6.640   4.456
 6060TIP3    H118137   5.314   6.629   4.370
 6060TIP3    H218138   5.281   6.666   4.513
 6061TIP3   OH218139   2.601   3.302   1.339
 6061TIP3    H118140   2.676   3.348   1.376
 6061TIP3    H218141   2.525   3.343   1.380
 6062TIP3   OH218142   5.617   4.283   6.466
 6062TIP3    H118143   5.695   4.240   6.501
 6062TIP3    H218144   5.571   4.213   6.419
 6063TIP3   OH218145   4.623   2.839   2.997
 6063TIP3    H118146   4.538   2.866   2.964
 6063TIP3    H218147   4.617   2.744   3.004
 6064TIP3   OH218148   0.316   2.440   6.426
 6064TIP3    H118149   0.293   2.499   6.354
 6064TIP3    H218150   0.334   2.498   6.500
 6065TIP3   OH218151   2.488   2.094   1.714
 6065TIP3    H118152   2.481   2.103   1.809
 6065TIP3    H218153   2.573   2.053   1.701
 6066TIP3   OH218154   2.578   2.978   4.556
 6066TIP3    H118155   2.549   2.948   4.643
 6066TIP3    H218156   2.672   2.991   4.565
 6067TIP3   OH218157   5.117   4.198   1.525
 6067TIP3    H118158   5.077   4.280   1.552
 6067TIP3    H218159   5.077   4.132   1.583
 6068TIP3   OH218160   0.916   0.177   0.656
 6068TIP3    H118161   0.893   0.190   0.748
 6068TIP3    H218162   0.843   0.127   0.619
 6069TIP3   OH218163   0.858   3.117   0.720
 6069TIP3    H118164   0.889   3.084   0.635
 6069TIP3    H218165   0.788   3.178   0.698
 6070TIP3   OH218166   2.495   4.688   5.906
 6070TIP3    H118167   2.463   4.749   5.839
 6070TIP3    H218168   2.568   4.642   5.863
 6071TIP3   OH218169   1.545   3.567   1.291
 6071TIP3    H118170   1.597   3.590   1.368
 6071TIP3    H218171   1.487   3.497   1.321
 6072TIP3   OH218172   7.734   1.862   2.590
 6072TIP3    H118173   7.797   1.926   2.557
 6072TIP3    H218174   7.749   1.858   2.684
 6073TIP3   OH218175   5.157   4.038   4.119
 6073TIP3    H118176   5.162   3.952   4.077
 6073TIP3    H218177   5.122   4.096   4.052
 6074TIP3   OH218178   1.243   4.487   6.299
 6074TIP3    H118179   1.290   4.408   6.326
 6074TIP3    H218180   1.150   4.466   6.312
 6075TIP3   OH218181   4.069   0.813   3.235
 6075TIP3    H118182   4.094   0.758   3.309
 6075TIP3    H218183   4.147   0.866   3.217
 6076TIP3   OH218184   1.729   3.202   1.020
 6076TIP3    H118185   1.763   3.251   1.095
 6076TIP3    H218186   1.651   3.252   0.993
 6077TIP3   OH218187   7.990   3.075   2.977
 6077TIP3    H118188   8.056   3.133   3.017
 6077TIP3    H218189   7.944   3.131   2.915
 6078TIP3   OH218190   5.752   5.436   1.703
 6078TIP3    H118191   5.747   5.343   1.723
 6078TIP3    H218192   5.774   5.439   1.610
 6079TIP3   OH218193   4.330   0.422   0.161
 6079TIP3    H118194   4.249   0.370   0.159
 6079TIP3    H218195   4.364   0.410   0.249
 6080TIP3   OH218196   7.139   7.427   1.314
 6080TIP3    H118197   7.226   7.416   1.353
 6080TIP3    H218198   7.139   7.517   1.281
 6081TIP3   OH218199   1.007   5.428   1.675
 6081TIP3    H118200   1.015   5.363   1.744
 6081TIP3    H218201   1.095   5.465   1.667
 6082TIP3   OH218202   1.636   2.847   0.371
 6082TIP3    H118203   1.668   2.849   0.281
 6082TIP3    H218204   1.712   2.872   0.424
 6083TIP3   OH218205   7.415   2.027   2.747
 6083TIP3    H118206   7.359   2.100   2.774
 6083TIP3    H218207   7.403   1.961   2.816
 6084TIP3   OH218208   2.631   7.838   0.425
 6084TIP3    H118209   2.725   7.830   0.412
 6084TIP3    H218210   2.608   7.765   0.483
 6085TIP3   OH218211   5.672   0.291   5.743
 6085TIP3    H118212   5.746   0.336   5.784
 6085TIP3    H218213   5.631   0.358   5.688
 6086TIP3   OH218214   2.724   3.328   4.747
 6086TIP3    H118215   2.748   3.247   4.793
 6086TIP3    H218216   2.629   3.334   4.757
 6087TIP3   OH218217   2.325   6.765   2.136
 6087TIP3    H118218   2.248   6.735   2.087
 6087TIP3    H218219   2.315   6.723   2.222
 6088TIP3   OH218220   5.814   4.885   2.396
 6088TIP3    H118221   5.886   4.823   2.405
 6088TIP3    H218222   5.817   4.912   2.304
 6089TIP3   OH218223   3.544   7.504   2.884
 6089TIP3    H118224   3.611   7.512   2.816
 6089TIP3    H218225   3.482   7.575   2.865
 6090TIP3   OH218226   5.163   1.131   6.689
 6090TIP3    H118227   5.071   1.123   6.716
 6090TIP3    H218228   5.158   1.163   6.598
 6091TIP3   OH218229   0.440   5.890   3.769
 6091TIP3    H118230   0.407   5.830   3.702
 6091TIP3    H218231   0.480   5.961   3.720
 6092TIP3   OH218232   3.109   6.811   2.711
 6092TIP3    H118233   3.091   6.905   2.722
 6092TIP3    H218234   3.180   6.807   2.648
 6093TIP3   OH218235   3.318   6.978   2.817
 6093TIP3    H118236   3.297   6.892   2.854
 6093TIP3    H218237   3.350   6.959   2.729
 6094TIP3   OH218238   2.542   0.839   6.209
 6094TIP3    H118239   2.624   0.864   6.165
 6094TIP3    H218240   2.496   0.922   6.221
 6095TIP3   OH218241   7.452   5.258   2.363
 6095TIP3    H118242   7.448   5.175   2.411
 6095TIP3    H218243   7.433   5.325   2.429
 6096TIP3   OH218244   6.444   6.516   5.402
 6096TIP3    H118245   6.527   6.471   5.386
 6096TIP3    H218246   6.391   6.497   5.325
 6097TIP3   OH218247   7.858   0.751   3.613
 6097TIP3    H118248   7.902   0.689   3.553
 6097TIP3    H218249   7.880   0.719   3.700
 6098TIP3   OH218250   2.954   0.518   5.298
 6098TIP3    H118251   3.026   0.470   5.336
 6098TIP3    H218252   2.875   0.470   5.325
 6099TIP3   OH218253   4.016   1.093   3.360
 6099TIP3    H118254   3.973   1.102   3.445
 6099TIP3    H218255   3.991   1.006   3.329
 6100TIP3   OH218256   7.066   0.630   0.159
 6100TIP3    H118257   7.066   0.661   0.069
 6100TIP3    H218258   7.151   0.654   0.194
 6101TIP3   OH218259   0.971   3.297   0.989
 6101TIP3    H118260   1.010   3.215   0.958
 6101TIP3    H218261   1.043   3.343   1.032
 6102TIP3   OH218262   6.030   6.017   2.243
 6102TIP3    H118263   6.075   5.995   2.161
 6102TIP3    H218264   5.943   5.979   2.233
 6103TIP3   OH218265   6.140   4.731   0.309
 6103TIP3    H118266   6.132   4.776   0.225
 6103TIP3    H218267   6.162   4.801   0.371
 6104TIP3   OH218268   1.642   1.882   4.276
 6104TIP3    H118269   1.693   1.921   4.206
 6104TIP3    H218270   1.635   1.951   4.342
 6105TIP3   OH218271   3.098   4.384   2.691
 6105TIP3    H118272   3.180   4.341   2.668
 6105TIP3    H218273   3.030   4.322   2.662
 6106TIP3   OH218274   7.733   3.939   2.337
 6106TIP3    H118275   7.770   3.898   2.416
 6106TIP3    H218276   7.684   4.014   2.370
 6107TIP3   OH218277   6.361   5.871   2.192
 6107TIP3    H118278   6.415   5.813   2.138
 6107TIP3    H218279   6.324   5.934   2.131
 6108TIP3   OH218280   1.884   0.208   2.247
 6108TIP3    H118281   1.811   0.269   2.261
 6108TIP3    H218282   1.842   0.122   2.244
 6109TIP3   OH218283   2.115   7.625   2.704
 6109TIP3    H118284   2.090   7.534   2.685
 6109TIP3    H218285   2.050   7.655   2.768
 6110TIP3   OH218286   5.031   2.438   4.942
 6110TIP3    H118287   5.035   2.430   5.037
 6110TIP3    H218288   5.118   2.469   4.917
 6111TIP3   OH218289   7.687   4.668   1.268
 6111TIP3    H118290   7.664   4.753   1.229
 6111TIP3    H218291   7.690   4.608   1.193
 6112TIP3   OH218292   3.657   5.269   5.805
 6112TIP3    H118293   3.632   5.356   5.836
 6112TIP3    H218294   3.753   5.268   5.808
 6113TIP3   OH218295   0.390   3.941   4.889
 6113TIP3    H118296   0.365   3.975   4.975
 6113TIP3    H218297   0.462   3.998   4.860
 6114TIP3   OH218298   3.577   1.342   4.027
 6114TIP3    H118299   3.528   1.302   3.955
 6114TIP3    H218300   3.664   1.356   3.991
 6115TIP3   OH218301   1.903   5.006   5.096
 6115TIP3    H118302   1.933   4.971   5.012
 6115TIP3    H218303   1.812   4.978   5.102
 6116TIP3   OH218304   4.699   0.793   6.253
 6116TIP3    H118305   4.726   0.780   6.344
 6116TIP3    H218306   4.603   0.800   6.257
 6117TIP3   OH218307   5.953   4.700   3.785
 6117TIP3    H118308   5.919   4.688   3.696
 6117TIP3    H218309   5.875   4.697   3.840
 6118TIP3   OH218310   7.161   1.406   4.895
 6118TIP3    H118311   7.255   1.424   4.888
 6118TIP3    H218312   7.149   1.324   4.846
 6119TIP3   OH218313   5.426   4.534   1.931
 6119TIP3    H118314   5.509   4.581   1.943
 6119TIP3    H218315   5.421   4.520   1.837
 6120TIP3   OH218316   3.808   0.940   4.930
 6120TIP3    H118317   3.818   1.033   4.913
 6120TIP3    H218318   3.852   0.897   4.857
 6121TIP3   OH218319   6.541   3.089   5.568
 6121TIP3    H118320   6.467   3.057   5.517
 6121TIP3    H218321   6.574   3.163   5.517
 6122TIP3   OH218322   1.475   3.620   4.817
 6122TIP3    H118323   1.444   3.656   4.734
 6122TIP3    H218324   1.405   3.562   4.846
 6123TIP3   OH218325   4.115   7.692   5.573
 6123TIP3    H118326   4.047   7.679   5.640
 6123TIP3    H218327   4.124   7.605   5.533
 6124TIP3   OH218328   6.933   4.019   6.232
 6124TIP3    H118329   6.925   4.047   6.324
 6124TIP3    H218330   6.852   4.049   6.191
 6125TIP3   OH218331   3.620   4.233   4.610
 6125TIP3    H118332   3.700   4.179   4.604
 6125TIP3    H218333   3.594   4.225   4.702
 6126TIP3   OH218334   0.439   5.586   6.369
 6126TIP3    H118335   0.526   5.616   6.341
 6126TIP3    H218336   0.456   5.505   6.417
 6127TIP3   OH218337   6.010   2.507   2.254
 6127TIP3    H118338   6.093   2.554   2.263
 6127TIP3    H218339   5.961   2.531   2.332
 6128TIP3   OH218340   2.849   1.024   0.402
 6128TIP3    H118341   2.855   1.045   0.309
 6128TIP3    H218342   2.763   0.982   0.412
 6129TIP3   OH218343   2.704   3.913   1.600
 6129TIP3    H118344   2.656   3.855   1.541
 6129TIP3    H218345   2.782   3.938   1.550
 6130TIP3   OH218346   7.753   7.462   1.734
 6130TIP3    H118347   7.825   7.488   1.791
 6130TIP3    H218348   7.794   7.448   1.648
 6131TIP3   OH218349   5.626   3.500   1.064
 6131TIP3    H118350   5.590   3.414   1.087
 6131TIP3    H218351   5.580   3.524   0.983
 6132TIP3   OH218352   1.545   2.383   4.879
 6132TIP3    H118353   1.470   2.353   4.930
 6132TIP3    H218354   1.621   2.339   4.919
 6133TIP3   OH218355   3.831   0.614   3.319
 6133TIP3    H118356   3.865   0.690   3.272
 6133TIP3    H218357   3.739   0.610   3.293
 6134TIP3   OH218358   1.931   3.600   4.668
 6134TIP3    H118359   1.920   3.597   4.573
 6134TIP3    H218360   1.850   3.637   4.701
 6135TIP3   OH218361   7.232   6.590   5.683
 6135TIP3    H118362   7.284   6.662   5.647
 6135TIP3    H218363   7.172   6.633   5.744
 6136TIP3   OH218364   0.262   0.376   6.035
 6136TIP3    H118365   0.236   0.285   6.051
 6136TIP3    H218366   0.192   0.411   5.980
 6137TIP3   OH218367   1.467   0.265   3.539
 6137TIP3    H118368   1.424   0.334   3.488
 6137TIP3    H218369   1.406   0.246   3.610
 6138TIP3   OH218370   8.205   4.496   0.632
 6138TIP3    H118371   8.261   4.469   0.705
 6138TIP3    H218372   8.121   4.518   0.673
 6139TIP3   OH218373   2.800   3.895   3.422
 6139TIP3    H118374   2.850   3.975   3.437
 6139TIP3    H218375   2.708   3.923   3.421
 6140TIP3   OH218376   0.410   4.662   5.400
 6140TIP3    H118377   0.488   4.606   5.399
 6140TIP3    H218378   0.405   4.694   5.491
 6141TIP3   OH218379   1.986   4.951   0.056
 6141TIP3    H118380   2.040   5.008   0.112
 6141TIP3    H218381   1.920   4.915   0.115
 6142TIP3   OH218382   2.244   6.228   4.811
 6142TIP3    H118383   2.270   6.307   4.765
 6142TIP3    H218384   2.288   6.157   4.764
 6143TIP3   OH218385   3.936   5.643   5.472
 6143TIP3    H118386   3.912   5.659   5.381
 6143TIP3    H218387   3.914   5.551   5.487
 6144TIP3   OH218388   6.531   7.197   1.837
 6144TIP3    H118389   6.602   7.153   1.885
 6144TIP3    H218390   6.576   7.248   1.770
 6145TIP3   OH218391   2.341   7.519   2.316
 6145TIP3    H118392   2.319   7.611   2.330
 6145TIP3    H218393   2.414   7.502   2.375
 6146TIP3   OH218394   5.657   6.728   5.245
 6146TIP3    H118395   5.601   6.651   5.240
 6146TIP3    H218396   5.714   6.722   5.168
 6147TIP3   OH218397   1.622   5.506   5.586
 6147TIP3    H118398   1.695   5.491   5.526
 6147TIP3    H218399   1.546   5.466   5.542
 6148TIP3   OH218400   3.999   2.963   2.803
 6148TIP3    H118401   4.058   2.888   2.799
 6148TIP3    H218402   3.947   2.957   2.722
 6149TIP3   OH218403   6.586   3.103   3.248
 6149TIP3    H118404   6.562   3.028   3.302
 6149TIP3    H218405   6.538   3.089   3.166
 6150TIP3   OH218406   0.505   4.224   0.380
 6150TIP3    H118407   0.493   4.168   0.303
 6150TIP3    H218408   0.596   4.252   0.375
 6151TIP3   OH218409   1.305   2.022   5.071
 6151TIP3    H118410   1.368   1.951   5.081
 6151TIP3    H218411   1.267   2.009   4.984
 6152TIP3   OH218412   0.734   6.087   1.318
 6152TIP3    H118413   0.787   6.068   1.396
 6152TIP3    H218414   0.673   6.155   1.346
 6153TIP3   OH218415   2.503   6.062   1.441
 6153TIP3    H118416   2.460   6.132   1.491
 6153TIP3    H218417   2.432   6.005   1.415
 6154TIP3   OH218418   3.628   1.705   2.056
 6154TIP3    H118419   3.688   1.694   2.130
 6154TIP3    H218420   3.542   1.715   2.096
 6155TIP3   OH218421   7.439   5.441   6.000
 6155TIP3    H118422   7.489   5.362   5.978
 6155TIP3    H218423   7.451   5.499   5.925
 6156TIP3   OH218424   5.660   1.205   5.738
 6156TIP3    H118425   5.573   1.196   5.698
 6156TIP3    H218426   5.721   1.190   5.666
 6157TIP3   OH218427   0.103   0.712   5.016
 6157TIP3    H118428   0.110   0.675   4.928
 6157TIP3    H218429   0.192   0.707   5.051
 6158TIP3   OH218430   0.702   0.169   4.740
 6158TIP3    H118431   0.692   0.195   4.832
 6158TIP3    H218432   0.793   0.190   4.719
 6159TIP3   OH218433   1.466   6.553   6.526
 6159TIP3    H118434   1.556   6.546   6.559
 6159TIP3    H218435   1.416   6.492   6.580
 6160TIP3   OH218436   0.428   3.323   3.183
 6160TIP3    H118437   0.391   3.257   3.241
 6160TIP3    H218438   0.375   3.317   3.104
 6161TIP3   OH218439   7.277   3.444   3.557
 6161TIP3    H118440   7.259   3.490   3.640
 6161TIP3    H218441   7.289   3.353   3.583
 6162TIP3   OH218442   4.908   3.736   1.994
 6162TIP3    H118443   4.962   3.709   2.068
 6162TIP3    H218444   4.821   3.748   2.031
 6163TIP3   OH218445   6.895   2.879   5.327
 6163TIP3    H118446   6.816   2.869   5.274
 6163TIP3    H218447   6.904   2.794   5.372
 6164TIP3   OH218448   3.827   1.702   1.561
 6164TIP3    H118449   3.824   1.764   1.488
 6164TIP3    H218450   3.801   1.754   1.638
 6165TIP3   OH218451   8.193   3.066   3.544
 6165TIP3    H118452   8.125   3.055   3.478
 6165TIP3    H218453   8.173   3.149   3.586
 6166TIP3   OH218454   2.752   0.389   2.743
 6166TIP3    H118455   2.701   0.329   2.689
 6166TIP3    H218456   2.840   0.385   2.707
 6167TIP3   OH218457   0.735   0.659   1.440
 6167TIP3    H118458   0.778   0.744   1.443
 6167TIP3    H218459   0.742   0.625   1.529
 6168TIP3   OH218460   5.972   3.975   0.398
 6168TIP3    H118461   5.985   3.954   0.491
 6168TIP3    H218462   5.922   3.901   0.364
 6169TIP3   OH218463   6.911   2.059   3.685
 6169TIP3    H118464   6.866   1.987   3.728
 6169TIP3    H218465   7.004   2.037   3.692
 6170TIP3   OH218466   4.306   3.498   0.525
 6170TIP3    H118467   4.341   3.587   0.526
 6170TIP3    H218468   4.212   3.509   0.537
 6171TIP3   OH218469   1.026   5.692   4.020
 6171TIP3    H118470   0.949   5.734   3.981
 6171TIP3    H218471   1.003   5.682   4.112
 6172TIP3   OH218472   3.955   5.055   4.934
 6172TIP3    H118473   3.922   5.022   5.017
 6172TIP3    H218474   3.946   5.150   4.940
 6173TIP3   OH218475   5.590   7.060   0.994
 6173TIP3    H118476   5.682   7.082   1.010
 6173TIP3    H218477   5.590   7.023   0.906
 6174TIP3   OH218478   5.705   6.404   0.363
 6174TIP3    H118479   5.685   6.432   0.274
 6174TIP3    H218480   5.756   6.324   0.353
 6175TIP3   OH218481   4.497   4.395   3.068
 6175TIP3    H118482   4.481   4.354   2.982
 6175TIP3    H218483   4.487   4.489   3.052
 6176TIP3   OH218484   0.443   3.991   4.078
 6176TIP3    H118485   0.422   4.023   3.990
 6176TIP3    H218486   0.518   4.044   4.105
 6177TIP3   OH218487   4.642   2.815   2.314
 6177TIP3    H118488   4.626   2.768   2.232
 6177TIP3    H218489   4.563   2.800   2.366
 6178TIP3   OH218490   7.776   7.063   6.004
 6178TIP3    H118491   7.841   6.994   5.991
 6178TIP3    H218492   7.814   7.140   5.961
 6179TIP3   OH218493   3.184   2.849   1.694
 6179TIP3    H118494   3.129   2.790   1.642
 6179TIP3    H218495   3.157   2.937   1.667
 6180TIP3   OH218496   2.174   2.316   5.811
 6180TIP3    H118497   2.171   2.371   5.733
 6180TIP3    H218498   2.263   2.327   5.845
 6181TIP3   OH218499   0.931   0.919   1.467
 6181TIP3    H118500   1.002   0.877   1.419
 6181TIP3    H218501   0.976   0.976   1.530
 6182TIP3   OH218502   1.358   4.508   0.698
 6182TIP3    H118503   1.425   4.576   0.696
 6182TIP3    H218504   1.389   4.447   0.765
 6183TIP3   OH218505   7.618   7.410   6.291
 6183TIP3    H118506   7.550   7.420   6.358
 6183TIP3    H218507   7.610   7.319   6.263
 6184TIP3   OH218508   4.000   3.906   3.394
 6184TIP3    H118509   4.028   3.992   3.425
 6184TIP3    H218510   4.021   3.907   3.300
 6185TIP3   OH218511   7.947   6.156   1.158
 6185TIP3    H118512   7.925   6.072   1.118
 6185TIP3    H218513   8.005   6.198   1.094
 6186TIP3   OH218514   5.301   1.235   6.065
 6186TIP3    H118515   5.307   1.247   5.970
 6186TIP3    H218516   5.218   1.277   6.089
 6187TIP3   OH218517   6.878   2.437   4.933
 6187TIP3    H118518   6.896   2.468   4.844
 6187TIP3    H218519   6.964   2.431   4.974
 6188TIP3   OH218520   8.179   0.956   0.924
 6188TIP3    H118521   8.257   0.950   0.978
 6188TIP3    H218522   8.187   0.883   0.862
 6189TIP3   OH218523   5.021   6.834   4.342
 6189TIP3    H118524   5.022   6.746   4.381
 6189TIP3    H218525   5.013   6.894   4.416
 6190TIP3   OH218526   4.527   0.436   3.535
 6190TIP3    H118527   4.456   0.498   3.517
 6190TIP3    H218528   4.597   0.490   3.572
 6191TIP3   OH218529   1.324   1.855   3.769
 6191TIP3    H118530   1.254   1.812   3.718
 6191TIP3    H218531   1.402   1.803   3.750
 6192TIP3   OH218532   2.082   1.668   0.311
 6192TIP3    H118533   2.066   1.746   0.364
 6192TIP3    H218534   2.177   1.665   0.301
 6193TIP3   OH218535   1.614   4.374   0.488
 6193TIP3    H118536   1.647   4.288   0.461
 6193TIP3    H218537   1.589   4.416   0.405
 6194TIP3   OH218538   5.198   4.261   4.418
 6194TIP3    H118539   5.113   4.242   4.378
 6194TIP3    H218540   5.252   4.294   4.347
 6195TIP3   OH218541   4.503   1.717   5.014
 6195TIP3    H118542   4.545   1.662   4.949
 6195TIP3    H218543   4.536   1.805   4.996
 6196TIP3   OH218544   1.868   6.486   2.440
 6196TIP3    H118545   1.892   6.398   2.409
 6196TIP3    H218546   1.779   6.475   2.474
 6197TIP3   OH218547   7.463   0.653   1.861
 6197TIP3    H118548   7.377   0.633   1.824
 6197TIP3    H218549   7.472   0.591   1.934
 6198TIP3   OH218550   7.217   5.449   6.462
 6198TIP3    H118551   7.204   5.373   6.518
 6198TIP3    H218552   7.133   5.494   6.462
 6199TIP3   OH218553   4.581   3.233   4.754
 6199TIP3    H118554   4.565   3.266   4.843
 6199TIP3    H218555   4.604   3.141   4.766
 6200TIP3   OH218556   6.209   4.637   0.042
 6200TIP3    H118557   6.116   4.617   0.053
 6200TIP3    H218558   6.249   4.552   0.020
 6201TIP3   OH218559   6.590   3.322   5.336
 6201TIP3    H118560   6.504   3.344   5.301
 6201TIP3    H218561   6.615   3.242   5.289
 6202TIP3   OH218562   7.133   4.409   5.995
 6202TIP3    H118563   7.082   4.344   5.947
 6202TIP3    H218564   7.079   4.488   5.993
 6203TIP3   OH218565   3.185   1.701   2.437
 6203TIP3    H118566   3.279   1.712   2.454
 6203TIP3    H218567   3.149   1.676   2.522
 6204TIP3   OH218568   6.165   7.457   0.371
 6204TIP3    H118569   6.239   7.411   0.412
 6204TIP3    H218570   6.149   7.410   0.290
 6205TIP3   OH218571   5.785   3.005   2.071
 6205TIP3    H118572   5.716   2.987   2.135
 6205TIP3    H218573   5.863   2.961   2.106
 6206TIP3   OH218574   0.848   3.240   3.797
 6206TIP3    H118575   0.884   3.326   3.777
 6206TIP3    H218576   0.819   3.247   3.888
 6207TIP3   OH218577   4.591   5.006   5.942
 6207TIP3    H118578   4.632   5.018   5.857
 6207TIP3    H218579   4.660   5.028   6.005
 6208TIP3   OH218580   1.943   3.480   4.148
 6208TIP3    H118581   2.032   3.506   4.171
 6208TIP3    H218582   1.895   3.563   4.144
 6209TIP3   OH218583   4.245   1.558   1.559
 6209TIP3    H118584   4.184   1.560   1.485
 6209TIP3    H218585   4.194   1.588   1.634
 6210TIP3   OH218586   7.359   4.705   5.331
 6210TIP3    H118587   7.295   4.634   5.323
 6210TIP3    H218588   7.310   4.784   5.309
 6211TIP3   OH218589   2.214   0.108   4.494
 6211TIP3    H118590   2.276   0.177   4.471
 6211TIP3    H218591   2.138   0.124   4.439
 6212TIP3   OH218592   7.517   4.689   3.129
 6212TIP3    H118593   7.562   4.770   3.106
 6212TIP3    H218594   7.424   4.710   3.123
 6213TIP3   OH218595   3.824   5.495   6.248
 6213TIP3    H118596   3.877   5.447   6.185
 6213TIP3    H218597   3.751   5.530   6.197
 6214TIP3   OH218598   5.569   5.192   1.526
 6214TIP3    H118599   5.539   5.270   1.572
 6214TIP3    H218600   5.533   5.119   1.576
 6215TIP3   OH218601   3.284   5.589   4.161
 6215TIP3    H118602   3.233   5.510   4.179
 6215TIP3    H218603   3.291   5.633   4.246
 6216TIP3   OH218604   8.239   7.437   5.418
 6216TIP3    H118605   8.301   7.386   5.469
 6216TIP3    H218606   8.270   7.527   5.424
 6217TIP3   OH218607   5.879   6.109   4.923
 6217TIP3    H118608   5.829   6.185   4.951
 6217TIP3    H218609   5.812   6.044   4.900
 6218TIP3   OH218610   5.207   7.091   6.380
 6218TIP3    H118611   5.184   7.157   6.314
 6218TIP3    H218612   5.294   7.061   6.354
 6219TIP3   OH218613   1.280   5.679   5.747
 6219TIP3    H118614   1.305   5.763   5.787
 6219TIP3    H218615   1.234   5.704   5.667
 6220TIP3   OH218616   1.382   1.652   1.185
 6220TIP3    H118617   1.387   1.729   1.128
 6220TIP3    H218618   1.299   1.661   1.231
 6221TIP3   OH218619   3.651   2.237   2.517
 6221TIP3    H118620   3.563   2.251   2.552
 6221TIP3    H218621   3.636   2.205   2.428
 6222TIP3   OH218622   4.949   0.239   2.182
 6222TIP3    H118623   4.861   0.270   2.159
 6222TIP3    H218624   4.950   0.242   2.278
 6223TIP3   OH218625   1.693   1.944   3.663
 6223TIP3    H118626   1.765   1.883   3.647
 6223TIP3    H218627   1.629   1.892   3.711
 6224TIP3   OH218628   4.246   3.957   3.829
 6224TIP3    H118629   4.296   3.887   3.786
 6224TIP3    H218630   4.297   4.036   3.813
 6225TIP3   OH218631   3.362   1.115   2.982
 6225TIP3    H118632   3.435   1.157   2.937
 6225TIP3    H218633   3.323   1.185   3.035
 6226TIP3   OH218634   7.791   0.381   2.436
 6226TIP3    H118635   7.853   0.432   2.488
 6226TIP3    H218636   7.810   0.405   2.346
 6227TIP3   OH218637   8.030   3.579   0.062
 6227TIP3    H118638   8.083   3.503   0.037
 6227TIP3    H218639   8.085   3.654   0.038
 6228TIP3   OH218640   2.952   6.824   5.231
 6228TIP3    H118641   3.003   6.900   5.202
 6228TIP3    H218642   2.871   6.829   5.180
 6229TIP3   OH218643   7.610   5.593   1.883
 6229TIP3    H118644   7.603   5.655   1.811
 6229TIP3    H218645   7.520   5.574   1.908
 6230TIP3   OH218646   6.659   6.275   3.512
 6230TIP3    H118647   6.605   6.214   3.461
 6230TIP3    H218648   6.681   6.345   3.451
 6231TIP3   OH218649   2.848   5.976   6.012
 6231TIP3    H118650   2.820   5.885   6.004
 6231TIP3    H218651   2.782   6.025   5.962
 6232TIP3   OH218652   8.040   1.037   1.161
 6232TIP3    H118653   8.085   1.102   1.216
 6232TIP3    H218654   8.098   1.025   1.086
 6233TIP3   OH218655   5.712   1.390   6.688
 6233TIP3    H118656   5.675   1.323   6.630
 6233TIP3    H218657   5.672   1.471   6.659
 6234TIP3   OH218658   7.569   4.446   3.979
 6234TIP3    H118659   7.521   4.369   3.947
 6234TIP3    H218660   7.587   4.497   3.900
 6235TIP3   OH218661   7.842   7.071   1.552
 6235TIP3    H118662   7.800   7.152   1.523
 6235TIP3    H218663   7.888   7.039   1.475
 6236TIP3   OH218664   0.262   2.140   5.057
 6236TIP3    H118665   0.235   2.138   5.149
 6236TIP3    H218666   0.307   2.057   5.044
 6237TIP3   OH218667   0.819   6.732   1.929
 6237TIP3    H118668   0.845   6.808   1.877
 6237TIP3    H218669   0.762   6.681   1.871
 6238TIP3   OH218670   4.389   6.595   3.160
 6238TIP3    H118671   4.468   6.541   3.162
 6238TIP3    H218672   4.324   6.543   3.207
 6239TIP3   OH218673   4.936   6.111   4.861
 6239TIP3    H118674   4.872   6.157   4.915
 6239TIP3    H218675   4.886   6.045   4.814
 6240TIP3   OH218676   5.893   6.391   3.799
 6240TIP3    H118677   5.947   6.440   3.737
 6240TIP3    H218678   5.956   6.339   3.850
 6241TIP3   OH218679   4.473   3.338   6.667
 6241TIP3    H118680   4.509   3.284   6.738
 6241TIP3    H218681   4.494   3.428   6.693
 6242TIP3   OH218682   6.320   3.138   6.620
 6242TIP3    H118683   6.407   3.174   6.635
 6242TIP3    H218684   6.313   3.065   6.681
 6243TIP3   OH218685   6.048   7.513   1.208
 6243TIP3    H118686   5.986   7.511   1.136
 6243TIP3    H218687   5.994   7.519   1.286
 6244TIP3   OH218688   3.904   4.883   4.129
 6244TIP3    H118689   3.948   4.892   4.044
 6244TIP3    H218690   3.820   4.843   4.108
 6245TIP3   OH218691   4.612   5.608   5.595
 6245TIP3    H118692   4.524   5.629   5.627
 6245TIP3    H218693   4.658   5.575   5.673
 6246TIP3   OH218694   3.901   0.374   2.214
 6246TIP3    H118695   3.841   0.417   2.275
 6246TIP3    H218696   3.865   0.393   2.127
 6247TIP3   OH218697   5.368   1.632   4.098
 6247TIP3    H118698   5.316   1.631   4.178
 6247TIP3    H218699   5.353   1.718   4.060
 6248TIP3   OH218700   3.180   2.001   0.213
 6248TIP3    H118701   3.216   2.051   0.140
 6248TIP3    H218702   3.096   2.044   0.232
 6249TIP3   OH218703   3.114   6.708   3.561
 6249TIP3    H118704   3.154   6.628   3.527
 6249TIP3    H218705   3.186   6.757   3.600
 6250TIP3   OH218706   0.299   1.837   5.096
 6250TIP3    H118707   0.246   1.821   5.175
 6250TIP3    H218708   0.373   1.776   5.104
 6251TIP3   OH218709   1.833   0.740   0.852
 6251TIP3    H118710   1.850   0.817   0.798
 6251TIP3    H218711   1.916   0.723   0.897
 6252TIP3   OH218712   0.254   5.330   3.519
 6252TIP3    H118713   0.324   5.394   3.504
 6252TIP3    H218714   0.178   5.366   3.472
 6253TIP3   OH218715   1.996   5.184   1.107
 6253TIP3    H118716   1.919   5.240   1.091
 6253TIP3    H218717   2.027   5.212   1.194
 6254TIP3   OH218718   2.088   5.606   6.327
 6254TIP3    H118719   2.119   5.652   6.405
 6254TIP3    H218720   2.104   5.513   6.347
 6255TIP3   OH218721   0.851   5.124   0.147
 6255TIP3    H118722   0.802   5.156   0.071
 6255TIP3    H218723   0.936   5.097   0.111
 6256TIP3   OH218724   2.330   0.225   2.602
 6256TIP3    H118725   2.313   0.319   2.612
 6256TIP3    H218726   2.276   0.199   2.527
 6257TIP3   OH218727   8.291   7.533   6.595
 6257TIP3    H118728   8.267   7.614   6.639
 6257TIP3    H218729   8.236   7.531   6.516
 6258TIP3   OH218730   1.803   6.351   6.730
 6258TIP3    H118731   1.746   6.274   6.741
 6258TIP3    H218732   1.882   6.316   6.689
 6259TIP3   OH218733   2.993   0.203   1.230
 6259TIP3    H118734   3.074   0.243   1.263
 6259TIP3    H218735   3.007   0.109   1.241
 6260TIP3   OH218736   4.732   6.993   2.915
 6260TIP3    H118737   4.651   6.965   2.957
 6260TIP3    H218738   4.765   7.063   2.971
 6261TIP3   OH218739   3.191   2.668   5.526
 6261TIP3    H118740   3.131   2.652   5.453
 6261TIP3    H218741   3.259   2.725   5.489
 6262TIP3   OH218742   7.110   5.054   5.549
 6262TIP3    H118743   7.099   5.013   5.463
 6262TIP3    H218744   7.082   5.144   5.536
 6263TIP3   OH218745   4.815   6.964   4.979
 6263TIP3    H118746   4.723   6.949   4.961
 6263TIP3    H218747   4.860   6.938   4.899
 6264TIP3   OH218748   7.827   7.830   6.751
 6264TIP3    H118749   7.860   7.815   6.840
 6264TIP3    H218750   7.837   7.745   6.708
 6265TIP3   OH218751   7.557   3.610   1.482
 6265TIP3    H118752   7.547   3.557   1.403
 6265TIP3    H218753   7.521   3.556   1.552
 6266TIP3   OH218754   6.786   5.477   3.997
 6266TIP3    H118755   6.780   5.495   4.091
 6266TIP3    H218756   6.833   5.552   3.961
 6267TIP3   OH218757   6.851   1.916   2.980
 6267TIP3    H118758   6.795   1.952   2.912
 6267TIP3    H218759   6.938   1.954   2.963
 6268TIP3   OH218760   2.280   7.331   6.320
 6268TIP3    H118761   2.243   7.305   6.236
 6268TIP3    H218762   2.275   7.427   6.319
 6269TIP3   OH218763   6.163   1.729   6.383
 6269TIP3    H118764   6.162   1.677   6.303
 6269TIP3    H218765   6.091   1.792   6.372
 6270TIP3   OH218766   7.056   1.056   1.109
 6270TIP3    H118767   6.991   1.115   1.146
 6270TIP3    H218768   7.098   1.106   1.039
 6271TIP3   OH218769   0.269   6.086   0.598
 6271TIP3    H118770   0.270   5.991   0.586
 6271TIP3    H218771   0.195   6.116   0.544
 6272TIP3   OH218772   6.861   2.219   2.611
 6272TIP3    H118773   6.949   2.182   2.614
 6272TIP3    H218774   6.871   2.309   2.639
 6273TIP3   OH218775   6.142   1.758   5.731
 6273TIP3    H118776   6.214   1.720   5.681
 6273TIP3    H218777   6.174   1.763   5.821
 6274TIP3   OH218778   1.224   0.849   6.057
 6274TIP3    H118779   1.300   0.819   6.107
 6274TIP3    H218780   1.148   0.823   6.110
 6275TIP3   OH218781   2.952   4.068   2.103
 6275TIP3    H118782   3.017   4.042   2.039
 6275TIP3    H218783   2.980   4.025   2.184
 6276TIP3   OH218784   4.808   6.249   6.265
 6276TIP3    H118785   4.824   6.341   6.245
 6276TIP3    H218786   4.857   6.202   6.198
 6277TIP3   OH218787   4.636   3.627   3.221
 6277TIP3    H118788   4.683   3.661   3.145
 6277TIP3    H218789   4.704   3.604   3.283
 6278TIP3   OH218790   4.984   2.923   4.617
 6278TIP3    H118791   5.008   2.923   4.710
 6278TIP3    H218792   5.063   2.894   4.572
 6279TIP3   OH218793   3.123   0.601   4.903
 6279TIP3    H118794   3.178   0.643   4.969
 6279TIP3    H218795   3.041   0.583   4.948
 6280TIP3   OH218796   4.824   4.636   0.872
 6280TIP3    H118797   4.834   4.705   0.807
 6280TIP3    H218798   4.889   4.570   0.847
 6281TIP3   OH218799   4.307   5.837   0.417
 6281TIP3    H118800   4.357   5.756   0.403
 6281TIP3    H218801   4.217   5.806   0.432
 6282TIP3   OH218802   0.966   7.104   0.500
 6282TIP3    H118803   0.959   7.008   0.500
 6282TIP3    H218804   0.953   7.129   0.409
 6283TIP3   OH218805   6.833   6.734   2.082
 6283TIP3    H118806   6.828   6.827   2.059
 6283TIP3    H218807   6.907   6.728   2.142
 6284TIP3   OH218808   1.188   2.180   5.537
 6284TIP3    H118809   1.182   2.123   5.460
 6284TIP3    H218810   1.103   2.170   5.580
 6285TIP3   OH218811   4.280   3.675   1.655
 6285TIP3    H118812   4.205   3.666   1.596
 6285TIP3    H218813   4.275   3.764   1.688
 6286TIP3   OH218814   0.120   2.770   5.002
 6286TIP3    H118815   0.148   2.857   5.029
 6286TIP3    H218816   0.201   2.725   4.979
 6287TIP3   OH218817   3.731   1.349   0.218
 6287TIP3    H118818   3.730   1.441   0.191
 6287TIP3    H218819   3.769   1.351   0.306
 6288TIP3   OH218820   5.433   5.122   2.977
 6288TIP3    H118821   5.413   5.080   2.893
 6288TIP3    H218822   5.528   5.117   2.984
 6289TIP3   OH218823   5.659   1.028   1.133
 6289TIP3    H118824   5.584   0.970   1.120
 6289TIP3    H218825   5.730   0.986   1.086
 6290TIP3   OH218826   0.668   1.483   3.596
 6290TIP3    H118827   0.735   1.432   3.641
 6290TIP3    H218828   0.637   1.545   3.662
 6291TIP3   OH218829   4.791   5.304   5.259
 6291TIP3    H118830   4.842   5.307   5.178
 6291TIP3    H218831   4.759   5.393   5.271
 6292TIP3   OH218832   6.040   0.417   0.351
 6292TIP3    H118833   5.951   0.446   0.369
 6292TIP3    H218834   6.032   0.363   0.272
 6293TIP3   OH218835   1.485   6.025   1.529
 6293TIP3    H118836   1.552   6.090   1.550
 6293TIP3    H218837   1.524   5.941   1.553
 6294TIP3   OH218838   3.975   2.921   2.201
 6294TIP3    H118839   3.902   2.891   2.255
 6294TIP3    H218840   3.936   2.986   2.142
 6295TIP3   OH218841   0.916   3.346   3.015
 6295TIP3    H118842   0.925   3.250   3.016
 6295TIP3    H218843   0.963   3.373   2.935
 6296TIP3   OH218844   7.386   1.597   5.888
 6296TIP3    H118845   7.398   1.668   5.824
 6296TIP3    H218846   7.426   1.631   5.969
 6297TIP3   OH218847   2.439   1.069   3.087
 6297TIP3    H118848   2.466   1.135   3.150
 6297TIP3    H218849   2.512   1.007   3.083
 6298TIP3   OH218850   4.585   5.569   0.843
 6298TIP3    H118851   4.617   5.500   0.902
 6298TIP3    H218852   4.600   5.534   0.755
 6299TIP3   OH218853   5.393   1.613   2.263
 6299TIP3    H118854   5.467   1.636   2.320
 6299TIP3    H218855   5.340   1.553   2.316
 6300TIP3   OH218856   7.434   0.199   4.331
 6300TIP3    H118857   7.443   0.105   4.348
 6300TIP3    H218858   7.452   0.241   4.415
 6301TIP3   OH218859   7.597   6.253   0.574
 6301TIP3    H118860   7.543   6.254   0.494
 6301TIP3    H218861   7.598   6.161   0.600
 6302TIP3   OH218862   3.756   5.514   2.821
 6302TIP3    H118863   3.793   5.445   2.875
 6302TIP3    H218864   3.805   5.593   2.845
 6303TIP3   OH218865   2.169   7.129   0.323
 6303TIP3    H118866   2.212   7.214   0.311
 6303TIP3    H218867   2.206   7.073   0.255
 6304TIP3   OH218868   2.228   4.360   1.128
 6304TIP3    H118869   2.203   4.302   1.200
 6304TIP3    H218870   2.155   4.422   1.120
 6305TIP3   OH218871   4.467   1.963   0.994
 6305TIP3    H118872   4.441   2.046   1.033
 6305TIP3    H218873   4.499   1.911   1.067
 6306TIP3   OH218874   7.440   3.313   4.070
 6306TIP3    H118875   7.465   3.302   4.162
 6306TIP3    H218876   7.454   3.406   4.052
 6307TIP3   OH218877   6.102   6.760   3.138
 6307TIP3    H118878   6.051   6.703   3.080
 6307TIP3    H218879   6.136   6.829   3.080
 6308TIP3   OH218880   6.991   7.590   3.778
 6308TIP3    H118881   6.966   7.640   3.700
 6308TIP3    H218882   6.928   7.616   3.845
 6309TIP3   OH218883   0.884   3.118   5.795
 6309TIP3    H118884   0.807   3.175   5.791
 6309TIP3    H218885   0.869   3.053   5.727
 6310TIP3   OH218886   0.681   5.331   1.281
 6310TIP3    H118887   0.701   5.376   1.364
 6310TIP3    H218888   0.606   5.276   1.302
 6311TIP3   OH218889   2.540   4.706   4.158
 6311TIP3    H118890   2.508   4.711   4.068
 6311TIP3    H218891   2.561   4.797   4.181
 6312TIP3   OH218892   4.043   3.404   5.482
 6312TIP3    H118893   4.091   3.395   5.400
 6312TIP3    H218894   4.095   3.465   5.534
 6313TIP3   OH218895   1.688   0.040   2.771
 6313TIP3    H118896   1.719  -0.043   2.807
 6313TIP3    H218897   1.593   0.032   2.773
 6314TIP3   OH218898   5.395   2.183   1.605
 6314TIP3    H118899   5.394   2.136   1.689
 6314TIP3    H218900   5.349   2.265   1.623
 6315TIP3   OH218901   2.761   5.194   3.587
 6315TIP3    H118902   2.793   5.128   3.648
 6315TIP3    H218903   2.839   5.225   3.541
 6316TIP3   OH218904   6.619   3.875   6.164
 6316TIP3    H118905   6.559   3.946   6.189
 6316TIP3    H218906   6.642   3.895   6.073
 6317TIP3   OH218907   7.757   5.862   4.366
 6317TIP3    H118908   7.668   5.858   4.331
 6317TIP3    H218909   7.800   5.930   4.315
 6318TIP3   OH218910   0.401   0.767   0.876
 6318TIP3    H118911   0.322   0.717   0.859
 6318TIP3    H218912   0.407   0.829   0.803
 6319TIP3   OH218913   3.670   1.829   5.609
 6319TIP3    H118914   3.655   1.920   5.634
 6319TIP3    H218915   3.606   1.813   5.540
 6320TIP3   OH218916   1.199   3.506   1.487
 6320TIP3    H118917   1.118   3.480   1.444
 6320TIP3    H218918   1.171   3.559   1.561
 6321TIP3   OH218919   2.286   6.432   3.825
 6321TIP3    H118920   2.308   6.399   3.738
 6321TIP3    H218921   2.369   6.466   3.859
 6322TIP3   OH218922   5.915   1.820   6.393
 6322TIP3    H118923   5.872   1.810   6.478
 6322TIP3    H218924   5.847   1.857   6.337
 6323TIP3   OH218925   6.047   2.082   1.038
 6323TIP3    H118926   6.133   2.106   1.074
 6323TIP3    H218927   6.027   1.998   1.078
 6324TIP3   OH218928   2.621   1.699   5.405
 6324TIP3    H118929   2.591   1.693   5.496
 6324TIP3    H218930   2.571   1.773   5.369
 6325TIP3   OH218931   1.485   2.721   4.937
 6325TIP3    H118932   1.398   2.750   4.963
 6325TIP3    H218933   1.500   2.643   4.990
 6326TIP3   OH218934   0.722   1.298   4.999
 6326TIP3    H118935   0.626   1.299   4.995
 6326TIP3    H218936   0.743   1.378   5.048
 6327TIP3   OH218937   2.718   1.763   0.569
 6327TIP3    H118938   2.682   1.674   0.570
 6327TIP3    H218939   2.767   1.768   0.487
 6328TIP3   OH218940   6.415   1.251   5.802
 6328TIP3    H118941   6.461   1.314   5.746
 6328TIP3    H218942   6.327   1.285   5.810
 6329TIP3   OH218943   3.969   6.923   2.696
 6329TIP3    H118944   3.873   6.915   2.701
 6329TIP3    H218945   4.000   6.833   2.683
 6330TIP3   OH218946   7.909   0.633   4.307
 6330TIP3    H118947   7.880   0.542   4.302
 6330TIP3    H218948   7.855   0.672   4.376
 6331TIP3   OH218949   3.085   1.819   4.989
 6331TIP3    H118950   3.107   1.825   5.082
 6331TIP3    H218951   2.993   1.844   4.985
 6332TIP3   OH218952   2.240   4.175   0.407
 6332TIP3    H118953   2.317   4.165   0.463
 6332TIP3    H218954   2.170   4.130   0.455
 6333TIP3   OH218955   8.083   5.883   4.169
 6333TIP3    H118956   8.135   5.962   4.162
 6333TIP3    H218957   7.996   5.913   4.193
 6334TIP3   OH218958   4.715   7.757   4.389
 6334TIP3    H118959   4.634   7.713   4.417
 6334TIP3    H218960   4.784   7.694   4.411
 6335TIP3   OH218961   3.647   6.588   6.209
 6335TIP3    H118962   3.582   6.606   6.277
 6335TIP3    H218963   3.634   6.495   6.187
 6336TIP3   OH218964   1.200   0.935   2.990
 6336TIP3    H118965   1.281   0.883   2.988
 6336TIP3    H218966   1.190   0.967   2.900
 6337TIP3   OH218967   4.035   5.243   1.633
 6337TIP3    H118968   3.997   5.192   1.705
 6337TIP3    H218969   4.114   5.195   1.609
 6338TIP3   OH218970   3.759   2.151   0.484
 6338TIP3    H118971   3.723   2.089   0.421
 6338TIP3    H218972   3.816   2.208   0.432
 6339TIP3   OH218973   1.095   2.487   3.861
 6339TIP3    H118974   1.147   2.567   3.851
 6339TIP3    H218975   1.050   2.498   3.945
 6340TIP3   OH218976   0.741   2.745   1.203
 6340TIP3    H118977   0.822   2.726   1.249
 6340TIP3    H218978   0.755   2.832   1.165
 6341TIP3   OH218979   5.724   1.950   2.380
 6341TIP3    H118980   5.699   1.881   2.320
 6341TIP3    H218981   5.645   1.967   2.432
 6342TIP3   OH218982   2.238   3.638   3.261
 6342TIP3    H118983   2.143   3.628   3.256
 6342TIP3    H218984   2.253   3.684   3.344
 6343TIP3   OH218985   4.898   5.621   6.459
 6343TIP3    H118986   4.891   5.710   6.492
 6343TIP3    H218987   4.987   5.616   6.422
 6344TIP3   OH218988   5.405   4.446   3.552
 6344TIP3    H118989   5.340   4.507   3.589
 6344TIP3    H218990   5.415   4.475   3.461
 6345TIP3   OH218991   6.687   0.211   3.080
 6345TIP3    H118992   6.697   0.138   3.019
 6345TIP3    H218993   6.776   0.243   3.093
 6346TIP3   OH218994   4.133   4.355   2.102
 6346TIP3    H118995   4.144   4.415   2.028
 6346TIP3    H218996   4.110   4.412   2.176
 6347TIP3   OH218997   6.663   6.076   5.355
 6347TIP3    H118998   6.723   6.067   5.430
 6347TIP3    H218999   6.717   6.057   5.279
 6348TIP3   OH219000   1.549   0.252   4.867
 6348TIP3    H119001   1.635   0.281   4.836
 6348TIP3    H219002   1.491   0.266   4.792
 6349TIP3   OH219003   0.232   1.939   1.564
 6349TIP3    H119004   0.202   1.969   1.650
 6349TIP3    H219005   0.159   1.886   1.531
 6350TIP3   OH219006   4.483   1.773   0.586
 6350TIP3    H119007   4.540   1.779   0.509
 6350TIP3    H219008   4.425   1.848   0.579
 6351TIP3   OH219009   2.785   4.769   5.784
 6351TIP3    H119010   2.810   4.847   5.735
 6351TIP3    H219011   2.833   4.698   5.742
 6352TIP3   OH219012   7.850   7.647   5.594
 6352TIP3    H119013   7.808   7.723   5.554
 6352TIP3    H219014   7.900   7.607   5.523
 6353TIP3   OH219015   0.410   5.540   5.016
 6353TIP3    H119016   0.420   5.536   5.111
 6353TIP3    H219017   0.351   5.467   4.996
 6354TIP3   OH219018   2.757   4.465   0.334
 6354TIP3    H119019   2.820   4.427   0.395
 6354TIP3    H219020   2.706   4.390   0.303
 6355TIP3   OH219021   5.026   7.160   1.024
 6355TIP3    H119022   4.989   7.196   1.104
 6355TIP3    H219023   4.978   7.205   0.953
 6356TIP3   OH219024   4.406   3.407   3.102
 6356TIP3    H119025   4.394   3.444   3.190
 6356TIP3    H219026   4.412   3.313   3.116
 6357TIP3   OH219027   0.861   5.594   0.433
 6357TIP3    H119028   0.852   5.689   0.444
 6357TIP3    H219029   0.955   5.578   0.441
 6358TIP3   OH219030   7.837   6.655   6.646
 6358TIP3    H119031   7.820   6.645   6.552
 6358TIP3    H219032   7.836   6.750   6.660
 6359TIP3   OH219033   4.702   5.584   5.264
 6359TIP3    H119034   4.701   5.622   5.176
 6359TIP3    H219035   4.610   5.584   5.290
 6360TIP3   OH219036   4.692   6.135   4.607
 6360TIP3    H119037   4.614   6.089   4.574
 6360TIP3    H219038   4.658   6.199   4.669
 6361TIP3   OH219039   2.209   0.241   3.429
 6361TIP3    H119040   2.113   0.246   3.424
 6361TIP3    H219041   2.231   0.279   3.514
 6362TIP3   OH219042   6.293   0.121   0.225
 6362TIP3    H119043   6.247   0.197   0.189
 6362TIP3    H219044   6.372   0.157   0.266
 6363TIP3   OH219045   5.033   3.458   5.379
 6363TIP3    H119046   5.061   3.471   5.288
 6363TIP3    H219047   4.971   3.530   5.395
 6364TIP3   OH219048   0.005   0.136   0.197
 6364TIP3    H119049  -0.057   0.069   0.167
 6364TIP3    H219050   0.071   0.087   0.246
 6365TIP3   OH219051   7.945   3.103   0.989
 6365TIP3    H119052   8.019   3.053   1.024
 6365TIP3    H219053   7.984   3.163   0.927
 6366TIP3   OH219054   8.197   1.497   5.339
 6366TIP3    H119055   8.204   1.457   5.426
 6366TIP3    H219056   8.123   1.451   5.297
 6367TIP3   OH219057   5.534   3.194   2.790
 6367TIP3    H119058   5.625   3.189   2.761
 6367TIP3    H219059   5.487   3.233   2.716
 6368TIP3   OH219060   5.185   6.228   0.461
 6368TIP3    H119061   5.133   6.203   0.538
 6368TIP3    H219062   5.151   6.314   0.436
 6369TIP3   OH219063   7.920   5.238   2.776
 6369TIP3    H119064   7.944   5.224   2.685
 6369TIP3    H219065   7.930   5.333   2.789
 6370TIP3   OH219066   0.037   3.314   1.922
 6370TIP3    H119067  -0.032   3.268   1.875
 6370TIP3    H219068   0.055   3.392   1.869
 6371TIP3   OH219069   0.228   1.755   0.992
 6371TIP3    H119070   0.268   1.730   0.909
 6371TIP3    H219071   0.135   1.734   0.982
 6372TIP3   OH219072   3.603   0.365   3.579
 6372TIP3    H119073   3.524   0.315   3.600
 6372TIP3    H219074   3.622   0.413   3.660
 6373TIP3   OH219075   8.114   3.855   3.545
 6373TIP3    H119076   8.196   3.904   3.552
 6373TIP3    H219077   8.128   3.794   3.473
 6374TIP3   OH219078   3.328   1.176   4.366
 6374TIP3    H119079   3.272   1.231   4.312
 6374TIP3    H219080   3.308   1.086   4.339
 6375TIP3   OH219081   4.390   3.170   3.299
 6375TIP3    H119082   4.411   3.119   3.377
 6375TIP3    H219083   4.420   3.116   3.226
 6376TIP3   OH219084   3.646   5.636   6.712
 6376TIP3    H119085   3.584   5.630   6.784
 6376TIP3    H219086   3.594   5.666   6.637
 6377TIP3   OH219087   3.523   6.881   4.548
 6377TIP3    H119088   3.554   6.881   4.457
 6377TIP3    H219089   3.575   6.950   4.591
 6378TIP3   OH219090   4.842   1.315   6.157
 6378TIP3    H119091   4.935   1.330   6.171
 6378TIP3    H219092   4.832   1.220   6.159
 6379TIP3   OH219093   4.738   0.332   3.293
 6379TIP3    H119094   4.716   0.254   3.345
 6379TIP3    H219095   4.768   0.396   3.358
 6380TIP3   OH219096   5.740   2.526   4.271
 6380TIP3    H119097   5.712   2.445   4.313
 6380TIP3    H219098   5.658   2.573   4.253
 6381TIP3   OH219099   7.883   5.896   0.563
 6381TIP3    H119100   7.833   5.933   0.635
 6381TIP3    H219101   7.846   5.808   0.551
 6382TIP3   OH219102   0.565   3.093   2.456
 6382TIP3    H119103   0.579   3.182   2.488
 6382TIP3    H219104   0.609   3.091   2.371
 6383TIP3   OH219105   0.049   3.635   1.318
 6383TIP3    H119106   0.073   3.728   1.325
 6383TIP3    H219107   0.067   3.613   1.226
 6384TIP3   OH219108   0.338   3.481   6.451
 6384TIP3    H119109   0.367   3.479   6.360
 6384TIP3    H219110   0.373   3.563   6.485
 6385TIP3   OH219111   1.016   5.516   2.125
 6385TIP3    H119112   0.979   5.542   2.209
 6385TIP3    H219113   1.097   5.567   2.117
 6386TIP3   OH219114   0.348   5.607   1.933
 6386TIP3    H119115   0.292   5.684   1.923
 6386TIP3    H219116   0.320   5.548   1.863
 6387TIP3   OH219117   3.720   0.498   4.404
 6387TIP3    H119118   3.794   0.522   4.349
 6387TIP3    H219119   3.657   0.457   4.344
 6388TIP3   OH219120   4.203   3.709   3.199
 6388TIP3    H119121   4.275   3.663   3.242
 6388TIP3    H219122   4.241   3.793   3.174
 6389TIP3   OH219123   3.726   6.267   2.253
 6389TIP3    H119124   3.722   6.360   2.230
 6389TIP3    H219125   3.816   6.254   2.282
 6390TIP3   OH219126   7.196   5.181   3.531
 6390TIP3    H119127   7.242   5.264   3.520
 6390TIP3    H219128   7.252   5.129   3.588
 6391TIP3   OH219129   2.553   2.260   0.159
 6391TIP3    H119130   2.539   2.355   0.167
 6391TIP3    H219131   2.534   2.240   0.068
 6392TIP3   OH219132   1.232   2.483   6.626
 6392TIP3    H119133   1.238   2.557   6.686
 6392TIP3    H219134   1.289   2.416   6.664
 6393TIP3   OH219135   4.731   7.600   4.136
 6393TIP3    H119136   4.731   7.676   4.195
 6393TIP3    H219137   4.716   7.637   4.049
 6394TIP3   OH219138   4.442   0.627   3.182
 6394TIP3    H119139   4.529   0.665   3.176
 6394TIP3    H219140   4.457   0.533   3.181
 6395TIP3   OH219141   1.388   5.973   0.527
 6395TIP3    H119142   1.455   5.936   0.585
 6395TIP3    H219143   1.435   6.037   0.473
 6396TIP3   OH219144   5.560   3.109   2.318
 6396TIP3    H119145   5.601   3.063   2.390
 6396TIP3    H219146   5.597   3.198   2.322
 6397TIP3   OH219147   6.672   0.629   1.973
 6397TIP3    H119148   6.615   0.608   2.047
 6397TIP3    H219149   6.717   0.709   1.999
 6398TIP3   OH219150   6.569   2.236   4.702
 6398TIP3    H119151   6.611   2.219   4.786
 6398TIP3    H219152   6.563   2.331   4.696
 6399TIP3   OH219153   5.015   5.789   0.413
 6399TIP3    H119154   4.924   5.772   0.388
 6399TIP3    H219155   5.008   5.835   0.497
 6400TIP3   OH219156   4.243   6.973   0.539
 6400TIP3    H119157   4.233   6.974   0.443
 6400TIP3    H219158   4.278   6.886   0.558
 6401TIP3   OH219159   4.101   2.527   6.669
 6401TIP3    H119160   4.167   2.459   6.682
 6401TIP3    H219161   4.149   2.599   6.628
 6402TIP3   OH219162   5.356   3.931   3.089
 6402TIP3    H119163   5.336   3.967   3.176
 6402TIP3    H219164   5.447   3.957   3.073
 6403TIP3   OH219165   7.216   1.046   2.602
 6403TIP3    H119166   7.173   0.961   2.614
 6403TIP3    H219167   7.285   1.047   2.668
 6404TIP3   OH219168   7.433   4.487   5.933
 6404TIP3    H119169   7.424   4.558   5.997
 6404TIP3    H219170   7.345   4.449   5.926
 6405TIP3   OH219171   4.291   6.221   5.221
 6405TIP3    H119172   4.343   6.258   5.150
 6405TIP3    H219173   4.273   6.295   5.279
 6406TIP3   OH219174   1.524   0.556   5.091
 6406TIP3    H119175   1.575   0.628   5.054
 6406TIP3    H219176   1.588   0.486   5.106
 6407TIP3   OH219177   2.409   1.420   3.262
 6407TIP3    H119178   2.401   1.509   3.296
 6407TIP3    H219179   2.442   1.369   3.335
 6408TIP3   OH219180   7.280   4.925   0.901
 6408TIP3    H119181   7.247   4.841   0.869
 6408TIP3    H219182   7.307   4.972   0.822
 6409TIP3   OH219183   7.090   4.239   3.951
 6409TIP3    H119184   7.067   4.260   3.861
 6409TIP3    H219185   7.006   4.240   3.998
 6410TIP3   OH219186   7.828   4.483   1.475
 6410TIP3    H119187   7.799   4.564   1.434
 6410TIP3    H219188   7.787   4.483   1.561
 6411TIP3   OH219189   2.195   6.973   5.546
 6411TIP3    H119190   2.167   7.033   5.477
 6411TIP3    H219191   2.234   7.029   5.613
 6412TIP3   OH219192   5.786   4.874   1.589
 6412TIP3    H119193   5.840   4.911   1.659
 6412TIP3    H219194   5.833   4.796   1.561
 6413TIP3   OH219195   5.394   3.653   3.074
 6413TIP3    H119196   5.370   3.745   3.069
 6413TIP3    H219197   5.312   3.605   3.062
 6414TIP3   OH219198   4.362   1.997   4.689
 6414TIP3    H119199   4.311   1.929   4.733
 6414TIP3    H219200   4.297   2.060   4.658
 6415TIP3   OH219201   5.595   5.908   6.436
 6415TIP3    H119202   5.640   5.981   6.394
 6415TIP3    H219203   5.665   5.851   6.466
 6416TIP3   OH219204   6.480   2.449   0.831
 6416TIP3    H119205   6.476   2.369   0.779
 6416TIP3    H219206   6.398   2.494   0.812
 6417TIP3   OH219207   3.063   3.173   2.816
 6417TIP3    H119208   3.050   3.092   2.766
 6417TIP3    H219209   3.005   3.236   2.773
 6418TIP3   OH219210   4.755   3.474   1.930
 6418TIP3    H119211   4.685   3.540   1.927
 6418TIP3    H219212   4.746   3.426   1.847
 6419TIP3   OH219213   6.345   0.290   3.087
 6419TIP3    H119214   6.356   0.292   3.182
 6419TIP3    H219215   6.435   0.285   3.053
 6420TIP3   OH219216   6.613   6.444   3.928
 6420TIP3    H119217   6.568   6.436   3.844
 6420TIP3    H219218   6.606   6.537   3.951
 6421TIP3   OH219219   6.429   6.639   6.278
 6421TIP3    H119220   6.447   6.730   6.255
 6421TIP3    H219221   6.516   6.597   6.281
 6422TIP3   OH219222   7.490   4.481   0.293
 6422TIP3    H119223   7.538   4.563   0.281
 6422TIP3    H219224   7.498   4.461   0.386
 6423TIP3   OH219225   4.582   3.802   4.959
 6423TIP3    H119226   4.501   3.852   4.947
 6423TIP3    H219227   4.623   3.841   5.036
 6424TIP3   OH219228   2.403   1.995   5.847
 6424TIP3    H119229   2.310   2.014   5.860
 6424TIP3    H219230   2.411   1.977   5.753
 6425TIP3   OH219231   0.388   0.146   0.859
 6425TIP3    H119232   0.446   0.196   0.803
 6425TIP3    H219233   0.445   0.107   0.926
 6426TIP3   OH219234   6.688   5.119   3.203
 6426TIP3    H119235   6.623   5.175   3.244
 6426TIP3    H219236   6.637   5.047   3.165
 6427TIP3   OH219237   1.356   7.358   2.454
 6427TIP3    H119238   1.411   7.305   2.511
 6427TIP3    H219239   1.409   7.434   2.433
 6428TIP3   OH219240   4.762   2.654   3.603
 6428TIP3    H119241   4.722   2.567   3.607
 6428TIP3    H219242   4.698   2.712   3.643
 6429TIP3   OH219243   2.095   4.734   1.067
 6429TIP3    H119244   2.032   4.801   1.041
 6429TIP3    H219245   2.177   4.781   1.077
 6430TIP3   OH219246   6.361   2.813   4.507
 6430TIP3    H119247   6.275   2.846   4.534
 6430TIP3    H219248   6.341   2.737   4.452
 6431TIP3   OH219249   7.314   2.972   5.613
 6431TIP3    H119250   7.224   2.982   5.645
 6431TIP3    H219251   7.346   2.892   5.655
 6432TIP3   OH219252   1.578   5.418   2.945
 6432TIP3    H119253   1.616   5.332   2.965
 6432TIP3    H219254   1.639   5.481   2.984
 6433TIP3   OH219255   4.706   1.058   0.940
 6433TIP3    H119256   4.784   1.110   0.924
 6433TIP3    H219257   4.739   0.971   0.963
 6434TIP3   OH219258   1.403   0.027   2.735
 6434TIP3    H119259   1.384  -0.062   2.766
 6434TIP3    H219260   1.342   0.041   2.662
 6435TIP3   OH219261   5.101   6.544   3.537
 6435TIP3    H119262   5.175   6.604   3.549
 6435TIP3    H219263   5.099   6.526   3.443
 6436TIP3   OH219264   6.981   6.388   6.019
 6436TIP3    H119265   6.927   6.399   5.941
 6436TIP3    H219266   7.071   6.394   5.987
 6437TIP3   OH219267   5.235   6.398   5.746
 6437TIP3    H119268   5.253   6.375   5.838
 6437TIP3    H219269   5.275   6.328   5.696
 6438TIP3   OH219270   4.426   2.100   3.652
 6438TIP3    H119271   4.455   2.161   3.720
 6438TIP3    H219272   4.347   2.141   3.616
 6439TIP3   OH219273   4.342   4.798   4.599
 6439TIP3    H119274   4.393   4.801   4.518
 6439TIP3    H219275   4.405   4.774   4.666
 6440TIP3   OH219276   1.592   2.938   1.310
 6440TIP3    H119277   1.561   2.904   1.226
 6440TIP3    H219278   1.586   3.033   1.302
 6441TIP3   OH219279   4.242   5.188   5.180
 6441TIP3    H119280   4.326   5.213   5.219
 6441TIP3    H219281   4.210   5.268   5.139
 6442TIP3   OH219282   4.447   7.182   5.758
 6442TIP3    H119283   4.456   7.124   5.682
 6442TIP3    H219284   4.353   7.192   5.770
 6443TIP3   OH219285   3.315   5.810   6.351
 6443TIP3    H119286   3.296   5.858   6.270
 6443TIP3    H219287   3.235   5.763   6.372
 6444TIP3   OH219288   1.909   2.972   2.023
 6444TIP3    H119289   1.979   2.906   2.019
 6444TIP3    H219290   1.864   2.963   1.939
 6445TIP3   OH219291   6.466   2.828   3.802
 6445TIP3    H119292   6.473   2.820   3.707
 6445TIP3    H219293   6.372   2.840   3.819
 6446TIP3   OH219294   6.994   6.763   1.118
 6446TIP3    H119295   7.007   6.824   1.045
 6446TIP3    H219296   6.938   6.811   1.179
 6447TIP3   OH219297   4.734   4.398   4.931
 6447TIP3    H119298   4.708   4.325   4.987
 6447TIP3    H219299   4.715   4.476   4.983
 6448TIP3   OH219300   5.364   3.707   1.134
 6448TIP3    H119301   5.366   3.743   1.045
 6448TIP3    H219302   5.275   3.675   1.144
 6449TIP3   OH219303   5.909   1.378   0.912
 6449TIP3    H119304   5.914   1.347   1.003
 6449TIP3    H219305   5.823   1.349   0.882
 6450TIP3   OH219306   3.390   4.695   2.438
 6450TIP3    H119307   3.396   4.660   2.527
 6450TIP3    H219308   3.368   4.788   2.450
 6451TIP3   OH219309   5.067   6.828   0.103
 6451TIP3    H119310   5.074   6.832   0.198
 6451TIP3    H219311   5.128   6.759   0.077
 6452TIP3   OH219312   3.004   3.839   0.952
 6452TIP3    H119313   2.986   3.754   0.994
 6452TIP3    H219314   2.953   3.837   0.872
 6453TIP3   OH219315   6.122   2.936   4.190
 6453TIP3    H119316   6.047   2.879   4.211
 6453TIP3    H219317   6.127   2.997   4.263
 6454TIP3   OH219318   3.353   4.537   6.457
 6454TIP3    H119319   3.350   4.583   6.541
 6454TIP3    H219320   3.263   4.537   6.426
 6455TIP3   OH219321   3.448   2.574   0.043
 6455TIP3    H119322   3.359   2.566   0.076
 6455TIP3    H219323   3.458   2.667   0.020
 6456TIP3   OH219324   5.388   1.840   2.735
 6456TIP3    H119325   5.327   1.789   2.789
 6456TIP3    H219326   5.474   1.819   2.772
 6457TIP3   OH219327   8.217   6.004   2.202
 6457TIP3    H119328   8.247   5.920   2.169
 6457TIP3    H219329   8.282   6.028   2.268
 6458TIP3   OH219330   0.311   3.396   1.033
 6458TIP3    H119331   0.341   3.426   1.119
 6458TIP3    H219332   0.370   3.439   0.971
 6459TIP3   OH219333   3.532   5.235   4.531
 6459TIP3    H119334   3.620   5.272   4.528
 6459TIP3    H219335   3.523   5.187   4.449
 6460TIP3   OH219336   7.728   6.420   3.300
 6460TIP3    H119337   7.743   6.392   3.210
 6460TIP3    H219338   7.720   6.339   3.350
 6461TIP3   OH219339   6.011   6.919   5.895
 6461TIP3    H119340   6.052   6.879   5.972
 6461TIP3    H219341   5.940   6.972   5.931
 6462TIP3   OH219342   5.302   3.427   6.002
 6462TIP3    H119343   5.386   3.473   5.992
 6462TIP3    H219344   5.324   3.347   6.050
 6463TIP3   OH219345   6.461   1.465   3.378
 6463TIP3    H119346   6.465   1.371   3.397
 6463TIP3    H219347   6.534   1.481   3.318
 6464TIP3   OH219348   5.320   4.675   6.411
 6464TIP3    H119349   5.328   4.592   6.458
 6464TIP3    H219350   5.233   4.673   6.372
 6465TIP3   OH219351   4.551   5.506   1.954
 6465TIP3    H119352   4.502   5.424   1.946
 6465TIP3    H219353   4.507   5.566   1.894
 6466TIP3   OH219354   3.547   6.773   2.977
 6466TIP3    H119355   3.572   6.692   3.022
 6466TIP3    H219356   3.550   6.840   3.044
 6467TIP3   OH219357   0.297   0.355   2.751
 6467TIP3    H119358   0.206   0.379   2.771
 6467TIP3    H219359   0.349   0.427   2.786
 6468TIP3   OH219360   4.018   1.540   5.453
 6468TIP3    H119361   3.978   1.518   5.537
 6468TIP3    H219362   4.053   1.456   5.421
 6469TIP3   OH219363   1.926   6.764   0.266
 6469TIP3    H119364   1.942   6.843   0.213
 6469TIP3    H219365   1.924   6.796   0.356
 6470TIP3   OH219366   2.912   6.204   4.734
 6470TIP3    H119367   2.920   6.214   4.829
 6470TIP3    H219368   2.818   6.203   4.719
 6471TIP3   OH219369   5.049   6.321   2.682
 6471TIP3    H119370   5.053   6.379   2.606
 6471TIP3    H219371   4.993   6.249   2.654
 6472TIP3   OH219372   3.801   4.433   4.271
 6472TIP3    H119373   3.760   4.514   4.300
 6472TIP3    H219374   3.856   4.406   4.344
 6473TIP3   OH219375   1.100   4.307   0.355
 6473TIP3    H119376   1.094   4.375   0.421
 6473TIP3    H219377   1.055   4.342   0.278
 6474TIP3   OH219378   5.739   4.726   4.900
 6474TIP3    H119379   5.683   4.768   4.835
 6474TIP3    H219380   5.679   4.675   4.954
 6475TIP3   OH219381   3.088   2.315   4.756
 6475TIP3    H119382   3.166   2.287   4.709
 6475TIP3    H219383   3.027   2.241   4.748
 6476TIP3   OH219384   6.242   3.758   1.052
 6476TIP3    H119385   6.313   3.695   1.038
 6476TIP3    H219386   6.205   3.734   1.137
 6477TIP3   OH219387  -0.032   1.148   3.439
 6477TIP3    H119388  -0.013   1.104   3.521
 6477TIP3    H219389   0.049   1.194   3.417
 6478TIP3   OH219390   3.752   1.383   2.170
 6478TIP3    H119391   3.806   1.462   2.173
 6478TIP3    H219392   3.814   1.311   2.180
 6479TIP3   OH219393   4.702   3.958   4.622
 6479TIP3    H119394   4.658   4.017   4.682
 6479TIP3    H219395   4.715   3.877   4.672
 6480TIP3   OH219396   1.018   6.229   3.486
 6480TIP3    H119397   1.020   6.170   3.561
 6480TIP3    H219398   1.072   6.304   3.511
 6481TIP3   OH219399   1.330   1.382   2.583
 6481TIP3    H119400   1.403   1.352   2.530
 6481TIP3    H219401   1.337   1.478   2.582
 6482TIP3   OH219402   2.974   2.839   5.982
 6482TIP3    H119403   3.006   2.750   5.997
 6482TIP3    H219404   2.989   2.855   5.889
 6483TIP3   OH219405   3.605   1.098   4.631
 6483TIP3    H119406   3.538   1.161   4.655
 6483TIP3    H219407   3.560   1.013   4.633
 6484TIP3   OH219408   1.795   2.402   5.609
 6484TIP3    H119409   1.702   2.421   5.599
 6484TIP3    H219410   1.838   2.455   5.543
 6485TIP3   OH219411   1.186   1.508   0.743
 6485TIP3    H119412   1.153   1.420   0.760
 6485TIP3    H219413   1.244   1.527   0.817
 6486TIP3   OH219414   8.085   1.253   5.148
 6486TIP3    H119415   8.062   1.161   5.164
 6486TIP3    H219416   8.176   1.259   5.177
 6487TIP3   OH219417   2.886   3.469   5.458
 6487TIP3    H119418   2.827   3.505   5.392
 6487TIP3    H219419   2.970   3.460   5.412
 6488TIP3   OH219420   0.629   4.038   2.451
 6488TIP3    H119421   0.618   3.959   2.397
 6488TIP3    H219422   0.703   4.085   2.410
 6489TIP3   OH219423   3.186   4.032   4.014
 6489TIP3    H119424   3.173   4.014   3.920
 6489TIP3    H219425   3.098   4.046   4.048
 6490TIP3   OH219426   2.277   2.476   3.210
 6490TIP3    H119427   2.258   2.479   3.304
 6490TIP3    H219428   2.289   2.383   3.192
 6491TIP3   OH219429   4.552   6.306   4.782
 6491TIP3    H119430   4.481   6.256   4.822
 6491TIP3    H219431   4.511   6.385   4.749
 6492TIP3   OH219432   5.178   2.120   0.401
 6492TIP3    H119433   5.086   2.146   0.408
 6492TIP3    H219434   5.176   2.025   0.404
 6493TIP3   OH219435   2.865   1.342   0.357
 6493TIP3    H119436   2.836   1.373   0.271
 6493TIP3    H219437   2.871   1.247   0.349
 6494TIP3   OH219438   0.316   5.054   0.619
 6494TIP3    H119439   0.288   5.044   0.528
 6494TIP3    H219440   0.411   5.042   0.617
 6495TIP3   OH219441   5.106   3.359   6.577
 6495TIP3    H119442   5.121   3.428   6.642
 6495TIP3    H219443   5.115   3.277   6.627
 6496TIP3   OH219444   0.411   5.978   2.064
 6496TIP3    H119445   0.502   6.004   2.079
 6496TIP3    H219446   0.360   6.031   2.125
 6497TIP3   OH219447   2.912   5.479   0.198
 6497TIP3    H119448   2.843   5.523   0.248
 6497TIP3    H219449   2.889   5.495   0.106
 6498TIP3   OH219450   5.535   7.093   3.385
 6498TIP3    H119451   5.483   7.166   3.349
 6498TIP3    H219452   5.542   7.113   3.479
 6499TIP3   OH219453   7.860   0.518   4.774
 6499TIP3    H119454   7.775   0.561   4.782
 6499TIP3    H219455   7.839   0.425   4.775
 6500TIP3   OH219456   1.370   3.054   4.933
 6500TIP3    H119457   1.349   3.058   4.840
 6500TIP3    H219458   1.347   2.965   4.960
 6501TIP3   OH219459   5.918   5.231   4.954
 6501TIP3    H119460   5.841   5.176   4.941
 6501TIP3    H219461   5.918   5.289   4.877
 6502TIP3   OH219462   4.080   0.310   0.326
 6502TIP3    H119463   4.045   0.393   0.295
 6502TIP3    H219464   4.168   0.332   0.358
 6503TIP3   OH219465   6.442   0.725   0.578
 6503TIP3    H119466   6.438   0.653   0.642
 6503TIP3    H219467   6.515   0.779   0.607
 6504TIP3   OH219468   2.535   3.550   2.629
 6504TIP3    H119469   2.519   3.488   2.559
 6504TIP3    H219470   2.545   3.496   2.707
 6505TIP3   OH219471   2.350   5.561   0.275
 6505TIP3    H119472   2.326   5.468   0.272
 6505TIP3    H219473   2.401   5.575   0.195
 6506TIP3   OH219474   2.842   5.473   1.835
 6506TIP3    H119475   2.891   5.539   1.786
 6506TIP3    H219476   2.853   5.393   1.783
 6507TIP3   OH219477   7.327   7.377   2.518
 6507TIP3    H119478   7.300   7.468   2.513
 6507TIP3    H219479   7.342   7.360   2.611
 6508TIP3   OH219480   4.194   4.784   0.217
 6508TIP3    H119481   4.172   4.840   0.143
 6508TIP3    H219482   4.122   4.795   0.278
 6509TIP3   OH219483   3.141   1.530   5.216
 6509TIP3    H119484   3.101   1.615   5.231
 6509TIP3    H219485   3.116   1.507   5.126
 6510TIP3   OH219486   5.287   3.585   2.582
 6510TIP3    H119487   5.199   3.582   2.544
 6510TIP3    H219488   5.317   3.675   2.566
 6511TIP3   OH219489   3.841   7.650   5.781
 6511TIP3    H119490   3.772   7.600   5.826
 6511TIP3    H219491   3.901   7.674   5.851
 6512TIP3   OH219492   3.756   2.855   5.431
 6512TIP3    H119493   3.799   2.903   5.502
 6512TIP3    H219494   3.819   2.787   5.406
 6513TIP3   OH219495   8.197   4.760   6.574
 6513TIP3    H119496   8.275   4.797   6.615
 6513TIP3    H219497   8.139   4.835   6.561
 6514TIP3   OH219498   4.978   1.212   3.016
 6514TIP3    H119499   5.003   1.215   3.108
 6514TIP3    H219500   4.905   1.151   3.013
 6515TIP3   OH219501   3.560   7.729   6.704
 6515TIP3    H119502   3.568   7.801   6.767
 6515TIP3    H219503   3.624   7.664   6.734
 6516TIP3   OH219504   0.052   6.855   0.054
 6516TIP3    H119505   0.083   6.766   0.070
 6516TIP3    H219506  -0.028   6.862   0.106
 6517TIP3   OH219507   2.291   3.487   1.232
 6517TIP3    H119508   2.340   3.477   1.314
 6517TIP3    H219509   2.352   3.460   1.164
 6518TIP3   OH219510   0.656   5.891   1.650
 6518TIP3    H119511   0.687   5.855   1.733
 6518TIP3    H219512   0.730   5.883   1.591
 6519TIP3   OH219513   0.336   2.217   1.819
 6519TIP3    H119514   0.244   2.191   1.823
 6519TIP3    H219515   0.334   2.311   1.802
 6520TIP3   OH219516   0.583   0.341   2.010
 6520TIP3    H119517   0.657   0.387   1.969
 6520TIP3    H219518   0.609   0.329   2.101
 6521TIP3   OH219519   1.535   7.282   3.987
 6521TIP3    H119520   1.543   7.319   4.075
 6521TIP3    H219521   1.486   7.348   3.938
 6522TIP3   OH219522   7.060   0.895   6.388
 6522TIP3    H119523   7.056   0.988   6.409
 6522TIP3    H219524   6.971   0.863   6.400
 6523TIP3   OH219525   2.688   1.422   6.348
 6523TIP3    H119526   2.711   1.495   6.406
 6523TIP3    H219527   2.641   1.463   6.275
 6524TIP3   OH219528   2.484   1.834   3.766
 6524TIP3    H119529   2.567   1.863   3.728
 6524TIP3    H219530   2.505   1.751   3.810
 6525TIP3   OH219531   1.898   2.870   4.613
 6525TIP3    H119532   1.817   2.837   4.574
 6525TIP3    H219533   1.965   2.807   4.585
 6526TIP3   OH219534  -0.028   2.130   1.498
 6526TIP3    H119535   0.040   2.102   1.436
 6526TIP3    H219536   0.016   2.195   1.553
 6527TIP3   OH219537   6.419   0.556   5.926
 6527TIP3    H119538   6.368   0.604   5.861
 6527TIP3    H219539   6.400   0.464   5.908
 6528TIP3   OH219540   4.318   7.205   4.705
 6528TIP3    H119541   4.336   7.146   4.778
 6528TIP3    H219542   4.348   7.291   4.736
 6529TIP3   OH219543   2.779   6.750   4.252
 6529TIP3    H119544   2.866   6.723   4.279
 6529TIP3    H219545   2.758   6.823   4.311
 6530TIP3   OH219546   0.563   4.848   3.241
 6530TIP3    H119547   0.611   4.797   3.306
 6530TIP3    H219548   0.595   4.938   3.252
 6531TIP3   OH219549   4.457   6.776   3.850
 6531TIP3    H119550   4.409   6.724   3.915
 6531TIP3    H219551   4.474   6.859   3.894
 6532TIP3   OH219552   7.918   7.326   5.948
 6532TIP3    H119553   7.967   7.385   5.890
 6532TIP3    H219554   7.863   7.384   6.001
 6533TIP3   OH219555   1.859   3.896   1.657
 6533TIP3    H119556   1.876   3.845   1.736
 6533TIP3    H219557   1.940   3.889   1.606
 6534TIP3   OH219558   8.015   2.522   2.359
 6534TIP3    H119559   8.047   2.570   2.283
 6534TIP3    H219560   8.094   2.491   2.404
 6535TIP3   OH219561   1.541   2.854   1.056
 6535TIP3    H119562   1.472   2.915   1.084
 6535TIP3    H219563   1.495   2.786   1.008
 6536TIP3   OH219564   2.304   7.399   4.385
 6536TIP3    H119565   2.341   7.415   4.472
 6536TIP3    H219566   2.380   7.390   4.328
 6537TIP3   OH219567   6.240   6.435   6.551
 6537TIP3    H119568   6.314   6.496   6.558
 6537TIP3    H219569   6.223   6.409   6.642
 6538TIP3   OH219570   7.384   2.223   1.533
 6538TIP3    H119571   7.311   2.189   1.585
 6538TIP3    H219572   7.387   2.316   1.555
 6539TIP3   OH219573   7.426   4.413   5.157
 6539TIP3    H119574   7.429   4.346   5.225
 6539TIP3    H219575   7.477   4.486   5.193
 6540TIP3   OH219576   5.222   2.748   2.324
 6540TIP3    H119577   5.214   2.797   2.406
 6540TIP3    H219578   5.293   2.793   2.277
 6541TIP3   OH219579   7.953   6.293   6.016
 6541TIP3    H119580   8.031   6.325   5.972
 6541TIP3    H219581   7.984   6.259   6.100
 6542TIP3   OH219582   0.416   1.610   3.691
 6542TIP3    H119583   0.445   1.551   3.621
 6542TIP3    H219584   0.395   1.692   3.646
 6543TIP3   OH219585   4.775   2.433   0.160
 6543TIP3    H119586   4.834   2.507   0.170
 6543TIP3    H219587   4.735   2.422   0.246
 6544TIP3   OH219588   3.239   3.680   6.542
 6544TIP3    H119589   3.282   3.757   6.505
 6544TIP3    H219590   3.180   3.715   6.609
 6545TIP3   OH219591   5.595   3.918   1.610
 6545TIP3    H119592   5.640   3.982   1.556
 6545TIP3    H219593   5.502   3.928   1.588
 6546TIP3   OH219594   5.534   4.937   1.674
 6546TIP3    H119595   5.472   4.903   1.610
 6546TIP3    H219596   5.619   4.932   1.631
 6547TIP3   OH219597   4.760   5.069   6.148
 6547TIP3    H119598   4.727   5.090   6.236
 6547TIP3    H219599   4.853   5.088   6.152
 6548TIP3   OH219600   3.287   4.766   3.275
 6548TIP3    H119601   3.274   4.780   3.368
 6548TIP3    H219602   3.215   4.814   3.233
 6549TIP3   OH219603   1.028   1.890   4.621
 6549TIP3    H119604   1.063   1.806   4.591
 6549TIP3    H219605   1.079   1.956   4.574
 6550TIP3   OH219606   6.464   3.086   0.845
 6550TIP3    H119607   6.541   3.060   0.895
 6550TIP3    H219608   6.390   3.068   0.903
 6551TIP3   OH219609   1.751   6.145   4.511
 6551TIP3    H119610   1.828   6.173   4.559
 6551TIP3    H219611   1.785   6.106   4.431
 6552TIP3   OH219612   4.037   4.280   1.754
 6552TIP3    H119613   3.945   4.302   1.768
 6552TIP3    H219614   4.085   4.347   1.803
 6553TIP3   OH219615   6.349   4.900   4.302
 6553TIP3    H119616   6.420   4.845   4.335
 6553TIP3    H219617   6.367   4.986   4.339
 6554TIP3   OH219618   7.869   6.143   4.550
 6554TIP3    H119619   7.853   6.209   4.617
 6554TIP3    H219620   7.789   6.144   4.497
 6555TIP3   OH219621   2.559   4.649   2.506
 6555TIP3    H119622   2.598   4.597   2.576
 6555TIP3    H219623   2.603   4.734   2.511
 6556TIP3   OH219624   2.529   4.635   5.499
 6556TIP3    H119625   2.479   4.665   5.575
 6556TIP3    H219626   2.473   4.655   5.424
 6557TIP3   OH219627   5.338   2.136   5.945
 6557TIP3    H119628   5.396   2.062   5.963
 6557TIP3    H219629   5.378   2.209   5.993
 6558TIP3   OH219630   1.893   1.710   3.937
 6558TIP3    H119631   1.910   1.798   3.970
 6558TIP3    H219632   1.959   1.697   3.868
 6559TIP3   OH219633   1.284   0.277   2.187
 6559TIP3    H119634   1.292   0.368   2.214
 6559TIP3    H219635   1.224   0.279   2.113
 6560TIP3   OH219636   0.484   1.799   1.674
 6560TIP3    H119637   0.467   1.748   1.753
 6560TIP3    H219638   0.556   1.859   1.699
 6561TIP3   OH219639   2.271   4.008   5.434
 6561TIP3    H119640   2.176   4.011   5.433
 6561TIP3    H219641   2.292   3.915   5.442
 6562TIP3   OH219642   6.785   0.081   4.493
 6562TIP3    H119643   6.827   0.057   4.410
 6562TIP3    H219644   6.854   0.071   4.559
 6563TIP3   OH219645   7.674   1.934   3.446
 6563TIP3    H119646   7.623   2.013   3.427
 6563TIP3    H219647   7.764   1.959   3.425
 6564TIP3   OH219648   5.816   2.046   0.067
 6564TIP3    H119649   5.810   1.962   0.020
 6564TIP3    H219650   5.783   2.027   0.155
 6565TIP3   OH219651   2.205   1.694   5.362
 6565TIP3    H119652   2.194   1.688   5.457
 6565TIP3    H219653   2.139   1.758   5.334
 6566TIP3   OH219654   5.305   7.528   5.168
 6566TIP3    H119655   5.223   7.555   5.127
 6566TIP3    H219656   5.318   7.438   5.138
 6567TIP3   OH219657   3.943   6.346   1.974
 6567TIP3    H119658   3.905   6.427   1.941
 6567TIP3    H219659   4.016   6.374   2.030
 6568TIP3   OH219660   3.735   2.988   5.048
 6568TIP3    H119661   3.809   2.927   5.046
 6568TIP3    H219662   3.776   3.075   5.046
 6569TIP3   OH219663   6.899   6.550   0.538
 6569TIP3    H119664   6.889   6.620   0.602
 6569TIP3    H219665   6.907   6.470   0.590
 6570TIP3   OH219666   5.922   4.650   5.277
 6570TIP3    H119667   5.948   4.739   5.254
 6570TIP3    H219668   5.868   4.659   5.355
 6571TIP3   OH219669   5.903   0.680   2.910
 6571TIP3    H119670   5.955   0.685   2.830
 6571TIP3    H219671   5.917   0.764   2.953
 6572TIP3   OH219672   7.647   1.640   4.386
 6572TIP3    H119673   7.673   1.707   4.450
 6572TIP3    H219674   7.615   1.567   4.439
 6573TIP3   OH219675   7.964   3.508   4.065
 6573TIP3    H119676   7.894   3.486   4.126
 6573TIP3    H219677   7.998   3.592   4.096
 6574TIP3   OH219678   7.834   5.529   5.904
 6574TIP3    H119679   7.814   5.442   5.939
 6574TIP3    H219680   7.871   5.513   5.818
 6575TIP3   OH219681   2.233   6.517   1.514
 6575TIP3    H119682   2.197   6.552   1.595
 6575TIP3    H219683   2.307   6.575   1.494
 6576TIP3   OH219684   5.066   4.282   5.546
 6576TIP3    H119685   5.035   4.200   5.508
 6576TIP3    H219686   5.159   4.285   5.525
 6577TIP3   OH219687   6.179   1.629   1.431
 6577TIP3    H119688   6.138   1.629   1.518
 6577TIP3    H219689   6.263   1.583   1.444
 6578TIP3   OH219690   0.752   1.003   1.816
 6578TIP3    H119691   0.753   1.075   1.879
 6578TIP3    H219692   0.676   1.022   1.760
 6579TIP3   OH219693   1.333   7.798   1.800
 6579TIP3    H119694   1.320   7.760   1.713
 6579TIP3    H219695   1.421   7.834   1.797
 6580TIP3   OH219696   4.537   3.032   1.014
 6580TIP3    H119697   4.548   2.962   1.078
 6580TIP3    H219698   4.484   2.993   0.944
 6581TIP3   OH219699   6.690   6.334   3.183
 6581TIP3    H119700   6.702   6.412   3.129
 6581TIP3    H219701   6.624   6.282   3.137
 6582TIP3   OH219702   6.967   3.497   5.159
 6582TIP3    H119703   7.014   3.440   5.098
 6582TIP3    H219704   6.904   3.440   5.202
 6583TIP3   OH219705   0.538   7.753   5.119
 6583TIP3    H119706   0.581   7.729   5.201
 6583TIP3    H219707   0.539   7.672   5.067
 6584TIP3   OH219708   4.143   2.945   1.596
 6584TIP3    H119709   4.223   2.893   1.593
 6584TIP3    H219710   4.172   3.035   1.581
 6585TIP3   OH219711   4.068   6.655   4.845
 6585TIP3    H119712   3.987   6.704   4.831
 6585TIP3    H219713   4.042   6.580   4.899
 6586TIP3   OH219714   1.569   5.227   1.708
 6586TIP3    H119715   1.626   5.280   1.764
 6586TIP3    H219716   1.569   5.272   1.624
 6587TIP3   OH219717   0.627   3.390   1.414
 6587TIP3    H119718   0.618   3.298   1.441
 6587TIP3    H219719   0.690   3.387   1.342
 6588TIP3   OH219720   4.373   6.116   2.543
 6588TIP3    H119721   4.372   6.160   2.458
 6588TIP3    H219722   4.466   6.097   2.559
 6589TIP3   OH219723   5.257   7.063   6.701
 6589TIP3    H119724   5.209   7.050   6.619
 6589TIP3    H219725   5.317   6.987   6.705
 6590TIP3   OH219726   6.002   1.502   6.596
 6590TIP3    H119727   5.925   1.555   6.614
 6590TIP3    H219728   6.008   1.500   6.501
 6591TIP3   OH219729   5.971   7.128   2.557
 6591TIP3    H119730   5.992   7.218   2.584
 6591TIP3    H219731   5.981   7.128   2.462
 6592TIP3   OH219732   7.900   4.816   4.060
 6592TIP3    H119733   7.878   4.752   3.993
 6592TIP3    H219734   7.936   4.890   4.011
 6593TIP3   OH219735   0.245   3.982   1.730
 6593TIP3    H119736   0.263   4.048   1.662
 6593TIP3    H219737   0.201   4.030   1.799
 6594TIP3   OH219738   1.610   6.361   1.319
 6594TIP3    H119739   1.705   6.351   1.326
 6594TIP3    H219740   1.575   6.272   1.323
 6595TIP3   OH219741   0.865   4.616   0.695
 6595TIP3    H119742   0.849   4.584   0.783
 6595TIP3    H219743   0.889   4.708   0.707
 6596TIP3   OH219744   2.903   1.943   0.641
 6596TIP3    H119745   2.945   1.859   0.619
 6596TIP3    H219746   2.811   1.921   0.654
 6597TIP3   OH219747   8.017   3.935   0.832
 6597TIP3    H119748   7.970   3.856   0.803
 6597TIP3    H219749   8.075   3.904   0.902
 6598TIP3   OH219750   0.919   3.563   5.567
 6598TIP3    H119751   0.873   3.481   5.548
 6598TIP3    H219752   0.879   3.627   5.508
 6599TIP3   OH219753   8.125   6.956   5.765
 6599TIP3    H119754   8.208   6.959   5.717
 6599TIP3    H219755   8.088   7.043   5.755
 6600TIP3   OH219756   4.872   2.781   5.964
 6600TIP3    H119757   4.876   2.754   5.872
 6600TIP3    H219758   4.905   2.705   6.012
 6601TIP3   OH219759   0.857   0.585   6.242
 6601TIP3    H119760   0.902   0.548   6.318
 6601TIP3    H219761   0.799   0.516   6.212
 6602TIP3   OH219762   4.779   6.103   5.590
 6602TIP3    H119763   4.763   6.012   5.567
 6602TIP3    H219764   4.870   6.119   5.564
 6603TIP3   OH219765   4.979   4.314   4.260
 6603TIP3    H119766   4.997   4.312   4.166
 6603TIP3    H219767   4.884   4.300   4.266
 6604TIP3   OH219768   6.501   0.749   5.525
 6604TIP3    H119769   6.591   0.718   5.517
 6604TIP3    H219770   6.448   0.680   5.485
 6605TIP3   OH219771   5.350   3.904   4.483
 6605TIP3    H119772   5.438   3.873   4.505
 6605TIP3    H219773   5.294   3.872   4.553
 6606TIP3   OH219774   7.634   5.895   1.255
 6606TIP3    H119775   7.663   5.810   1.289
 6606TIP3    H219776   7.542   5.882   1.233
 6607TIP3   OH219777   4.617   1.256   3.010
 6607TIP3    H119778   4.531   1.256   2.967
 6607TIP3    H219779   4.597   1.236   3.102
 6608TIP3   OH219780   5.913   4.929   2.136
 6608TIP3    H119781   5.865   5.000   2.093
 6608TIP3    H219782   5.998   4.927   2.092
 6609TIP3   OH219783   2.191   4.767   0.424
 6609TIP3    H119784   2.095   4.773   0.421
 6609TIP3    H219785   2.218   4.772   0.332
 6610TIP3   OH219786   1.077   5.290   1.419
 6610TIP3    H119787   1.069   5.385   1.425
 6610TIP3    H219788   1.003   5.256   1.469
 6611TIP3   OH219789   6.163   0.961   4.373
 6611TIP3    H119790   6.196   1.050   4.384
 6611TIP3    H219791   6.122   0.961   4.286
 6612TIP3   OH219792   4.957   1.813   1.722
 6612TIP3    H119793   4.981   1.761   1.798
 6612TIP3    H219794   5.000   1.897   1.735
 6613TIP3   OH219795   1.994   3.647   2.250
 6613TIP3    H119796   1.930   3.651   2.321
 6613TIP3    H219797   2.000   3.554   2.229
 6614TIP3   OH219798   8.185   7.163   0.923
 6614TIP3    H119799   8.135   7.105   0.980
 6614TIP3    H219800   8.276   7.138   0.937
 6615TIP3   OH219801   6.040   4.176   3.154
 6615TIP3    H119802   6.030   4.244   3.220
 6615TIP3    H219803   5.972   4.112   3.174
 6616TIP3   OH219804   4.787   4.779   6.014
 6616TIP3    H119805   4.751   4.807   6.098
 6616TIP3    H219806   4.718   4.800   5.950
 6617TIP3   OH219807   3.400   5.763   5.743
 6617TIP3    H119808   3.320   5.774   5.691
 6617TIP3    H219809   3.465   5.817   5.699
 6618TIP3   OH219810   0.895   6.886   6.128
 6618TIP3    H119811   0.921   6.946   6.058
 6618TIP3    H219812   0.832   6.935   6.179
 6619TIP3   OH219813   0.529   4.165   4.404
 6619TIP3    H119814   0.448   4.115   4.401
 6619TIP3    H219815   0.522   4.227   4.331
 6620TIP3   OH219816   0.330   6.333   5.162
 6620TIP3    H119817   0.267   6.264   5.182
 6620TIP3    H219818   0.378   6.345   5.244
 6621TIP3   OH219819   3.274   2.073   4.017
 6621TIP3    H119820   3.286   2.166   3.999
 6621TIP3    H219821   3.352   2.031   3.981
 6622TIP3   OH219822   4.011   5.307   1.079
 6622TIP3    H119823   3.932   5.252   1.074
 6622TIP3    H219824   3.989   5.373   1.144
 6623TIP3   OH219825   7.222   3.930   4.843
 6623TIP3    H119826   7.217   3.841   4.876
 6623TIP3    H219827   7.172   3.929   4.761
 6624TIP3   OH219828   2.173   5.847   4.062
 6624TIP3    H119829   2.240   5.779   4.061
 6624TIP3    H219830   2.189   5.894   4.144
 6625TIP3   OH219831   1.685   4.847   2.148
 6625TIP3    H119832   1.712   4.823   2.237
 6625TIP3    H219833   1.732   4.929   2.130
 6626TIP3   OH219834   2.421   5.367   2.349
 6626TIP3    H119835   2.356   5.348   2.417
 6626TIP3    H219836   2.505   5.363   2.395
 6627TIP3   OH219837   6.944   1.862   4.653
 6627TIP3    H119838   6.941   1.891   4.561
 6627TIP3    H219839   6.934   1.943   4.703
 6628TIP3   OH219840   2.051   7.366   0.916
 6628TIP3    H119841   1.957   7.362   0.895
 6628TIP3    H219842   2.054   7.409   1.002
 6629TIP3   OH219843   7.810   0.965   6.274
 6629TIP3    H119844   7.791   0.917   6.355
 6629TIP3    H219845   7.740   1.029   6.268
 6630TIP3   OH219846   0.512   3.685   4.678
 6630TIP3    H119847   0.567   3.611   4.649
 6630TIP3    H219848   0.463   3.709   4.599
 6631TIP3   OH219849   1.506   4.369   3.213
 6631TIP3    H119850   1.542   4.456   3.231
 6631TIP3    H219851   1.419   4.385   3.177
 6632TIP3   OH219852   4.624   7.271   5.952
 6632TIP3    H119853   4.561   7.235   5.890
 6632TIP3    H219854   4.594   7.240   6.037
 6633TIP3   OH219855   1.105   4.440   2.330
 6633TIP3    H119856   1.022   4.438   2.283
 6633TIP3    H219857   1.167   4.476   2.268
 6634TIP3   OH219858   3.084   5.804   0.069
 6634TIP3    H119859   3.173   5.824   0.098
 6634TIP3    H219860   3.073   5.856  -0.011
 6635TIP3   OH219861   3.390   5.066   3.611
 6635TIP3    H119862   3.380   5.109   3.695
 6635TIP3    H219863   3.485   5.056   3.600
 6636TIP3   OH219864   4.597   4.912   4.704
 6636TIP3    H119865   4.599   4.870   4.618
 6636TIP3    H219866   4.589   5.005   4.685
 6637TIP3   OH219867   7.075   0.463   2.552
 6637TIP3    H119868   7.065   0.451   2.646
 6637TIP3    H219869   7.168   0.480   2.539
 6638TIP3   OH219870   2.471   0.793   2.286
 6638TIP3    H119871   2.411   0.840   2.344
 6638TIP3    H219872   2.414   0.740   2.230
 6639TIP3   OH219873   6.638   0.324   4.496
 6639TIP3    H119874   6.578   0.316   4.422
 6639TIP3    H219875   6.701   0.252   4.484
 6640TIP3   OH219876   1.837   7.077   1.654
 6640TIP3    H119877   1.776   7.007   1.631
 6640TIP3    H219878   1.851   7.125   1.573
 6641TIP3   OH219879   2.045   1.768   2.598
 6641TIP3    H119880   1.996   1.814   2.530
 6641TIP3    H219881   2.052   1.831   2.670
 6642TIP3   OH219882   1.665   0.811   5.065
 6642TIP3    H119883   1.712   0.834   5.145
 6642TIP3    H219884   1.617   0.890   5.042
 6643TIP3   OH219885   1.231   0.194   3.701
 6643TIP3    H119886   1.189   0.108   3.703
 6643TIP3    H219887   1.196   0.240   3.778
 6644TIP3   OH219888   3.964   0.727   1.966
 6644TIP3    H119889   4.021   0.798   1.995
 6644TIP3    H219890   4.015   0.647   1.981
 6645TIP3   OH219891   5.591   7.394   6.641
 6645TIP3    H119892   5.626   7.308   6.664
 6645TIP3    H219893   5.559   7.430   6.724
 6646TIP3   OH219894   2.643   5.712   3.918
 6646TIP3    H119895   2.565   5.763   3.938
 6646TIP3    H219896   2.712   5.777   3.907
 6647TIP3   OH219897   5.543   3.891   0.651
 6647TIP3    H119898   5.582   3.917   0.734
 6647TIP3    H219899   5.486   3.964   0.627
 6648TIP3   OH219900   7.044   5.966   0.013
 6648TIP3    H119901   6.992   5.897  -0.027
 6648TIP3    H219902   7.113   5.920   0.061
 6649TIP3   OH219903   3.842   2.617   5.938
 6649TIP3    H119904   3.785   2.588   6.010
 6649TIP3    H219905   3.930   2.611   5.974
 6650TIP3   OH219906   3.489   3.066   2.177
 6650TIP3    H119907   3.421   3.134   2.173
 6650TIP3    H219908   3.444   2.986   2.153
 6651TIP3   OH219909   0.707   4.630   5.082
 6651TIP3    H119910   0.705   4.644   4.988
 6651TIP3    H219911   0.786   4.579   5.098
 6652TIP3   OH219912   4.940   5.970   6.221
 6652TIP3    H119913   4.944   6.010   6.134
 6652TIP3    H219914   4.937   5.876   6.205
 6653TIP3   OH219915   0.057   2.151   2.080
 6653TIP3    H119916   0.047   2.243   2.104
 6653TIP3    H219917   0.130   2.120   2.134
 6654TIP3   OH219918   2.279   3.080   5.441
 6654TIP3    H119919   2.243   3.056   5.356
 6654TIP3    H219920   2.360   3.126   5.421
 6655TIP3   OH219921   3.058   0.624   0.056
 6655TIP3    H119922   3.011   0.670   0.125
 6655TIP3    H219923   3.040   0.531   0.072
 6656TIP3   OH219924   2.905   4.172   4.021
 6656TIP3    H119925   2.895   4.261   3.987
 6656TIP3    H219926   2.837   4.122   3.976
 6657TIP3   OH219927   1.587   4.693   4.859
 6657TIP3    H119928   1.643   4.749   4.806
 6657TIP3    H219929   1.515   4.669   4.801
 6658TIP3   OH219930   1.500   2.426   3.409
 6658TIP3    H119931   1.453   2.442   3.327
 6658TIP3    H219932   1.463   2.490   3.470
 6659TIP3   OH219933   5.101   0.366   1.670
 6659TIP3    H119934   5.181   0.400   1.712
 6659TIP3    H219935   5.133   0.310   1.600
 6660TIP3   OH219936   7.047   5.021   0.459
 6660TIP3    H119937   7.032   5.002   0.367
 6660TIP3    H219938   6.960   5.019   0.498
 6661TIP3   OH219939   7.213   2.404   2.534
 6661TIP3    H119940   7.294   2.428   2.579
 6661TIP3    H219941   7.153   2.477   2.552
 6662TIP3   OH219942   7.399   6.044   3.293
 6662TIP3    H119943   7.329   5.984   3.270
 6662TIP3    H219944   7.355   6.116   3.339
 6663TIP3   OH219945   2.642   3.150   0.304
 6663TIP3    H119946   2.668   3.063   0.275
 6663TIP3    H219947   2.691   3.210   0.248
 6664TIP3   OH219948   6.637   6.288   5.072
 6664TIP3    H119949   6.638   6.231   4.995
 6664TIP3    H219950   6.552   6.274   5.111
 6665TIP3   OH219951   8.290   2.633   6.334
 6665TIP3    H119952   8.262   2.565   6.394
 6665TIP3    H219953   8.242   2.616   6.253
 6666TIP3   OH219954   0.109   5.454   1.517
 6666TIP3    H119955   0.185   5.396   1.512
 6666TIP3    H219956   0.059   5.422   1.592
 6667TIP3   OH219957   6.706   1.432   4.056
 6667TIP3    H119958   6.651   1.438   4.134
 6667TIP3    H219959   6.758   1.513   4.057
 6668TIP3   OH219960   6.062   5.069   5.840
 6668TIP3    H119961   5.983   5.118   5.860
 6668TIP3    H219962   6.120   5.132   5.798
 6669TIP3   OH219963   6.551   2.197   5.565
 6669TIP3    H119964   6.626   2.144   5.538
 6669TIP3    H219965   6.480   2.134   5.574
 6670TIP3   OH219966   8.272   7.125   4.217
 6670TIP3    H119967   8.187   7.134   4.261
 6670TIP3    H219968   8.307   7.042   4.248
 6671TIP3   OH219969   7.222   3.214   3.878
 6671TIP3    H119970   7.279   3.286   3.906
 6671TIP3    H219971   7.256   3.138   3.924
 6672TIP3   OH219972   7.851   4.534   2.022
 6672TIP3    H119973   7.873   4.627   2.031
 6672TIP3    H219974   7.801   4.514   2.101
 6673TIP3   OH219975   2.608   2.973   6.579
 6673TIP3    H119976   2.521   3.003   6.605
 6673TIP3    H219977   2.629   3.024   6.501
 6674TIP3   OH219978   6.908   2.818   3.644
 6674TIP3    H119979   6.886   2.909   3.628
 6674TIP3    H219980   6.917   2.811   3.739
 6675TIP3   OH219981   8.030   3.572   3.129
 6675TIP3    H119982   8.042   3.544   3.038
 6675TIP3    H219983   8.021   3.490   3.178
 6676TIP3   OH219984   7.564   1.610   4.124
 6676TIP3    H119985   7.585   1.621   4.216
 6676TIP3    H219986   7.646   1.627   4.078
 6677TIP3   OH219987   2.197   4.967   5.071
 6677TIP3    H119988   2.121   4.930   5.025
 6677TIP3    H219989   2.190   4.933   5.160
 6678TIP3   OH219990   4.879   6.071   2.221
 6678TIP3    H119991   4.920   6.095   2.138
 6678TIP3    H219992   4.951   6.068   2.283
 6679TIP3   OH219993   4.074   2.040   3.129
 6679TIP3    H119994   4.078   2.049   3.034
 6679TIP3    H219995   4.135   2.107   3.162
 6680TIP3   OH219996   7.176   5.420   4.046
 6680TIP3    H119997   7.154   5.433   3.954
 6680TIP3    H219998   7.183   5.325   4.055
 6681TIP3   OH219999   3.503   6.493   6.650
 6681TIP3    H120000   3.480   6.453   6.566
 6681TIP3    H220001   3.427   6.477   6.706
 6682TIP3   OH220002   2.095   6.945   4.049
 6682TIP3    H120003   2.094   6.864   3.998
 6682TIP3    H220004   2.006   6.979   4.041
 6683TIP3   OH220005   2.133   4.289   6.399
 6683TIP3    H120006   2.146   4.338   6.481
 6683TIP3    H220007   2.220   4.259   6.375
 6684TIP3   OH220008   1.401   1.968   2.803
 6684TIP3    H120009   1.329   1.992   2.744
 6684TIP3    H220010   1.478   2.011   2.766
 6685TIP3   OH220011   0.739   6.263   3.501
 6685TIP3    H120012   0.829   6.240   3.480
 6685TIP3    H220013   0.692   6.257   3.418
 6686TIP3   OH220014   4.062   3.516   2.190
 6686TIP3    H120015   4.129   3.584   2.178
 6686TIP3    H220016   4.057   3.504   2.285
 6687TIP3   OH220017   0.703   4.740   3.982
 6687TIP3    H120018   0.746   4.780   4.058
 6687TIP3    H220019   0.673   4.814   3.929
 6688TIP3   OH220020   0.078   3.484   2.947
 6688TIP3    H120021   0.066   3.577   2.929
 6688TIP3    H220022   0.158   3.461   2.899
 6689TIP3   OH220023   7.622   6.950   3.065
 6689TIP3    H120024   7.647   7.028   3.016
 6689TIP3    H220025   7.527   6.944   3.053
 6690TIP3   OH220026   5.393   6.725   1.438
 6690TIP3    H120027   5.375   6.648   1.383
 6690TIP3    H220028   5.386   6.692   1.528
 6691TIP3   OH220029   3.085   7.325   2.756
 6691TIP3    H120030   3.125   7.360   2.835
 6691TIP3    H220031   2.993   7.349   2.762
 6692TIP3   OH220032   6.311   3.830   3.323
 6692TIP3    H120033   6.318   3.738   3.349
 6692TIP3    H220034   6.229   3.860   3.362
 6693TIP3   OH220035   0.802   0.292   5.008
 6693TIP3    H120036   0.888   0.334   5.002
 6693TIP3    H220037   0.815   0.218   5.067
 6694TIP3   OH220038   0.336   0.620   6.104
 6694TIP3    H120039   0.338   0.659   6.017
 6694TIP3    H220040   0.319   0.527   6.088
 6695TIP3   OH220041   2.245   3.538   3.615
 6695TIP3    H120042   2.221   3.525   3.707
 6695TIP3    H220043   2.162   3.539   3.568
 6696TIP3   OH220044   5.685   6.593   3.120
 6696TIP3    H120045   5.613   6.587   3.183
 6696TIP3    H220046   5.643   6.616   3.037
 6697TIP3   OH220047   5.860   5.187   6.189
 6697TIP3    H120048   5.877   5.174   6.095
 6697TIP3    H220049   5.844   5.281   6.197
 6698TIP3   OH220050   5.990   2.502   4.322
 6698TIP3    H120051   5.905   2.528   4.287
 6698TIP3    H220052   5.970   2.456   4.403
 6699TIP3   OH220053   1.533   6.183   0.028
 6699TIP3    H120054   1.591   6.249  -0.009
 6699TIP3    H220055   1.446   6.208  -0.003
 6700TIP3   OH220056   6.254   5.514   5.720
 6700TIP3    H120057   6.317   5.575   5.758
 6700TIP3    H220058   6.197   5.568   5.666
 6701TIP3   OH220059   5.814   6.330   5.652
 6701TIP3    H120060   5.724   6.332   5.617
 6701TIP3    H220061   5.803   6.347   5.745
 6702TIP3   OH220062   7.370   4.120   3.507
 6702TIP3    H120063   7.392   4.116   3.414
 6702TIP3    H220064   7.299   4.056   3.518
 6703TIP3   OH220065   7.882   0.613   3.338
 6703TIP3    H120066   7.883   0.519   3.357
 6703TIP3    H220067   7.806   0.625   3.282
 6704TIP3   OH220068   0.947   4.651   3.794
 6704TIP3    H120069   0.948   4.625   3.702
 6704TIP3    H220070   0.870   4.707   3.803
 6705TIP3   OH220071   3.598   4.864   0.242
 6705TIP3    H120072   3.507   4.851   0.269
 6705TIP3    H220073   3.601   4.831   0.152
 6706TIP3   OH220074   3.674   6.666   3.876
 6706TIP3    H120075   3.766   6.689   3.864
 6706TIP3    H220076   3.646   6.631   3.792
 6707TIP3   OH220077   2.245   0.848   1.250
 6707TIP3    H120078   2.287   0.782   1.196
 6707TIP3    H220079   2.225   0.920   1.189
 6708TIP3   OH220080   0.809   3.738   6.173
 6708TIP3    H120081   0.777   3.819   6.133
 6708TIP3    H220082   0.798   3.672   6.105
 6709TIP3   OH220083   6.167   5.229   1.593
 6709TIP3    H120084   6.164   5.288   1.517
 6709TIP3    H220085   6.097   5.261   1.650
 6710TIP3   OH220086   1.363   2.359   5.398
 6710TIP3    H120087   1.307   2.299   5.447
 6710TIP3    H220088   1.391   2.424   5.462
 6711TIP3   OH220089   4.796   3.098   5.401
 6711TIP3    H120090   4.740   3.034   5.357
 6711TIP3    H220091   4.867   3.115   5.339
 6712TIP3   OH220092   2.295   3.798   4.299
 6712TIP3    H120093   2.233   3.852   4.347
 6712TIP3    H220094   2.336   3.743   4.365
 6713TIP3   OH220095   1.665   7.761   4.579
 6713TIP3    H120096   1.658   7.729   4.489
 6713TIP3    H220097   1.749   7.727   4.610
 6714TIP3   OH220098   2.740   4.260   3.574
 6714TIP3    H120099   2.700   4.202   3.640
 6714TIP3    H220100   2.682   4.336   3.570
 6715TIP3   OH220101   2.294   5.109   1.764
 6715TIP3    H120102   2.316   5.157   1.844
 6715TIP3    H220103   2.284   5.018   1.793
 6716TIP3   OH220104   7.655   1.993   3.067
 6716TIP3    H120105   7.648   1.937   3.144
 6716TIP3    H220106   7.605   1.948   3.000
 6717TIP3   OH220107   0.836   5.403   4.616
 6717TIP3    H120108   0.826   5.376   4.707
 6717TIP3    H220109   0.922   5.371   4.590
 6718TIP3   OH220110   5.938   0.161   6.643
 6718TIP3    H120111   5.954   0.088   6.584
 6718TIP3    H220112   5.953   0.239   6.589
 6719TIP3   OH220113   2.480   0.690   1.960
 6719TIP3    H120114   2.403   0.738   1.990
 6719TIP3    H220115   2.459   0.667   1.869
 6720TIP3   OH220116   5.343   1.838   3.905
 6720TIP3    H120117   5.343   1.838   3.810
 6720TIP3    H220118   5.435   1.854   3.929
 6721TIP3   OH220119   0.362   0.889   0.638
 6721TIP3    H120120   0.275   0.920   0.661
 6721TIP3    H220121   0.362   0.883   0.542
 6722TIP3   OH220122   1.730   0.364   1.503
 6722TIP3    H120123   1.748   0.457   1.491
 6722TIP3    H220124   1.638   0.354   1.480
 6723TIP3   OH220125   2.528   6.309   1.228
 6723TIP3    H120126   2.554   6.258   1.305
 6723TIP3    H220127   2.582   6.275   1.157
 6724TIP3   OH220128   7.963   6.850   3.844
 6724TIP3    H120129   7.924   6.779   3.794
 6724TIP3    H220130   7.898   6.920   3.843
 6725TIP3   OH220131   1.058   4.446   1.569
 6725TIP3    H120132   1.115   4.397   1.627
 6725TIP3    H220133   0.973   4.402   1.575
 6726TIP3   OH220134   2.077   5.597   2.908
 6726TIP3    H120135   2.069   5.624   2.999
 6726TIP3    H220136   2.149   5.534   2.907
 6727TIP3   OH220137   0.545   5.100   2.962
 6727TIP3    H120138   0.459   5.065   2.940
 6727TIP3    H220139   0.543   5.108   3.057
 6728TIP3   OH220140   5.803   4.688   4.037
 6728TIP3    H120141   5.839   4.730   4.114
 6728TIP3    H220142   5.709   4.678   4.056
 6729TIP3   OH220143   6.520   6.173   1.097
 6729TIP3    H120144   6.471   6.091   1.092
 6729TIP3    H220145   6.487   6.217   1.175
 6730TIP3   OH220146   6.022   7.095   4.221
 6730TIP3    H120147   6.105   7.064   4.183
 6730TIP3    H220148   6.047   7.138   4.303
 6731TIP3   OH220149   7.452   5.707   0.284
 6731TIP3    H120150   7.523   5.646   0.263
 6731TIP3    H220151   7.456   5.718   0.379
 6732TIP3   OH220152   3.859   4.259   5.597
 6732TIP3    H120153   3.780   4.207   5.590
 6732TIP3    H220154   3.866   4.305   5.513
 6733TIP3   OH220155   7.508   3.449   0.978
 6733TIP3    H120156   7.502   3.484   0.889
 6733TIP3    H220157   7.534   3.358   0.967
 6734TIP3   OH220158   1.892   4.512   0.597
 6734TIP3    H120159   1.953   4.466   0.539
 6734TIP3    H220160   1.872   4.593   0.550
 6735TIP3   OH220161   0.636   5.657   3.741
 6735TIP3    H120162   0.726   5.662   3.773
 6735TIP3    H220163   0.582   5.665   3.819
 6736TIP3   OH220164   1.207   0.055   6.342
 6736TIP3    H120165   1.167   0.129   6.297
 6736TIP3    H220166   1.136   0.019   6.396
 6737TIP3   OH220167   8.110   5.419   3.684
 6737TIP3    H120168   8.104   5.494   3.625
 6737TIP3    H220169   8.078   5.345   3.633
 6738TIP3   OH220170   3.441   6.692   6.382
 6738TIP3    H120171   3.507   6.706   6.449
 6738TIP3    H220172   3.413   6.601   6.394
 6739TIP3   OH220173   2.561   3.227   4.457
 6739TIP3    H120174   2.552   3.146   4.507
 6739TIP3    H220175   2.554   3.199   4.366
 6740TIP3   OH220176   0.236   4.218   4.565
 6740TIP3    H120177   0.152   4.177   4.543
 6740TIP3    H220178   0.218   4.312   4.565
 6741TIP3   OH220179   4.245   6.522   5.776
 6741TIP3    H120180   4.174   6.460   5.758
 6741TIP3    H220181   4.304   6.513   5.701
 6742TIP3   OH220182   3.748   2.949   0.523
 6742TIP3    H120183   3.773   3.031   0.481
 6742TIP3    H220184   3.827   2.918   0.567
 6743TIP3   OH220185   2.313   4.048   3.609
 6743TIP3    H120186   2.295   4.114   3.676
 6743TIP3    H220187   2.227   4.015   3.583
 6744TIP3   OH220188   7.027   4.189   3.378
 6744TIP3    H120189   6.937   4.170   3.352
 6744TIP3    H220190   7.029   4.173   3.472
 6745TIP3   OH220191   2.513   1.998   2.693
 6745TIP3    H120192   2.439   2.053   2.720
 6745TIP3    H220193   2.507   1.921   2.749
 6746TIP3   OH220194   0.509   3.639   3.197
 6746TIP3    H120195   0.421   3.677   3.191
 6746TIP3    H220196   0.567   3.705   3.159
 6747TIP3   OH220197   4.344   6.159   2.860
 6747TIP3    H120198   4.325   6.213   2.784
 6747TIP3    H220199   4.382   6.219   2.924
 6748TIP3   OH220200   2.989   4.618   0.550
 6748TIP3    H120201   2.949   4.533   0.528
 6748TIP3    H220202   2.988   4.620   0.646
 6749TIP3   OH220203   4.782   7.650   0.389
 6749TIP3    H120204   4.726   7.715   0.347
 6749TIP3    H220205   4.721   7.596   0.439
 6750TIP3   OH220206   4.589   0.576   6.089
 6750TIP3    H120207   4.654   0.507   6.088
 6750TIP3    H220208   4.639   0.657   6.079
 6751TIP3   OH220209   1.071   4.488   5.392
 6751TIP3    H120210   1.125   4.448   5.460
 6751TIP3    H220211   0.986   4.444   5.400
 6752TIP3   OH220212   4.848   4.445   5.622
 6752TIP3    H120213   4.796   4.428   5.700
 6752TIP3    H220214   4.882   4.359   5.597
 6753TIP3   OH220215   7.605   5.585   2.384
 6753TIP3    H120216   7.683   5.593   2.438
 6753TIP3    H220217   7.635   5.605   2.295
 6754TIP3   OH220218   3.673   5.490   5.508
 6754TIP3    H120219   3.696   5.476   5.416
 6754TIP3    H220220   3.596   5.435   5.522
 6755TIP3   OH220221   4.438   6.874   2.795
 6755TIP3    H120222   4.394   6.793   2.770
 6755TIP3    H220223   4.434   6.929   2.717
 6756TIP3   OH220224   3.510   2.603   3.845
 6756TIP3    H120225   3.548   2.552   3.916
 6756TIP3    H220226   3.511   2.693   3.877
 6757TIP3   OH220227   0.086   4.361   2.398
 6757TIP3    H120228   0.133   4.289   2.440
 6757TIP3    H220229   0.066   4.422   2.469
 6758TIP3   OH220230   4.705   4.003   0.383
 6758TIP3    H120231   4.754   3.942   0.329
 6758TIP3    H220232   4.754   4.008   0.465
 6759TIP3   OH220233   4.968   0.088   4.423
 6759TIP3    H120234   4.973   0.155   4.355
 6759TIP3    H220235   5.055   0.048   4.426
 6760TIP3   OH220236   4.239   3.739   5.617
 6760TIP3    H120237   4.296   3.780   5.682
 6760TIP3    H220238   4.197   3.668   5.664
 6761TIP3   OH220239   2.886   4.189   2.634
 6761TIP3    H120240   2.872   4.125   2.704
 6761TIP3    H220241   2.809   4.180   2.578
 6762TIP3   OH220242   0.030   3.286   2.452
 6762TIP3    H120243  -0.065   3.281   2.468
 6762TIP3    H220244   0.067   3.306   2.538
 6763TIP3   OH220245   0.655   3.011   2.802
 6763TIP3    H120246   0.709   3.028   2.725
 6763TIP3    H220247   0.618   2.924   2.788
 6764TIP3   OH220248   2.109   2.904   4.177
 6764TIP3    H120249   2.061   2.891   4.095
 6764TIP3    H220250   2.040   2.922   4.242
 6765TIP3   OH220251   1.716   5.485   4.783
 6765TIP3    H120252   1.682   5.445   4.862
 6765TIP3    H220253   1.689   5.426   4.712
 6766TIP3   OH220254   1.527   5.731   0.404
 6766TIP3    H120255   1.432   5.719   0.400
 6766TIP3    H220256   1.540   5.824   0.388
 6767TIP3   OH220257   8.295   0.487   4.544
 6767TIP3    H120258   8.312   0.396   4.520
 6767TIP3    H220259   8.206   0.503   4.512
 6768TIP3   OH220260   4.494  -0.005   5.591
 6768TIP3    H120261   4.470   0.088   5.586
 6768TIP3    H220262   4.412  -0.052   5.579
 6769TIP3   OH220263   1.139   6.618   0.948
 6769TIP3    H120264   1.188   6.555   1.001
 6769TIP3    H220265   1.080   6.661   1.010
 6770TIP3   OH220266   1.094   4.079   5.568
 6770TIP3    H120267   1.147   4.045   5.497
 6770TIP3    H220268   1.104   4.174   5.562
 6771TIP3   OH220269   4.955   4.043   6.233
 6771TIP3    H120270   4.939   4.121   6.180
 6771TIP3    H220271   4.915   4.063   6.318
 6772TIP3   OH220272   2.465   7.005   2.120
 6772TIP3    H120273   2.435   6.914   2.128
 6772TIP3    H220274   2.549   6.999   2.074
 6773TIP3   OH220275   4.029   4.573   4.651
 6773TIP3    H120276   4.079   4.564   4.570
 6773TIP3    H220277   3.946   4.613   4.623
 6774TIP3   OH220278   2.493   0.652   4.466
 6774TIP3    H120279   2.570   0.595   4.458
 6774TIP3    H220280   2.421   0.591   4.481
 6775TIP3   OH220281   4.632   3.217   2.801
 6775TIP3    H120282   4.583   3.233   2.882
 6775TIP3    H220283   4.713   3.175   2.831
 6776TIP3   OH220284   5.449   0.668   1.375
 6776TIP3    H120285   5.418   0.758   1.387
 6776TIP3    H220286   5.374   0.614   1.399
 6777TIP3   OH220287   2.861   5.740   2.935
 6777TIP3    H120288   2.888   5.768   2.848
 6777TIP3    H220289   2.811   5.815   2.970
 6778TIP3   OH220290   3.605   1.362   3.059
 6778TIP3    H120291   3.613   1.456   3.042
 6778TIP3    H220292   3.629   1.321   2.975
 6779TIP3   OH220293   4.077   2.487   1.968
 6779TIP3    H120294   4.004   2.540   1.998
 6779TIP3    H220295   4.137   2.550   1.928
 6780TIP3   OH220296   3.349   5.839   2.959
 6780TIP3    H120297   3.255   5.840   2.977
 6780TIP3    H220298   3.383   5.913   3.008
 6781TIP3   OH220299   1.748   7.614   3.906
 6781TIP3    H120300   1.825   7.566   3.935
 6781TIP3    H220301   1.781   7.682   3.848
 6782TIP3   OH220302   6.966   1.757   5.289
 6782TIP3    H120303   7.028   1.730   5.356
 6782TIP3    H220304   6.880   1.735   5.325
 6783TIP3   OH220305   8.292   5.239   5.858
 6783TIP3    H120306   8.215   5.192   5.826
 6783TIP3    H220307   8.270   5.264   5.948
 6784TIP3   OH220308   4.028   3.229   1.916
 6784TIP3    H120309   3.985   3.246   2.000
 6784TIP3    H220310   4.090   3.301   1.906
 6785TIP3   OH220311   2.339   4.540   0.311
 6785TIP3    H120312   2.312   4.511   0.224
 6785TIP3    H220313   2.356   4.634   0.300
 6786TIP3   OH220314   1.786   7.706   1.979
 6786TIP3    H120315   1.804   7.786   1.929
 6786TIP3    H220316   1.808   7.635   1.918
 6787TIP3   OH220317   0.375   1.399   1.746
 6787TIP3    H120318   0.343   1.487   1.723
 6787TIP3    H220319   0.399   1.360   1.662
 6788TIP3   OH220320   8.040   2.672   0.427
 6788TIP3    H120321   8.035   2.757   0.470
 6788TIP3    H220322   8.010   2.610   0.494
 6789TIP3   OH220323   7.543   6.531   3.445
 6789TIP3    H120324   7.578   6.620   3.447
 6789TIP3    H220325   7.611   6.479   3.402
 6790TIP3   OH220326   0.649   4.858   6.249
 6790TIP3    H120327   0.665   4.919   6.177
 6790TIP3    H220328   0.645   4.772   6.208
 6791TIP3   OH220329   7.806   4.961   3.301
 6791TIP3    H120330   7.802   4.873   3.337
 6791TIP3    H220331   7.742   5.011   3.352
 6792TIP3   OH220332   2.596   0.890   0.678
 6792TIP3    H120333   2.661   0.836   0.721
 6792TIP3    H220334   2.560   0.834   0.609
 6793TIP3   OH220335   1.516   1.360   5.899
 6793TIP3    H120336   1.573   1.298   5.944
 6793TIP3    H220337   1.536   1.445   5.938
 6794TIP3   OH220338   5.749   4.505   5.895
 6794TIP3    H120339   5.828   4.557   5.912
 6794TIP3    H220340   5.678   4.560   5.927
 6795TIP3   OH220341   7.775   3.769   0.552
 6795TIP3    H120342   7.698   3.727   0.515
 6795TIP3    H220343   7.795   3.840   0.491
 6796TIP3   OH220344   2.898   2.324   2.880
 6796TIP3    H120345   2.984   2.342   2.919
 6796TIP3    H220346   2.836   2.372   2.935
 6797TIP3   OH220347   0.343   7.685   4.711
 6797TIP3    H120348   0.259   7.671   4.668
 6797TIP3    H220349   0.336   7.638   4.794
 6798TIP3   OH220350   7.457   2.596   2.867
 6798TIP3    H120351   7.413   2.559   2.943
 6798TIP3    H220352   7.519   2.660   2.903
 6799TIP3   OH220353   8.199   6.131   0.086
 6799TIP3    H120354   8.153   6.215   0.095
 6799TIP3    H220355   8.140   6.076   0.034
 6800TIP3   OH220356   6.356   7.773   1.818
 6800TIP3    H120357   6.430   7.782   1.878
 6800TIP3    H220358   6.381   7.700   1.761
 6801TIP3   OH220359   3.362   2.142   5.707
 6801TIP3    H120360   3.441   2.111   5.663
 6801TIP3    H220361   3.368   2.237   5.704
 6802TIP3   OH220362   1.267   4.416   5.825
 6802TIP3    H120363   1.292   4.330   5.859
 6802TIP3    H220364   1.319   4.478   5.877
 6803TIP3   OH220365   7.017   4.760   5.248
 6803TIP3    H120366   7.083   4.771   5.179
 6803TIP3    H220367   7.005   4.848   5.284
 6804TIP3   OH220368   2.813   6.117   5.415
 6804TIP3    H120369   2.822   6.210   5.439
 6804TIP3    H220370   2.890   6.075   5.454
 6805TIP3   OH220371   1.185   7.105   2.040
 6805TIP3    H120372   1.159   7.014   2.056
 6805TIP3    H220373   1.275   7.111   2.073
 6806TIP3   OH220374   7.832   3.646   3.333
 6806TIP3    H120375   7.751   3.682   3.297
 6806TIP3    H220376   7.890   3.637   3.257
 6807TIP3   OH220377   0.983   7.165   2.934
 6807TIP3    H120378   0.971   7.171   2.839
 6807TIP3    H220379   0.896   7.146   2.968
 6808TIP3   OH220380   5.768   0.726   6.725
 6808TIP3    H120381   5.862   0.717   6.707
 6808TIP3    H220382   5.739   0.636   6.742
 6809TIP3   OH220383   1.613   7.406   2.158
 6809TIP3    H120384   1.548   7.390   2.090
 6809TIP3    H220385   1.684   7.452   2.114
 6810TIP3   OH220386   0.180   5.808   1.868
 6810TIP3    H120387   0.161   5.901   1.885
 6810TIP3    H220388   0.228   5.809   1.785
 6811TIP3   OH220389   6.912   3.750   6.252
 6811TIP3    H120390   6.879   3.785   6.170
 6811TIP3    H220391   6.978   3.814   6.280
 6812TIP3   OH220392   8.299   6.571   1.787
 6812TIP3    H120393   8.210   6.605   1.798
 6812TIP3    H220394   8.321   6.533   1.872
 6813TIP3   OH220395   6.650   2.395   0.310
 6813TIP3    H120396   6.581   2.366   0.251
 6813TIP3    H220397   6.616   2.475   0.350
 6814TIP3   OH220398   3.860   2.216   5.340
 6814TIP3    H120399   3.801   2.271   5.391
 6814TIP3    H220400   3.948   2.244   5.365
 6815TIP3   OH220401   4.440   6.213   3.248
 6815TIP3    H120402   4.500   6.166   3.306
 6815TIP3    H220403   4.383   6.144   3.212
 6816TIP3   OH220404   0.888   0.431   0.191
 6816TIP3    H120405   0.906   0.376   0.267
 6816TIP3    H220406   0.892   0.371   0.117
 6817TIP3   OH220407   0.983   2.968   0.516
 6817TIP3    H120408   1.019   2.917   0.443
 6817TIP3    H220409   0.932   2.905   0.567
 6818TIP3   OH220410   5.759   3.811   0.904
 6818TIP3    H120411   5.720   3.724   0.891
 6818TIP3    H220412   5.703   3.852   0.970
 6819TIP3   OH220413   0.816   5.534   1.501
 6819TIP3    H120414   0.759   5.565   1.571
 6819TIP3    H220415   0.894   5.501   1.547
 6820TIP3   OH220416   3.432   6.574   0.370
 6820TIP3    H120417   3.471   6.528   0.444
 6820TIP3    H220418   3.433   6.666   0.396
 6821TIP3   OH220419   0.873   3.384   1.902
 6821TIP3    H120420   0.843   3.333   1.826
 6821TIP3    H220421   0.917   3.320   1.957
 6822TIP3   OH220422   7.227   2.322   1.116
 6822TIP3    H120423   7.229   2.244   1.172
 6822TIP3    H220424   7.135   2.348   1.115
 6823TIP3   OH220425   5.064   0.701   6.534
 6823TIP3    H120426   5.148   0.733   6.568
 6823TIP3    H220427   5.066   0.723   6.441
 6824TIP3   OH220428   8.138   1.852   3.824
 6824TIP3    H120429   8.110   1.766   3.792
 6824TIP3    H220430   8.067   1.911   3.800
 6825TIP3   OH220431   5.354   7.512   4.590
 6825TIP3    H120432   5.384   7.436   4.639
 6825TIP3    H220433   5.360   7.487   4.498
 6826TIP3   OH220434   3.603   2.210   4.769
 6826TIP3    H120435   3.562   2.124   4.777
 6826TIP3    H220436   3.537   2.264   4.724
 6827TIP3   OH220437   5.388   4.075   3.337
 6827TIP3    H120438   5.482   4.074   3.356
 6827TIP3    H220439   5.369   4.167   3.318
 6828TIP3   OH220440   6.452   7.580   1.364
 6828TIP3    H120441   6.389   7.511   1.341
 6828TIP3    H220442   6.536   7.545   1.335
 6829TIP3   OH220443   3.994   1.658   4.184
 6829TIP3    H120444   3.922   1.716   4.208
 6829TIP3    H220445   3.986   1.649   4.089
 6830TIP3   OH220446   2.079   0.990   5.772
 6830TIP3    H120447   2.086   0.895   5.772
 6830TIP3    H220448   2.166   1.021   5.795
 6831TIP3   OH220449   3.753   2.417   1.954
 6831TIP3    H120450   3.810   2.483   1.993
 6831TIP3    H220451   3.761   2.341   2.012
 6832TIP3   OH220452   7.103   5.798   3.671
 6832TIP3    H120453   7.183   5.781   3.620
 6832TIP3    H220454   7.121   5.880   3.717
 6833TIP3   OH220455   3.092   2.541   1.349
 6833TIP3    H120456   3.108   2.512   1.259
 6833TIP3    H220457   3.120   2.467   1.403
 6834TIP3   OH220458   7.218   4.190   5.310
 6834TIP3    H120459   7.233   4.112   5.258
 6834TIP3    H220460   7.151   4.239   5.261
 6835TIP3   OH220461   1.577   1.612   6.033
 6835TIP3    H120462   1.592   1.594   6.126
 6835TIP3    H220463   1.487   1.644   6.029
 6836TIP3   OH220464   4.654   4.893   1.387
 6836TIP3    H120465   4.620   4.935   1.308
 6836TIP3    H220466   4.735   4.851   1.358
 6837TIP3   OH220467   5.408   3.486   1.298
 6837TIP3    H120468   5.471   3.419   1.270
 6837TIP3    H220469   5.439   3.567   1.256
 6838TIP3   OH220470   1.283   5.478   4.576
 6838TIP3    H120471   1.321   5.496   4.662
 6838TIP3    H220472   1.358   5.465   4.519
 6839TIP3   OH220473   7.120   1.466   2.741
 6839TIP3    H120474   7.073   1.527   2.798
 6839TIP3    H220475   7.050   1.423   2.691
 6840TIP3   OH220476   1.795   2.751   1.144
 6840TIP3    H120477   1.712   2.787   1.113
 6840TIP3    H220478   1.832   2.821   1.199
 6841TIP3   OH220479   8.118   6.086   1.760
 6841TIP3    H120480   8.098   6.098   1.667
 6841TIP3    H220481   8.206   6.121   1.770
 6842TIP3   OH220482   2.286   6.360   2.711
 6842TIP3    H120483   2.276   6.325   2.799
 6842TIP3    H220484   2.291   6.455   2.723
 6843TIP3   OH220485   3.846   5.796   5.928
 6843TIP3    H120486   3.895   5.744   5.864
 6843TIP3    H220487   3.896   5.789   6.009
 6844TIP3   OH220488   8.262   5.357   3.903
 6844TIP3    H120489   8.207   5.366   3.825
 6844TIP3    H220490   8.351   5.346   3.869
 6845TIP3   OH220491   0.721   7.565   1.288
 6845TIP3    H120492   0.697   7.643   1.238
 6845TIP3    H220493   0.809   7.543   1.257
 6846TIP3   OH220494   8.121   6.646   2.238
 6846TIP3    H120495   8.052   6.674   2.179
 6846TIP3    H220496   8.082   6.649   2.325
 6847TIP3   OH220497   7.757   3.282   0.623
 6847TIP3    H120498   7.683   3.223   0.633
 6847TIP3    H220499   7.720   3.362   0.586
 6848TIP3   OH220500   4.294   7.726   4.025
 6848TIP3    H120501   4.310   7.635   4.002
 6848TIP3    H220502   4.344   7.777   3.961
 6849TIP3   OH220503   0.597   3.097   4.644
 6849TIP3    H120504   0.521   3.040   4.638
 6849TIP3    H220505   0.672   3.041   4.625
 6850TIP3   OH220506   0.269   1.830   1.967
 6850TIP3    H120507   0.322   1.813   2.045
 6850TIP3    H220508   0.332   1.852   1.899
 6851TIP3   OH220509   4.878   3.045   5.648
 6851TIP3    H120510   4.817   3.084   5.711
 6851TIP3    H220511   4.844   3.071   5.563
 6852TIP3   OH220512   6.688   5.270   2.016
 6852TIP3    H120513   6.722   5.193   1.971
 6852TIP3    H220514   6.722   5.263   2.105
 6853TIP3   OH220515   3.844   2.997   4.670
 6853TIP3    H120516   3.860   3.004   4.576
 6853TIP3    H220517   3.751   2.976   4.678
 6854TIP3   OH220518   6.601   1.060   1.968
 6854TIP3    H120519   6.648   0.986   2.008
 6854TIP3    H220520   6.632   1.137   2.016
 6855TIP3   OH220521   4.390   1.541   4.772
 6855TIP3    H120522   4.370   1.462   4.822
 6855TIP3    H220523   4.485   1.541   4.764
 6856TIP3   OH220524   7.298   1.521   1.921
 6856TIP3    H120525   7.304   1.592   1.857
 6856TIP3    H220526   7.273   1.445   1.868
 6857TIP3   OH220527   8.054   0.552   5.701
 6857TIP3    H120528   8.020   0.483   5.758
 6857TIP3    H220529   8.098   0.613   5.761
 6858TIP3   OH220530   7.962   2.827   2.217
 6858TIP3    H120531   8.017   2.875   2.280
 6858TIP3    H220532   7.889   2.795   2.270
 6859TIP3   OH220533   6.267   6.262   5.805
 6859TIP3    H120534   6.339   6.200   5.811
 6859TIP3    H220535   6.199   6.216   5.757
 6860TIP3   OH220536   4.280   0.707   0.233
 6860TIP3    H120537   4.227   0.778   0.197
 6860TIP3    H220538   4.258   0.630   0.180
 6861TIP3   OH220539   1.619   7.214   3.733
 6861TIP3    H120540   1.566   7.275   3.784
 6861TIP3    H220541   1.608   7.130   3.778
 6862TIP3   OH220542   3.363   7.610   2.005
 6862TIP3    H120543   3.446   7.564   2.004
 6862TIP3    H220544   3.344   7.630   1.914
 6863TIP3   OH220545  -0.027   4.198   2.612
 6863TIP3    H120546   0.049   4.144   2.630
 6863TIP3    H220547  -0.002   4.286   2.640
 6864TIP3   OH220548   7.062   3.391   6.686
 6864TIP3    H120549   6.984   3.427   6.643
 6864TIP3    H220550   7.058   3.297   6.667
 6865TIP3   OH220551   3.050   4.865   6.536
 6865TIP3    H120552   3.012   4.868   6.448
 6865TIP3    H220553   2.988   4.914   6.590
 6866TIP3   OH220554   1.086   6.501   0.507
 6866TIP3    H120555   1.142   6.434   0.468
 6866TIP3    H220556   1.002   6.491   0.462
 6867TIP3   OH220557   5.697   1.220   0.834
 6867TIP3    H120558   5.618   1.170   0.858
 6867TIP3    H220559   5.742   1.163   0.771
 6868TIP3   OH220560   6.960   4.240   1.820
 6868TIP3    H120561   6.902   4.275   1.752
 6868TIP3    H220562   7.048   4.257   1.787
 6869TIP3   OH220563   3.863   0.696   3.031
 6869TIP3    H120564   3.937   0.676   2.973
 6869TIP3    H220565   3.801   0.742   2.974
 6870TIP3   OH220566   6.678   6.158   0.711
 6870TIP3    H120567   6.635   6.101   0.774
 6870TIP3    H220568   6.607   6.199   0.663
 6871TIP3   OH220569   8.200   6.070   6.701
 6871TIP3    H120570   8.249   6.143   6.739
 6871TIP3    H220571   8.267   6.017   6.658
 6872TIP3   OH220572   4.310   5.119   6.630
 6872TIP3    H120573   4.243   5.188   6.631
 6872TIP3    H220574   4.372   5.147   6.563
 6873TIP3   OH220575   2.181   6.472   4.195
 6873TIP3    H120576   2.219   6.466   4.107
 6873TIP3    H220577   2.147   6.385   4.212
 6874TIP3   OH220578   5.389   4.704   5.487
 6874TIP3    H120579   5.391   4.677   5.579
 6874TIP3    H220580   5.313   4.762   5.480
 6875TIP3   OH220581   2.745   1.168   5.945
 6875TIP3    H120582   2.690   1.121   5.882
 6875TIP3    H220583   2.708   1.256   5.949
 6876TIP3   OH220584   1.842   0.141   0.647
 6876TIP3    H120585   1.922   0.183   0.615
 6876TIP3    H220586   1.820   0.076   0.580
 6877TIP3   OH220587   0.674   5.192   3.521
 6877TIP3    H120588   0.712   5.215   3.606
 6877TIP3    H220589   0.746   5.149   3.474
 6878TIP3   OH220590   7.728   1.945   0.520
 6878TIP3    H120591   7.812   1.900   0.526
 6878TIP3    H220592   7.734   2.015   0.585
 6879TIP3   OH220593   1.635   1.163   2.240
 6879TIP3    H120594   1.719   1.176   2.283
 6879TIP3    H220595   1.622   1.068   2.240
 6880TIP3   OH220596   6.862   3.486   6.236
 6880TIP3    H120597   6.907   3.444   6.163
 6880TIP3    H220598   6.897   3.575   6.239
 6881TIP3   OH220599   1.712   2.801   3.039
 6881TIP3    H120600   1.636   2.828   2.987
 6881TIP3    H220601   1.678   2.734   3.098
 6882TIP3   OH220602   3.156   5.503   0.371
 6882TIP3    H120603   3.063   5.508   0.349
 6882TIP3    H220604   3.159   5.516   0.465
 6883TIP3   OH220605   1.825   2.609   0.560
 6883TIP3    H120606   1.869   2.562   0.631
 6883TIP3    H220607   1.741   2.634   0.597
 6884TIP3   OH220608   2.719   3.821   3.713
 6884TIP3    H120609   2.685   3.782   3.632
 6884TIP3    H220610   2.810   3.791   3.717
 6885TIP3   OH220611   4.420   7.759   1.748
 6885TIP3    H120612   4.481   7.825   1.714
 6885TIP3    H220613   4.335   7.803   1.748
 6886TIP3   OH220614   2.772   3.395   4.480
 6886TIP3    H120615   2.686   3.369   4.448
 6886TIP3    H220616   2.771   3.375   4.573
 6887TIP3   OH220617   4.298   6.273   4.212
 6887TIP3    H120618   4.224   6.321   4.176
 6887TIP3    H220619   4.375   6.321   4.180
 6888TIP3   OH220620   3.962   4.498   4.058
 6888TIP3    H120621   3.918   4.450   3.987
 6888TIP3    H220622   3.905   4.485   4.134
 6889TIP3   OH220623   6.854   3.674   3.465
 6889TIP3    H120624   6.894   3.702   3.547
 6889TIP3    H220625   6.907   3.714   3.397
 6890TIP3   OH220626   5.640   2.798   3.632
 6890TIP3    H120627   5.566   2.738   3.622
 6890TIP3    H220628   5.714   2.740   3.654
 6891TIP3   OH220629   0.150   5.900   4.023
 6891TIP3    H120630   0.130   5.813   4.057
 6891TIP3    H220631   0.098   5.908   3.943
 6892TIP3   OH220632   7.181   0.027   0.507
 6892TIP3    H120633   7.151   0.096   0.567
 6892TIP3    H220634   7.276   0.037   0.506
 6893TIP3   OH220635   2.365   7.452   3.519
 6893TIP3    H120636   2.374   7.417   3.608
 6893TIP3    H220637   2.297   7.396   3.479
 6894TIP3   OH220638   1.276   6.188   3.817
 6894TIP3    H120639   1.221   6.133   3.873
 6894TIP3    H220640   1.366   6.168   3.844
 6895TIP3   OH220641   0.496   3.913   2.169
 6895TIP3    H120642   0.468   3.905   2.078
 6895TIP3    H220643   0.562   3.982   2.168
 6896TIP3   OH220644   1.885   6.337   3.675
 6896TIP3    H120645   1.900   6.292   3.592
 6896TIP3    H220646   1.812   6.397   3.656
 6897TIP3   OH220647   6.211   2.537   5.435
 6897TIP3    H120648   6.137   2.479   5.452
 6897TIP3    H220649   6.279   2.508   5.495
 6898TIP3   OH220650   2.167   1.359   1.547
 6898TIP3    H120651   2.074   1.335   1.544
 6898TIP3    H220652   2.168   1.445   1.589
 6899TIP3   OH220653   1.157   4.732   0.457
 6899TIP3    H120654   1.200   4.797   0.513
 6899TIP3    H220655   1.183   4.755   0.368
 6900TIP3   OH220656   0.074   2.729   5.995
 6900TIP3    H120657  -0.016   2.700   6.013
 6900TIP3    H220658   0.078   2.817   6.032
 6901TIP3   OH220659   0.105   4.789   6.291
 6901TIP3    H120660   0.127   4.742   6.211
 6901TIP3    H220661   0.012   4.773   6.303
 6902TIP3   OH220662   4.050   1.542   4.580
 6902TIP3    H120663   4.003   1.624   4.596
 6902TIP3    H220664   3.996   1.496   4.516
 6903TIP3   OH220665   1.922   0.248   2.782
 6903TIP3    H120666   1.843   0.268   2.731
 6903TIP3    H220667   1.916   0.154   2.799
 6904TIP3   OH220668   4.424   5.006   6.150
 6904TIP3    H120669   4.480   5.019   6.073
 6904TIP3    H220670   4.427   4.911   6.165
 6905TIP3   OH220671   7.820   6.729   5.935
 6905TIP3    H120672   7.883   6.770   5.994
 6905TIP3    H220673   7.869   6.712   5.854
 6906TIP3   OH220674   3.596   1.125   5.862
 6906TIP3    H120675   3.528   1.191   5.853
 6906TIP3    H220676   3.674   1.174   5.891
 6907TIP3   OH220677   0.499   1.800   1.360
 6907TIP3    H120678   0.433   1.733   1.342
 6907TIP3    H220679   0.580   1.764   1.323
 6908TIP3   OH220680   6.698   7.406   3.544
 6908TIP3    H120681   6.684   7.324   3.498
 6908TIP3    H220682   6.793   7.421   3.538
 6909TIP3   OH220683   6.949   3.343   0.541
 6909TIP3    H120684   6.886   3.343   0.469
 6909TIP3    H220685   6.980   3.433   0.547
 6910TIP3   OH220686   3.581   7.559   4.664
 6910TIP3    H120687   3.662   7.608   4.649
 6910TIP3    H220688   3.512   7.621   4.639
 6911TIP3   OH220689   0.799   4.339   1.448
 6911TIP3    H120690   0.790   4.246   1.467
 6911TIP3    H220691   0.731   4.381   1.500
 6912TIP3   OH220692   2.293   6.358   1.130
 6912TIP3    H120693   2.388   6.362   1.145
 6912TIP3    H220694   2.272   6.264   1.137
 6913TIP3   OH220695   2.274   4.929   6.245
 6913TIP3    H120696   2.321   4.854   6.281
 6913TIP3    H220697   2.190   4.929   6.291
 6914TIP3   OH220698   1.940   4.986   1.555
 6914TIP3    H120699   1.967   4.995   1.646
 6914TIP3    H220700   1.887   4.907   1.553
 6915TIP3   OH220701   4.508   7.775   1.246
 6915TIP3    H120702   4.538   7.835   1.178
 6915TIP3    H220703   4.588   7.743   1.287
 6916TIP3   OH220704   0.041   4.768   1.596
 6916TIP3    H120705   0.095   4.740   1.670
 6916TIP3    H220706  -0.049   4.766   1.630
 6917TIP3   OH220707   7.603   6.452   1.964
 6917TIP3    H120708   7.556   6.418   1.887
 6917TIP3    H220709   7.685   6.405   1.965
 6918TIP3   OH220710   6.380   5.154   6.337
 6918TIP3    H120711   6.449   5.098   6.374
 6918TIP3    H220712   6.320   5.168   6.410
 6919TIP3   OH220713   0.911   2.769   5.830
 6919TIP3    H120714   0.937   2.827   5.901
 6919TIP3    H220715   0.889   2.827   5.757
 6920TIP3   OH220716   0.971   7.302   3.621
 6920TIP3    H120717   0.900   7.259   3.575
 6920TIP3    H220718   0.937   7.389   3.642
 6921TIP3   OH220719   0.895   7.212   5.467
 6921TIP3    H120720   0.889   7.257   5.382
 6921TIP3    H220721   0.837   7.261   5.524
 6922TIP3   OH220722   3.661   6.168   5.516
 6922TIP3    H120723   3.740   6.174   5.462
 6922TIP3    H220724   3.673   6.235   5.584
 6923TIP3   OH220725   6.427   4.524   3.758
 6923TIP3    H120726   6.504   4.518   3.700
 6923TIP3    H220727   6.449   4.468   3.832
 6924TIP3   OH220728   5.392   5.217   6.389
 6924TIP3    H120729   5.320   5.192   6.330
 6924TIP3    H220730   5.445   5.138   6.396
 6925TIP3   OH220731   0.423   6.358   3.647
 6925TIP3    H120732   0.393   6.408   3.571
 6925TIP3    H220733   0.468   6.421   3.702
 6926TIP3   OH220734   3.532   3.894   6.107
 6926TIP3    H120735   3.550   3.969   6.164
 6926TIP3    H220736   3.461   3.847   6.151
 6927TIP3   OH220737   6.549   0.151   0.331
 6927TIP3    H120738   6.538   0.145   0.426
 6927TIP3    H220739   6.542   0.244   0.312
 6928TIP3   OH220740   7.926   7.280   6.316
 6928TIP3    H120741   7.872   7.348   6.276
 6928TIP3    H220742   7.899   7.278   6.407
 6929TIP3   OH220743   7.039   4.872   1.430
 6929TIP3    H120744   6.946   4.877   1.452
 6929TIP3    H220745   7.040   4.867   1.335
 6930TIP3   OH220746   6.821   6.169   6.599
 6930TIP3    H120747   6.903   6.126   6.575
 6930TIP3    H220748   6.794   6.215   6.520
 6931TIP3   OH220749   0.190   7.367   2.732
 6931TIP3    H120750   0.138   7.400   2.659
 6931TIP3    H220751   0.238   7.443   2.764
 6932TIP3   OH220752   6.343   1.056   6.335
 6932TIP3    H120753   6.375   1.072   6.246
 6932TIP3    H220754   6.420   1.024   6.382
 6933TIP3   OH220755   7.243   0.372   3.481
 6933TIP3    H120756   7.197   0.450   3.512
 6933TIP3    H220757   7.237   0.377   3.386
 6934TIP3   OH220758   3.278   3.695   0.687
 6934TIP3    H120759   3.287   3.744   0.769
 6934TIP3    H220760   3.221   3.622   0.709
 6935TIP3   OH220761   5.680   6.796   3.330
 6935TIP3    H120762   5.645   6.737   3.397
 6935TIP3    H220763   5.658   6.754   3.247
 6936TIP3   OH220764   4.706   6.113   3.042
 6936TIP3    H120765   4.792   6.153   3.050
 6936TIP3    H220766   4.677   6.100   3.132
 6937TIP3   OH220767   3.015   6.667   6.027
 6937TIP3    H120768   3.009   6.721   6.105
 6937TIP3    H220769   3.053   6.724   5.960
 6938TIP3   OH220770   5.412   0.232   1.694
 6938TIP3    H120771   5.355   0.155   1.693
 6938TIP3    H220772   5.478   0.212   1.760
 6939TIP3   OH220773   7.044   3.313   1.502
 6939TIP3    H120774   7.074   3.399   1.476
 6939TIP3    H220775   7.093   3.293   1.582
 6940TIP3   OH220776   1.027   6.804   1.521
 6940TIP3    H120777   0.932   6.793   1.522
 6940TIP3    H220778   1.056   6.753   1.446
 6941TIP3   OH220779   6.092   2.319   3.717
 6941TIP3    H120780   6.118   2.358   3.634
 6941TIP3    H220781   6.049   2.390   3.765
 6942TIP3   OH220782   3.406   3.441   2.711
 6942TIP3    H120783   3.458   3.512   2.672
 6942TIP3    H220784   3.336   3.486   2.757
 6943TIP3   OH220785   5.570   2.674   0.511
 6943TIP3    H120786   5.560   2.654   0.419
 6943TIP3    H220787   5.486   2.650   0.550
 6944TIP3   OH220788   7.621   0.008   0.943
 6944TIP3    H120789   7.680   0.012   1.018
 6944TIP3    H220790   7.608   0.100   0.918
 6945TIP3   OH220791   5.032   1.652   0.921
 6945TIP3    H120792   5.055   1.740   0.951
 6945TIP3    H220793   5.110   1.599   0.938
 6946TIP3   OH220794   0.308   3.687   0.588
 6946TIP3    H120795   0.382   3.675   0.646
 6946TIP3    H220796   0.317   3.777   0.556
 6947TIP3   OH220797   7.916   6.788   1.974
 6947TIP3    H120798   7.944   6.697   1.986
 6947TIP3    H220799   7.993   6.832   1.937
 6948TIP3   OH220800   3.549   3.594   6.330
 6948TIP3    H120801   3.562   3.522   6.269
 6948TIP3    H220802   3.626   3.594   6.386
 6949TIP3   OH220803   7.534   7.346   5.811
 6949TIP3    H120804   7.599   7.411   5.838
 6949TIP3    H220805   7.536   7.348   5.716
 6950TIP3   OH220806   2.397   0.948   6.606
 6950TIP3    H120807   2.395   0.857   6.637
 6950TIP3    H220808   2.478   0.984   6.643
 6951TIP3   OH220809   7.815   2.537   6.389
 6951TIP3    H120810   7.823   2.624   6.349
 6951TIP3    H220811   7.820   2.553   6.483
 6952TIP3   OH220812   6.562   5.034   6.486
 6952TIP3    H120813   6.625   4.974   6.447
 6952TIP3    H220814   6.607   5.071   6.562
 6953TIP3   OH220815   3.817   7.281   1.688
 6953TIP3    H120816   3.815   7.262   1.781
 6953TIP3    H220817   3.910   7.285   1.666
 6954TIP3   OH220818   5.703   3.435   2.743
 6954TIP3    H120819   5.642   3.394   2.682
 6954TIP3    H220820   5.663   3.519   2.765
 6955TIP3   OH220821   5.403   4.879   0.346
 6955TIP3    H120822   5.418   4.943   0.276
 6955TIP3    H220823   5.345   4.813   0.307
 6956TIP3   OH220824   4.094   2.144   5.808
 6956TIP3    H120825   4.104   2.096   5.725
 6956TIP3    H220826   4.003   2.172   5.808
 6957TIP3   OH220827   3.520   0.950   2.781
 6957TIP3    H120828   3.579   1.010   2.825
 6957TIP3    H220829   3.502   0.991   2.697
 6958TIP3   OH220830   4.667   6.427   1.271
 6958TIP3    H120831   4.723   6.455   1.198
 6958TIP3    H220832   4.583   6.471   1.255
 6959TIP3   OH220833   4.718   6.358   2.734
 6959TIP3    H120834   4.672   6.274   2.742
 6959TIP3    H220835   4.756   6.356   2.646
 6960TIP3   OH220836   0.147   1.530   2.581
 6960TIP3    H120837   0.206   1.590   2.536
 6960TIP3    H220838   0.085   1.587   2.626
 6961TIP3   OH220839   7.321   3.111   0.221
 6961TIP3    H120840   7.319   3.134   0.128
 6961TIP3    H220841   7.242   3.150   0.257
 6962TIP3   OH220842   5.065   1.981   5.037
 6962TIP3    H120843   5.156   1.990   5.067
 6962TIP3    H220844   5.069   1.999   4.943
 6963TIP3   OH220845   7.731   4.190   4.780
 6963TIP3    H120846   7.770   4.121   4.728
 6963TIP3    H220847   7.790   4.202   4.854
 6964TIP3   OH220848   6.353   3.390   5.232
 6964TIP3    H120849   6.308   3.474   5.225
 6964TIP3    H220850   6.297   3.338   5.289
 6965TIP3   OH220851   6.426   4.340   1.330
 6965TIP3    H120852   6.417   4.426   1.372
 6965TIP3    H220853   6.509   4.345   1.283
 6966TIP3   OH220854   7.829   7.492   6.151
 6966TIP3    H120855   7.756   7.446   6.193
 6966TIP3    H220856   7.814   7.585   6.171
 6967TIP3   OH220857   7.412   3.738   0.737
 6967TIP3    H120858   7.407   3.758   0.830
 6967TIP3    H220859   7.497   3.695   0.726
 6968TIP3   OH220860   3.422   6.615   2.275
 6968TIP3    H120861   3.404   6.704   2.305
 6968TIP3    H220862   3.358   6.598   2.206
 6969TIP3   OH220863   0.578   4.871   5.234
 6969TIP3    H120864   0.651   4.816   5.204
 6969TIP3    H220865   0.518   4.810   5.275
 6970TIP3   OH220866   2.053   5.928   5.360
 6970TIP3    H120867   1.965   5.932   5.398
 6970TIP3    H220868   2.053   5.848   5.307
 6971TIP3   OH220869   6.796   4.274   1.602
 6971TIP3    H120870   6.867   4.252   1.542
 6971TIP3    H220871   6.720   4.226   1.569
 6972TIP3   OH220872   0.297   4.524   1.077
 6972TIP3    H120873   0.389   4.539   1.100
 6972TIP3    H220874   0.249   4.543   1.158
 6973TIP3   OH220875   1.719   0.358   5.068
 6973TIP3    H120876   1.663   0.304   5.012
 6973TIP3    H220877   1.797   0.374   5.016
 6974TIP3   OH220878   7.508   3.854   3.382
 6974TIP3    H120879   7.426   3.812   3.354
 6974TIP3    H220880   7.550   3.788   3.437
 6975TIP3   OH220881   6.114   5.720   2.323
 6975TIP3    H120882   6.184   5.739   2.260
 6975TIP3    H220883   6.081   5.807   2.348
 6976TIP3   OH220884   8.208   7.503   1.847
 6976TIP3    H120885   8.223   7.425   1.794
 6976TIP3    H220886   8.113   7.505   1.860
 6977TIP3   OH220887   3.515   6.419   1.027
 6977TIP3    H120888   3.518   6.338   1.078
 6977TIP3    H220889   3.523   6.391   0.936
 6978TIP3   OH220890   3.986   0.431   1.292
 6978TIP3    H120891   3.900   0.454   1.258
 6978TIP3    H220892   4.038   0.511   1.283
 6979TIP3   OH220893   3.451   4.748   1.920
 6979TIP3    H120894   3.527   4.698   1.888
 6979TIP3    H220895   3.467   4.837   1.891
 6980TIP3   OH220896   0.644   7.611   3.020
 6980TIP3    H120897   0.731   7.576   3.000
 6980TIP3    H220898   0.583   7.550   2.978
 6981TIP3   OH220899   6.965   7.538   1.582
 6981TIP3    H120900   6.969   7.488   1.500
 6981TIP3    H220901   7.051   7.579   1.590
 6982TIP3   OH220902   3.464   3.215   4.328
 6982TIP3    H120903   3.452   3.201   4.234
 6982TIP3    H220904   3.520   3.142   4.356
 6983TIP3   OH220905   0.304   5.336   0.783
 6983TIP3    H120906   0.278   5.315   0.873
 6983TIP3    H220907   0.222   5.360   0.740
 6984TIP3   OH220908   0.885   7.406   5.234
 6984TIP3    H120909   0.866   7.497   5.258
 6984TIP3    H220910   0.967   7.411   5.184
 6985TIP3   OH220911   5.382   7.423   5.728
 6985TIP3    H120912   5.376   7.449   5.820
 6985TIP3    H220913   5.440   7.489   5.689
 6986TIP3   OH220914   4.270   4.886   1.205
 6986TIP3    H120915   4.335   4.817   1.191
 6986TIP3    H220916   4.321   4.964   1.224
 6987TIP3   OH220917   3.265   0.591   2.280
 6987TIP3    H120918   3.235   0.644   2.354
 6987TIP3    H220919   3.188   0.543   2.252
 6988TIP3   OH220920   2.406   4.730   4.901
 6988TIP3    H120921   2.411   4.727   4.996
 6988TIP3    H220922   2.321   4.691   4.880
 6989TIP3   OH220923   8.122   2.867   4.529
 6989TIP3    H120924   8.211   2.898   4.539
 6989TIP3    H220925   8.128   2.772   4.545
 6990TIP3   OH220926   5.369   7.322   3.378
 6990TIP3    H120927   5.398   7.344   3.289
 6990TIP3    H220928   5.280   7.289   3.366
 6991TIP3   OH220929   5.642   4.403   6.170
 6991TIP3    H120930   5.732   4.427   6.193
 6991TIP3    H220931   5.622   4.328   6.226
 6992TIP3   OH220932   7.866   1.286   5.696
 6992TIP3    H120933   7.904   1.223   5.635
 6992TIP3    H220934   7.772   1.270   5.691
 6993TIP3   OH220935   5.444   6.551   0.987
 6993TIP3    H120936   5.355   6.517   0.999
 6993TIP3    H220937   5.446   6.632   1.038
 6994TIP3   OH220938   4.438   1.191   0.994
 6994TIP3    H120939   4.433   1.277   0.951
 6994TIP3    H220940   4.527   1.188   1.030
 6995TIP3   OH220941   6.830   2.173   0.260
 6995TIP3    H120942   6.800   2.260   0.287
 6995TIP3    H220943   6.925   2.181   0.255
 6996TIP3   OH220944   2.989   0.850   6.229
 6996TIP3    H120945   2.914   0.890   6.183
 6996TIP3    H220946   2.963   0.850   6.321
 6997TIP3   OH220947   7.998   2.002   1.659
 6997TIP3    H120948   8.003   2.021   1.753
 6997TIP3    H220949   7.947   1.921   1.655
 6998TIP3   OH220950   1.073   3.648   6.090
 6998TIP3    H120951   1.036   3.731   6.118
 6998TIP3    H220952   1.064   3.648   5.995
 6999TIP3   OH220953   7.532   2.947   0.162
 6999TIP3    H120954   7.589   3.021   0.184
 6999TIP3    H220955   7.444   2.978   0.184
 7000TIP3   OH220956   6.410   0.143   0.580
 7000TIP3    H120957   6.318   0.152   0.558
 7000TIP3    H220958   6.438   0.232   0.604
 7001TIP3   OH220959   8.036   5.678   5.730
 7001TIP3    H120960   8.080   5.658   5.813
 7001TIP3    H220961   7.997   5.765   5.744
 7002TIP3   OH220962   7.753   6.486   6.109
 7002TIP3    H120963   7.794   6.553   6.054
 7002TIP3    H220964   7.818   6.415   6.113
 7003TIP3   OH220965   8.213   6.136   4.124
 7003TIP3    H120966   8.277   6.157   4.057
 7003TIP3    H220967   8.215   6.211   4.184
 7004TIP3   OH220968   0.611   6.657   2.749
 7004TIP3    H120969   0.589   6.729   2.689
 7004TIP3    H220970   0.706   6.660   2.756
 7005TIP3   OH220971   4.066   7.162   2.551
 7005TIP3    H120972   4.087   7.124   2.465
 7005TIP3    H220973   4.099   7.098   2.614
 7006TIP3   OH220974   3.856   1.047   5.965
 7006TIP3    H120975   3.951   1.060   5.966
 7006TIP3    H220976   3.843   0.968   5.915
 7007TIP3   OH220977   4.391   1.885   3.919
 7007TIP3    H120978   4.332   1.865   3.847
 7007TIP3    H220979   4.434   1.966   3.893
 7008TIP3   OH220980   1.164   3.530  -0.016
 7008TIP3    H120981   1.240   3.587  -0.004
 7008TIP3    H220982   1.172   3.464   0.052
 7009TIP3   OH220983   3.687   2.039   5.890
 7009TIP3    H120984   3.625   1.966   5.897
 7009TIP3    H220985   3.734   2.038   5.973
 7010TIP3   OH220986   7.362   5.399   3.450
 7010TIP3    H120987   7.425   5.382   3.380
 7010TIP3    H220988   7.387   5.485   3.484
 7011TIP3   OH220989   6.485   7.822   2.770
 7011TIP3    H120990   6.493   7.746   2.827
 7011TIP3    H220991   6.407   7.868   2.802
 7012TIP3   OH220992   0.096   0.233   3.415
 7012TIP3    H120993   0.101   0.147   3.456
 7012TIP3    H220994   0.156   0.288   3.465
 7013TIP3   OH220995   4.460   6.073   2.237
 7013TIP3    H120996   4.411   6.088   2.155
 7013TIP3    H220997   4.404   6.014   2.287
 7014TIP3   OH220998   2.125   0.048   4.128
 7014TIP3    H120999   2.050   0.029   4.072
 7014TIP3    H221000   2.179   0.107   4.076
 7015TIP3   OH221001   1.856   1.450   2.425
 7015TIP3    H121002   1.831   1.479   2.512
 7015TIP3    H221003   1.951   1.441   2.428
 7016TIP3   OH221004   3.948   7.652   1.674
 7016TIP3    H121005   3.865   7.606   1.689
 7016TIP3    H221006   4.004   7.625   1.748
 7017TIP3   OH221007   4.282   5.284   4.253
 7017TIP3    H121008   4.266   5.241   4.336
 7017TIP3    H221009   4.267   5.216   4.187
 7018TIP3   OH221010   5.790   5.943   2.816
 7018TIP3    H121011   5.770   5.976   2.904
 7018TIP3    H221012   5.872   5.988   2.792
 7019TIP3   OH221013   1.162   5.146   3.855
 7019TIP3    H121014   1.094   5.192   3.904
 7019TIP3    H221015   1.127   5.058   3.841
 7020TIP3   OH221016   1.577   3.021   1.999
 7020TIP3    H121017   1.642   3.065   2.055
 7020TIP3    H221018   1.627   2.991   1.924
 7021TIP3   OH221019   4.895   3.828   0.241
 7021TIP3    H121020   4.841   3.753   0.269
 7021TIP3    H221021   4.981   3.790   0.226
 7022TIP3   OH221022   4.571   7.403   0.032
 7022TIP3    H121023   4.580   7.308   0.025
 7022TIP3    H221024   4.659   7.437   0.016
 7023TIP3   OH221025   5.173   3.913   0.519
 7023TIP3    H121026   5.091   3.961   0.532
 7023TIP3    H221027   5.237   3.960   0.571
 7024TIP3   OH221028   6.194   7.141   6.616
 7024TIP3    H121029   6.208   7.070   6.554
 7024TIP3    H221030   6.102   7.163   6.608
 7025TIP3   OH221031   7.383   1.252   2.490
 7025TIP3    H121032   7.452   1.194   2.460
 7025TIP3    H221033   7.305   1.197   2.494
 7026TIP3   OH221034   6.018   2.883   0.210
 7026TIP3    H121035   6.085   2.946   0.235
 7026TIP3    H221036   6.014   2.889   0.114
 7027TIP3   OH221037   0.596   2.724   6.652
 7027TIP3    H121038   0.616   2.818   6.659
 7027TIP3    H221039   0.640   2.685   6.728
 7028TIP3   OH221040   2.105   5.856   2.060
 7028TIP3    H121041   2.083   5.946   2.039
 7028TIP3    H221042   2.171   5.862   2.130
 7029TIP3   OH221043   0.826   3.582   0.384
 7029TIP3    H121044   0.842   3.675   0.399
 7029TIP3    H221045   0.886   3.537   0.444
 7030TIP3   OH221046   0.357   0.699   4.728
 7030TIP3    H121047   0.264   0.692   4.749
 7030TIP3    H221048   0.361   0.762   4.656
 7031TIP3   OH221049   7.614   2.781   6.381
 7031TIP3    H121050   7.562   2.762   6.459
 7031TIP3    H221051   7.695   2.820   6.415
 7032TIP3   OH221052   2.393   5.627   3.674
 7032TIP3    H121053   2.442   5.546   3.682
 7032TIP3    H221054   2.319   5.617   3.735
 7033TIP3   OH221055   4.580   2.587   3.277
 7033TIP3    H121056   4.543   2.585   3.189
 7033TIP3    H221057   4.514   2.631   3.330
 7034TIP3   OH221058   7.691   5.268   2.920
 7034TIP3    H121059   7.780   5.251   2.889
 7034TIP3    H221060   7.701   5.283   3.014
 7035TIP3   OH221061   5.079   2.184   6.675
 7035TIP3    H121062   4.989   2.154   6.691
 7035TIP3    H221063   5.072   2.279   6.677
 7036TIP3   OH221064   2.093   3.840   1.527
 7036TIP3    H121065   2.097   3.872   1.437
 7036TIP3    H221066   2.080   3.745   1.517
 7037TIP3   OH221067   7.036   1.112   5.313
 7037TIP3    H121068   7.006   1.043   5.254
 7037TIP3    H221069   6.963   1.174   5.316
 7038TIP3   OH221070   6.426   1.005   1.255
 7038TIP3    H121071   6.510   0.972   1.287
 7038TIP3    H221072   6.387   1.047   1.332
 7039TIP3   OH221073   7.832   4.117   4.516
 7039TIP3    H121074   7.755   4.172   4.506
 7039TIP3    H221075   7.891   4.144   4.446
 7040TIP3   OH221076   8.038   0.957   1.967
 7040TIP3    H121077   8.102   0.909   1.914
 7040TIP3    H221078   8.012   1.031   1.912
 7041TIP3   OH221079   7.815   7.335   4.314
 7041TIP3    H121080   7.746   7.397   4.337
 7041TIP3    H221081   7.778   7.283   4.243
 7042TIP3   OH221082   7.605   2.370   3.027
 7042TIP3    H121083   7.687   2.327   3.050
 7042TIP3    H221084   7.624   2.418   2.946
 7043TIP3   OH221085   7.640   0.840   0.856
 7043TIP3    H121086   7.722   0.858   0.809
 7043TIP3    H221087   7.645   0.895   0.934
 7044TIP3   OH221088   6.398   0.842   2.968
 7044TIP3    H121089   6.308   0.837   2.999
 7044TIP3    H221090   6.398   0.792   2.887
 7045TIP3   OH221091   5.576   1.775   4.688
 7045TIP3    H121092   5.499   1.832   4.692
 7045TIP3    H221093   5.561   1.711   4.758
 7046TIP3   OH221094   5.628   0.631   3.166
 7046TIP3    H121095   5.613   0.598   3.255
 7046TIP3    H221096   5.659   0.555   3.117
 7047TIP3   OH221097   2.845   5.604   2.386
 7047TIP3    H121098   2.751   5.589   2.391
 7047TIP3    H221099   2.856   5.661   2.309
 7048TIP3   OH221100   1.007   0.527   5.465
 7048TIP3    H121101   0.946   0.459   5.439
 7048TIP3    H221102   1.093   0.484   5.465
 7049TIP3   OH221103   7.608   6.224   5.742
 7049TIP3    H121104   7.584   6.303   5.792
 7049TIP3    H221105   7.609   6.252   5.651
 7050TIP3   OH221106   5.737   1.838   1.433
 7050TIP3    H121107   5.716   1.870   1.346
 7050TIP3    H221108   5.832   1.852   1.441
 7051TIP3   OH221109   6.593   7.525   2.857
 7051TIP3    H121110   6.566   7.504   2.767
 7051TIP3    H221111   6.542   7.465   2.911
 7052TIP3   OH221112   4.490   2.464   4.763
 7052TIP3    H121113   4.566   2.420   4.800
 7052TIP3    H221114   4.476   2.539   4.820
 7053TIP3   OH221115   2.099   0.391   0.919
 7053TIP3    H121116   2.134   0.404   1.007
 7053TIP3    H221117   2.136   0.463   0.868
 7054TIP3   OH221118   4.658   6.015   0.247
 7054TIP3    H121119   4.686   6.086   0.305
 7054TIP3    H221120   4.695   6.037   0.162
 7055TIP3   OH221121   1.438   4.373   0.910
 7055TIP3    H121122   1.478   4.438   0.968
 7055TIP3    H221123   1.402   4.307   0.969
 7056TIP3   OH221124   4.759   2.120   3.738
 7056TIP3    H121125   4.786   2.074   3.658
 7056TIP3    H221126   4.776   2.058   3.808
 7057TIP3   OH221127   6.259   6.385   6.297
 7057TIP3    H121128   6.245   6.373   6.391
 7057TIP3    H221129   6.315   6.462   6.290
 7058TIP3   OH221130   7.489   1.733   6.111
 7058TIP3    H121131   7.455   1.678   6.182
 7058TIP3    H221132   7.573   1.766   6.144
 7059TIP3   OH221133   7.092   3.249   5.596
 7059TIP3    H121134   7.151   3.272   5.668
 7059TIP3    H221135   7.007   3.236   5.637
 7060TIP3   OH221136   4.039   6.023   1.574
 7060TIP3    H121137   4.008   6.027   1.665
 7060TIP3    H221138   4.041   5.929   1.554
 7061TIP3   OH221139   7.344   0.488   3.895
 7061TIP3    H121140   7.402   0.556   3.929
 7061TIP3    H221141   7.397   0.442   3.830
 7062TIP3   OH221142   2.492   7.560   3.948
 7062TIP3    H121143   2.578   7.519   3.955
 7062TIP3    H221144   2.510   7.649   3.919
 7063TIP3   OH221145   0.808   6.456   5.837
 7063TIP3    H121146   0.716   6.433   5.840
 7063TIP3    H221147   0.847   6.393   5.777
 7064TIP3   OH221148   6.591   3.347   2.973
 7064TIP3    H121149   6.608   3.415   2.907
 7064TIP3    H221150   6.543   3.393   3.042
 7065TIP3   OH221151   2.263   7.626   0.056
 7065TIP3    H121152   2.178   7.585   0.039
 7065TIP3    H221153   2.249   7.719   0.040
 7066TIP3   OH221154   1.241   2.813   4.993
 7066TIP3    H121155   1.179   2.754   4.952
 7066TIP3    H221156   1.192   2.856   5.063
 7067TIP3   OH221157   2.116   1.144   4.805
 7067TIP3    H121158   2.064   1.222   4.788
 7067TIP3    H221159   2.076   1.104   4.883
 7068TIP3   OH221160   6.312   1.078   3.661
 7068TIP3    H121161   6.336   1.155   3.609
 7068TIP3    H221162   6.359   1.090   3.744
 7069TIP3   OH221163   3.519   5.157   3.311
 7069TIP3    H121164   3.537   5.066   3.333
 7069TIP3    H221165   3.457   5.152   3.238
 7070TIP3   OH221166   7.036   2.269   0.064
 7070TIP3    H121167   7.020   2.304  -0.023
 7070TIP3    H221168   6.993   2.330   0.123
 7071TIP3   OH221169   5.019   0.152   6.323
 7071TIP3    H121170   5.100   0.189   6.288
 7071TIP3    H221171   4.950   0.209   6.288
 7072TIP3   OH221172   3.875   4.524   6.235
 7072TIP3    H121173   3.820   4.447   6.224
 7072TIP3    H221174   3.816   4.592   6.265
 7073TIP3   OH221175   6.749   7.434   4.651
 7073TIP3    H121176   6.789   7.489   4.719
 7073TIP3    H221177   6.661   7.417   4.683
 7074TIP3   OH221178   4.673   7.020   4.474
 7074TIP3    H121179   4.577   7.019   4.479
 7074TIP3    H221180   4.697   6.927   4.468
 7075TIP3   OH221181   6.716   2.139   3.938
 7075TIP3    H121182   6.660   2.062   3.945
 7075TIP3    H221183   6.800   2.104   3.906
 7076TIP3   OH221184   1.074   1.663   6.071
 7076TIP3    H121185   1.155   1.637   6.114
 7076TIP3    H221186   1.007   1.606   6.110
 7077TIP3   OH221187   8.159   0.096   5.308
 7077TIP3    H121188   8.191   0.089   5.218
 7077TIP3    H221189   8.179   0.011   5.347
 7078TIP3   OH221190   6.018   4.237   0.683
 7078TIP3    H121191   5.968   4.288   0.619
 7078TIP3    H221192   5.958   4.224   0.756
 7079TIP3   OH221193   7.635   0.040   4.893
 7079TIP3    H121194   7.585   0.046   4.975
 7079TIP3    H221195   7.579  -0.009   4.834
 7080TIP3   OH221196   1.197   2.387   0.832
 7080TIP3    H121197   1.151   2.418   0.754
 7080TIP3    H221198   1.178   2.454   0.898
 7081TIP3   OH221199   7.126   1.421   0.666
 7081TIP3    H121200   7.113   1.396   0.574
 7081TIP3    H221201   7.202   1.480   0.664
 7082TIP3   OH221202   2.811   7.675   1.647
 7082TIP3    H121203   2.831   7.752   1.700
 7082TIP3    H221204   2.733   7.700   1.596
 7083TIP3   OH221205   8.087   1.835   1.944
 7083TIP3    H121206   8.143   1.863   2.016
 7083TIP3    H221207   8.022   1.905   1.935
 7084TIP3   OH221208   0.778   6.897   3.491
 7084TIP3    H121209   0.756   6.804   3.485
 7084TIP3    H221210   0.695   6.940   3.510
 7085TIP3   OH221211   8.225   3.599   2.279
 7085TIP3    H121212   8.152   3.539   2.287
 7085TIP3    H221213   8.185   3.682   2.254
 7086TIP3   OH221214   3.799   7.476   2.171
 7086TIP3    H121215   3.739   7.550   2.165
 7086TIP3    H221216   3.863   7.503   2.236
 7087TIP3   OH221217   1.489   1.540   2.970
 7087TIP3    H121218   1.581   1.524   2.950
 7087TIP3    H221219   1.463   1.611   2.911
 7088TIP3   OH221220   4.419   0.084   0.897
 7088TIP3    H121221   4.347   0.021   0.906
 7088TIP3    H221222   4.390   0.144   0.828
 7089TIP3   OH221223   1.379   5.404   5.461
 7089TIP3    H121224   1.293   5.424   5.424
 7089TIP3    H221225   1.400   5.316   5.427
 7090TIP3   OH221226   3.136   0.726   2.494
 7090TIP3    H121227   3.083   0.799   2.461
 7090TIP3    H221228   3.187   0.764   2.566
 7091TIP3   OH221229   1.747   4.814   5.489
 7091TIP3    H121230   1.710   4.790   5.574
 7091TIP3    H221231   1.720   4.743   5.430
 7092TIP3   OH221232   6.707   3.199   6.449
 7092TIP3    H121233   6.672   3.237   6.368
 7092TIP3    H221234   6.802   3.208   6.441
 7093TIP3   OH221235   3.493   6.467   2.491
 7093TIP3    H121236   3.465   6.553   2.459
 7093TIP3    H221237   3.431   6.406   2.451
 7094TIP3   OH221238   4.534   5.270   4.126
 7094TIP3    H121239   4.441   5.249   4.132
 7094TIP3    H221240   4.572   5.198   4.076
 7095TIP3   OH221241   4.076   5.454   6.418
 7095TIP3    H121242   4.140   5.443   6.348
 7095TIP3    H221243   3.991   5.461   6.373
 7096TIP3   OH221244   6.668   6.429   5.293
 7096TIP3    H121245   6.717   6.402   5.370
 7096TIP3    H221246   6.677   6.356   5.232
 7097TIP3   OH221247   0.155   6.592   0.089
 7097TIP3    H121248   0.219   6.521   0.081
 7097TIP3    H221249   0.076   6.558   0.048
 7098TIP3   OH221250   1.163   2.914   2.361
 7098TIP3    H121251   1.083   2.961   2.337
 7098TIP3    H221252   1.234   2.972   2.333
 7099TIP3   OH221253   2.619   0.853   2.621
 7099TIP3    H121254   2.583   0.776   2.665
 7099TIP3    H221255   2.677   0.816   2.554
 7100TIP3   OH221256   2.487   7.787   1.620
 7100TIP3    H121257   2.462   7.698   1.592
 7100TIP3    H221258   2.453   7.795   1.709
 7101TIP3   OH221259   7.126   6.460   3.207
 7101TIP3    H121260   7.137   6.500   3.121
 7101TIP3    H221261   7.213   6.426   3.230
 7102TIP3   OH221262   2.206   3.201   2.285
 7102TIP3    H121263   2.194   3.198   2.191
 7102TIP3    H221264   2.159   3.280   2.313
 7103TIP3   OH221265   6.224   3.271   3.109
 7103TIP3    H121266   6.154   3.284   3.173
 7103TIP3    H221267   6.287   3.340   3.128
 7104TIP3   OH221268   2.976   1.373   5.390
 7104TIP3    H121269   2.924   1.453   5.400
 7104TIP3    H221270   3.059   1.403   5.354
 7105TIP3   OH221271   1.727   5.583   1.379
 7105TIP3    H121272   1.687   5.506   1.420
 7105TIP3    H221273   1.683   5.590   1.294
 7106TIP3   OH221274   2.649   7.391   3.282
 7106TIP3    H121275   2.736   7.427   3.266
 7106TIP3    H221276   2.589   7.451   3.237
 7107TIP3   OH221277   5.467   3.918   0.953
 7107TIP3    H121278   5.377   3.917   0.921
 7107TIP3    H221279   5.485   4.010   0.974
 7108TIP3   OH221280   4.187   2.943   4.988
 7108TIP3    H121281   4.172   2.923   5.081
 7108TIP3    H221282   4.208   3.036   4.986
 7109TIP3   OH221283   5.976   3.148   5.552
 7109TIP3    H121284   5.908   3.202   5.592
 7109TIP3    H221285   6.020   3.106   5.626
 7110TIP3   OH221286   1.364   0.233   4.649
 7110TIP3    H121287   1.440   0.190   4.610
 7110TIP3    H221288   1.323   0.166   4.703
 7111TIP3   OH221289   5.486   2.176   2.860
 7111TIP3    H121290   5.532   2.155   2.942
 7111TIP3    H221291   5.498   2.098   2.806
 7112TIP3   OH221292   4.421   4.630   1.159
 7112TIP3    H121293   4.397   4.594   1.244
 7112TIP3    H221294   4.408   4.557   1.098
 7113TIP3   OH221295   0.809   7.341   6.036
 7113TIP3    H121296   0.736   7.348   6.097
 7113TIP3    H221297   0.887   7.344   6.091
 7114TIP3   OH221298   0.047   3.301   4.579
 7114TIP3    H121299  -0.033   3.297   4.526
 7114TIP3    H221300   0.065   3.394   4.589
 7115TIP3   OH221301   7.352   6.597   1.511
 7115TIP3    H121302   7.295   6.640   1.575
 7115TIP3    H221303   7.437   6.591   1.555
 7116TIP3   OH221304   5.582   6.939   0.386
 7116TIP3    H121305   5.671   6.969   0.371
 7116TIP3    H221306   5.528   7.018   0.379
 7117TIP3   OH221307  -0.010   0.839   2.851
 7117TIP3    H121308   0.060   0.904   2.850
 7117TIP3    H221309  -0.033   0.829   2.943
 7118TIP3   OH221310   6.446   7.219   2.294
 7118TIP3    H121311   6.376   7.229   2.229
 7118TIP3    H221312   6.406   7.242   2.377
 7119TIP3   OH221313   3.087   1.476   5.734
 7119TIP3    H121314   3.113   1.564   5.706
 7119TIP3    H221315   3.007   1.457   5.685
 7120TIP3   OH221316   3.082   6.229   2.740
 7120TIP3    H121317   3.063   6.239   2.647
 7120TIP3    H221318   3.080   6.135   2.755
 7121TIP3   OH221319   7.021   6.626   2.254
 7121TIP3    H121320   7.012   6.531   2.259
 7121TIP3    H221321   7.116   6.640   2.252
 7122TIP3   OH221322   0.212   6.842   1.818
 7122TIP3    H121323   0.155   6.913   1.847
 7122TIP3    H221324   0.210   6.779   1.890
 7123TIP3   OH221325   2.121   6.935   3.487
 7123TIP3    H121326   2.168   6.881   3.423
 7123TIP3    H221327   2.137   7.025   3.459
 7124TIP3   OH221328   0.531   1.967   3.978
 7124TIP3    H121329   0.499   1.882   3.946
 7124TIP3    H221330   0.610   1.944   4.028
 7125TIP3   OH221331   7.875   5.916   5.207
 7125TIP3    H121332   7.882   5.851   5.138
 7125TIP3    H221333   7.789   5.902   5.246
 7126TIP3   OH221334   4.386   2.032   5.257
 7126TIP3    H121335   4.441   1.961   5.223
 7126TIP3    H221336   4.407   2.036   5.350
 7127TIP3   OH221337   1.855   4.454   6.643
 7127TIP3    H121338   1.868   4.527   6.582
 7127TIP3    H221339   1.938   4.408   6.644
 7128TIP3   OH221340   2.750   0.114   0.472
 7128TIP3    H121341   2.689   0.148   0.538
 7128TIP3    H221342   2.778   0.030   0.507
 7129TIP3   OH221343   0.406   7.614   6.743
 7129TIP3    H121344   0.332   7.665   6.709
 7129TIP3    H221345   0.365   7.545   6.795
 7130TIP3   OH221346   3.195   5.371   4.825
 7130TIP3    H121347   3.251   5.392   4.749
 7130TIP3    H221348   3.239   5.297   4.867
 7131TIP3   OH221349   4.564   1.310   4.611
 7131TIP3    H121350   4.542   1.255   4.686
 7131TIP3    H221351   4.622   1.377   4.646
 7132TIP3   OH221352   1.007   1.071   1.663
 7132TIP3    H121353   1.040   1.158   1.643
 7132TIP3    H221354   0.916   1.086   1.690
 7133TIP3   OH221355   5.430   1.405   5.238
 7133TIP3    H121356   5.464   1.317   5.253
 7133TIP3    H221357   5.346   1.391   5.193
 7134TIP3   OH221358   1.908   3.049   4.823
 7134TIP3    H121359   1.832   3.007   4.864
 7134TIP3    H221360   1.939   2.985   4.759
 7135TIP3   OH221361   8.142   0.160   4.756
 7135TIP3    H121362   8.148   0.185   4.664
 7135TIP3    H221363   8.122   0.241   4.802
 7136TIP3   OH221364   7.362   5.242   0.283
 7136TIP3    H121365   7.333   5.151   0.270
 7136TIP3    H221366   7.288   5.284   0.327
 7137TIP3   OH221367   0.616   0.475   6.542
 7137TIP3    H121368   0.571   0.468   6.458
 7137TIP3    H221369   0.634   0.568   6.553
 7138TIP3   OH221370   4.361   1.599   3.371
 7138TIP3    H121371   4.382   1.690   3.389
 7138TIP3    H221372   4.368   1.591   3.276
 7139TIP3   OH221373   5.463   2.333   1.030
 7139TIP3    H121374   5.414   2.259   0.995
 7139TIP3    H221375   5.447   2.404   0.969
 7140TIP3   OH221376   2.667   0.175   4.592
 7140TIP3    H121377   2.652   0.085   4.621
 7140TIP3    H221378   2.649   0.174   4.498
 7141TIP3   OH221379   5.029   2.373   3.352
 7141TIP3    H121380   5.058   2.442   3.411
 7141TIP3    H221381   4.933   2.376   3.356
 7142TIP3   OH221382   2.973   1.814   4.317
 7142TIP3    H121383   3.055   1.860   4.298
 7142TIP3    H221384   2.963   1.751   4.246
 7143TIP3   OH221385   3.623   6.864   5.725
 7143TIP3    H121386   3.643   6.810   5.801
 7143TIP3    H221387   3.708   6.882   5.685
 7144TIP3   OH221388   2.976   2.299   3.815
 7144TIP3    H121389   2.999   2.392   3.823
 7144TIP3    H221390   3.003   2.276   3.726
 7145TIP3   OH221391   6.671   2.739   4.591
 7145TIP3    H121392   6.744   2.771   4.539
 7145TIP3    H221393   6.593   2.763   4.540
 7146TIP3   OH221394   7.696   3.347   0.075
 7146TIP3    H121395   7.730   3.400   0.003
 7146TIP3    H221396   7.622   3.300   0.037
 7147TIP3   OH221397   7.631   2.095   2.107
 7147TIP3    H121398   7.541   2.129   2.103
 7147TIP3    H221399   7.628   2.014   2.057
 7148TIP3   OH221400   1.699   2.160   6.402
 7148TIP3    H121401   1.649   2.100   6.458
 7148TIP3    H221402   1.641   2.179   6.329
 7149TIP3   OH221403   2.477   7.464   0.851
 7149TIP3    H121404   2.411   7.414   0.803
 7149TIP3    H221405   2.528   7.508   0.784
 7150TIP3   OH221406   1.148   0.738   2.442
 7150TIP3    H121407   1.091   0.696   2.507
 7150TIP3    H221408   1.231   0.749   2.488
 7151TIP3   OH221409   4.651   7.710   5.364
 7151TIP3    H121410   4.648   7.806   5.367
 7151TIP3    H221411   4.647   7.683   5.455
 7152TIP3   OH221412   5.156   7.167   3.349
 7152TIP3    H121413   5.091   7.098   3.335
 7152TIP3    H221414   5.105   7.249   3.343
 7153TIP3   OH221415   2.087   6.596   6.673
 7153TIP3    H121416   2.007   6.555   6.642
 7153TIP3    H221417   2.123   6.641   6.596
 7154TIP3   OH221418   4.761   7.562   3.718
 7154TIP3    H121419   4.690   7.608   3.671
 7154TIP3    H221420   4.787   7.492   3.659
 7155TIP3   OH221421   7.753   3.207   2.343
 7155TIP3    H121422   7.714   3.200   2.255
 7155TIP3    H221423   7.847   3.206   2.328
 7156TIP3   OH221424   6.093   1.074   6.614
 7156TIP3    H121425   6.132   1.158   6.638
 7156TIP3    H221426   6.167   1.013   6.609
 7157TIP3   OH221427   4.388   4.269   2.188
 7157TIP3    H121428   4.412   4.217   2.112
 7157TIP3    H221429   4.310   4.317   2.161
 7158TIP3   OH221430   4.396   6.628   1.506
 7158TIP3    H121431   4.424   6.610   1.595
 7158TIP3    H221432   4.432   6.555   1.454
 7159TIP3   OH221433   1.710   1.001   1.887
 7159TIP3    H121434   1.700   0.913   1.851
 7159TIP3    H221435   1.800   1.005   1.918
 7160TIP3   OH221436   4.858   4.425   2.148
 7160TIP3    H121437   4.798   4.451   2.078
 7160TIP3    H221438   4.908   4.505   2.167
 7161TIP3   OH221439   6.962   1.929   4.044
 7161TIP3    H121440   7.043   1.929   3.994
 7161TIP3    H221441   6.968   2.006   4.101
 7162TIP3   OH221442   6.464   0.584   2.186
 7162TIP3    H121443   6.457   0.675   2.158
 7162TIP3    H221444   6.415   0.581   2.269
 7163TIP3   OH221445   4.508   6.914   1.598
 7163TIP3    H121446   4.439   6.850   1.615
 7163TIP3    H221447   4.518   6.914   1.503
 7164TIP3   OH221448   3.867   3.418   3.112
 7164TIP3    H121449   3.845   3.508   3.136
 7164TIP3    H221450   3.794   3.366   3.147
 7165TIP3   OH221451   8.103   2.631   2.642
 7165TIP3    H121452   8.030   2.650   2.582
 7165TIP3    H221453   8.065   2.575   2.709
 7166TIP3   OH221454   5.947   6.309   0.067
 7166TIP3    H121455   5.984   6.380   0.014
 7166TIP3    H221456   6.004   6.304   0.143
 7167TIP3   OH221457   4.930   4.802   1.347
 7167TIP3    H121458   4.911   4.798   1.440
 7167TIP3    H221459   5.010   4.853   1.341
 7168TIP3   OH221460   5.160   6.596   5.905
 7168TIP3    H121461   5.176   6.539   5.830
 7168TIP3    H221462   5.088   6.554   5.953
 7169TIP3   OH221463   7.648   3.175   0.920
 7169TIP3    H121464   7.578   3.169   0.854
 7169TIP3    H221465   7.728   3.189   0.869
 7170TIP3   OH221466   4.734   2.102   0.234
 7170TIP3    H121467   4.746   2.138   0.146
 7170TIP3    H221468   4.672   2.161   0.276
 7171TIP3   OH221469   2.441   3.772   5.435
 7171TIP3    H121470   2.444   3.685   5.474
 7171TIP3    H221471   2.531   3.804   5.440
 7172TIP3   OH221472   6.488   4.070   0.695
 7172TIP3    H121473   6.443   4.071   0.611
 7172TIP3    H221474   6.491   4.162   0.723
 7173TIP3   OH221475   2.255   0.508   4.564
 7173TIP3    H121476   2.246   0.441   4.496
 7173TIP3    H221477   2.191   0.575   4.539
 7174TIP3   OH221478   4.704   0.234   3.747
 7174TIP3    H121479   4.708   0.292   3.823
 7174TIP3    H221480   4.673   0.289   3.676
 7175TIP3   OH221481   4.647   5.471   6.372
 7175TIP3    H121482   4.580   5.448   6.436
 7175TIP3    H221483   4.653   5.566   6.376
 7176TIP3   OH221484   1.872   2.175   5.722
 7176TIP3    H121485   1.867   2.257   5.672
 7176TIP3    H221486   1.856   2.202   5.813
 7177TIP3   OH221487   2.898   2.328   5.238
 7177TIP3    H121488   2.923   2.394   5.174
 7177TIP3    H221489   2.886   2.377   5.319
 7178TIP3   OH221490   2.656   7.211   4.067
 7178TIP3    H121491   2.666   7.217   3.972
 7178TIP3    H221492   2.743   7.188   4.099
 7179TIP3   OH221493   3.941   1.567   6.040
 7179TIP3    H121494   3.884   1.637   6.007
 7179TIP3    H221495   4.028   1.589   6.007
 7180TIP3   OH221496   5.832   1.845   3.857
 7180TIP3    H121497   5.877   1.920   3.818
 7180TIP3    H221498   5.903   1.786   3.885
 7181TIP3   OH221499   3.613   0.774   0.474
 7181TIP3    H121500   3.583   0.864   0.486
 7181TIP3    H221501   3.637   0.744   0.562
 7182TIP3   OH221502   7.094   2.451   2.835
 7182TIP3    H121503   7.026   2.460   2.768
 7182TIP3    H221504   7.133   2.538   2.842
 7183TIP3   OH221505   3.115   6.010   5.069
 7183TIP3    H121506   3.070   6.084   5.110
 7183TIP3    H221507   3.061   5.934   5.089
 7184TIP3   OH221508   0.154   4.653   1.332
 7184TIP3    H121509   0.183   4.737   1.298
 7184TIP3    H221510   0.109   4.673   1.414
 7185TIP3   OH221511   2.506   3.653   3.601
 7185TIP3    H121512   2.426   3.603   3.586
 7185TIP3    H221513   2.503   3.722   3.535
 7186TIP3   OH221514   3.742   7.716   0.635
 7186TIP3    H121515   3.682   7.655   0.592
 7186TIP3    H221516   3.716   7.802   0.604
 7187TIP3   OH221517   4.468   3.006   3.498
 7187TIP3    H121518   4.388   2.991   3.550
 7187TIP3    H221519   4.518   3.069   3.549
 7188TIP3   OH221520   1.310   7.705   2.246
 7188TIP3    H121521   1.245   7.742   2.186
 7188TIP3    H221522   1.374   7.663   2.189
 7189TIP3   OH221523   1.909   1.090   0.291
 7189TIP3    H121524   1.949   1.010   0.256
 7189TIP3    H221525   1.894   1.145   0.214
 7190TIP3   OH221526   4.509   2.078   2.116
 7190TIP3    H121527   4.417   2.068   2.138
 7190TIP3    H221528   4.543   1.989   2.113
 7191TIP3   OH221529   7.285   1.694   4.941
 7191TIP3    H121530   7.194   1.690   4.913
 7191TIP3    H221531   7.332   1.635   4.883
 7192TIP3   OH221532   5.224   0.957   0.705
 7192TIP3    H121533   5.129   0.952   0.717
 7192TIP3    H221534   5.253   1.022   0.769
 7193TIP3   OH221535   2.334   2.596   6.397
 7193TIP3    H121536   2.351   2.554   6.313
 7193TIP3    H221537   2.415   2.643   6.417
 7194TIP3   OH221538   6.739   4.999   4.561
 7194TIP3    H121539   6.745   4.904   4.563
 7194TIP3    H221540   6.828   5.029   4.582
 7195TIP3   OH221541   1.995   6.747   1.519
 7195TIP3    H121542   2.077   6.790   1.496
 7195TIP3    H221543   1.991   6.754   1.615
 7196TIP3   OH221544   7.192   0.090   3.888
 7196TIP3    H121545   7.208   0.113   3.796
 7196TIP3    H221546   7.210   0.170   3.937
 7197TIP3   OH221547   7.586   6.560   4.597
 7197TIP3    H121548   7.665   6.592   4.553
 7197TIP3    H221549   7.558   6.633   4.652
 7198TIP3   OH221550   6.751   1.698   2.540
 7198TIP3    H121551   6.845   1.710   2.553
 7198TIP3    H221552   6.721   1.781   2.503
 7199TIP3   OH221553   3.130   3.983   4.784
 7199TIP3    H121554   3.061   3.918   4.773
 7199TIP3    H221555   3.116   4.019   4.871
 7200TIP3   OH221556   6.016   3.656   1.648
 7200TIP3    H121557   6.040   3.743   1.616
 7200TIP3    H221558   6.099   3.608   1.651
 7201TIP3   OH221559   3.230   5.628   4.959
 7201TIP3    H121560   3.215   5.575   5.038
 7201TIP3    H221561   3.237   5.563   4.888
 7202TIP3   OH221562   1.266   6.896   1.634
 7202TIP3    H121563   1.181   6.872   1.597
 7202TIP3    H221564   1.269   6.991   1.629
 7203TIP3   OH221565   4.106   3.166   0.406
 7203TIP3    H121566   4.078   3.076   0.391
 7203TIP3    H221567   4.139   3.166   0.496
 7204TIP3   OH221568   3.494   1.901   2.207
 7204TIP3    H121569   3.410   1.872   2.170
 7204TIP3    H221570   3.487   1.880   2.300
 7205TIP3   OH221571   5.362   2.673   6.411
 7205TIP3    H121572   5.367   2.766   6.432
 7205TIP3    H221573   5.409   2.630   6.483
 7206TIP3   OH221574   7.324   6.195   6.104
 7206TIP3    H121575   7.300   6.119   6.050
 7206TIP3    H221576   7.322   6.269   6.043
 7207TIP3   OH221577   8.286   6.192   2.480
 7207TIP3    H121578   8.201   6.149   2.474
 7207TIP3    H221579   8.266   6.282   2.505
 7208TIP3   OH221580   1.895   1.828   1.319
 7208TIP3    H121581   1.978   1.864   1.289
 7208TIP3    H221582   1.892   1.848   1.413
 7209TIP3   OH221583   1.909   2.584   5.965
 7209TIP3    H121584   1.920   2.491   5.945
 7209TIP3    H221585   1.995   2.622   5.949
 7210TIP3   OH221586   2.240   5.308   2.553
 7210TIP3    H121587   2.177   5.302   2.624
 7210TIP3    H221588   2.188   5.323   2.474
 7211TIP3   OH221589   4.998   2.611   1.903
 7211TIP3    H121590   4.961   2.611   1.991
 7211TIP3    H221591   4.943   2.550   1.853
 7212TIP3   OH221592   4.597   2.285   2.326
 7212TIP3    H121593   4.553   2.237   2.256
 7212TIP3    H221594   4.666   2.335   2.281
 7213TIP3   OH221595   3.732   2.562   2.420
 7213TIP3    H121596   3.757   2.648   2.384
 7213TIP3    H221597   3.648   2.542   2.379
 7214TIP3   OH221598   3.709   1.750   5.157
 7214TIP3    H121599   3.669   1.704   5.231
 7214TIP3    H221600   3.799   1.718   5.155
 7215TIP3   OH221601   5.041   0.960   4.718
 7215TIP3    H121602   5.038   0.876   4.672
 7215TIP3    H221603   5.009   1.024   4.655
 7216TIP3   OH221604   2.025   2.358   0.056
 7216TIP3    H121605   1.995   2.326   0.142
 7216TIP3    H221606   2.119   2.372   0.068
 7217TIP3   OH221607   4.843   1.013   3.279
 7217TIP3    H121608   4.773   0.986   3.340
 7217TIP3    H221609   4.839   1.108   3.279
 7218TIP3   OH221610   6.198   4.441   2.827
 7218TIP3    H121611   6.210   4.362   2.879
 7218TIP3    H221612   6.272   4.497   2.850
 7219TIP3   OH221613   5.044   2.458   3.091
 7219TIP3    H121614   4.992   2.539   3.093
 7219TIP3    H221615   5.057   2.436   3.184
 7220TIP3   OH221616   6.287   6.979   4.138
 7220TIP3    H121617   6.373   6.967   4.178
 7220TIP3    H221618   6.296   6.942   4.050
 7221TIP3   OH221619   4.561   5.059   1.183
 7221TIP3    H121620   4.599   5.038   1.097
 7221TIP3    H221621   4.610   5.135   1.213
 7222TIP3   OH221622   7.040   7.690   4.437
 7222TIP3    H121623   7.085   7.746   4.374
 7222TIP3    H221624   7.057   7.601   4.407
 7223TIP3   OH221625   1.848   3.462   3.248
 7223TIP3    H121626   1.756   3.464   3.223
 7223TIP3    H221627   1.886   3.537   3.201
 7224TIP3   OH221628   2.703   5.439   4.085
 7224TIP3    H121629   2.660   5.524   4.087
 7224TIP3    H221630   2.669   5.393   4.161
 7225TIP3   OH221631   0.615   0.653   5.425
 7225TIP3    H121632   0.608   0.712   5.350
 7225TIP3    H221633   0.646   0.571   5.387
 7226TIP3   OH221634   6.822   0.983   5.167
 7226TIP3    H121635   6.771   1.036   5.229
 7226TIP3    H221636   6.806   1.024   5.082
 7227TIP3   OH221637   4.184   0.700   4.025
 7227TIP3    H121638   4.247   0.763   4.062
 7227TIP3    H221639   4.160   0.644   4.099
 7228TIP3   OH221640   4.294   1.399   1.941
 7228TIP3    H121641   4.300   1.467   2.008
 7228TIP3    H221642   4.200   1.385   1.929
 7229TIP3   OH221643   5.898   4.350   2.135
 7229TIP3    H121644   5.862   4.371   2.048
 7229TIP3    H221645   5.927   4.259   2.128
 7230TIP3   OH221646   1.770   3.602   2.422
 7230TIP3    H121647   1.695   3.627   2.475
 7230TIP3    H221648   1.740   3.525   2.372
 7231TIP3   OH221649   7.525   5.501   3.812
 7231TIP3    H121650   7.519   5.422   3.865
 7231TIP3    H221651   7.436   5.535   3.810
 7232TIP3   OH221652   7.905   5.010   1.539
 7232TIP3    H121653   7.895   4.929   1.590
 7232TIP3    H221654   7.938   4.981   1.454
 7233TIP3   OH221655   5.112   5.134   2.952
 7233TIP3    H121656   5.160   5.053   2.933
 7233TIP3    H221657   5.131   5.191   2.877
 7234TIP3   OH221658   6.665   0.709   4.300
 7234TIP3    H121659   6.717   0.629   4.289
 7234TIP3    H221660   6.712   0.760   4.366
 7235TIP3   OH221661   8.052   3.375   6.556
 7235TIP3    H121662   7.984   3.341   6.498
 7235TIP3    H221663   8.132   3.367   6.505
 7236TIP3   OH221664   2.875   4.153   4.675
 7236TIP3    H121665   2.967   4.156   4.649
 7236TIP3    H221666   2.874   4.189   4.764
 7237TIP3   OH221667   0.052   4.657   5.929
 7237TIP3    H121668  -0.014   4.603   5.972
 7237TIP3    H221669   0.130   4.601   5.924
 7238TIP3   OH221670   1.368   5.439   4.165
 7238TIP3    H121671   1.427   5.434   4.090
 7238TIP3    H221672   1.282   5.416   4.129
 7239TIP3   OH221673   4.317   2.862   1.367
 7239TIP3    H121674   4.400   2.867   1.414
 7239TIP3    H221675   4.309   2.946   1.322
 7240TIP3   OH221676   1.249   3.286   5.825
 7240TIP3    H121677   1.341   3.260   5.813
 7240TIP3    H221678   1.238   3.362   5.767
 7241TIP3   OH221679   5.337   4.241   1.356
 7241TIP3    H121680   5.265   4.266   1.414
 7241TIP3    H221681   5.339   4.311   1.290
 7242TIP3   OH221682   6.007   3.960   2.649
 7242TIP3    H121683   6.017   3.990   2.740
 7242TIP3    H221684   5.928   3.906   2.651
 7243TIP3   OH221685   2.111   2.921   0.257
 7243TIP3    H121686   2.147   2.905   0.344
 7243TIP3    H221687   2.176   2.976   0.214
 7244TIP3   OH221688   7.498   1.234   2.060
 7244TIP3    H121689   7.505   1.252   1.966
 7244TIP3    H221690   7.404   1.227   2.076
 7245TIP3   OH221691   3.812   0.465   2.463
 7245TIP3    H121692   3.868   0.436   2.535
 7245TIP3    H221693   3.723   0.453   2.496
 7246TIP3   OH221694   2.241   3.488   2.474
 7246TIP3    H121695   2.275   3.411   2.429
 7246TIP3    H221696   2.304   3.504   2.545
 7247TIP3   OH221697   4.802   3.554   0.983
 7247TIP3    H121698   4.735   3.605   1.028
 7247TIP3    H221699   4.795   3.466   1.021
 7248TIP3   OH221700   2.996   1.484   6.685
 7248TIP3    H121701   3.032   1.541   6.753
 7248TIP3    H221702   3.056   1.495   6.611
 7249TIP3   OH221703   4.777   4.952   2.586
 7249TIP3    H121704   4.698   4.971   2.535
 7249TIP3    H221705   4.785   4.857   2.580
 7250TIP3   OH221706   1.256   5.506   6.601
 7250TIP3    H121707   1.283   5.416   6.620
 7250TIP3    H221708   1.304   5.560   6.664
 7251TIP3   OH221709   4.325   6.451   0.613
 7251TIP3    H121710   4.306   6.545   0.607
 7251TIP3    H221711   4.276   6.412   0.541
 7252TIP3   OH221712   0.352   0.079   4.065
 7252TIP3    H121713   0.369   0.008   4.003
 7252TIP3    H221714   0.312   0.035   4.140
 7253TIP3   OH221715   4.147   2.686   4.179
 7253TIP3    H121716   4.109   2.648   4.100
 7253TIP3    H221717   4.235   2.649   4.183
 7254TIP3   OH221718   4.165   2.210   5.352
 7254TIP3    H121719   4.136   2.168   5.433
 7254TIP3    H221720   4.223   2.145   5.311
 7255TIP3   OH221721   6.981   4.655   0.037
 7255TIP3    H121722   7.063   4.702   0.055
 7255TIP3    H221723   7.009   4.573  -0.004
 7256TIP3   OH221724   1.139   6.823   2.089
 7256TIP3    H121725   1.094   6.806   2.006
 7256TIP3    H221726   1.222   6.777   2.080
 7257TIP3   OH221727   1.437   0.861   1.600
 7257TIP3    H121728   1.426   0.919   1.675
 7257TIP3    H221729   1.463   0.919   1.528
 7258TIP3   OH221730   3.140   0.320   0.521
 7258TIP3    H121731   3.211   0.305   0.584
 7258TIP3    H221732   3.098   0.401   0.551
 7259TIP3   OH221733   6.828   7.164   2.569
 7259TIP3    H121734   6.772   7.182   2.644
 7259TIP3    H221735   6.789   7.088   2.527
 7260TIP3   OH221736   3.962   1.852   1.997
 7260TIP3    H121737   4.014   1.915   1.949
 7260TIP3    H221738   3.871   1.876   1.978
 7261TIP3   OH221739   3.205   3.046   3.691
 7261TIP3    H121740   3.129   3.101   3.671
 7261TIP3    H221741   3.168   2.973   3.740
 7262TIP3   OH221742   1.070   7.025   5.642
 7262TIP3    H121743   0.993   7.068   5.605
 7262TIP3    H221744   1.139   7.037   5.577
 7263TIP3   OH221745   3.955   6.552   6.590
 7263TIP3    H121746   3.886   6.486   6.597
 7263TIP3    H221747   4.033   6.510   6.625
 7264TIP3   OH221748   1.721   3.147   3.177
 7264TIP3    H121749   1.671   3.080   3.131
 7264TIP3    H221750   1.657   3.192   3.231
 7265TIP3   OH221751   1.798   7.091   5.609
 7265TIP3    H121752   1.764   7.180   5.614
 7265TIP3    H221753   1.731   7.043   5.560
 7266TIP3   OH221754   2.854   4.056   6.420
 7266TIP3    H121755   2.870   4.141   6.379
 7266TIP3    H221756   2.862   4.074   6.514
 7267TIP3   OH221757   5.617   4.874   2.840
 7267TIP3    H121758   5.659   4.837   2.762
 7267TIP3    H221759   5.658   4.959   2.852
 7268TIP3   OH221760   7.268   4.399   3.363
 7268TIP3    H121761   7.349   4.374   3.319
 7268TIP3    H221762   7.210   4.324   3.352
 7269TIP3   OH221763   5.306   0.781   0.203
 7269TIP3    H121764   5.269   0.847   0.261
 7269TIP3    H221765   5.388   0.819   0.172
 7270TIP3   OH221766   6.731   3.907   5.906
 7270TIP3    H121767   6.675   3.983   5.886
 7270TIP3    H221768   6.820   3.942   5.901
 7271TIP3   OH221769   1.309   5.376   2.963
 7271TIP3    H121770   1.398   5.407   2.982
 7271TIP3    H221771   1.290   5.411   2.876
 7272TIP3   OH221772   2.238   3.145   6.145
 7272TIP3    H121773   2.262   3.100   6.226
 7272TIP3    H221774   2.295   3.222   6.142
 7273TIP3   OH221775   6.297   7.596   2.163
 7273TIP3    H121776   6.256   7.534   2.224
 7273TIP3    H221777   6.317   7.543   2.086
 7274TIP3   OH221778   4.347   6.051   5.435
 7274TIP3    H121779   4.360   5.964   5.398
 7274TIP3    H221780   4.339   6.108   5.358
 7275TIP3   OH221781   1.466   2.900   2.488
 7275TIP3    H121782   1.386   2.872   2.444
 7275TIP3    H221783   1.465   2.996   2.483
 7276TIP3   OH221784   0.058   7.018   0.368
 7276TIP3    H121785   0.059   7.091   0.430
 7276TIP3    H221786   0.122   6.956   0.404
 7277TIP3   OH221787   6.808   6.711   6.612
 7277TIP3    H121788   6.815   6.661   6.531
 7277TIP3    H221789   6.736   6.772   6.596
 7278TIP3   OH221790   0.917   4.809   4.489
 7278TIP3    H121791   0.847   4.874   4.485
 7278TIP3    H221792   0.931   4.795   4.582
 7279TIP3   OH221793   1.428   0.836   4.635
 7279TIP3    H121794   1.451   0.776   4.564
 7279TIP3    H221795   1.336   0.815   4.655
 7280TIP3   OH221796   1.966   1.098   4.475
 7280TIP3    H121797   1.973   1.077   4.381
 7280TIP3    H221798   1.877   1.071   4.498
 7281TIP3   OH221799   5.427   0.293   2.608
 7281TIP3    H121800   5.397   0.382   2.628
 7281TIP3    H221801   5.425   0.289   2.512
 7282TIP3   OH221802   3.061   7.028   3.980
 7282TIP3    H121803   2.969   7.025   3.954
 7282TIP3    H221804   3.088   6.936   3.983
 7283TIP3   OH221805   4.255   3.847   4.082
 7283TIP3    H121806   4.254   3.902   4.003
 7283TIP3    H221807   4.304   3.769   4.055
 7284TIP3   OH221808   1.115   5.676   1.134
 7284TIP3    H121809   1.053   5.646   1.068
 7284TIP3    H221810   1.177   5.731   1.086
 7285TIP3   OH221811   0.577   7.453   3.541
 7285TIP3    H121812   0.577   7.532   3.486
 7285TIP3    H221813   0.643   7.471   3.608
 7286TIP3   OH221814   4.745   3.613   6.047
 7286TIP3    H121815   4.798   3.665   5.986
 7286TIP3    H221816   4.764   3.651   6.133
 7287TIP3   OH221817   0.070   7.211   5.563
 7287TIP3    H121818  -0.025   7.220   5.575
 7287TIP3    H221819   0.106   7.226   5.650
 7288TIP3   OH221820   3.014   6.574   3.789
 7288TIP3    H121821   3.023   6.641   3.721
 7288TIP3    H221822   2.921   6.573   3.809
 7289TIP3   OH221823   7.180   5.229   5.032
 7289TIP3    H121824   7.154   5.317   5.061
 7289TIP3    H221825   7.247   5.245   4.965
 7290TIP3   OH221826   5.680   4.459   0.623
 7290TIP3    H121827   5.701   4.380   0.573
 7290TIP3    H221828   5.741   4.458   0.697
 7291TIP3   OH221829   5.804   0.850   2.583
 7291TIP3    H121830   5.746   0.823   2.512
 7291TIP3    H221831   5.752   0.837   2.662
 7292TIP3   OH221832   6.333   6.712   3.539
 7292TIP3    H121833   6.252   6.738   3.495
 7292TIP3    H221834   6.375   6.652   3.478
 7293TIP3   OH221835   3.809   2.473   3.978
 7293TIP3    H121836   3.799   2.565   4.004
 7293TIP3    H221837   3.897   2.449   4.008
 7294TIP3   OH221838   1.930   7.649   4.657
 7294TIP3    H121839   1.991   7.617   4.590
 7294TIP3    H221840   1.978   7.721   4.700
 7295TIP3   OH221841   4.354   2.472   0.685
 7295TIP3    H121842   4.368   2.553   0.735
 7295TIP3    H221843   4.383   2.402   0.744
 7296TIP3   OH221844   1.103   3.350   6.743
 7296TIP3    H121845   1.076   3.370   6.832
 7296TIP3    H221846   1.156   3.425   6.716
 7297TIP3   OH221847   4.915   2.109   4.604
 7297TIP3    H121848   4.872   2.108   4.519
 7297TIP3    H221849   4.882   2.188   4.647
 7298TIP3   OH221850   6.609   6.388   0.953
 7298TIP3    H121851   6.660   6.342   0.886
 7298TIP3    H221852   6.567   6.318   1.004
 7299TIP3   OH221853   2.976   4.519   4.743
 7299TIP3    H121854   2.885   4.528   4.771
 7299TIP3    H221855   3.020   4.597   4.778
 7300TIP3   OH221856   4.346   1.537   4.490
 7300TIP3    H121857   4.365   1.578   4.574
 7300TIP3    H221858   4.361   1.444   4.503
 7301TIP3   OH221859   2.420   2.389   5.900
 7301TIP3    H121860   2.510   2.356   5.897
 7301TIP3    H221861   2.425   2.476   5.861
 7302TIP3   OH221862   6.726   6.899   1.630
 7302TIP3    H121863   6.633   6.917   1.627
 7302TIP3    H221864   6.766   6.981   1.659
 7303TIP3   OH221865   1.137   4.346   4.392
 7303TIP3    H121866   1.044   4.354   4.370
 7303TIP3    H221867   1.151   4.412   4.461
 7304TIP3   OH221868   6.523   3.466   3.997
 7304TIP3    H121869   6.436   3.494   3.969
 7304TIP3    H221870   6.543   3.390   3.943
 7305TIP3   OH221871   3.078   3.947   3.755
 7305TIP3    H121872   2.998   3.998   3.741
 7305TIP3    H221873   3.049   3.856   3.760
 7306TIP3   OH221874   6.651   5.310   6.384
 7306TIP3    H121875   6.568   5.264   6.368
 7306TIP3    H221876   6.685   5.270   6.465
 7307TIP3   OH221877   1.209   2.221   6.358
 7307TIP3    H121878   1.153   2.222   6.435
 7307TIP3    H221879   1.276   2.287   6.376
 7308TIP3   OH221880   3.992   3.904   3.111
 7308TIP3    H121881   3.932   3.956   3.058
 7308TIP3    H221882   4.052   3.864   3.048
 7309TIP3   OH221883   4.635   6.175   3.490
 7309TIP3    H121884   4.585   6.253   3.514
 7309TIP3    H221885   4.618   6.113   3.562
 7310TIP3   OH221886   2.663   7.590   1.289
 7310TIP3    H121887   2.695   7.678   1.271
 7310TIP3    H221888   2.606   7.600   1.365
 7311TIP3   OH221889   1.673   0.298   0.786
 7311TIP3    H121890   1.740   0.249   0.738
 7311TIP3    H221891   1.593   0.286   0.733
 7312TIP3   OH221892   2.543   4.318   0.243
 7312TIP3    H121893   2.532   4.310   0.149
 7312TIP3    H221894   2.463   4.359   0.274
 7313TIP3   OH221895   6.609   3.532   4.545
 7313TIP3    H121896   6.514   3.525   4.533
 7313TIP3    H221897   6.623   3.521   4.639
 7314TIP3   OH221898   2.381   3.071   2.989
 7314TIP3    H121899   2.286   3.078   2.983
 7314TIP3    H221900   2.406   3.017   2.914
 7315TIP3   OH221901   3.053   2.171   6.408
 7315TIP3    H121902   2.958   2.163   6.409
 7315TIP3    H221903   3.085   2.081   6.407
 7316TIP3   OH221904   7.654   6.151   4.389
 7316TIP3    H121905   7.581   6.090   4.391
 7316TIP3    H221906   7.614   6.237   4.405
 7317TIP3   OH221907   2.717   3.450   3.644
 7317TIP3    H121908   2.667   3.532   3.642
 7317TIP3    H221909   2.803   3.475   3.679
 7318TIP3   OH221910   5.490   6.827   1.980
 7318TIP3    H121911   5.579   6.848   1.949
 7318TIP3    H221912   5.433   6.864   1.912
 7319TIP3   OH221913   2.046   0.684   1.038
 7319TIP3    H121914   1.975   0.735   1.078
 7319TIP3    H221915   2.082   0.632   1.110
 7320TIP3   OH221916   6.374   5.216   3.069
 7320TIP3    H121917   6.282   5.218   3.096
 7320TIP3    H221918   6.403   5.128   3.092
 7321TIP3   OH221919   3.004   7.268   4.431
 7321TIP3    H121920   3.000   7.191   4.488
 7321TIP3    H221921   3.087   7.259   4.385
 7322TIP3   OH221922   3.128   4.052   5.776
 7322TIP3    H121923   3.165   4.052   5.865
 7322TIP3    H221924   3.202   4.030   5.720
 7323TIP3   OH221925   5.045   7.175   2.776
 7323TIP3    H121926   5.088   7.137   2.852
 7323TIP3    H221927   5.000   7.102   2.735
 7324TIP3   OH221928   7.191   0.369   1.392
 7324TIP3    H121929   7.195   0.464   1.406
 7324TIP3    H221930   7.099   0.351   1.378
 7325TIP3   OH221931   2.117   7.467   6.508
 7325TIP3    H121932   2.148   7.557   6.501
 7325TIP3    H221933   2.188   7.420   6.553
 7326TIP3   OH221934   2.033   6.285   6.598
 7326TIP3    H121935   2.050   6.250   6.511
 7326TIP3    H221936   2.119   6.297   6.637
 7327TIP3   OH221937   6.596   3.359   4.226
 7327TIP3    H121938   6.582   3.389   4.136
 7327TIP3    H221939   6.690   3.368   4.240
 7328TIP3   OH221940   2.103   3.450   5.256
 7328TIP3    H121941   2.159   3.413   5.188
 7328TIP3    H221942   2.077   3.375   5.309
 7329TIP3   OH221943   7.120   2.866   2.129
 7329TIP3    H121944   7.141   2.866   2.035
 7329TIP3    H221945   7.150   2.951   2.160
 7330TIP3   OH221946   1.317   4.111   5.767
 7330TIP3    H121947   1.329   4.031   5.716
 7330TIP3    H221948   1.265   4.168   5.710
 7331TIP3   OH221949   7.569   0.546   2.445
 7331TIP3    H121950   7.586   0.633   2.408
 7331TIP3    H221951   7.650   0.498   2.429
 7332TIP3   OH221952   2.265   7.674   2.961
 7332TIP3    H121953   2.254   7.768   2.973
 7332TIP3    H221954   2.226   7.656   2.876
 7333TIP3   OH221955   0.949   5.829   4.937
 7333TIP3    H121956   0.896   5.856   4.861
 7333TIP3    H221957   0.991   5.909   4.967
 7334TIP3   OH221958   1.674   2.580   4.348
 7334TIP3    H121959   1.636   2.592   4.435
 7334TIP3    H221960   1.699   2.669   4.320
 7335TIP3   OH221961   1.173   5.001   0.804
 7335TIP3    H121962   1.107   5.064   0.830
 7335TIP3    H221963   1.144   4.918   0.841
 7336TIP3   OH221964   6.849   5.878   1.670
 7336TIP3    H121965   6.861   5.784   1.659
 7336TIP3    H221966   6.814   5.888   1.758
 7337TIP3   OH221967   1.896   6.240   5.008
 7337TIP3    H121968   1.930   6.151   5.010
 7337TIP3    H221969   1.855   6.249   4.922
 7338TIP3   OH221970   6.065   0.969   5.806
 7338TIP3    H121971   6.001   1.030   5.842
 7338TIP3    H221972   6.123   0.949   5.880
 7339TIP3   OH221973   6.893   0.399   5.108
 7339TIP3    H121974   6.949   0.471   5.082
 7339TIP3    H221975   6.934   0.363   5.186
 7340TIP3   OH221976   8.302   4.458   5.650
 7340TIP3    H121977   8.250   4.486   5.726
 7340TIP3    H221978   8.310   4.538   5.597
 7341TIP3   OH221979   2.747   4.571   6.301
 7341TIP3    H121980   2.657   4.594   6.282
 7341TIP3    H221981   2.799   4.643   6.265
 7342TIP3   OH221982   6.656   7.400   1.288
 7342TIP3    H121983   6.645   7.308   1.310
 7342TIP3    H221984   6.719   7.401   1.216
 7343TIP3   OH221985   1.433   1.067   1.423
 7343TIP3    H121986   1.385   1.148   1.407
 7343TIP3    H221987   1.398   1.006   1.358
 7344TIP3   OH221988   6.392   1.628   6.475
 7344TIP3    H121989   6.297   1.619   6.469
 7344TIP3    H221990   6.412   1.609   6.566
 7345TIP3   OH221991   1.002   7.580   2.676
 7345TIP3    H121992   1.047   7.497   2.693
 7345TIP3    H221993   1.058   7.624   2.611
 7346TIP3   OH221994   4.787   6.490   4.817
 7346TIP3    H121995   4.718   6.458   4.875
 7346TIP3    H221996   4.744   6.497   4.731
 7347TIP3   OH221997   0.849   2.740   4.995
 7347TIP3    H121998   0.814   2.703   4.914
 7347TIP3    H221999   0.803   2.695   5.065
 7348TIP3   OH222000   2.842   3.277   5.986
 7348TIP3    H122001   2.926   3.275   5.939
 7348TIP3    H222002   2.852   3.214   6.057
 7349TIP3   OH222003   4.195   1.746   4.852
 7349TIP3    H122004   4.176   1.744   4.758
 7349TIP3    H222005   4.258   1.674   4.865
 7350TIP3   OH222006   1.694   3.431   4.775
 7350TIP3    H122007   1.718   3.427   4.683
 7350TIP3    H222008   1.603   3.461   4.776
 7351TIP3   OH222009   7.661   4.636   4.701
 7351TIP3    H122010   7.641   4.721   4.663
 7351TIP3    H222011   7.624   4.572   4.640
 7352TIP3   OH222012   0.130   5.813   3.244
 7352TIP3    H122013   0.121   5.773   3.158
 7352TIP3    H222014   0.210   5.866   3.238
 7353TIP3   OH222015   4.257   3.463   3.875
 7353TIP3    H122016   4.183   3.523   3.888
 7353TIP3    H222017   4.242   3.393   3.939
 7354TIP3   OH222018   5.630   6.495   6.287
 7354TIP3    H122019   5.710   6.489   6.339
 7354TIP3    H222020   5.660   6.519   6.199
 7355TIP3   OH222021   7.568   3.593   3.481
 7355TIP3    H122022   7.642   3.543   3.447
 7355TIP3    H222023   7.530   3.536   3.548
 7356TIP3   OH222024   5.921   1.018   5.299
 7356TIP3    H122025   6.000   0.968   5.320
 7356TIP3    H222026   5.947   1.074   5.226
 7357TIP3   OH222027   3.920   7.037   2.155
 7357TIP3    H122028   3.836   7.010   2.120
 7357TIP3    H222029   3.984   7.006   2.091
 7358TIP3   OH222030   7.838   7.062   3.397
 7358TIP3    H122031   7.898   7.047   3.470
 7358TIP3    H222032   7.883   7.026   3.321
 7359TIP3   OH222033   4.890   4.844   4.165
 7359TIP3    H122034   4.817   4.833   4.105
 7359TIP3    H222035   4.890   4.937   4.187
 7360TIP3   OH222036   4.957   5.332   5.624
 7360TIP3    H122037   4.997   5.302   5.706
 7360TIP3    H222038   4.913   5.255   5.588
 7361TIP3   OH222039   2.703   5.497   1.280
 7361TIP3    H122040   2.693   5.533   1.368
 7361TIP3    H222041   2.623   5.447   1.264
 7362TIP3   OH222042   2.201   0.459   2.349
 7362TIP3    H122043   2.115   0.501   2.348
 7362TIP3    H222044   2.263   0.533   2.350
 7363TIP3   OH222045   2.695   5.481   2.065
 7363TIP3    H122046   2.759   5.490   1.995
 7363TIP3    H222047   2.699   5.564   2.112
 7364TIP3   OH222048   0.509   1.512   6.697
 7364TIP3    H122049   0.519   1.438   6.756
 7364TIP3    H222050   0.422   1.502   6.658
 7365TIP3   OH222051   5.242   0.736   2.818
 7365TIP3    H122052   5.194   0.670   2.868
 7365TIP3    H222053   5.198   0.740   2.733
 7366TIP3   OH222054   3.008   3.708   5.091
 7366TIP3    H122055   3.046   3.682   5.006
 7366TIP3    H222056   3.040   3.642   5.152
 7367TIP3   OH222057   3.679   3.369   1.121
 7367TIP3    H122058   3.626   3.327   1.189
 7367TIP3    H222059   3.676   3.308   1.047
 7368TIP3   OH222060   3.576   7.236   3.772
 7368TIP3    H122061   3.657   7.223   3.822
 7368TIP3    H222062   3.541   7.319   3.803
 7369TIP3   OH222063   5.566   3.671   2.771
 7369TIP3    H122064   5.599   3.702   2.686
 7369TIP3    H222065   5.471   3.668   2.760
 7370TIP3   OH222066   7.654   2.783   3.594
 7370TIP3    H122067   7.681   2.692   3.604
 7370TIP3    H222068   7.562   2.778   3.568
 7371TIP3   OH222069   8.165   6.473   4.020
 7371TIP3    H122070   8.228   6.411   3.981
 7371TIP3    H222071   8.138   6.432   4.102
 7372TIP3   OH222072   4.464   2.583   6.566
 7372TIP3    H122073   4.531   2.522   6.596
 7372TIP3    H222074   4.443   2.552   6.477
 7373TIP3   OH222075   2.160   1.634   4.216
 7373TIP3    H122076   2.235   1.580   4.190
 7373TIP3    H222077   2.173   1.717   4.171
 7374TIP3   OH222078   4.954   1.310   2.614
 7374TIP3    H122079   5.014   1.325   2.687
 7374TIP3    H222080   4.869   1.299   2.655
 7375TIP3   OH222081   5.718   4.243   4.443
 7375TIP3    H122082   5.743   4.329   4.477
 7375TIP3    H222083   5.670   4.202   4.515
 7376TIP3   OH222084   0.918   1.458   4.168
 7376TIP3    H122085   0.859   1.389   4.138
 7376TIP3    H222086   1.003   1.415   4.176
 7377TIP3   OH222087   7.496   6.042   0.897
 7377TIP3    H122088   7.474   6.129   0.929
 7377TIP3    H222089   7.480   5.984   0.971
 7378TIP3   OH222090   0.490   7.273   5.878
 7378TIP3    H122091   0.431   7.197   5.872
 7378TIP3    H222092   0.478   7.320   5.796
 7379TIP3   OH222093   8.002   6.391   6.418
 7379TIP3    H122094   8.039   6.444   6.489
 7379TIP3    H222095   7.910   6.378   6.442
 7380TIP3   OH222096   7.216   5.805   5.344
 7380TIP3    H122097   7.249   5.784   5.256
 7380TIP3    H222098   7.169   5.888   5.332
 7381TIP3   OH222099   4.526   4.014   0.863
 7381TIP3    H122100   4.563   3.926   0.869
 7381TIP3    H222101   4.599   4.071   0.887
 7382TIP3   OH222102   1.297   4.722   6.462
 7382TIP3    H122103   1.324   4.671   6.386
 7382TIP3    H222104   1.219   4.677   6.494
 7383TIP3   OH222105   6.805   7.542   5.720
 7383TIP3    H122106   6.895   7.573   5.705
 7383TIP3    H222107   6.756   7.573   5.644
 7384TIP3   OH222108   1.102   4.651   5.827
 7384TIP3    H122109   1.020   4.602   5.815
 7384TIP3    H222110   1.168   4.584   5.844
 7385TIP3   OH222111   0.345   7.350   5.539
 7385TIP3    H122112   0.332   7.441   5.566
 7385TIP3    H222113   0.383   7.355   5.451
 7386TIP3   OH222114   0.657   6.776   0.629
 7386TIP3    H122115   0.694   6.776   0.540
 7386TIP3    H222116   0.564   6.760   0.616
 7387TIP3   OH222117   3.752   7.187   1.928
 7387TIP3    H122118   3.751   7.092   1.923
 7387TIP3    H222119   3.660   7.211   1.942
 7388TIP3   OH222120   3.717   1.927   1.704
 7388TIP3    H122121   3.783   1.983   1.745
 7388TIP3    H222122   3.668   1.985   1.646
 7389TIP3   OH222123   4.774   3.785   6.620
 7389TIP3    H122124   4.749   3.859   6.565
 7389TIP3    H222125   4.835   3.822   6.684
 7390TIP3   OH222126   4.587   7.416   6.424
 7390TIP3    H122127   4.669   7.447   6.386
 7390TIP3    H222128   4.536   7.495   6.439
 7391TIP3   OH222129   4.937   7.609   6.010
 7391TIP3    H122130   4.989   7.597   6.089
 7391TIP3    H222131   4.942   7.525   5.964
 7392TIP3   OH222132   3.039   7.539   6.674
 7392TIP3    H122133   3.101   7.534   6.602
 7392TIP3    H222134   3.049   7.628   6.708
 7393TIP3   OH222135   3.792   1.646   3.740
 7393TIP3    H122136   3.724   1.696   3.784
 7393TIP3    H222137   3.788   1.675   3.649
 7394TIP3   OH222138   5.576   3.066   0.875
 7394TIP3    H122139   5.552   3.011   0.800
 7394TIP3    H222140   5.668   3.088   0.860
 7395TIP3   OH222141   7.800   0.733   2.731
 7395TIP3    H122142   7.860   0.730   2.806
 7395TIP3    H222143   7.852   0.772   2.660
 7396TIP3   OH222144   1.819   1.359   0.700
 7396TIP3    H122145   1.740   1.350   0.753
 7396TIP3    H222146   1.808   1.294   0.630
 7397TIP3   OH222147   2.954   7.542   4.856
 7397TIP3    H122148   3.014   7.616   4.864
 7397TIP3    H222149   2.953   7.503   4.944
 7398TIP3   OH222150   0.062   5.517   3.383
 7398TIP3    H122151   0.036   5.483   3.298
 7398TIP3    H222152  -0.013   5.568   3.413
 7399TIP3   OH222153   6.365   3.827   1.480
 7399TIP3    H122154   6.456   3.847   1.459
 7399TIP3    H222155   6.342   3.755   1.421
 7400TIP3   OH222156   3.566   4.371   0.474
 7400TIP3    H122157   3.489   4.405   0.428
 7400TIP3    H222158   3.593   4.442   0.531
 7401TIP3   OH222159   5.874   4.163   3.449
 7401TIP3    H122160   5.858   4.086   3.504
 7401TIP3    H222161   5.866   4.238   3.509
 7402TIP3   OH222162   6.377   0.051   5.349
 7402TIP3    H122163   6.383   0.133   5.300
 7402TIP3    H222164   6.390  -0.018   5.284
 7403TIP3   OH222165   4.003   0.644   6.422
 7403TIP3    H122166   4.027   0.561   6.464
 7403TIP3    H222167   3.954   0.691   6.490
 7404TIP3   OH222168   3.483   3.228   1.280
 7404TIP3    H122169   3.436   3.187   1.207
 7404TIP3    H222170   3.515   3.154   1.331
 7405TIP3   OH222171   1.944   2.876   3.153
 7405TIP3    H122172   1.863   2.864   3.103
 7405TIP3    H222173   1.970   2.787   3.178
 7406TIP3   OH222174   7.216   1.196   1.719
 7406TIP3    H122175   7.276   1.122   1.710
 7406TIP3    H222176   7.267   1.271   1.688
 7407TIP3   OH222177   5.458   5.406   3.326
 7407TIP3    H122178   5.527   5.467   3.352
 7407TIP3    H222179   5.504   5.322   3.317
 7408TIP3   OH222180   7.502   7.598   2.210
 7408TIP3    H122181   7.523   7.570   2.299
 7408TIP3    H222182   7.414   7.635   2.217
 7409TIP3   OH222183   2.366   0.255   3.228
 7409TIP3    H122184   2.333   0.315   3.161
 7409TIP3    H222185   2.298   0.255   3.295
 7410TIP3   OH222186   4.853   0.833   1.012
 7410TIP3    H122187   4.939   0.820   1.052
 7410TIP3    H222188   4.809   0.749   1.020
 7411TIP3   OH222189   5.205   2.719   0.264
 7411TIP3    H122190   5.199   2.676   0.179
 7411TIP3    H222191   5.285   2.771   0.259
 7412TIP3   OH222192   2.241   2.467   6.706
 7412TIP3    H122193   2.195   2.414   6.771
 7412TIP3    H222194   2.190   2.458   6.626
 7413TIP3   OH222195   2.666   4.786   1.906
 7413TIP3    H122196   2.664   4.723   1.834
 7413TIP3    H222197   2.653   4.733   1.985
 7414TIP3   OH222198   7.473   6.873   1.658
 7414TIP3    H122199   7.381   6.845   1.655
 7414TIP3    H222200   7.522   6.796   1.629
 7415TIP3   OH222201   3.559   6.205   4.061
 7415TIP3    H122202   3.565   6.246   3.975
 7415TIP3    H222203   3.545   6.112   4.043
 7416TIP3   OH222204   3.802   0.055   1.474
 7416TIP3    H122205   3.791   0.150   1.473
 7416TIP3    H222206   3.776   0.027   1.386
 7417TIP3   OH222207   6.680   2.236   0.863
 7417TIP3    H122208   6.622   2.307   0.892
 7417TIP3    H222209   6.672   2.236   0.768
 7418TIP3   OH222210   0.118   1.155   3.124
 7418TIP3    H122211   0.055   1.092   3.089
 7418TIP3    H222212   0.086   1.240   3.094
 7419TIP3   OH222213   4.091   6.888   5.459
 7419TIP3    H122214   4.050   6.906   5.374
 7419TIP3    H222215   4.160   6.954   5.466
 7420TIP3   OH222216   3.648   1.825   0.740
 7420TIP3    H122217   3.582   1.822   0.672
 7420TIP3    H222218   3.653   1.736   0.774
 7421TIP3   OH222219   8.121   7.315   3.471
 7421TIP3    H122220   8.190   7.366   3.513
 7421TIP3    H222221   8.093   7.252   3.538
 7422TIP3   OH222222   7.160   3.058   1.420
 7422TIP3    H122223   7.110   3.135   1.447
 7422TIP3    H222224   7.148   3.054   1.325
 7423TIP3   OH222225   3.604   0.342   4.226
 7423TIP3    H122226   3.651   0.286   4.164
 7423TIP3    H222227   3.544   0.283   4.272
 7424TIP3   OH222228   2.785   0.281   1.387
 7424TIP3    H122229   2.723   0.209   1.376
 7424TIP3    H222230   2.846   0.270   1.314
 7425TIP3   OH222231   8.108   0.293   1.885
 7425TIP3    H122232   8.192   0.335   1.867
 7425TIP3    H222233   8.113   0.209   1.839
 7426TIP3   OH222234   3.193   0.272   1.632
 7426TIP3    H122235   3.220   0.343   1.689
 7426TIP3    H222236   3.203   0.193   1.685
 7427TIP3   OH222237   6.408   1.301   3.033
 7427TIP3    H122238   6.457   1.220   3.015
 7427TIP3    H222239   6.446   1.333   3.115
 7428TIP3   OH222240   2.983   3.706   3.782
 7428TIP3    H122241   2.946   3.662   3.859
 7428TIP3    H222242   2.992   3.636   3.717
 7429TIP3   OH222243   4.685   3.790   1.088
 7429TIP3    H122244   4.637   3.869   1.113
 7429TIP3    H222245   4.756   3.784   1.151
 7430TIP3   OH222246   8.179   4.631   2.162
 7430TIP3    H122247   8.148   4.567   2.098
 7430TIP3    H222248   8.163   4.589   2.247
 7431TIP3   OH222249   6.039   6.221   1.132
 7431TIP3    H122250   6.110   6.159   1.149
 7431TIP3    H222251   5.959   6.167   1.134
 7432TIP3   OH222252   7.053   1.095   5.632
 7432TIP3    H122253   7.121   1.036   5.600
 7432TIP3    H222254   6.972   1.044   5.627
 7433TIP3   OH222255   6.726   6.928   2.435
 7433TIP3    H122256   6.804   6.877   2.460
 7433TIP3    H222257   6.668   6.864   2.395
 7434TIP3   OH222258   4.735   7.044   1.103
 7434TIP3    H122259   4.668   7.092   1.056
 7434TIP3    H222260   4.754   6.968   1.048
 7435TIP3   OH222261   5.759   2.219   2.281
 7435TIP3    H122262   5.748   2.151   2.348
 7435TIP3    H222263   5.849   2.209   2.252
 7436TIP3   OH222264   7.394   3.448   0.730
 7436TIP3    H122265   7.338   3.383   0.772
 7436TIP3    H222266   7.341   3.483   0.658
 7437TIP3   OH222267   4.647   1.204   5.414
 7437TIP3    H122268   4.725   1.169   5.459
 7437TIP3    H222269   4.576   1.194   5.478
 7438TIP3   OH222270   0.852   4.459   2.229
 7438TIP3    H122271   0.764   4.444   2.194
 7438TIP3    H222272   0.863   4.554   2.224
 7439TIP3   OH222273   3.852   6.298   5.954
 7439TIP3    H122274   3.912   6.369   5.931
 7439TIP3    H222275   3.907   6.235   6.001
 7440TIP3   OH222276   6.077   0.542   2.421
 7440TIP3    H122277   6.166   0.575   2.409
 7440TIP3    H222278   6.062   0.485   2.345
 7441TIP3   OH222279   1.547   5.834   2.269
 7441TIP3    H122280   1.594   5.779   2.332
 7441TIP3    H222281   1.583   5.922   2.282
 7442TIP3   OH222282   5.825   7.358   1.748
 7442TIP3    H122283   5.877   7.312   1.682
 7442TIP3    H222284   5.767   7.292   1.784
 7443TIP3   OH222285   0.597   2.639   6.079
 7443TIP3    H122286   0.663   2.657   6.145
 7443TIP3    H222287   0.636   2.569   6.025
 7444TIP3   OH222288   1.451   5.558   0.175
 7444TIP3    H122289   1.504   5.617   0.229
 7444TIP3    H222290   1.396   5.617   0.123
 7445TIP3   OH222291   7.910   5.463   1.409
 7445TIP3    H122292   7.876   5.399   1.471
 7445TIP3    H222293   7.992   5.425   1.377
 7446TIP3   OH222294   5.351   3.109   2.037
 7446TIP3    H122295   5.294   3.078   1.967
 7446TIP3    H222296   5.386   3.192   2.005
 7447TIP3   OH222297   6.101   1.236   6.068
 7447TIP3    H122298   6.077   1.199   6.153
 7447TIP3    H222299   6.195   1.250   6.073
 7448TIP3   OH222300   5.184   5.801   0.697
 7448TIP3    H122301   5.227   5.887   0.695
 7448TIP3    H222302   5.092   5.820   0.710
 7449TIP3   OH222303   2.510   4.972   4.161
 7449TIP3    H122304   2.493   5.062   4.189
 7449TIP3    H222305   2.475   4.967   4.072
 7450TIP3   OH222306   1.887   0.581   2.004
 7450TIP3    H122307   1.895   0.667   1.964
 7450TIP3    H222308   1.972   0.539   1.989
 7451TIP3   OH222309   7.881   0.285   1.504
 7451TIP3    H122310   7.794   0.289   1.466
 7451TIP3    H222311   7.868   0.242   1.589
 7452TIP3   OH222312   0.716   2.547   2.915
 7452TIP3    H122313   0.709   2.509   2.827
 7452TIP3    H222314   0.668   2.487   2.971
 7453TIP3   OH222315   3.742   7.547   1.192
 7453TIP3    H122316   3.768   7.457   1.173
 7453TIP3    H222317   3.801   7.575   1.262
 7454TIP3   OH222318   4.099   0.504   5.421
 7454TIP3    H122319   4.043   0.430   5.444
 7454TIP3    H222320   4.038   0.568   5.383
 7455TIP3   OH222321   0.717   5.853   0.618
 7455TIP3    H122322   0.625   5.832   0.603
 7455TIP3    H222323   0.720   5.885   0.708
 7456TIP3   OH222324   3.909   3.760   1.569
 7456TIP3    H122325   3.948   3.846   1.584
 7456TIP3    H222326   3.892   3.758   1.475
 7457TIP3   OH222327   1.079   4.274   1.350
 7457TIP3    H122328   1.066   4.331   1.425
 7457TIP3    H222329   0.994   4.274   1.305
 7458TIP3   OH222330   0.931   6.062   0.702
 7458TIP3    H122331   0.977   5.996   0.649
 7458TIP3    H222332   0.912   6.017   0.785
 7459TIP3   OH222333   5.923   0.327   5.556
 7459TIP3    H122334   5.983   0.333   5.482
 7459TIP3    H222335   5.891   0.417   5.568
 7460TIP3   OH222336   6.450   1.960   5.385
 7460TIP3    H122337   6.454   1.869   5.416
 7460TIP3    H222338   6.487   1.956   5.297
 7461TIP3   OH222339   4.978   0.592   4.087
 7461TIP3    H122340   4.963   0.680   4.051
 7461TIP3    H222341   4.951   0.599   4.178
 7462TIP3   OH222342   4.107   2.591   6.039
 7462TIP3    H122343   4.170   2.540   5.988
 7462TIP3    H222344   4.161   2.658   6.082
 7463TIP3   OH222345   8.062   0.679   2.141
 7463TIP3    H122346   7.978   0.721   2.119
 7463TIP3    H222347   8.121   0.753   2.158
 7464TIP3   OH222348   0.321   7.080   3.175
 7464TIP3    H122349   0.268   7.005   3.149
 7464TIP3    H222350   0.302   7.146   3.108
 7465TIP3   OH222351   8.075   3.793   2.822
 7465TIP3    H122352   8.131   3.800   2.899
 7465TIP3    H222353   8.135   3.771   2.751
 7466TIP3   OH222354   5.070   1.737   1.959
 7466TIP3    H122355   5.031   1.653   1.985
 7466TIP3    H222356   5.055   1.795   2.034
 7467TIP3   OH222357   0.043   6.227   1.705
 7467TIP3    H122358   0.094   6.148   1.685
 7467TIP3    H222359   0.103   6.282   1.755
 7468TIP3   OH222360   1.581   4.458   4.609
 7468TIP3    H122361   1.597   4.542   4.565
 7468TIP3    H222362   1.486   4.455   4.620
 7469TIP3   OH222363   8.211   1.385   3.993
 7469TIP3    H122364   8.121   1.362   3.972
 7469TIP3    H222365   8.205   1.466   4.043
 7470TIP3   OH222366   7.420   0.246   4.065
 7470TIP3    H122367   7.418   0.214   4.155
 7470TIP3    H222368   7.391   0.337   4.071
 7471TIP3   OH222369   7.456   7.806   3.953
 7471TIP3    H122370   7.376   7.766   3.988
 7471TIP3    H222371   7.441   7.808   3.858
 7472TIP3   OH222372   7.694   1.055   2.132
 7472TIP3    H122373   7.668   0.971   2.093
 7472TIP3    H222374   7.627   1.116   2.101
 7473TIP3   OH222375   5.872   2.895   3.929
 7473TIP3    H122376   5.955   2.941   3.914
 7473TIP3    H222377   5.814   2.961   3.968
 7474TIP3   OH222378   7.435   5.016   1.848
 7474TIP3    H122379   7.480   4.996   1.766
 7474TIP3    H222380   7.445   5.110   1.859
 7475TIP3   OH222381   0.197   1.136   1.644
 7475TIP3    H122382   0.211   1.224   1.610
 7475TIP3    H222383   0.280   1.112   1.685
 7476TIP3   OH222384   7.620   2.538   1.754
 7476TIP3    H122385   7.617   2.616   1.699
 7476TIP3    H222386   7.714   2.522   1.767
 7477TIP3   OH222387   7.744   0.333   5.609
 7477TIP3    H122388   7.757   0.241   5.585
 7477TIP3    H222389   7.788   0.343   5.693
 7478TIP3   OH222390   6.301   3.726   4.566
 7478TIP3    H122391   6.386   3.743   4.526
 7478TIP3    H222392   6.278   3.808   4.609
 7479TIP3   OH222393   3.469   0.084   5.402
 7479TIP3    H122394   3.490   0.136   5.325
 7479TIP3    H222395   3.385   0.117   5.432
 7480TIP3   OH222396   0.370   6.802   3.683
 7480TIP3    H122397   0.358   6.847   3.766
 7480TIP3    H222398   0.438   6.852   3.638
 7481TIP3   OH222399   3.693   6.888   2.776
 7481TIP3    H122400   3.696   6.984   2.783
 7481TIP3    H222401   3.649   6.859   2.856
 7482TIP3   OH222402   7.624   5.291   0.279
 7482TIP3    H122403   7.644   5.255   0.192
 7482TIP3    H222404   7.530   5.276   0.289
 7483TIP3   OH222405   2.487   5.736   4.573
 7483TIP3    H122406   2.491   5.641   4.566
 7483TIP3    H222407   2.438   5.764   4.495
 7484TIP3   OH222408   0.812   1.554   1.707
 7484TIP3    H122409   0.838   1.646   1.708
 7484TIP3    H222410   0.880   1.509   1.757
 7485TIP3   OH222411   0.142   0.465   3.788
 7485TIP3    H122412   0.193   0.546   3.786
 7485TIP3    H222413   0.175   0.414   3.714
 7486TIP3   OH222414   2.867   3.678   5.790
 7486TIP3    H122415   2.941   3.705   5.736
 7486TIP3    H222416   2.839   3.595   5.753
 7487TIP3   OH222417   3.633   2.977   2.908
 7487TIP3    H122418   3.583   2.929   2.841
 7487TIP3    H222419   3.567   3.022   2.960
 7488TIP3   OH222420   7.855   4.122   3.851
 7488TIP3    H122421   7.796   4.063   3.802
 7488TIP3    H222422   7.914   4.063   3.897
 7489TIP3   OH222423   1.231   7.465   1.488
 7489TIP3    H122424   1.229   7.423   1.573
 7489TIP3    H222425   1.303   7.423   1.441
 7490TIP3   OH222426   6.217   3.806   5.426
 7490TIP3    H122427   6.205   3.731   5.485
 7490TIP3    H222428   6.256   3.873   5.481
 7491TIP3   OH222429   7.286   4.768   4.010
 7491TIP3    H122430   7.251   4.698   4.066
 7491TIP3    H222431   7.300   4.726   3.926
 7492TIP3   OH222432   3.977   1.766   1.183
 7492TIP3    H122433   4.031   1.704   1.232
 7492TIP3    H222434   3.914   1.799   1.247
 7493TIP3   OH222435   3.035   0.412   3.361
 7493TIP3    H122436   2.949   0.453   3.360
 7493TIP3    H222437   3.021   0.326   3.400
 7494TIP3   OH222438   1.846   1.101   5.893
 7494TIP3    H122439   1.916   1.074   5.834
 7494TIP3    H222440   1.768   1.056   5.860
 7495TIP3   OH222441   1.946   6.044   5.791
 7495TIP3    H122442   1.987   6.099   5.724
 7495TIP3    H222443   1.925   5.962   5.746
 7496TIP3   OH222444   0.874   7.383   1.591
 7496TIP3    H122445   0.818   7.306   1.579
 7496TIP3    H222446   0.935   7.381   1.517
 7497TIP3   OH222447   2.424   0.285   5.724
 7497TIP3    H122448   2.494   0.237   5.767
 7497TIP3    H222449   2.344   0.242   5.752
 7498TIP3   OH222450   0.855   6.365   2.990
 7498TIP3    H122451   0.772   6.411   2.988
 7498TIP3    H222452   0.835   6.277   2.957
 7499TIP3   OH222453   2.911   4.245   5.175
 7499TIP3    H122454   2.863   4.213   5.099
 7499TIP3    H222455   2.925   4.338   5.157
 7500TIP3   OH222456   6.490   7.434   4.713
 7500TIP3    H122457   6.406   7.458   4.672
 7500TIP3    H222458   6.465   7.398   4.798
 7501TIP3   OH222459   2.742   6.623   5.936
 7501TIP3    H122460   2.718   6.704   5.891
 7501TIP3    H222461   2.829   6.641   5.972
 7502TIP3   OH222462   2.122   2.619   1.078
 7502TIP3    H122463   2.119   2.652   0.988
 7502TIP3    H222464   2.032   2.595   1.098
 7503TIP3   OH222465   7.618   7.567   4.019
 7503TIP3    H122466   7.579   7.654   4.026
 7503TIP3    H222467   7.614   7.546   3.926
 7504TIP3   OH222468   1.640   6.080   3.730
 7504TIP3    H122469   1.606   6.157   3.775
 7504TIP3    H222470   1.626   6.008   3.791
 7505TIP3   OH222471   1.899   2.398   1.125
 7505TIP3    H122472   1.897   2.326   1.062
 7505TIP3    H222473   1.857   2.363   1.203
 7506TIP3   OH222474   1.979   5.496   1.503
 7506TIP3    H122475   1.944   5.497   1.592
 7506TIP3    H222476   1.902   5.500   1.447
 7507TIP3   OH222477   6.676   4.468   4.169
 7507TIP3    H122478   6.699   4.558   4.143
 7507TIP3    H222479   6.632   4.478   4.253
 7508TIP3   OH222480   6.931   4.462   3.463
 7508TIP3    H122481   6.890   4.548   3.449
 7508TIP3    H222482   7.000   4.458   3.398
 7509TIP3   OH222483   7.091   7.797   0.772
 7509TIP3    H122484   7.103   7.713   0.729
 7509TIP3    H222485   7.071   7.858   0.701
 7510TIP3   OH222486   0.401   6.000   5.596
 7510TIP3    H122487   0.333   6.066   5.612
 7510TIP3    H222488   0.378   5.927   5.653
 7511TIP3   OH222489   8.079   5.087   0.588
 7511TIP3    H122490   8.034   5.142   0.524
 7511TIP3    H222491   8.023   5.010   0.598
 7512TIP3   OH222492   5.568   2.430   6.287
 7512TIP3    H122493   5.583   2.513   6.241
 7512TIP3    H222494   5.510   2.452   6.359
 7513TIP3   OH222495   2.441   1.154   5.281
 7513TIP3    H122496   2.447   1.197   5.367
 7513TIP3    H222497   2.363   1.099   5.287
 7514TIP3   OH222498   0.473   4.675   0.702
 7514TIP3    H122499   0.469   4.748   0.640
 7514TIP3    H222500   0.469   4.596   0.648
 7515TIP3   OH222501   3.088   5.308   5.847
 7515TIP3    H122502   3.054   5.374   5.786
 7515TIP3    H222503   3.165   5.273   5.803
 7516TIP3   OH222504   2.131   4.714   2.270
 7516TIP3    H122505   2.111   4.808   2.274
 7516TIP3    H222506   2.223   4.710   2.246
 7517TIP3   OH222507   2.256   7.676   1.804
 7517TIP3    H122508   2.207   7.751   1.837
 7517TIP3    H222509   2.332   7.670   1.861
 7518TIP3   OH222510   3.576   4.468   4.817
 7518TIP3    H122511   3.561   4.543   4.875
 7518TIP3    H222512   3.491   4.452   4.776
 7519TIP3   OH222513   2.234   1.693   5.638
 7519TIP3    H122514   2.149   1.704   5.682
 7519TIP3    H222515   2.280   1.629   5.692
 7520TIP3   OH222516   4.785   3.950   3.169
 7520TIP3    H122517   4.730   3.942   3.247
 7520TIP3    H222518   4.874   3.959   3.203
 7521TIP3   OH222519   2.067   4.641   4.356
 7521TIP3    H122520   2.139   4.599   4.403
 7521TIP3    H222521   2.098   4.649   4.266
 7522TIP3   OH222522   6.372   3.220   2.194
 7522TIP3    H122523   6.315   3.249   2.266
 7522TIP3    H222524   6.445   3.176   2.237
 7523TIP3   OH222525   6.517   3.877   1.930
 7523TIP3    H122526   6.528   3.867   2.025
 7523TIP3    H222527   6.477   3.963   1.919
 7524TIP3   OH222528   0.419   4.355   3.927
 7524TIP3    H122529   0.346   4.417   3.927
 7524TIP3    H222530   0.484   4.396   3.869
 7525TIP3   OH222531   6.757   1.170   4.295
 7525TIP3    H122532   6.675   1.135   4.261
 7525TIP3    H222533   6.789   1.227   4.225
 7526TIP3   OH222534   5.656   7.439   4.522
 7526TIP3    H122535   5.594   7.462   4.452
 7526TIP3    H222536   5.688   7.523   4.554
 7527TIP3   OH222537   3.692   4.101   3.349
 7527TIP3    H122538   3.748   4.098   3.271
 7527TIP3    H222539   3.632   4.028   3.338
 7528TIP3   OH222540   4.746   2.833   6.732
 7528TIP3    H122541   4.809   2.873   6.672
 7528TIP3    H222542   4.800   2.799   6.804
 7529TIP3   OH222543   0.915   4.733   5.321
 7529TIP3    H122544   0.972   4.657   5.310
 7529TIP3    H222545   0.908   4.771   5.234
 7530TIP3   OH222546   3.807   2.773   3.366
 7530TIP3    H122547   3.836   2.815   3.285
 7530TIP3    H222548   3.741   2.710   3.337
 7531TIP3   OH222549   0.625   6.690   4.940
 7531TIP3    H122550   0.679   6.768   4.954
 7531TIP3    H222551   0.594   6.698   4.850
 7532TIP3   OH222552   3.823   2.166   2.097
 7532TIP3    H122553   3.910   2.149   2.060
 7532TIP3    H222554   3.773   2.087   2.077
 7533TIP3   OH222555   0.091   3.005   6.081
 7533TIP3    H122556   0.086   3.026   5.988
 7533TIP3    H222557   0.157   3.065   6.116
 7534TIP3   OH222558   8.013   1.251   0.964
 7534TIP3    H122559   7.996   1.346   0.967
 7534TIP3    H222560   8.107   1.243   0.982
 7535TIP3   OH222561   4.373   2.977   2.174
 7535TIP3    H122562   4.426   2.970   2.254
 7535TIP3    H222563   4.411   3.051   2.126
 7536TIP3   OH222564   2.899   0.495   5.005
 7536TIP3    H122565   2.895   0.500   5.100
 7536TIP3    H222566   2.842   0.421   4.983
 7537TIP3   OH222567   1.335   4.813   5.836
 7537TIP3    H122568   1.331   4.836   5.929
 7537TIP3    H222569   1.246   4.783   5.815
 7538TIP3   OH222570   4.439   3.650   3.987
 7538TIP3    H122571   4.386   3.605   3.921
 7538TIP3    H222572   4.465   3.581   4.048
 7539TIP3   OH222573   7.650   6.253   3.796
 7539TIP3    H122574   7.742   6.275   3.781
 7539TIP3    H222575   7.601   6.323   3.753
 7540TIP3   OH222576   1.737   7.716   3.298
 7540TIP3    H122577   1.805   7.682   3.241
 7540TIP3    H222578   1.713   7.642   3.353
 7541TIP3   OH222579   1.650   7.024   4.350
 7541TIP3    H122580   1.740   7.000   4.325
 7541TIP3    H222581   1.642   6.995   4.441
 7542TIP3   OH222582   2.257   5.933   1.407
 7542TIP3    H122583   2.216   5.851   1.380
 7542TIP3    H222584   2.229   5.944   1.498
 7543TIP3   OH222585   4.917   4.954   2.134
 7543TIP3    H122586   4.944   4.863   2.142
 7543TIP3    H222587   4.968   5.000   2.200
 7544TIP3   OH222588   4.423   4.114   2.959
 7544TIP3    H122589   4.447   4.137   2.869
 7544TIP3    H222590   4.489   4.156   3.013
 7545TIP3   OH222591   0.727   4.734   1.009
 7545TIP3    H122592   0.715   4.817   0.963
 7545TIP3    H222593   0.803   4.694   0.967
 7546TIP3   OH222594   6.535   4.838   3.384
 7546TIP3    H122595   6.531   4.858   3.291
 7546TIP3    H222596   6.625   4.809   3.398
 7547TIP3   OH222597   7.685   1.378   3.137
 7547TIP3    H122598   7.695   1.410   3.226
 7547TIP3    H222599   7.603   1.417   3.107
 7548TIP3   OH222600   4.619   6.012   1.404
 7548TIP3    H122601   4.667   6.012   1.487
 7548TIP3    H222602   4.676   6.059   1.343
 7549TIP3   OH222603   7.790   3.548   3.775
 7549TIP3    H122604   7.805   3.482   3.843
 7549TIP3    H222605   7.856   3.615   3.791
 7550TIP3   OH222606   5.320   5.894   0.046
 7550TIP3    H122607   5.297   5.983   0.073
 7550TIP3    H222608   5.383   5.907  -0.025
 7551TIP3   OH222609   5.329   5.074   3.545
 7551TIP3    H122610   5.384   5.152   3.543
 7551TIP3    H222611   5.374   5.015   3.606
 7552TIP3   OH222612   4.024   7.499   3.010
 7552TIP3    H122613   3.947   7.534   3.055
 7552TIP3    H222614   4.076   7.459   3.079
 7553TIP3   OH222615   0.960   6.072   6.561
 7553TIP3    H122616   1.010   6.079   6.479
 7553TIP3    H222617   1.010   6.009   6.613
 7554TIP3   OH222618   1.692   0.710   5.993
 7554TIP3    H122619   1.787   0.700   5.991
 7554TIP3    H222620   1.663   0.691   5.904
 7555TIP3   OH222621   4.367   4.038   6.602
 7555TIP3    H122622   4.304   3.974   6.567
 7555TIP3    H222623   4.358   4.114   6.544
 7556TIP3   OH222624   5.234   4.598   3.722
 7556TIP3    H122625   5.293   4.569   3.792
 7556TIP3    H222626   5.171   4.656   3.765
 7557TIP3   OH222627   3.469   4.934   1.088
 7557TIP3    H122628   3.378   4.908   1.081
 7557TIP3    H222629   3.488   4.979   1.005
 7558TIP3   OH222630   5.419   1.404   5.515
 7558TIP3    H122631   5.495   1.459   5.533
 7558TIP3    H222632   5.409   1.406   5.420
 7559TIP3   OH222633   7.113   3.622   3.961
 7559TIP3    H122634   7.070   3.699   3.924
 7559TIP3    H222635   7.046   3.583   4.018
 7560TIP3   OH222636   2.990   3.218   3.717
 7560TIP3    H122637   2.902   3.200   3.750
 7560TIP3    H222638   3.025   3.284   3.777
 7561TIP3   OH222639   6.497   4.444   4.435
 7561TIP3    H122640   6.492   4.349   4.442
 7561TIP3    H222641   6.502   4.474   4.526
 7562TIP3   OH222642   8.163   5.753   3.935
 7562TIP3    H122643   8.127   5.789   4.016
 7562TIP3    H222644   8.102   5.683   3.911
 7563TIP3   OH222645   3.814   4.431   2.571
 7563TIP3    H122646   3.820   4.514   2.617
 7563TIP3    H222647   3.720   4.413   2.565
 7564TIP3   OH222648   7.953   2.033   0.228
 7564TIP3    H122649   7.874   1.991   0.262
 7564TIP3    H222650   7.949   2.123   0.260
 7565TIP3   OH222651   5.714   7.274   6.045
 7565TIP3    H122652   5.724   7.184   6.015
 7565TIP3    H222653   5.637   7.272   6.102
 7566TIP3   OH222654   7.783   1.740   5.830
 7566TIP3    H122655   7.792   1.803   5.759
 7566TIP3    H222656   7.793   1.654   5.789
 7567TIP3   OH222657   3.865   4.382   5.079
 7567TIP3    H122658   3.919   4.457   5.054
 7567TIP3    H222659   3.845   4.339   4.996
 7568TIP3   OH222660   0.377   6.067   3.989
 7568TIP3    H122661   0.295   6.024   4.011
 7568TIP3    H222662   0.407   6.024   3.909
 7569TIP3   OH222663   1.589   0.145   4.511
 7569TIP3    H122664   1.565   0.153   4.419
 7569TIP3    H222665   1.675   0.187   4.517
 7570TIP3   OH222666   4.800   1.973   5.420
 7570TIP3    H122667   4.889   1.967   5.385
 7570TIP3    H222668   4.756   1.896   5.384
 7571TIP3   OH222669   2.933   1.336   6.201
 7571TIP3    H122670   3.019   1.296   6.216
 7571TIP3    H222671   2.950   1.404   6.136
 7572TIP3   OH222672   7.753   5.191   4.586
 7572TIP3    H122673   7.762   5.212   4.493
 7572TIP3    H222674   7.825   5.130   4.605
 7573TIP3   OH222675   4.918   6.066   2.621
 7573TIP3    H122676   4.947   5.977   2.644
 7573TIP3    H222677   4.824   6.056   2.602
 7574TIP3   OH222678   0.557   3.978   1.561
 7574TIP3    H122679   0.592   4.067   1.557
 7574TIP3    H222680   0.481   3.979   1.503
 7575TIP3   OH222681   6.799   0.803   4.567
 7575TIP3    H122682   6.710   0.838   4.579
 7575TIP3    H222683   6.796   0.717   4.608
 7576TIP3   OH222684   2.058   5.975   3.379
 7576TIP3    H122685   2.129   5.931   3.425
 7576TIP3    H222686   2.082   5.971   3.287
 7577TIP3   OH222687   0.752   1.324   4.721
 7577TIP3    H122688   0.774   1.292   4.809
 7577TIP3    H222689   0.724   1.245   4.674
 7578TIP3   OH222690   2.882   3.910   1.390
 7578TIP3    H122691   2.882   3.830   1.337
 7578TIP3    H222692   2.887   3.981   1.327
 7579TIP3   OH222693   7.409   0.607   5.292
 7579TIP3    H122694   7.328   0.559   5.306
 7579TIP3    H222695   7.462   0.587   5.369
 7580TIP3   OH222696   7.432   7.027   4.686
 7580TIP3    H122697   7.338   7.016   4.694
 7580TIP3    H222698   7.456   7.082   4.761
 7581TIP3   OH222699   6.139   4.502   3.739
 7581TIP3    H122700   6.103   4.575   3.790
 7581TIP3    H222701   6.234   4.509   3.752
 7582TIP3   OH222702   6.177   4.773   1.707
 7582TIP3    H122703   6.265   4.736   1.714
 7582TIP3    H222704   6.120   4.704   1.741
 7583TIP3   OH222705   2.092   4.020   0.991
 7583TIP3    H122706   2.145   4.084   0.943
 7583TIP3    H222707   2.041   4.074   1.053
 7584TIP3   OH222708   2.449   0.599   3.494
 7584TIP3    H122709   2.423   0.639   3.412
 7584TIP3    H222710   2.500   0.666   3.539
 7585TIP3   OH222711   5.037   4.727   1.868
 7585TIP3    H122712   5.094   4.804   1.865
 7585TIP3    H222713   5.097   4.653   1.878
 7586TIP3   OH222714   3.209   6.045   2.422
 7586TIP3    H122715   3.242   6.128   2.388
 7586TIP3    H222716   3.223   5.983   2.351
 7587TIP3   OH222717   2.112   7.586   4.450
 7587TIP3    H122718   2.129   7.631   4.367
 7587TIP3    H222719   2.155   7.501   4.440
 7588TIP3   OH222720   6.244   0.407   4.752
 7588TIP3    H122721   6.209   0.400   4.841
 7588TIP3    H222722   6.171   0.381   4.696
 7589TIP3   OH222723   5.845   4.883   0.317
 7589TIP3    H122724   5.809   4.961   0.359
 7589TIP3    H222725   5.900   4.916   0.247
 7590TIP3   OH222726   7.144   1.481   5.178
 7590TIP3    H122727   7.215   1.541   5.200
 7590TIP3    H222728   7.151   1.469   5.083
 7591TIP3   OH222729   6.674   4.509   2.527
 7591TIP3    H122730   6.734   4.574   2.564
 7591TIP3    H222731   6.674   4.527   2.433
 7592TIP3   OH222732   5.720   1.567   0.345
 7592TIP3    H122733   5.786   1.620   0.300
 7592TIP3    H222734   5.737   1.477   0.314
 7593TIP3   OH222735   4.065   1.346   0.448
 7593TIP3    H122736   4.157   1.333   0.425
 7593TIP3    H222737   4.038   1.423   0.399
 7594TIP3   OH222738   0.106   5.792   4.975
 7594TIP3    H122739   0.022   5.827   4.947
 7594TIP3    H222740   0.130   5.847   5.050
 7595TIP3   OH222741   4.170   0.369   2.800
 7595TIP3    H122742   4.236   0.326   2.745
 7595TIP3    H222743   4.192   0.343   2.889
 7596TIP3   OH222744   4.545   1.515   1.657
 7596TIP3    H122745   4.501   1.572   1.594
 7596TIP3    H222746   4.634   1.505   1.623
 7597TIP3   OH222747   2.518   1.991   0.187
 7597TIP3    H122748   2.532   2.002   0.093
 7597TIP3    H222749   2.486   2.076   0.217
 7598TIP3   OH222750   6.333   5.877   6.202
 7598TIP3    H122751   6.295   5.958   6.236
 7598TIP3    H222752   6.372   5.903   6.118
 7599TIP3   OH222753   1.654   4.712   3.698
 7599TIP3    H122754   1.710   4.790   3.705
 7599TIP3    H222755   1.684   4.655   3.769
 7600TIP3   OH222756   7.090   4.757   4.460
 7600TIP3    H122757   7.089   4.677   4.513
 7600TIP3    H222758   7.143   4.819   4.510
 7601TIP3   OH222759   6.937   1.604   2.901
 7601TIP3    H122760   6.870   1.536   2.895
 7601TIP3    H222761   6.892   1.684   2.872
 7602TIP3   OH222762   6.067   6.142   5.678
 7602TIP3    H122763   5.988   6.195   5.693
 7602TIP3    H222764   6.049   6.094   5.597
 7603TIP3   OH222765   0.667   1.103   4.581
 7603TIP3    H122766   0.607   1.051   4.633
 7603TIP3    H222767   0.619   1.120   4.500
 7604TIP3   OH222768   5.522   6.926   5.425
 7604TIP3    H122769   5.574   6.980   5.485
 7604TIP3    H222770   5.586   6.878   5.373
 7605TIP3   OH222771   2.298   2.715   4.216
 7605TIP3    H122772   2.363   2.774   4.176
 7605TIP3    H222773   2.228   2.773   4.245
 7606TIP3   OH222774   2.964   6.121   1.770
 7606TIP3    H122775   2.991   6.061   1.700
 7606TIP3    H222776   2.889   6.077   1.811
 7607TIP3   OH222777   3.380   3.434   5.281
 7607TIP3    H122778   3.370   3.342   5.256
 7607TIP3    H222779   3.453   3.435   5.342
 7608TIP3   OH222780   0.144   2.976   2.507
 7608TIP3    H122781   0.127   2.998   2.599
 7608TIP3    H222782   0.234   2.946   2.506
 7609TIP3   OH222783   7.849   4.397   2.325
 7609TIP3    H122784   7.812   4.480   2.352
 7609TIP3    H222785   7.844   4.342   2.403
 7610TIP3   OH222786   0.374   4.353   2.669
 7610TIP3    H122787   0.444   4.416   2.650
 7610TIP3    H222788   0.378   4.290   2.597
 7611TIP3   OH222789   5.890   4.208   2.706
 7611TIP3    H122790   5.933   4.144   2.650
 7611TIP3    H222791   5.944   4.212   2.785
 7612TIP3   OH222792   0.164   1.599   1.758
 7612TIP3    H122793   0.205   1.593   1.844
 7612TIP3    H222794   0.070   1.596   1.776
 7613TIP3   OH222795   4.931   0.399   4.990
 7613TIP3    H122796   4.982   0.480   4.991
 7613TIP3    H222797   4.931   0.372   4.898
 7614TIP3   OH222798   3.706   4.069   0.028
 7614TIP3    H122799   3.750   4.126   0.092
 7614TIP3    H222800   3.625   4.115   0.007
 7615TIP3   OH222801   2.385   6.186  -0.019
 7615TIP3    H122802   2.425   6.104   0.008
 7615TIP3    H222803   2.327   6.209   0.053
 7616TIP3   OH222804   6.065   0.544   6.178
 7616TIP3    H122805   6.002   0.590   6.122
 7616TIP3    H222806   6.057   0.452   6.153
 7617TIP3   OH222807   3.616   1.625   0.379
 7617TIP3    H122808   3.530   1.586   0.397
 7617TIP3    H222809   3.620   1.701   0.436
 7618TIP3   OH222810   1.333   4.349   4.617
 7618TIP3    H122811   1.281   4.282   4.662
 7618TIP3    H222812   1.336   4.321   4.526
 7619TIP3   OH222813   7.248   6.651   4.108
 7619TIP3    H122814   7.341   6.654   4.131
 7619TIP3    H222815   7.229   6.738   4.073
 7620TIP3   OH222816   7.256   7.178   0.373
 7620TIP3    H122817   7.253   7.218   0.460
 7620TIP3    H222818   7.316   7.104   0.383
 7621TIP3   OH222819   8.156   4.167   6.055
 7621TIP3    H122820   8.076   4.114   6.047
 7621TIP3    H222821   8.204   4.150   5.974
 7622TIP3   OH222822   6.195   1.342   6.710
 7622TIP3    H122823   6.118   1.398   6.706
 7622TIP3    H222824   6.214   1.319   6.619
 7623TIP3   OH222825   5.046   7.234   3.876
 7623TIP3    H122826   5.107   7.308   3.880
 7623TIP3    H222827   5.062   7.185   3.957
 7624TIP3   OH222828   5.505   4.545   3.257
 7624TIP3    H122829   5.586   4.499   3.279
 7624TIP3    H222830   5.533   4.615   3.198
 7625TIP3   OH222831   6.514   6.078   3.384
 7625TIP3    H122832   6.560   6.004   3.424
 7625TIP3    H222833   6.422   6.063   3.405
 7626TIP3   OH222834   3.349   6.382   4.361
 7626TIP3    H122835   3.379   6.362   4.272
 7626TIP3    H222836   3.398   6.460   4.386
 7627TIP3   OH222837   6.142   5.943   2.002
 7627TIP3    H122838   6.119   5.857   1.967
 7627TIP3    H222839   6.194   5.984   1.934
 7628TIP3   OH222840   1.774   7.403   5.599
 7628TIP3    H122841   1.721   7.477   5.571
 7628TIP3    H222842   1.817   7.372   5.520
 7629TIP3   OH222843   2.689   0.256   6.464
 7629TIP3    H122844   2.766   0.276   6.516
 7629TIP3    H222845   2.631   0.208   6.523
 7630TIP3   OH222846   7.519   4.990   2.863
 7630TIP3    H122847   7.572   4.915   2.891
 7630TIP3    H222848   7.580   5.064   2.865
 7631TIP3   OH222849   1.921   0.814   0.480
 7631TIP3    H122850   1.827   0.822   0.465
 7631TIP3    H222851   1.961   0.826   0.394
 7632TIP3   OH222852   3.491   1.521   3.771
 7632TIP3    H122853   3.434   1.526   3.695
 7632TIP3    H222854   3.547   1.446   3.754
 7633TIP3   OH222855   6.517   1.304   3.897
 7633TIP3    H122856   6.597   1.319   3.947
 7633TIP3    H222857   6.448   1.301   3.962
 7634TIP3   OH222858   4.436   5.337   0.546
 7634TIP3    H122859   4.531   5.324   0.555
 7634TIP3    H222860   4.400   5.249   0.540
 7635TIP3   OH222861   3.396   6.784   0.537
 7635TIP3    H122862   3.311   6.815   0.568
 7635TIP3    H222863   3.445   6.864   0.517
 7636TIP3   OH222864   0.873   0.948   3.692
 7636TIP3    H122865   0.928   0.875   3.719
 7636TIP3    H222866   0.858   0.933   3.598
 7637TIP3   OH222867   5.052   7.130   0.712
 7637TIP3    H122868   5.068   7.093   0.799
 7637TIP3    H222869   4.965   7.169   0.718
 7638TIP3   OH222870   6.372   4.038   2.414
 7638TIP3    H122871   6.327   4.123   2.418
 7638TIP3    H222872   6.347   4.002   2.329
 7639TIP3   OH222873   5.799   6.031   1.138
 7639TIP3    H122874   5.741   6.038   1.214
 7639TIP3    H222875   5.836   5.943   1.144
 7640TIP3   OH222876   6.803   3.713   2.143
 7640TIP3    H122877   6.898   3.695   2.143
 7640TIP3    H222878   6.789   3.766   2.065
 7641TIP3   OH222879   1.136   3.816   3.849
 7641TIP3    H122880   1.142   3.897   3.900
 7641TIP3    H222881   1.068   3.833   3.784
 7642TIP3   OH222882   1.200   3.933   5.313
 7642TIP3    H122883   1.128   3.986   5.279
 7642TIP3    H222884   1.261   3.924   5.240
 7643TIP3   OH222885   2.333   7.376   6.655
 7643TIP3    H122886   2.376   7.423   6.726
 7643TIP3    H222887   2.394   7.305   6.634
 7644TIP3   OH222888   3.394   0.655   1.269
 7644TIP3    H122889   3.442   0.575   1.291
 7644TIP3    H222890   3.423   0.718   1.336
 7645TIP3   OH222891   5.246   3.779   0.884
 7645TIP3    H122892   5.216   3.729   0.809
 7645TIP3    H222893   5.186   3.754   0.955
 7646TIP3   OH222894   7.827   1.549   5.648
 7646TIP3    H122895   7.871   1.464   5.658
 7646TIP3    H222896   7.744   1.528   5.606
 7647TIP3   OH222897   6.532   7.351   0.051
 7647TIP3    H122898   6.566   7.323   0.136
 7647TIP3    H222899   6.578   7.296  -0.012
 7648TIP3   OH222900   1.319   0.448   5.838
 7648TIP3    H122901   1.394   0.496   5.803
 7648TIP3    H222902   1.243   0.499   5.811
 7649TIP3   OH222903   6.130   6.321   3.936
 7649TIP3    H122904   6.099   6.322   4.027
 7649TIP3    H222905   6.166   6.233   3.925
 7650TIP3   OH222906   3.876   3.896   5.976
 7650TIP3    H122907   3.817   3.882   6.050
 7650TIP3    H222908   3.852   3.982   5.942
 7651TIP3   OH222909   1.982   5.911   0.236
 7651TIP3    H122910   1.892   5.906   0.205
 7651TIP3    H222911   2.034   5.930   0.158
 7652TIP3   OH222912   3.150   4.551   0.983
 7652TIP3    H122913   3.105   4.477   0.941
 7652TIP3    H222914   3.206   4.587   0.914
 7653TIP3   OH222915   1.353   1.459   4.402
 7653TIP3    H122916   1.407   1.518   4.350
 7653TIP3    H222917   1.317   1.397   4.339
 7654TIP3   OH222918   4.847   5.921   5.147
 7654TIP3    H122919   4.811   5.866   5.077
 7654TIP3    H222920   4.899   5.987   5.102
 7655TIP3   OH222921   5.447   6.558   1.677
 7655TIP3    H122922   5.520   6.506   1.710
 7655TIP3    H222923   5.405   6.593   1.755
 7656TIP3   OH222924   1.833   1.689   3.589
 7656TIP3    H122925   1.888   1.755   3.547
 7656TIP3    H222926   1.873   1.606   3.565
 7657TIP3   OH222927   0.748   3.000   1.077
 7657TIP3    H122928   0.714   2.964   0.995
 7657TIP3    H222929   0.670   3.034   1.122
 7658TIP3   OH222930   0.783   4.907   5.745
 7658TIP3    H122931   0.829   4.828   5.716
 7658TIP3    H222932   0.702   4.876   5.784
 7659TIP3   OH222933   1.049   4.598   1.840
 7659TIP3    H122934   1.071   4.609   1.747
 7659TIP3    H222935   0.980   4.663   1.856
 7660TIP3   OH222936   6.043   5.068   2.775
 7660TIP3    H122937   6.107   5.139   2.780
 7660TIP3    H222938   6.087   4.999   2.725
 7661TIP3   OH222939   0.445   5.830   5.050
 7661TIP3    H122940   0.437   5.752   4.994
 7661TIP3    H222941   0.372   5.822   5.112
 7662TIP3   OH222942   4.506   0.966   3.952
 7662TIP3    H122943   4.430   0.984   4.008
 7662TIP3    H222944   4.573   1.028   3.981
 7663TIP3   OH222945   7.076   0.871   4.846
 7663TIP3    H122946   7.171   0.871   4.862
 7663TIP3    H222947   7.043   0.800   4.901
 7664TIP3   OH222948   5.341   7.100   3.813
 7664TIP3    H122949   5.308   7.010   3.807
 7664TIP3    H222950   5.409   7.097   3.879
 7665TIP3   OH222951   3.474   3.931   0.249
 7665TIP3    H122952   3.408   3.902   0.185
 7665TIP3    H222953   3.531   3.855   0.260
 7666TIP3   OH222954   1.181   3.662   3.542
 7666TIP3    H122955   1.123   3.723   3.587
 7666TIP3    H222956   1.269   3.688   3.569
 7667TIP3   OH222957   6.529   3.976   5.208
 7667TIP3    H122958   6.553   3.973   5.116
 7667TIP3    H222959   6.601   3.931   5.253
 7668TIP3   OH222960   2.724   7.205   1.787
 7668TIP3    H122961   2.632   7.182   1.774
 7668TIP3    H222962   2.760   7.210   1.699
 7669TIP3   OH222963   5.846   5.783   6.046
 7669TIP3    H122964   5.901   5.855   6.075
 7669TIP3    H222965   5.906   5.710   6.034
 7670TIP3   OH222966   4.154   1.012   2.609
 7670TIP3    H122967   4.103   0.936   2.637
 7670TIP3    H222968   4.240   0.999   2.650
 7671TIP3   OH222969   1.591   7.630   3.662
 7671TIP3    H122970   1.626   7.545   3.636
 7671TIP3    H222971   1.659   7.693   3.638
 7672TIP3   OH222972   0.712   4.080   4.168
 7672TIP3    H122973   0.759   4.000   4.147
 7672TIP3    H222974   0.771   4.128   4.226
 7673TIP3   OH222975   5.211   2.905   4.399
 7673TIP3    H122976   5.173   2.881   4.314
 7673TIP3    H222977   5.246   2.823   4.434
 7674TIP3   OH222978   5.020   6.995   4.569
 7674TIP3    H122979   5.081   7.062   4.599
 7674TIP3    H222980   4.950   6.996   4.634
 7675TIP3   OH222981   7.142   2.581   0.936
 7675TIP3    H122982   7.138   2.519   1.010
 7675TIP3    H222983   7.068   2.556   0.881
 7676TIP3   OH222984   0.376   3.974   5.444
 7676TIP3    H122985   0.441   3.909   5.472
 7676TIP3    H222986   0.356   3.949   5.354
 7677TIP3   OH222987   1.752   5.379   5.368
 7677TIP3    H122988   1.761   5.289   5.399
 7677TIP3    H222989   1.838   5.399   5.330
 7678TIP3   OH222990   5.130   6.979   3.623
 7678TIP3    H122991   5.184   7.058   3.625
 7678TIP3    H222992   5.040   7.011   3.627
 7679TIP3   OH222993   0.989   7.222   3.231
 7679TIP3    H122994   0.998   7.128   3.249
 7679TIP3    H222995   0.953   7.226   3.143
 7680TIP3   OH222996   2.980   3.659   0.376
 7680TIP3    H122997   2.889   3.686   0.364
 7680TIP3    H222998   3.030   3.741   0.371
 7681TIP3   OH222999   1.355   2.562   2.605
 7681TIP3    H123000   1.422   2.594   2.545
 7681TIP3    H223001   1.363   2.618   2.682
 7682TIP3   OH223002   0.090   7.706   5.397
 7682TIP3    H123003   0.170   7.748   5.426
 7682TIP3    H223004   0.027   7.723   5.468
 7683TIP3   OH223005   4.259   3.171   6.613
 7683TIP3    H123006   4.219   3.159   6.699
 7683TIP3    H223007   4.347   3.202   6.632
 7684TIP3   OH223008   5.674   6.470   0.045
 7684TIP3    H123009   5.669   6.547   0.102
 7684TIP3    H223010   5.740   6.494  -0.021
 7685TIP3   OH223011   6.470   2.176   3.216
 7685TIP3    H123012   6.435   2.153   3.130
 7685TIP3    H223013   6.535   2.244   3.198
 7686TIP3   OH223014   5.095   6.867   0.988
 7686TIP3    H123015   5.111   6.961   0.994
 7686TIP3    H223016   5.179   6.830   0.961
 7687TIP3   OH223017   5.604   4.847   0.523
 7687TIP3    H123018   5.669   4.914   0.547
 7687TIP3    H223019   5.556   4.886   0.450
 7688TIP3   OH223020   5.280   6.501   4.876
 7688TIP3    H123021   5.194   6.466   4.851
 7688TIP3    H223022   5.262   6.592   4.901
 7689TIP3   OH223023   6.881   5.742  -0.009
 7689TIP3    H123024   6.835   5.663  -0.039
 7689TIP3    H223025   6.823   5.779   0.057
 7690TIP3   OH223026   7.010   3.526   0.942
 7690TIP3    H123027   7.066   3.526   1.020
 7690TIP3    H223028   7.034   3.606   0.896
 7691TIP3   OH223029   4.987   7.390   0.278
 7691TIP3    H123030   5.082   7.405   0.283
 7691TIP3    H223031   4.948   7.475   0.298
 7692TIP3   OH223032   0.533   7.314   2.639
 7692TIP3    H123033   0.623   7.305   2.607
 7692TIP3    H223034   0.487   7.361   2.570
 7693TIP3   OH223035   6.501   0.375   6.632
 7693TIP3    H123036   6.502   0.409   6.543
 7693TIP3    H223037   6.454   0.292   6.626
 7694TIP3   OH223038   0.677   4.130   3.916
 7694TIP3    H123039   0.639   4.218   3.915
 7694TIP3    H223040   0.714   4.121   4.004
 7695TIP3   OH223041   1.334   2.295   5.063
 7695TIP3    H123042   1.314   2.205   5.089
 7695TIP3    H223043   1.376   2.333   5.141
 7696TIP3   OH223044   4.651   2.320   1.313
 7696TIP3    H123045   4.694   2.280   1.389
 7696TIP3    H223046   4.685   2.409   1.310
 7697TIP3   OH223047   7.112   3.121   3.560
 7697TIP3    H123048   7.106   3.082   3.647
 7697TIP3    H223049   7.206   3.128   3.543
 7698TIP3   OH223050   2.842   6.744   3.137
 7698TIP3    H123051   2.772   6.794   3.179
 7698TIP3    H223052   2.900   6.810   3.100
 7699TIP3   OH223053   6.875   3.323   5.755
 7699TIP3    H123054   6.806   3.342   5.692
 7699TIP3    H223055   6.829   3.289   5.832
 7700TIP3   OH223056   6.009   6.387   2.130
 7700TIP3    H123057   5.961   6.305   2.120
 7700TIP3    H223058   6.070   6.370   2.202
 7701TIP3   OH223059   7.949   0.436   4.001
 7701TIP3    H123060   7.887   0.374   4.040
 7701TIP3    H223061   8.013   0.452   4.070
 7702TIP3   OH223062   6.751   2.045   5.513
 7702TIP3    H123063   6.841   2.058   5.484
 7702TIP3    H223064   6.743   1.950   5.523
 7703TIP3   OH223065   3.417   4.968   6.589
 7703TIP3    H123066   3.466   5.044   6.557
 7703TIP3    H223067   3.339   4.965   6.533
 7704TIP3   OH223068   7.668   0.851   5.724
 7704TIP3    H123069   7.604   0.898   5.778
 7704TIP3    H223070   7.655   0.887   5.636
 7705TIP3   OH223071   1.477   4.721   0.444
 7705TIP3    H123072   1.425   4.766   0.511
 7705TIP3    H223073   1.520   4.650   0.492
 7706TIP3   OH223074   5.563   5.143   3.333
 7706TIP3    H123075   5.595   5.083   3.265
 7706TIP3    H223076   5.606   5.113   3.413
 7707TIP3   OH223077   6.202   0.221   2.302
 7707TIP3    H123078   6.158   0.189   2.381
 7707TIP3    H223079   6.144   0.291   2.270
 7708TIP3   OH223080   6.886   1.417   4.951
 7708TIP3    H123081   6.981   1.414   4.942
 7708TIP3    H223082   6.871   1.420   5.046
 7709TIP3   OH223083   8.040   5.930   5.438
 7709TIP3    H123084   7.986   5.900   5.512
 7709TIP3    H223085   7.982   5.925   5.362
 7710TIP3   OH223086   6.029   3.213   2.855
 7710TIP3    H123087   5.972   3.275   2.900
 7710TIP3    H223088   6.088   3.180   2.923
 7711TIP3   OH223089   2.144   1.055   3.055
 7711TIP3    H123090   2.238   1.069   3.065
 7711TIP3    H223091   2.132   0.961   3.070
 7712TIP3   OH223092   3.768   4.314   0.866
 7712TIP3    H123093   3.683   4.272   0.853
 7712TIP3    H223094   3.811   4.308   0.781
 7713TIP3   OH223095   7.298   1.779   3.914
 7713TIP3    H123096   7.329   1.698   3.875
 7713TIP3    H223097   7.296   1.763   4.008
 7714TIP3   OH223098   5.340   2.823   5.408
 7714TIP3    H123099   5.291   2.771   5.472
 7714TIP3    H223100   5.375   2.759   5.347
 7715TIP3   OH223101   3.305   0.736   2.733
 7715TIP3    H123102   3.376   0.672   2.724
 7715TIP3    H223103   3.347   0.813   2.771
 7716TIP3   OH223104   1.612   1.015   5.779
 7716TIP3    H123105   1.606   1.007   5.684
 7716TIP3    H223106   1.532   1.061   5.805
 7717TIP3   OH223107   4.061   7.823   2.833
 7717TIP3    H123108   4.124   7.864   2.774
 7717TIP3    H223109   4.081   7.730   2.828
 7718TIP3   OH223110   4.733   3.363   0.286
 7718TIP3    H123111   4.684   3.289   0.322
 7718TIP3    H223112   4.713   3.363   0.193
 7719TIP3   OH223113   3.998   3.455   0.978
 7719TIP3    H123114   3.974   3.380   0.923
 7719TIP3    H223115   3.949   3.442   1.058
 7720TIP3   OH223116   0.949   5.047   6.491
 7720TIP3    H123117   0.987   5.069   6.405
 7720TIP3    H223118   1.023   5.053   6.551
 7721TIP3   OH223119   7.194   6.363   4.979
 7721TIP3    H123120   7.181   6.382   5.072
 7721TIP3    H223121   7.135   6.289   4.962
 7722TIP3   OH223122   3.548   4.484   3.710
 7722TIP3    H123123   3.514   4.446   3.629
 7722TIP3    H223124   3.471   4.508   3.761
 7723TIP3   OH223125   7.065   2.729   0.344
 7723TIP3    H123126   7.090   2.774   0.425
 7723TIP3    H223127   7.066   2.797   0.277
 7724TIP3   OH223128   8.000   4.786   5.893
 7724TIP3    H123129   8.081   4.814   5.851
 7724TIP3    H223130   7.962   4.722   5.833
 7725TIP3   OH223131   0.646   3.762   3.958
 7725TIP3    H123132   0.641   3.828   3.888
 7725TIP3    H223133   0.697   3.804   4.027
 7726TIP3   OH223134   6.896   4.733   5.494
 7726TIP3    H123135   6.922   4.705   5.407
 7726TIP3    H223136   6.815   4.781   5.481
 7727TIP3   OH223137   5.686   7.088   1.765
 7727TIP3    H123138   5.604   7.105   1.720
 7727TIP3    H223139   5.716   7.004   1.732
 7728TIP3   OH223140   0.843   3.893   5.398
 7728TIP3    H123141   0.902   3.949   5.347
 7728TIP3    H223142   0.800   3.953   5.459
 7729TIP3   OH223143   7.495   2.289   1.820
 7729TIP3    H123144   7.399   2.297   1.823
 7729TIP3    H223145   7.525   2.374   1.788
 7730TIP3   OH223146   4.814   7.426   3.297
 7730TIP3    H123147   4.904   7.424   3.330
 7730TIP3    H223148   4.802   7.515   3.264
 7731TIP3   OH223149   2.893   0.567   1.192
 7731TIP3    H123150   2.881   0.500   1.126
 7731TIP3    H223151   2.810   0.614   1.195
 7732TIP3   OH223152   8.026   4.632   1.223
 7732TIP3    H123153   8.005   4.701   1.285
 7732TIP3    H223154   8.013   4.673   1.137
 7733TIP3   OH223155   7.573   1.248   5.371
 7733TIP3    H123156   7.578   1.325   5.428
 7733TIP3    H223157   7.486   1.253   5.332
 7734TIP3   OH223158   5.859   6.179   2.434
 7734TIP3    H123159   5.932   6.207   2.489
 7734TIP3    H223160   5.900   6.125   2.366
 7735TIP3   OH223161   1.588   3.200   1.564
 7735TIP3    H123162   1.572   3.218   1.471
 7735TIP3    H223163   1.611   3.107   1.566
 7736TIP3   OH223164   5.882   5.158   1.983
 7736TIP3    H123165   5.957   5.196   2.029
 7736TIP3    H223166   5.809   5.217   2.003
 7737TIP3   OH223167   3.138   2.755   2.455
 7737TIP3    H123168   3.045   2.732   2.451
 7737TIP3    H223169   3.172   2.705   2.529
 7738TIP3   OH223170   6.972   0.269   2.369
 7738TIP3    H123171   7.014   0.342   2.414
 7738TIP3    H223172   6.959   0.300   2.279
 7739TIP3   OH223173   0.100   6.432   6.674
 7739TIP3    H123174   0.005   6.432   6.666
 7739TIP3    H223175   0.121   6.350   6.719
 7740TIP3   OH223176   3.833   3.432   0.469
 7740TIP3    H123177   3.913   3.466   0.508
 7740TIP3    H223178   3.819   3.486   0.391
 7741TIP3   OH223179   4.424   7.446   3.984
 7741TIP3    H123180   4.466   7.370   3.945
 7741TIP3    H223181   4.464   7.454   4.071
 7742TIP3   OH223182   5.237   3.164   4.475
 7742TIP3    H123183   5.245   3.077   4.436
 7742TIP3    H223184   5.264   3.152   4.566
 7743TIP3   OH223185   2.804   5.161   6.520
 7743TIP3    H123186   2.737   5.135   6.584
 7743TIP3    H223187   2.812   5.086   6.461
 7744TIP3   OH223188   5.588   0.076   0.810
 7744TIP3    H123189   5.655   0.078   0.741
 7744TIP3    H223190   5.594   0.162   0.852
 7745TIP3   OH223191   0.403   4.551   1.795
 7745TIP3    H123192   0.410   4.456   1.806
 7745TIP3    H223193   0.443   4.587   1.875
 7746TIP3   OH223194   3.596   3.563   2.110
 7746TIP3    H123195   3.677   3.606   2.136
 7746TIP3    H223196   3.619   3.471   2.103
 7747TIP3   OH223197   4.332   0.200   2.657
 7747TIP3    H123198   4.409   0.162   2.615
 7747TIP3    H223199   4.267   0.205   2.587
 7748TIP3   OH223200   0.425   0.407   5.784
 7748TIP3    H123201   0.412   0.405   5.879
 7748TIP3    H223202   0.353   0.461   5.751
 7749TIP3   OH223203   1.348   7.777   6.327
 7749TIP3    H123204   1.411   7.849   6.329
 7749TIP3    H223205   1.287   7.796   6.398
 7750TIP3   OH223206   0.637   1.584   4.732
 7750TIP3    H123207   0.675   1.640   4.664
 7750TIP3    H223208   0.675   1.498   4.716
 7751TIP3   OH223209   4.082   5.196   0.207
 7751TIP3    H123210   4.090   5.239   0.122
 7751TIP3    H223211   4.000   5.147   0.202
 7752TIP3   OH223212   7.350   5.151   0.716
 7752TIP3    H123213   7.302   5.120   0.640
 7752TIP3    H223214   7.442   5.140   0.693
 7753TIP3   OH223215   5.366   3.531   0.647
 7753TIP3    H123216   5.367   3.483   0.730
 7753TIP3    H223217   5.280   3.573   0.644
 7754TIP3   OH223218   8.003   5.597   0.241
 7754TIP3    H123219   8.010   5.577   0.334
 7754TIP3    H223220   8.094   5.597   0.210
 7755TIP3   OH223221   0.484   2.972   0.433
 7755TIP3    H123222   0.396   2.939   0.414
 7755TIP3    H223223   0.540   2.932   0.365
 7756TIP3   OH223224   3.998   5.105   6.457
 7756TIP3    H123225   4.002   5.012   6.478
 7756TIP3    H223226   3.940   5.142   6.524
 7757TIP3   OH223227   1.747   5.185   2.972
 7757TIP3    H123228   1.735   5.113   2.910
 7757TIP3    H223229   1.842   5.191   2.983
 7758TIP3   OH223230   1.865   1.854   2.417
 7758TIP3    H123231   1.928   1.837   2.348
 7758TIP3    H223232   1.785   1.809   2.389
 7759TIP3   OH223233   2.113   5.274   4.381
 7759TIP3    H123234   2.193   5.234   4.415
 7759TIP3    H223235   2.136   5.303   4.293
 7760TIP3   OH223236   7.483   0.214   4.644
 7760TIP3    H123237   7.433   0.263   4.709
 7760TIP3    H223238   7.466   0.122   4.666
 7761TIP3   OH223239   5.761   2.713   3.152
 7761TIP3    H123240   5.781   2.778   3.220
 7761TIP3    H223241   5.674   2.738   3.121
 7762TIP3   OH223242   4.689   4.552   5.430
 7762TIP3    H123243   4.779   4.530   5.452
 7762TIP3    H223244   4.674   4.635   5.475
 7763TIP3   OH223245   3.948   1.600   2.137
 7763TIP3    H123246   3.945   1.673   2.076
 7763TIP3    H223247   4.041   1.585   2.152
 7764TIP3   OH223248   0.955   0.500   4.594
 7764TIP3    H123249   0.957   0.579   4.647
 7764TIP3    H223250   0.953   0.428   4.658
 7765TIP3   OH223251   6.149   6.373   0.240
 7765TIP3    H123252   6.240   6.344   0.249
 7765TIP3    H223253   6.155   6.466   0.217
 7766TIP3   OH223254   6.405   3.425   0.527
 7766TIP3    H123255   6.438   3.513   0.507
 7766TIP3    H223256   6.430   3.373   0.451
 7767TIP3   OH223257   5.603   7.010   4.610
 7767TIP3    H123258   5.554   6.946   4.558
 7767TIP3    H223259   5.614   6.968   4.696
 7768TIP3   OH223260   7.247   3.464   1.406
 7768TIP3    H123261   7.276   3.490   1.319
 7768TIP3    H223262   7.217   3.546   1.447
 7769TIP3   OH223263   2.655   3.953   5.050
 7769TIP3    H123264   2.747   3.975   5.037
 7769TIP3    H223265   2.630   3.999   5.130
 7770TIP3   OH223266   1.884   6.694   5.886
 7770TIP3    H123267   1.931   6.724   5.964
 7770TIP3    H223268   1.906   6.760   5.819
 7771TIP3   OH223269   8.037   7.007   3.559
 7771TIP3    H123270   8.009   6.916   3.568
 7771TIP3    H223271   8.119   7.012   3.608
 7772TIP3   OH223272   7.485   7.308   2.090
 7772TIP3    H123273   7.541   7.383   2.108
 7772TIP3    H223274   7.515   7.276   2.005
 7773TIP3   OH223275   1.539   7.320   4.264
 7773TIP3    H123276   1.596   7.394   4.285
 7773TIP3    H223277   1.537   7.268   4.344
 7774TIP3   OH223278   7.244   4.556   6.440
 7774TIP3    H123279   7.269   4.574   6.531
 7774TIP3    H223280   7.205   4.468   6.443
 7775TIP3   OH223281   6.479   5.359   2.397
 7775TIP3    H123282   6.468   5.311   2.314
 7775TIP3    H223283   6.567   5.335   2.426
 7776TIP3   OH223284   2.319   2.236   5.481
 7776TIP3    H123285   2.411   2.245   5.456
 7776TIP3    H223286   2.311   2.146   5.511
 7777TIP3   OH223287   3.467   4.305   3.935
 7777TIP3    H123288   3.404   4.282   3.866
 7777TIP3    H223289   3.507   4.222   3.960
 7778TIP3   OH223290   1.357   5.585   0.846
 7778TIP3    H123291   1.334   5.676   0.866
 7778TIP3    H223292   1.435   5.592   0.791
 7779TIP3   OH223293   5.993   0.212   3.029
 7779TIP3    H123294   6.017   0.277   3.095
 7779TIP3    H223295   5.981   0.131   3.079
 7780TIP3   OH223296   4.047   4.801   4.891
 7780TIP3    H123297   4.040   4.877   4.949
 7780TIP3    H223298   4.036   4.836   4.803
 7781TIP3   OH223299   1.512   0.763   3.431
 7781TIP3    H123300   1.589   0.813   3.460
 7781TIP3    H223301   1.468   0.822   3.369
 7782TIP3   OH223302   5.212   2.626   6.035
 7782TIP3    H123303   5.222   2.583   5.950
 7782TIP3    H223304   5.170   2.709   6.014
 7783TIP3   OH223305   5.163   4.723   0.330
 7783TIP3    H123306   5.166   4.694   0.239
 7783TIP3    H223307   5.080   4.770   0.337
 7784TIP3   OH223308   6.668   5.593   1.293
 7784TIP3    H123309   6.700   5.682   1.305
 7784TIP3    H223310   6.711   5.543   1.364
 7785TIP3   OH223311   7.299   1.444   0.118
 7785TIP3    H123312   7.237   1.459   0.047
 7785TIP3    H223313   7.285   1.518   0.178
 7786TIP3   OH223314   0.121   1.259   4.979
 7786TIP3    H123315   0.115   1.353   4.993
 7786TIP3    H223316   0.107   1.220   5.065
 7787TIP3   OH223317   7.910   7.515   1.230
 7787TIP3    H123318   7.957   7.564   1.297
 7787TIP3    H223319   7.936   7.556   1.148
 7788TIP3   OH223320   6.989   1.850   0.254
 7788TIP3    H123321   6.944   1.877   0.174
 7788TIP3    H223322   6.925   1.793   0.299
 7789TIP3   OH223323   1.819   2.426   3.821
 7789TIP3    H123324   1.813   2.396   3.731
 7789TIP3    H223325   1.767   2.364   3.871
 7790TIP3   OH223326   0.071   5.724   2.118
 7790TIP3    H123327   0.133   5.741   2.047
 7790TIP3    H223328   0.119   5.745   2.198
 7791TIP3   OH223329   7.553   1.295   3.766
 7791TIP3    H123330   7.547   1.230   3.695
 7791TIP3    H223331   7.498   1.259   3.835
 7792TIP3   OH223332   3.118   7.131   2.997
 7792TIP3    H123333   3.192   7.104   2.943
 7792TIP3    H223334   3.138   7.221   3.022
 7793TIP3   OH223335   1.996   4.249   4.583
 7793TIP3    H123336   2.023   4.276   4.671
 7793TIP3    H223337   1.976   4.156   4.591
 7794TIP3   OH223338   5.342   5.530   4.874
 7794TIP3    H123339   5.256   5.557   4.842
 7794TIP3    H223340   5.329   5.440   4.905
 7795TIP3   OH223341   1.399   1.566   0.547
 7795TIP3    H123342   1.344   1.542   0.621
 7795TIP3    H223343   1.454   1.489   0.532
 7796TIP3   OH223344   7.095   3.110   0.625
 7796TIP3    H123345   7.062   3.151   0.545
 7796TIP3    H223346   7.167   3.055   0.596
 7797TIP3   OH223347   3.614   6.897   1.394
 7797TIP3    H123348   3.520   6.888   1.410
 7797TIP3    H223349   3.645   6.955   1.463
 7798TIP3   OH223350   5.742   0.057   2.475
 7798TIP3    H123351   5.650   0.030   2.469
 7798TIP3    H223352   5.776   0.047   2.386
 7799TIP3   OH223353   0.315   5.448   2.224
 7799TIP3    H123354   0.289   5.440   2.132
 7799TIP3    H223355   0.361   5.532   2.229
 7800TIP3   OH223356   1.145   3.104   1.876
 7800TIP3    H123357   1.135   3.178   1.935
 7800TIP3    H223358   1.210   3.132   1.812
 7801TIP3   OH223359   3.151   4.869   3.505
 7801TIP3    H123360   3.218   4.909   3.560
 7801TIP3    H223361   3.087   4.834   3.567
 7802TIP3   OH223362   0.366   4.974   0.049
 7802TIP3    H123363   0.282   4.935   0.025
 7802TIP3    H223364   0.425   4.953  -0.023
 7803TIP3   OH223365   5.725   7.401   1.167
 7803TIP3    H123366   5.650   7.345   1.185
 7803TIP3    H223367   5.795   7.365   1.220
 7804TIP3   OH223368   2.178   5.909   4.647
 7804TIP3    H123369   2.171   5.814   4.639
 7804TIP3    H223370   2.142   5.943   4.565
 7805TIP3   OH223371   0.663   2.549   5.059
 7805TIP3    H123372   0.716   2.473   5.034
 7805TIP3    H223373   0.613   2.520   5.135
 7806TIP3   OH223374   4.789   0.332   6.293
 7806TIP3    H123375   4.783   0.381   6.211
 7806TIP3    H223376   4.768   0.395   6.361
 7807TIP3   OH223377   2.236   3.959   4.836
 7807TIP3    H123378   2.286   3.880   4.855
 7807TIP3    H223379   2.145   3.931   4.842
 7808TIP3   OH223380   3.273   1.814   1.847
 7808TIP3    H123381   3.252   1.836   1.756
 7808TIP3    H223382   3.297   1.897   1.887
 7809TIP3   OH223383   6.830   3.437   5.392
 7809TIP3    H123384   6.747   3.392   5.379
 7809TIP3    H223385   6.836   3.450   5.487
 7810TIP3   OH223386   1.616   3.426   2.885
 7810TIP3    H123387   1.686   3.485   2.859
 7810TIP3    H223388   1.597   3.450   2.976
 7811TIP3   OH223389   5.669   1.605   4.523
 7811TIP3    H123390   5.685   1.525   4.572
 7811TIP3    H223391   5.622   1.662   4.584
 7812TIP3   OH223392   5.290   4.290   2.717
 7812TIP3    H123393   5.224   4.282   2.648
 7812TIP3    H223394   5.255   4.358   2.775
 7813TIP3   OH223395   2.898  -0.013   6.363
 7813TIP3    H123396   2.860   0.073   6.384
 7813TIP3    H223397   2.929  -0.046   6.448
 7814TIP3   OH223398   2.636   1.476   5.699
 7814TIP3    H123399   2.649   1.452   5.790
 7814TIP3    H223400   2.617   1.570   5.702
 7815TIP3   OH223401   5.360   3.107   3.666
 7815TIP3    H123402   5.398   3.173   3.609
 7815TIP3    H223403   5.303   3.056   3.609
 7816TIP3   OH223404   6.310   5.970   1.782
 7816TIP3    H123405   6.281   5.924   1.704
 7816TIP3    H223406   6.303   6.063   1.759
 7817TIP3   OH223407   0.866   1.256   2.698
 7817TIP3    H123408   0.875   1.351   2.702
 7817TIP3    H223409   0.955   1.225   2.678
 7818TIP3   OH223410   6.213   3.692   4.835
 7818TIP3    H123411   6.232   3.688   4.741
 7818TIP3    H223412   6.249   3.776   4.863
 7819TIP3   OH223413   3.186   4.576   3.594
 7819TIP3    H123414   3.109   4.633   3.590
 7819TIP3    H223415   3.259   4.631   3.568
 7820TIP3   OH223416   0.052   7.832   3.355
 7820TIP3    H123417   0.038   7.740   3.377
 7820TIP3    H223418  -0.037   7.867   3.342
 7821TIP3   OH223419   2.985   7.752   5.992
 7821TIP3    H123420   2.973   7.658   6.000
 7821TIP3    H223421   2.908   7.782   5.944
 7822TIP3   OH223422   4.820   5.632   1.883
 7822TIP3    H123423   4.763   5.707   1.897
 7822TIP3    H223424   4.761   5.558   1.873
 7823TIP3   OH223425   7.653   4.243   1.659
 7823TIP3    H123426   7.581   4.287   1.615
 7823TIP3    H223427   7.625   4.152   1.666
 7824TIP3   OH223428   7.414   1.531   5.166
 7824TIP3    H123429   7.415   1.491   5.079
 7824TIP3    H223430   7.477   1.603   5.159
 7825TIP3   OH223431   6.395   0.462   0.798
 7825TIP3    H123432   6.357   0.494   0.880
 7825TIP3    H223433   6.421   0.372   0.816
 7826TIP3   OH223434   0.880   2.530   4.712
 7826TIP3    H123435   0.890   2.452   4.658
 7826TIP3    H223436   0.886   2.498   4.802
 7827TIP3   OH223437   8.131   3.505   1.483
 7827TIP3    H123438   8.066   3.574   1.468
 7827TIP3    H223439   8.210   3.536   1.438
 7828TIP3   OH223440   3.570   3.226   3.459
 7828TIP3    H123441   3.573   3.271   3.544
 7828TIP3    H223442   3.485   3.182   3.459
 7829TIP3   OH223443   1.893   1.703   4.274
 7829TIP3    H123444   1.985   1.678   4.280
 7829TIP3    H223445   1.893   1.784   4.223
 7830TIP3   OH223446   0.696   7.648   0.782
 7830TIP3    H123447   0.663   7.595   0.854
 7830TIP3    H223448   0.673   7.599   0.703
 7831TIP3   OH223449   1.043   0.410   4.962
 7831TIP3    H123450   1.112   0.456   5.011
 7831TIP3    H223451   1.084   0.328   4.935
 7832TIP3   OH223452   3.447   0.610   0.164
 7832TIP3    H123453   3.376   0.577   0.220
 7832TIP3    H223454   3.432   0.705   0.162
 7833TIP3   OH223455   1.778   7.473   4.392
 7833TIP3    H123456   1.814   7.529   4.322
 7833TIP3    H223457   1.837   7.398   4.395
 7834TIP3   OH223458   2.418   2.800   1.000
 7834TIP3    H123459   2.432   2.799   1.095
 7834TIP3    H223460   2.327   2.828   0.991
 7835TIP3   OH223461   1.600   3.121   6.665
 7835TIP3    H123462   1.553   3.150   6.743
 7835TIP3    H223463   1.553   3.162   6.592
 7836TIP3   OH223464   5.197   0.535   1.409
 7836TIP3    H123465   5.178   0.480   1.332
 7836TIP3    H223466   5.114   0.577   1.430
 7837TIP3   OH223467   2.934   3.420   2.691
 7837TIP3    H123468   2.933   3.497   2.634
 7837TIP3    H223469   2.907   3.454   2.777
 7838TIP3   OH223470   4.984   0.186   3.713
 7838TIP3    H123471   5.017   0.154   3.797
 7838TIP3    H223472   4.890   0.195   3.725
 7839TIP3   OH223473   4.068   6.370   4.105
 7839TIP3    H123474   4.006   6.362   4.033
 7839TIP3    H223475   4.023   6.333   4.181
 7840TIP3   OH223476   1.893   2.137   5.409
 7840TIP3    H123477   1.938   2.160   5.490
 7840TIP3    H223478   1.813   2.093   5.438
 7841TIP3   OH223479   6.046   7.405   2.915
 7841TIP3    H123480   6.077   7.414   2.825
 7841TIP3    H223481   6.075   7.484   2.959
 7842TIP3   OH223482   7.859   0.063   5.344
 7842TIP3    H123483   7.929  -0.002   5.355
 7842TIP3    H223484   7.795   0.040   5.411
 7843TIP3   OH223485   0.182   4.262   3.397
 7843TIP3    H123486   0.253   4.326   3.407
 7843TIP3    H223487   0.110   4.298   3.448
 7844TIP3   OH223488   4.696   2.424   6.631
 7844TIP3    H123489   4.733   2.336   6.645
 7844TIP3    H223490   4.730   2.476   6.703
 7845TIP3   OH223491   7.311   7.658   6.383
 7845TIP3    H123492   7.224   7.647   6.345
 7845TIP3    H223493   7.295   7.696   6.469
 7846TIP3   OH223494   2.654   4.143   5.490
 7846TIP3    H123495   2.634   4.230   5.454
 7846TIP3    H223496   2.712   4.161   5.564
 7847TIP3   OH223497   2.874   3.885   4.770
 7847TIP3    H123498   2.841   3.795   4.765
 7847TIP3    H223499   2.814   3.935   4.715
 7848TIP3   OH223500   1.644   1.669   2.125
 7848TIP3    H123501   1.579   1.643   2.190
 7848TIP3    H223502   1.689   1.588   2.101
 7849TIP3   OH223503   5.621   6.399   2.062
 7849TIP3    H123504   5.599   6.483   2.101
 7849TIP3    H223505   5.609   6.336   2.133
 7850TIP3   OH223506   2.405   2.217   2.363
 7850TIP3    H123507   2.346   2.209   2.439
 7850TIP3    H223508   2.492   2.226   2.401
 7851TIP3   OH223509   8.290   5.819   3.689
 7851TIP3    H123510   8.272   5.797   3.780
 7851TIP3    H223511   8.302   5.914   3.689
 7852TIP3   OH223512   7.974   5.441   2.355
 7852TIP3    H123513   7.936   5.490   2.427
 7852TIP3    H223514   8.053   5.490   2.332
 7853TIP3   OH223515   1.749   4.747   1.096
 7853TIP3    H123516   1.817   4.800   1.054
 7853TIP3    H223517   1.790   4.716   1.177
 7854TIP3   OH223518   3.512   5.864   6.543
 7854TIP3    H123519   3.559   5.869   6.460
 7854TIP3    H223520   3.422   5.843   6.518
 7855TIP3   OH223521   1.609   4.017   1.635
 7855TIP3    H123522   1.631   4.107   1.610
 7855TIP3    H223523   1.693   3.971   1.635
 7856TIP3   OH223524   4.018   6.624   1.461
 7856TIP3    H123525   3.996   6.535   1.432
 7856TIP3    H223526   4.051   6.613   1.550
 7857TIP3   OH223527   6.456   7.546   1.650
 7857TIP3    H123528   6.445   7.571   1.559
 7857TIP3    H223529   6.551   7.539   1.661
 7858TIP3   OH223530   1.491   5.510   4.396
 7858TIP3    H123531   1.565   5.462   4.359
 7858TIP3    H223532   1.432   5.524   4.321
 7859TIP3   OH223533   5.627   5.212   5.461
 7859TIP3    H123534   5.662   5.126   5.485
 7859TIP3    H223535   5.541   5.193   5.425
 7860TIP3   OH223536   0.586   6.300   1.418
 7860TIP3    H123537   0.573   6.379   1.366
 7860TIP3    H223538   0.611   6.332   1.504
 7861TIP3   OH223539   4.224   3.245   3.519
 7861TIP3    H123540   4.238   3.173   3.580
 7861TIP3    H223541   4.286   3.229   3.448
 7862TIP3   OH223542   3.364   2.613   2.887
 7862TIP3    H123543   3.446   2.589   2.930
 7862TIP3    H223544   3.334   2.690   2.934
 7863TIP3   OH223545   1.477   6.077   1.221
 7863TIP3    H123546   1.563   6.086   1.263
 7863TIP3    H223547   1.483   6.133   1.144
 7864TIP3   OH223548   5.467   6.442   0.570
 7864TIP3    H123549   5.515   6.463   0.490
 7864TIP3    H223550   5.535   6.426   0.635
 7865TIP3   OH223551   3.746   6.579   0.155
 7865TIP3    H123552   3.790   6.659   0.126
 7865TIP3    H223553   3.671   6.610   0.206
 7866TIP3   OH223554   7.277   1.234   5.256
 7866TIP3    H123555   7.277   1.329   5.243
 7866TIP3    H223556   7.188   1.213   5.285
 7867TIP3   OH223557   2.107   0.131   1.350
 7867TIP3    H123558   2.146   0.080   1.421
 7867TIP3    H223559   2.014   0.110   1.353
 7868TIP3   OH223560   1.474   7.511   4.909
 7868TIP3    H123561   1.384   7.492   4.883
 7868TIP3    H223562   1.501   7.434   4.958
 7869TIP3   OH223563   2.257   6.054   1.806
 7869TIP3    H123564   2.172   6.095   1.790
 7869TIP3    H223565   2.263   5.985   1.740
 7870TIP3   OH223566   1.081   4.813   5.522
 7870TIP3    H123567   1.083   4.873   5.597
 7870TIP3    H223568   1.107   4.868   5.447
 7871TIP3   OH223569   4.695   5.590   6.675
 7871TIP3    H123570   4.728   5.663   6.727
 7871TIP3    H223571   4.760   5.579   6.605
 7872TIP3   OH223572   5.600   0.824   0.654
 7872TIP3    H123573   5.545   0.853   0.581
 7872TIP3    H223574   5.687   0.815   0.616
 7873TIP3   OH223575   3.192   3.510   0.037
 7873TIP3    H123576   3.139   3.583   0.006
 7873TIP3    H223577   3.273   3.552   0.067
 7874TIP3   OH223578   4.127   0.458   6.616
 7874TIP3    H123579   4.217   0.487   6.599
 7874TIP3    H223580   4.127   0.433   6.708
 7875TIP3   OH223581   3.131   2.023   5.804
 7875TIP3    H123582   3.225   2.018   5.785
 7875TIP3    H223583   3.116   2.116   5.823
 7876TIP3   OH223584   0.501   6.503   5.831
 7876TIP3    H123585   0.535   6.495   5.920
 7876TIP3    H223586   0.467   6.416   5.810
 7877TIP3   OH223587   7.975   0.329   4.549
 7877TIP3    H123588   7.903   0.271   4.573
 7877TIP3    H223589   7.952   0.413   4.590
 7878TIP3   OH223590   0.742   7.239   3.462
 7878TIP3    H123591   0.710   7.192   3.385
 7878TIP3    H223592   0.678   7.309   3.475
 7879TIP3   OH223593   6.100   4.714   2.979
 7879TIP3    H123594   6.094   4.687   2.887
 7879TIP3    H223595   6.194   4.715   2.998
 7880TIP3   OH223596   6.881   6.610   5.334
 7880TIP3    H123597   6.824   6.637   5.406
 7880TIP3    H223598   6.822   6.574   5.269
 7881TIP3   OH223599   3.977   1.868   5.987
 7881TIP3    H123600   4.070   1.848   5.996
 7881TIP3    H223601   3.949   1.819   5.910
 7882TIP3   OH223602   5.112   6.626   1.152
 7882TIP3    H123603   5.095   6.720   1.158
 7882TIP3    H223604   5.047   6.593   1.090
 7883TIP3   OH223605   5.384   6.146   1.956
 7883TIP3    H123606   5.414   6.064   1.996
 7883TIP3    H223607   5.391   6.131   1.862
 7884TIP3   OH223608   8.231   1.697   4.976
 7884TIP3    H123609   8.195   1.747   5.049
 7884TIP3    H223610   8.219   1.753   4.899
 7885TIP3   OH223611   1.709   6.072   4.026
 7885TIP3    H123612   1.642   6.016   3.988
 7885TIP3    H223613   1.684   6.161   4.001
 7886TIP3   OH223614   1.173   7.727   3.069
 7886TIP3    H123615   1.178   7.702   3.161
 7886TIP3    H223616   1.263   7.746   3.044
 7887TIP3   OH223617   4.239   2.386   1.022
 7887TIP3    H123618   4.235   2.321   1.092
 7887TIP3    H223619   4.285   2.461   1.060
 7888TIP3   OH223620   7.518   4.415   4.624
 7888TIP3    H123621   7.526   4.385   4.714
 7888TIP3    H223622   7.556   4.345   4.571
 7889TIP3   OH223623   5.570   4.566   2.190
 7889TIP3    H123624   5.653   4.605   2.161
 7889TIP3    H223625   5.584   4.472   2.181
 7890TIP3   OH223626   0.353   1.509   6.144
 7890TIP3    H123627   0.412   1.570   6.100
 7890TIP3    H223628   0.375   1.517   6.237
 7891TIP3   OH223629   5.832   5.444   1.420
 7891TIP3    H123630   5.910   5.391   1.438
 7891TIP3    H223631   5.794   5.404   1.342
 7892TIP3   OH223632   5.991   2.855   2.175
 7892TIP3    H123633   6.054   2.786   2.154
 7892TIP3    H223634   6.039   2.937   2.165
 7893TIP3   OH223635   6.619   7.384   6.621
 7893TIP3    H123636   6.703   7.403   6.579
 7893TIP3    H223637   6.622   7.290   6.641
 7894TIP3   OH223638   3.602   2.140   2.263
 7894TIP3    H123639   3.573   2.059   2.222
 7894TIP3    H223640   3.683   2.163   2.216
 7895TIP3   OH223641   8.089   7.017   6.534
 7895TIP3    H123642   8.100   7.040   6.442
 7895TIP3    H223643   7.995   7.004   6.546
 7896TIP3   OH223644   7.616   2.679   0.192
 7896TIP3    H123645   7.643   2.665   0.101
 7896TIP3    H223646   7.563   2.759   0.189
 7897TIP3   OH223647   2.433   6.537   5.179
 7897TIP3    H123648   2.398   6.460   5.136
 7897TIP3    H223649   2.521   6.511   5.207
 7898TIP3   OH223650   3.523   4.678   0.060
 7898TIP3    H123651   3.571   4.608   0.014
 7898TIP3    H223652   3.431   4.660   0.042
 7899TIP3   OH223653   5.834   5.135   5.266
 7899TIP3    H123654   5.791   5.066   5.216
 7899TIP3    H223655   5.762   5.185   5.305
 7900TIP3   OH223656   7.750   6.299   6.394
 7900TIP3    H123657   7.683   6.276   6.329
 7900TIP3    H223658   7.710   6.279   6.478
 7901TIP3   OH223659   4.467   6.487   5.628
 7901TIP3    H123660   4.556   6.520   5.638
 7901TIP3    H223661   4.478   6.392   5.615
 7902TIP3   OH223662   7.595   0.730   6.168
 7902TIP3    H123663   7.545   0.775   6.235
 7902TIP3    H223664   7.568   0.639   6.174
 7903TIP3   OH223665   0.258   5.333   4.892
 7903TIP3    H123666   0.239   5.278   4.968
 7903TIP3    H223667   0.237   5.277   4.817
 7904TIP3   OH223668   1.267   6.188   1.411
 7904TIP3    H123669   1.306   6.156   1.330
 7904TIP3    H223670   1.322   6.150   1.480
 7905TIP3   OH223671   4.272   1.683   2.361
 7905TIP3    H123672   4.343   1.730   2.405
 7905TIP3    H223673   4.196   1.697   2.417
 7906TIP3   OH223674   4.351   5.100   0.187
 7906TIP3    H123675   4.339   5.018   0.139
 7906TIP3    H223676   4.262   5.133   0.201
 7907TIP3   OH223677   3.751   2.740   3.675
 7907TIP3    H123678   3.768   2.795   3.599
 7907TIP3    H223679   3.677   2.783   3.720
 7908TIP3   OH223680   4.472   4.630   3.494
 7908TIP3    H123681   4.549   4.648   3.440
 7908TIP3    H223682   4.426   4.559   3.448
 7909TIP3   OH223683   7.861   1.300   3.656
 7909TIP3    H123684   7.866   1.205   3.655
 7909TIP3    H223685   7.768   1.320   3.639
 7910TIP3   OH223686   1.279   5.045   6.295
 7910TIP3    H123687   1.267   5.028   6.388
 7910TIP3    H223688   1.196   5.081   6.265
 7911TIP3   OH223689   0.268   0.912   3.238
 7911TIP3    H123690   0.201   0.976   3.264
 7911TIP3    H223691   0.351   0.958   3.250
 7912TIP3   OH223692   7.278   0.651   6.610
 7912TIP3    H123693   7.327   0.601   6.544
 7912TIP3    H223694   7.328   0.731   6.622
 7913TIP3   OH223695   4.117   5.793   3.411
 7913TIP3    H123696   4.191   5.755   3.364
 7913TIP3    H223697   4.131   5.888   3.404
 7914TIP3   OH223698   3.836   6.968   6.363
 7914TIP3    H123699   3.875   6.880   6.356
 7914TIP3    H223700   3.906   7.027   6.334
 7915TIP3   OH223701   1.976   7.437   0.143
 7915TIP3    H123702   2.021   7.392   0.214
 7915TIP3    H223703   1.958   7.524   0.177
 7916TIP3   OH223704   6.697   0.413   3.302
 7916TIP3    H123705   6.655   0.476   3.245
 7916TIP3    H223706   6.743   0.353   3.243
 7917TIP3   OH223707   5.150   1.743   4.670
 7917TIP3    H123708   5.239   1.746   4.706
 7917TIP3    H223709   5.158   1.777   4.581
 7918TIP3   OH223710   6.532   4.150   4.451
 7918TIP3    H123711   6.491   4.081   4.400
 7918TIP3    H223712   6.616   4.164   4.409
 7919TIP3   OH223713   6.595   4.872   6.200
 7919TIP3    H123714   6.509   4.885   6.239
 7919TIP3    H223715   6.577   4.846   6.110
 7920TIP3   OH223716   4.320   0.514   4.496
 7920TIP3    H123717   4.410   0.533   4.470
 7920TIP3    H223718   4.329   0.450   4.566
 7921TIP3   OH223719   2.097   1.373   1.258
 7921TIP3    H123720   2.099   1.385   1.353
 7921TIP3    H223721   2.123   1.459   1.223
 7922TIP3   OH223722   6.949   3.228   3.928
 7922TIP3    H123723   7.043   3.230   3.912
 7922TIP3    H223724   6.917   3.311   3.893
 7923TIP3   OH223725   8.078   0.962   4.594
 7923TIP3    H123726   8.114   0.904   4.661
 7923TIP3    H223727   8.120   0.933   4.512
 7924TIP3   OH223728   6.292   7.589   2.849
 7924TIP3    H123729   6.340   7.584   2.932
 7924TIP3    H223730   6.359   7.573   2.782
 7925TIP3   OH223731   1.498   1.957   5.414
 7925TIP3    H123732   1.564   1.970   5.482
 7925TIP3    H223733   1.543   1.908   5.345
 7926TIP3   OH223734   4.132   1.298   2.831
 7926TIP3    H123735   4.133   1.274   2.739
 7926TIP3    H223736   4.124   1.215   2.878
 7927TIP3   OH223737   7.655   3.196   0.309
 7927TIP3    H123738   7.588   3.251   0.349
 7927TIP3    H223739   7.691   3.251   0.238
 7928TIP3   OH223740   8.145   6.256   3.603
 7928TIP3    H123741   8.220   6.314   3.595
 7928TIP3    H223742   8.175   6.173   3.565
 7929TIP3   OH223743   1.062   6.105   6.268
 7929TIP3    H123744   1.091   6.181   6.319
 7929TIP3    H223745   1.119   6.106   6.191
 7930TIP3   OH223746   7.398   7.191   6.041
 7930TIP3    H123747   7.421   7.236   5.960
 7930TIP3    H223748   7.340   7.252   6.087
 7931TIP3   OH223749   4.025   3.155   3.153
 7931TIP3    H123750   4.080   3.152   3.074
 7931TIP3    H223751   3.981   3.240   3.149
 7932TIP3   OH223752   7.763   0.362   4.319
 7932TIP3    H123753   7.709   0.413   4.379
 7932TIP3    H223754   7.766   0.274   4.357
 7933TIP3   OH223755   1.710   7.810   5.212
 7933TIP3    H123756   1.626   7.766   5.199
 7933TIP3    H223757   1.722   7.864   5.133
 7934TIP3   OH223758   4.230   3.997   5.520
 7934TIP3    H123759   4.255   4.066   5.582
 7934TIP3    H223760   4.237   3.916   5.570
 7935TIP3   OH223761   1.180   2.783   3.940
 7935TIP3    H123762   1.217   2.791   3.852
 7935TIP3    H223763   1.105   2.843   3.939
 7936TIP3   OH223764   7.702   5.065   0.087
 7936TIP3    H123765   7.651   4.986   0.071
 7936TIP3    H223766   7.647   5.136   0.054
 7937TIP3   OH223767   0.911   4.384   4.049
 7937TIP3    H123768   0.911   4.384   4.145
 7937TIP3    H223769   1.002   4.401   4.025
 7938TIP3   OH223770   6.141   6.829   3.393
 7938TIP3    H123771   6.073   6.884   3.432
 7938TIP3    H223772   6.116   6.821   3.301
 7939TIP3   OH223773   1.194   7.616   2.480
 7939TIP3    H123774   1.250   7.547   2.515
 7939TIP3    H223775   1.241   7.649   2.404
 7940TIP3   OH223776   1.895   1.888   0.956
 7940TIP3    H123777   1.864   1.805   0.993
 7940TIP3    H223778   1.839   1.902   0.879
 7941TIP3   OH223779   2.726   7.176   5.850
 7941TIP3    H123780   2.748   7.202   5.939
 7941TIP3    H223781   2.631   7.185   5.845
 7942TIP3   OH223782   3.652   3.282   2.130
 7942TIP3    H123783   3.744   3.256   2.144
 7942TIP3    H223784   3.606   3.199   2.119
 7943TIP3   OH223785   7.233   0.206   5.171
 7943TIP3    H123786   7.170   0.241   5.234
 7943TIP3    H223787   7.189   0.130   5.134
 7944TIP3   OH223788   4.814   6.830   0.870
 7944TIP3    H123789   4.887   6.853   0.928
 7944TIP3    H223790   4.822   6.735   0.858
 7945TIP3   OH223791   7.536   4.187   0.667
 7945TIP3    H123792   7.565   4.163   0.755
 7945TIP3    H223793   7.607   4.161   0.609
 7946TIP3   OH223794   7.041   6.999   2.093
 7946TIP3    H123795   7.001   7.085   2.101
 7946TIP3    H223796   7.134   7.013   2.110
 7947TIP3   OH223797   5.624   1.160   3.868
 7947TIP3    H123798   5.643   1.070   3.841
 7947TIP3    H223799   5.709   1.202   3.877
 7948TIP3   OH223800   7.524   2.034   0.769
 7948TIP3    H123801   7.442   2.073   0.738
 7948TIP3    H223802   7.592   2.082   0.721
 7949TIP3   OH223803   7.477   3.672   4.519
 7949TIP3    H123804   7.473   3.577   4.528
 7949TIP3    H223805   7.563   3.689   4.481
 7950TIP3   OH223806   6.664   4.711   0.786
 7950TIP3    H123807   6.680   4.618   0.770
 7950TIP3    H223808   6.583   4.730   0.740
 7951TIP3   OH223809   2.459   2.018   3.983
 7951TIP3    H123810   2.376   2.064   3.991
 7951TIP3    H223811   2.453   1.972   3.900
 7952TIP3   OH223812   8.046   6.046   1.491
 7952TIP3    H123813   7.966   6.077   1.448
 7952TIP3    H223814   8.032   5.952   1.505
 7953TIP3   OH223815   2.910   4.338   3.771
 7953TIP3    H123816   2.844   4.389   3.818
 7953TIP3    H223817   2.861   4.290   3.705
 7954TIP3   OH223818   6.150   6.629   2.092
 7954TIP3    H123819   6.095   6.552   2.110
 7954TIP3    H223820   6.098   6.681   2.031
 7955TIP3   OH223821   4.614   2.973   4.796
 7955TIP3    H123822   4.520   2.966   4.784
 7955TIP3    H223823   4.648   2.885   4.780
 7956TIP3   OH223824   3.039   1.553   0.191
 7956TIP3    H123825   2.946   1.548   0.169
 7956TIP3    H223826   3.067   1.638   0.155
 7957TIP3   OH223827   0.473   5.701   0.658
 7957TIP3    H123828   0.490   5.615   0.618
 7957TIP3    H223829   0.492   5.688   0.751
 7958TIP3   OH223830   0.697   5.408   3.996
 7958TIP3    H123831   0.612   5.366   3.996
 7958TIP3    H223832   0.679   5.498   4.023
 7959TIP3   OH223833   0.460   2.373   4.758
 7959TIP3    H123834   0.525   2.302   4.755
 7959TIP3    H223835   0.444   2.386   4.852
 7960TIP3   OH223836   1.423   7.040   1.826
 7960TIP3    H123837   1.515   7.042   1.801
 7960TIP3    H223838   1.388   6.961   1.784
 7961TIP3   OH223839   5.601   6.084   1.315
 7961TIP3    H123840   5.641   6.144   1.378
 7961TIP3    H223841   5.547   6.140   1.259
 7962TIP3   OH223842   2.317   4.356   2.545
 7962TIP3    H123843   2.329   4.409   2.624
 7962TIP3    H223844   2.386   4.290   2.550
 7963TIP3   OH223845   1.480   5.965   4.379
 7963TIP3    H123846   1.573   5.958   4.398
 7963TIP3    H223847   1.446   6.023   4.447
 7964TIP3   OH223848   3.465   4.951   1.739
 7964TIP3    H123849   3.388   4.997   1.773
 7964TIP3    H223850   3.537   5.014   1.751
 7965TIP3   OH223851   1.514   1.009   2.618
 7965TIP3    H123852   1.510   1.098   2.583
 7965TIP3    H223853   1.520   1.021   2.713
 7966TIP3   OH223854   2.111   7.314   4.184
 7966TIP3    H123855   2.134   7.406   4.171
 7966TIP3    H223856   2.182   7.266   4.142
 7967TIP3   OH223857   0.723   0.045   5.155
 7967TIP3    H123858   0.707  -0.003   5.236
 7967TIP3    H223859   0.761  -0.021   5.096
 7968TIP3   OH223860   7.414   4.395   0.932
 7968TIP3    H123861   7.474   4.333   0.893
 7968TIP3    H223862   7.327   4.356   0.920
 7969TIP3   OH223863   5.251   6.963   2.594
 7969TIP3    H123864   5.163   6.945   2.626
 7969TIP3    H223865   5.238   6.996   2.505
 7970TIP3   OH223866   6.690   1.703   5.295
 7970TIP3    H123867   6.716   1.630   5.240
 7970TIP3    H223868   6.640   1.760   5.236
 7971TIP3   OH223869   4.482   4.638   4.816
 7971TIP3    H123870   4.528   4.606   4.738
 7971TIP3    H223871   4.402   4.585   4.820
 7972TIP3   OH223872   3.635   6.232   5.184
 7972TIP3    H123873   3.548   6.227   5.223
 7972TIP3    H223874   3.618   6.257   5.093
 7973TIP3   OH223875   3.066   0.207   2.987
 7973TIP3    H123876   3.045   0.122   3.025
 7973TIP3    H223877   2.994   0.263   3.012
 7974TIP3   OH223878   6.740   1.460   6.054
 7974TIP3    H123879   6.774   1.542   6.017
 7974TIP3    H223880   6.687   1.488   6.128
 7975TIP3   OH223881   5.189   7.183   4.653
 7975TIP3    H123882   5.177   7.278   4.661
 7975TIP3    H223883   5.283   7.170   4.667
 7976TIP3   OH223884   3.669   5.952   0.692
 7976TIP3    H123885   3.633   5.864   0.702
 7976TIP3    H223886   3.704   5.973   0.778
 7977TIP3   OH223887   7.729   7.164   2.590
 7977TIP3    H123888   7.772   7.120   2.663
 7977TIP3    H223889   7.678   7.096   2.547
 7978TIP3   OH223890   3.134   5.252   0.707
 7978TIP3    H123891   3.149   5.313   0.635
 7978TIP3    H223892   3.175   5.293   0.783
 7979TIP3   OH223893   3.110   3.467   5.654
 7979TIP3    H123894   3.030   3.486   5.604
 7979TIP3    H223895   3.139   3.552   5.687
 7980TIP3   OH223896   7.493   4.008   1.685
 7980TIP3    H123897   7.482   3.915   1.665
 7980TIP3    H223898   7.472   4.015   1.778
 7981TIP3   OH223899   1.698   6.185   5.909
 7981TIP3    H123900   1.740   6.100   5.901
 7981TIP3    H223901   1.743   6.241   5.846
 7982TIP3   OH223902   2.193   6.040   0.398
 7982TIP3    H123903   2.234   5.960   0.366
 7982TIP3    H223904   2.102   6.035   0.368
 7983TIP3   OH223905   0.057   7.466   2.507
 7983TIP3    H123906   0.090   7.490   2.420
 7983TIP3    H223907  -0.037   7.457   2.495
 7984TIP3   OH223908   6.631   1.391   2.599
 7984TIP3    H123909   6.560   1.351   2.648
 7984TIP3    H223910   6.596   1.475   2.568
 7985TIP3   OH223911   7.539   6.283   1.526
 7985TIP3    H123912   7.497   6.203   1.495
 7985TIP3    H223913   7.629   6.278   1.493
 7986TIP3   OH223914   5.691   1.939   6.300
 7986TIP3    H123915   5.713   2.024   6.264
 7986TIP3    H223916   5.595   1.937   6.301
 7987TIP3   OH223917   0.814   5.902   3.504
 7987TIP3    H123918   0.733   5.936   3.467
 7987TIP3    H223919   0.845   5.839   3.439
 7988TIP3   OH223920   7.088   6.462   6.412
 7988TIP3    H123921   7.047   6.431   6.493
 7988TIP3    H223922   7.026   6.438   6.343
 7989TIP3   OH223923   0.074   6.832   1.043
 7989TIP3    H123924   0.139   6.838   0.973
 7989TIP3    H223925   0.108   6.763   1.100
 7990TIP3   OH223926   7.775   3.284   2.959
 7990TIP3    H123927   7.691   3.312   2.923
 7990TIP3    H223928   7.757   3.263   3.050
 7991TIP3   OH223929   6.534   0.521   3.967
 7991TIP3    H123930   6.507   0.603   3.927
 7991TIP3    H223931   6.557   0.465   3.893
 7992TIP3   OH223932   7.770   7.420   4.716
 7992TIP3    H123933   7.743   7.510   4.698
 7992TIP3    H223934   7.691   7.377   4.748
 7993TIP3   OH223935   1.357   4.492   3.705
 7993TIP3    H123936   1.333   4.418   3.649
 7993TIP3    H223937   1.388   4.452   3.786
 7994TIP3   OH223938   7.529   1.741   0.817
 7994TIP3    H123939   7.524   1.837   0.817
 7994TIP3    H223940   7.446   1.713   0.778
 7995TIP3   OH223941   5.492   7.286   6.186
 7995TIP3    H123942   5.491   7.358   6.249
 7995TIP3    H223943   5.405   7.287   6.147
 7996TIP3   OH223944   4.560   6.123   6.342
 7996TIP3    H123945   4.562   6.029   6.323
 7996TIP3    H223946   4.638   6.158   6.300
 7997TIP3   OH223947   2.945   1.628   1.665
 7997TIP3    H123948   3.029   1.583   1.665
 7997TIP3    H223949   2.890   1.575   1.723
 7998TIP3   OH223950   0.703   6.964   4.733
 7998TIP3    H123951   0.752   6.888   4.702
 7998TIP3    H223952   0.736   7.037   4.681
 7999TIP3   OH223953   7.624   0.559   4.519
 7999TIP3    H123954   7.540   0.518   4.542
 7999TIP3    H223955   7.656   0.595   4.602
 8000TIP3   OH223956   8.192   6.623   5.389
 8000TIP3    H123957   8.219   6.541   5.348
 8000TIP3    H223958   8.222   6.692   5.329
 8001TIP3   OH223959   7.355   6.238   3.544
 8001TIP3    H123960   7.387   6.281   3.624
 8001TIP3    H223961   7.281   6.185   3.574
 8002TIP3   OH223962   1.815   0.837   1.142
 8002TIP3    H123963   1.727   0.801   1.153
 8002TIP3    H223964   1.806   0.901   1.071
 8003TIP3   OH223965   1.325   0.549   3.840
 8003TIP3    H123966   1.312   0.606   3.764
 8003TIP3    H223967   1.236   0.522   3.865
 8004TIP3   OH223968   1.861   0.970   3.980
 8004TIP3    H123969   1.821   1.045   3.936
 8004TIP3    H223970   1.790   0.906   3.986
 8005TIP3   OH223971   6.448   7.819   1.456
 8005TIP3    H123972   6.538   7.841   1.479
 8005TIP3    H223973   6.451   7.725   1.437
 8006TIP3   OH223974   7.525   2.181   5.679
 8006TIP3    H123975   7.581   2.128   5.735
 8006TIP3    H223976   7.552   2.159   5.590
 8007TIP3   OH223977   1.168   4.691   3.404
 8007TIP3    H123978   1.140   4.765   3.349
 8007TIP3    H223979   1.263   4.698   3.408
 8008TIP3   OH223980   1.308   4.844   6.120
 8008TIP3    H123981   1.229   4.797   6.143
 8008TIP3    H223982   1.314   4.915   6.184
 8009TIP3   OH223983   7.061   3.906   4.611
 8009TIP3    H123984   7.085   3.814   4.612
 8009TIP3    H223985   6.980   3.910   4.560
 8010TIP3   OH223986   3.367   5.417   6.595
 8010TIP3    H123987   3.299   5.414   6.528
 8010TIP3    H223988   3.322   5.396   6.677
 8011TIP3   OH223989   2.873   2.019   3.874
 8011TIP3    H123990   2.947   1.968   3.906
 8011TIP3    H223991   2.913   2.096   3.832
 8012TIP3   OH223992   0.349   6.277   2.556
 8012TIP3    H123993   0.441   6.295   2.571
 8012TIP3    H223994   0.319   6.349   2.501
 8013TIP3   OH223995   8.032   3.933   4.514
 8013TIP3    H123996   8.040   3.883   4.596
 8013TIP3    H223997   7.952   3.984   4.525
 8014TIP3   OH223998   7.598   1.094   1.701
 8014TIP3    H123999   7.565   1.170   1.749
 8014TIP3    H224000   7.677   1.125   1.658
 8015TIP3   OH224001   6.743   4.747   2.726
 8015TIP3    H124002   6.783   4.801   2.794
 8015TIP3    H224003   6.660   4.790   2.707
 8016TIP3   OH224004   5.879   3.685   1.897
 8016TIP3    H124005   5.902   3.656   1.809
 8016TIP3    H224006   5.958   3.668   1.949
 8017TIP3   OH224007   8.003   7.722   1.079
 8017TIP3    H124008   8.098   7.715   1.082
 8017TIP3    H224009   7.985   7.816   1.079
 8018TIP3   OH224010   3.088   4.543   1.249
 8018TIP3    H124011   3.118   4.514   1.163
 8018TIP3    H224012   3.139   4.492   1.311
 8019TIP3   OH224013   7.941   6.399   2.264
 8019TIP3    H124014   8.029   6.415   2.230
 8019TIP3    H224015   7.918   6.312   2.232
 8020TIP3   OH224016   2.079   4.236   3.369
 8020TIP3    H124017   2.077   4.331   3.358
 8020TIP3    H224018   2.137   4.205   3.300
 8021TIP3   OH224019   4.336   3.344   4.634
 8021TIP3    H124020   4.427   3.316   4.648
 8021TIP3    H224021   4.284   3.265   4.650
 8022TIP3   OH224022   2.671   1.994   2.935
 8022TIP3    H124023   2.726   2.000   2.857
 8022TIP3    H224024   2.623   1.911   2.925
 8023TIP3   OH224025   3.237   7.798   5.496
 8023TIP3    H124026   3.196   7.764   5.576
 8023TIP3    H224027   3.190   7.879   5.478
 8024TIP3   OH224028   5.513   1.519   4.798
 8024TIP3    H124029   5.581   1.455   4.776
 8024TIP3    H224030   5.439   1.466   4.828
 8025TIP3   OH224031   6.006   2.312   3.069
 8025TIP3    H124032   6.024   2.223   3.041
 8025TIP3    H224033   6.078   2.334   3.129
 8026TIP3   OH224034   2.633   5.475   3.572
 8026TIP3    H124035   2.691   5.469   3.648
 8026TIP3    H224036   2.643   5.391   3.528
 8027TIP3   OH224037   1.737   1.310   1.229
 8027TIP3    H124038   1.818   1.352   1.199
 8027TIP3    H224039   1.681   1.382   1.257
 8028TIP3   OH224040   5.449   6.990   6.272
 8028TIP3    H124041   5.509   6.916   6.258
 8028TIP3    H224042   5.505   7.067   6.263
 8029TIP3   OH224043   7.819   0.743   2.055
 8029TIP3    H124044   7.729   0.763   2.079
 8029TIP3    H224045   7.823   0.759   1.961
 8030TIP3   OH224046   6.368   5.533   2.116
 8030TIP3    H124047   6.379   5.544   2.210
 8030TIP3    H224048   6.426   5.599   2.077
 8031TIP3   OH224049   4.573   4.739   0.963
 8031TIP3    H124050   4.542   4.702   1.046
 8031TIP3    H224051   4.647   4.684   0.938
 8032TIP3   OH224052   7.112   1.018   2.338
 8032TIP3    H124053   7.153   1.002   2.423
 8032TIP3    H224054   7.103   1.113   2.333
 8033TIP3   OH224055   2.294   2.483   3.747
 8033TIP3    H124056   2.231   2.452   3.812
 8033TIP3    H224057   2.340   2.404   3.718
 8034TIP3   OH224058   4.573   0.923   3.353
 8034TIP3    H124059   4.550   0.911   3.261
 8034TIP3    H224060   4.488   0.922   3.399
 8035TIP3   OH224061   1.964   4.123   1.333
 8035TIP3    H124062   1.939   4.161   1.249
 8035TIP3    H224063   2.040   4.068   1.313
 8036TIP3   OH224064   0.599   2.210   1.735
 8036TIP3    H124065   0.519   2.181   1.778
 8036TIP3    H224066   0.595   2.306   1.738
 8037TIP3   OH224067   2.218   2.344   5.262
 8037TIP3    H124068   2.231   2.305   5.349
 8037TIP3    H224069   2.230   2.438   5.275
 8038TIP3   OH224070   2.727   1.786   1.361
 8038TIP3    H124071   2.815   1.753   1.340
 8038TIP3    H224072   2.671   1.709   1.353
 8039TIP3   OH224073   1.378   4.153   2.639
 8039TIP3    H124074   1.310   4.088   2.657
 8039TIP3    H224075   1.392   4.197   2.723
 8040TIP3   OH224076   3.631   6.611   3.612
 8040TIP3    H124077   3.591   6.608   3.525
 8040TIP3    H224078   3.722   6.637   3.595
 8041TIP3   OH224079   6.050   4.290   6.302
 8041TIP3    H124080   6.046   4.263   6.211
 8041TIP3    H224081   6.053   4.208   6.352
 8042TIP3   OH224082   2.588   0.600   0.815
 8042TIP3    H124083   2.669   0.651   0.804
 8042TIP3    H224084   2.519   0.657   0.782
 8043TIP3   OH224085   6.732   7.804   1.480
 8043TIP3    H124086   6.819   7.781   1.511
 8043TIP3    H224087   6.725   7.760   1.395
 8044TIP3   OH224088   6.637   6.410   0.095
 8044TIP3    H124089   6.690   6.390   0.172
 8044TIP3    H224090   6.698   6.403   0.021
 8045TIP3   OH224091   5.599   0.022   3.960
 8045TIP3    H124092   5.639  -0.001   3.876
 8045TIP3    H224093   5.674   0.033   4.019
 8046TIP3   OH224094   7.385   1.071   4.551
 8046TIP3    H124095   7.452   1.071   4.618
 8046TIP3    H224096   7.342   0.985   4.560
 8047TIP3   OH224097   4.665   3.081   2.437
 8047TIP3    H124098   4.667   2.991   2.471
 8047TIP3    H224099   4.755   3.111   2.445
 8048TIP3   OH224100   6.825   6.801   4.706
 8048TIP3    H124101   6.907   6.784   4.660
 8048TIP3    H224102   6.840   6.882   4.753
 8049TIP3   OH224103   4.763   2.244   1.533
 8049TIP3    H124104   4.851   2.211   1.548
 8049TIP3    H224105   4.719   2.235   1.617
 8050TIP3   OH224106   4.336   6.094   3.546
 8050TIP3    H124107   4.410   6.034   3.532
 8050TIP3    H224108   4.275   6.073   3.475
 8051TIP3   OH224109   5.919   7.575   4.212
 8051TIP3    H124110   5.943   7.655   4.258
 8051TIP3    H224111   5.826   7.562   4.232
 8052TIP3   OH224112   7.364   6.218   1.081
 8052TIP3    H124113   7.396   6.308   1.073
 8052TIP3    H224114   7.332   6.213   1.171
 8053TIP3   OH224115   0.024   7.313   5.791
 8053TIP3    H124116   0.040   7.404   5.817
 8053TIP3    H224117  -0.017   7.273   5.868
 8054TIP3   OH224118   1.869   6.748   6.378
 8054TIP3    H124119   1.833   6.701   6.454
 8054TIP3    H224120   1.826   6.834   6.380
 8055TIP3   OH224121   5.955   3.446   3.264
 8055TIP3    H124122   5.994   3.530   3.288
 8055TIP3    H224123   5.923   3.458   3.175
 8056TIP3   OH224124   2.795   7.568   3.934
 8056TIP3    H124125   2.818   7.643   3.879
 8056TIP3    H224126   2.859   7.570   4.005
 8057TIP3   OH224127   3.661   7.206   6.724
 8057TIP3    H124128   3.666   7.287   6.675
 8057TIP3    H224129   3.616   7.229   6.805
 8058TIP3   OH224130   1.551   1.509   2.303
 8058TIP3    H124131   1.633   1.463   2.322
 8058TIP3    H224132   1.491   1.440   2.276
 8059TIP3   OH224133   3.720   5.407   3.914
 8059TIP3    H124134   3.676   5.489   3.891
 8059TIP3    H224135   3.675   5.341   3.860
 8060TIP3   OH224136   2.630   3.858   2.242
 8060TIP3    H124137   2.661   3.948   2.255
 8060TIP3    H224138   2.537   3.866   2.222
 8061TIP3   OH224139   0.615   2.661   0.965
 8061TIP3    H124140   0.623   2.752   0.934
 8061TIP3    H224141   0.623   2.667   1.060
 8062TIP3   OH224142   6.873   5.900   5.540
 8062TIP3    H124143   6.929   5.825   5.565
 8062TIP3    H224144   6.933   5.974   5.538
 8063TIP3   OH224145   3.636   6.212   1.233
 8063TIP3    H124146   3.560   6.154   1.238
 8063TIP3    H224147   3.631   6.264   1.313
 8064TIP3   OH224148   6.905   4.906   5.682
 8064TIP3    H124149   6.908   4.840   5.613
 8064TIP3    H224150   6.996   4.930   5.697
 8065TIP3   OH224151   4.201   4.379   0.765
 8065TIP3    H124152   4.113   4.363   0.730
 8065TIP3    H224153   4.260   4.339   0.701
 8066TIP3   OH224154   1.122   5.027   2.441
 8066TIP3    H124155   1.136   5.118   2.414
 8066TIP3    H224156   1.159   5.021   2.529
 8067TIP3   OH224157   3.769   3.021   1.764
 8067TIP3    H124158   3.685   2.978   1.747
 8067TIP3    H224159   3.750   3.115   1.755
 8068TIP3   OH224160   7.923   2.798   5.161
 8068TIP3    H124161   7.985   2.784   5.232
 8068TIP3    H224162   7.858   2.729   5.170
 8069TIP3   OH224163   3.782   0.043   3.570
 8069TIP3    H124164   3.846  -0.023   3.542
 8069TIP3    H224165   3.835   0.115   3.605
 8070TIP3   OH224166   3.301   0.987   3.530
 8070TIP3    H124167   3.275   1.008   3.620
 8070TIP3    H224168   3.220   0.993   3.479
 8071TIP3   OH224169   5.518   4.241   5.934
 8071TIP3    H124170   5.550   4.329   5.956
 8071TIP3    H224171   5.593   4.197   5.894
 8072TIP3   OH224172   7.132   2.624   3.530
 8072TIP3    H124173   7.057   2.681   3.542
 8072TIP3    H224174   7.191   2.674   3.473
 8073TIP3   OH224175   5.705   4.028   1.175
 8073TIP3    H124176   5.620   3.986   1.189
 8073TIP3    H224177   5.715   4.087   1.249
 8074TIP3   OH224178   3.802   0.421   6.419
 8074TIP3    H124179   3.854   0.343   6.439
 8074TIP3    H224180   3.831   0.448   6.332
 8075TIP3   OH224181   8.220   5.902   2.539
 8075TIP3    H124182   8.244   5.952   2.618
 8075TIP3    H224183   8.156   5.958   2.495
 8076TIP3   OH224184   5.587   6.150   0.627
 8076TIP3    H124185   5.645   6.224   0.646
 8076TIP3    H224186   5.568   6.157   0.534
 8077TIP3   OH224187   6.523   6.097   4.671
 8077TIP3    H124188   6.510   6.176   4.618
 8077TIP3    H224189   6.513   6.025   4.609
 8078TIP3   OH224190   2.333   2.045   3.555
 8078TIP3    H124191   2.247   2.024   3.518
 8078TIP3    H224192   2.395   2.020   3.487
 8079TIP3   OH224193   1.656   1.573   5.478
 8079TIP3    H124194   1.623   1.492   5.515
 8079TIP3    H224195   1.615   1.580   5.392
 8080TIP3   OH224196   6.702   6.181   2.664
 8080TIP3    H124197   6.622   6.231   2.648
 8080TIP3    H224198   6.732   6.154   2.577
 8081TIP3   OH224199   7.132   3.901   2.254
 8081TIP3    H124200   7.210   3.878   2.303
 8081TIP3    H224201   7.065   3.918   2.321
 8082TIP3   OH224202   0.861   4.366   0.579
 8082TIP3    H124203   0.881   4.447   0.626
 8082TIP3    H224204   0.941   4.313   0.587
 8083TIP3   OH224205   3.338   1.594   6.175
 8083TIP3    H124206   3.425   1.556   6.161
 8083TIP3    H224207   3.278   1.535   6.129
 8084TIP3   OH224208   6.416   4.644   2.914
 8084TIP3    H124209   6.478   4.598   2.970
 8084TIP3    H224210   6.432   4.737   2.931
 8085TIP3   OH224211   8.045   7.154   4.816
 8085TIP3    H124212   8.035   7.198   4.732
 8085TIP3    H224213   8.076   7.223   4.875
 8086TIP3   OH224214   3.287   1.403   5.407
 8086TIP3    H124215   3.341   1.465   5.455
 8086TIP3    H224216   3.237   1.457   5.346
 8087TIP3   OH224217   1.391   4.272   2.904
 8087TIP3    H124218   1.345   4.352   2.879
 8087TIP3    H224219   1.349   4.245   2.986
 8088TIP3   OH224220   2.692   1.067   2.313
 8088TIP3    H124221   2.770   1.122   2.322
 8088TIP3    H224222   2.722   0.992   2.262
 8089TIP3   OH224223   1.492   5.637   6.752
 8089TIP3    H124224   1.468   5.725   6.781
 8089TIP3    H224225   1.578   5.647   6.712
 8090TIP3   OH224226   3.962   7.805   3.364
 8090TIP3    H124227   3.989   7.713   3.375
 8090TIP3    H224228   3.908   7.804   3.285
 8091TIP3   OH224229   0.997   0.796   5.405
 8091TIP3    H124230   1.000   0.701   5.418
 8091TIP3    H224231   1.032   0.833   5.485
 8092TIP3   OH224232   0.171   0.764   2.030
 8092TIP3    H124233   0.246   0.736   2.082
 8092TIP3    H224234   0.109   0.798   2.094
 8093TIP3   OH224235   1.347   4.307   0.192
 8093TIP3    H124236   1.413   4.375   0.182
 8093TIP3    H224237   1.279   4.347   0.245
 8094TIP3   OH224238   8.229   2.034   4.003
 8094TIP3    H124239   8.191   1.959   3.957
 8094TIP3    H224240   8.172   2.107   3.980
 8095TIP3   OH224241   5.795   3.537   0.171
 8095TIP3    H124242   5.815   3.481   0.247
 8095TIP3    H224243   5.737   3.484   0.117
 8096TIP3   OH224244   2.508   3.820  -0.004
 8096TIP3    H124245   2.566   3.863   0.059
 8096TIP3    H224246   2.422   3.859   0.012
 8097TIP3   OH224247   4.897   6.842   3.413
 8097TIP3    H124248   4.835   6.814   3.346
 8097TIP3    H224249   4.959   6.899   3.367
 8098TIP3   OH224250   2.942   3.960   5.026
 8098TIP3    H124251   2.929   3.926   4.937
 8098TIP3    H224252   2.956   3.881   5.079
 8099TIP3   OH224253   3.879   0.093   3.924
 8099TIP3    H124254   3.970   0.122   3.914
 8099TIP3    H224255   3.858   0.114   4.015
 8100TIP3   OH224256   0.689   1.754   0.784
 8100TIP3    H124257   0.632   1.724   0.854
 8100TIP3    H224258   0.752   1.683   0.771
 8101TIP3   OH224259   0.876   2.823   2.500
 8101TIP3    H124260   0.852   2.908   2.537
 8101TIP3    H224261   0.944   2.790   2.559
 8102TIP3   OH224262   2.883   6.482   3.453
 8102TIP3    H124263   2.944   6.461   3.523
 8102TIP3    H224264   2.876   6.402   3.401
 8103TIP3   OH224265   0.321   0.133   5.301
 8103TIP3    H124266   0.409   0.160   5.328
 8103TIP3    H224267   0.263   0.168   5.370
 8104TIP3   OH224268   0.671   0.149   6.427
 8104TIP3    H124269   0.679   0.054   6.442
 8104TIP3    H224270   0.583   0.171   6.455
 8105TIP3   OH224271   6.009   1.719   4.431
 8105TIP3    H124272   6.056   1.768   4.499
 8105TIP3    H224273   5.916   1.741   4.445
 8106TIP3   OH224274   6.888   2.528   0.482
 8106TIP3    H124275   6.955   2.590   0.453
 8106TIP3    H224276   6.840   2.506   0.402
 8107TIP3   OH224277   0.001   7.346   5.117
 8107TIP3    H124278  -0.018   7.348   5.211
 8107TIP3    H224279   0.032   7.434   5.097
 8108TIP3   OH224280   2.399   3.469   0.985
 8108TIP3    H124281   2.422   3.379   0.963
 8108TIP3    H224282   2.402   3.516   0.902
 8109TIP3   OH224283   3.184   7.562   3.165
 8109TIP3    H124284   3.090   7.544   3.176
 8109TIP3    H224285   3.209   7.510   3.089
 8110TIP3   OH224286   7.224   2.921   1.823
 8110TIP3    H124287   7.187   2.891   1.740
 8110TIP3    H224288   7.283   2.851   1.849
 8111TIP3   OH224289   7.434   7.250   4.958
 8111TIP3    H124290   7.387   7.305   5.020
 8111TIP3    H224291   7.444   7.304   4.879
 8112TIP3   OH224292   2.595   1.051   3.734
 8112TIP3    H124293   2.509   1.046   3.693
 8112TIP3    H224294   2.656   1.066   3.662
 8113TIP3   OH224295   3.712   0.757   4.533
 8113TIP3    H124296   3.708   0.686   4.470
 8113TIP3    H224297   3.681   0.834   4.485
 8114TIP3   OH224298   1.679   2.632   1.912
 8114TIP3    H124299   1.675   2.549   1.866
 8114TIP3    H224300   1.710   2.610   2.000
 8115TIP3   OH224301   3.961   3.373   5.896
 8115TIP3    H124302   4.029   3.398   5.834
 8115TIP3    H224303   3.924   3.456   5.927
 8116TIP3   OH224304   0.193   3.252   6.483
 8116TIP3    H124305   0.225   3.342   6.471
 8116TIP3    H224306   0.247   3.216   6.553
 8117TIP3   OH224307   0.644   3.528   1.643
 8117TIP3    H124308   0.628   3.466   1.571
 8117TIP3    H224309   0.738   3.544   1.640
 8118TIP3   OH224310   5.946   7.402   3.840
 8118TIP3    H124311   6.008   7.412   3.767
 8118TIP3    H224312   6.002   7.384   3.916
 8119TIP3   OH224313   7.513   5.792   0.536
 8119TIP3    H124314   7.490   5.885   0.532
 8119TIP3    H224315   7.565   5.783   0.616
 8120TIP3   OH224316   1.172   1.008   5.055
 8120TIP3    H124317   1.211   1.095   5.060
 8120TIP3    H224318   1.078   1.024   5.056
 8121TIP3   OH224319   5.785   2.868   5.816
 8121TIP3    H124320   5.756   2.947   5.861
 8121TIP3    H224321   5.870   2.892   5.778
 8122TIP3   OH224322   2.607   2.902   4.847
 8122TIP3    H124323   2.534   2.840   4.853
 8122TIP3    H224324   2.583   2.973   4.906
 8123TIP3   OH224325   2.020   3.388   2.355
 8123TIP3    H124326   1.925   3.374   2.349
 8123TIP3    H224327   2.030   3.446   2.430
 8124TIP3   OH224328   0.025   5.046   1.552
 8124TIP3    H124329   0.068   4.975   1.503
 8124TIP3    H224330  -0.068   5.025   1.547
 8125TIP3   OH224331   3.101   7.523   1.266
 8125TIP3    H124332   3.056   7.599   1.231
 8125TIP3    H224333   3.176   7.511   1.208
 8126TIP3   OH224334   7.361   2.106   2.160
 8126TIP3    H124335   7.371   2.136   2.250
 8126TIP3    H224336   7.271   2.130   2.137
 8127TIP3   OH224337   2.435   5.724   1.386
 8127TIP3    H124338   2.392   5.646   1.419
 8127TIP3    H224339   2.501   5.745   1.452
 8128TIP3   OH224340   1.247   1.943   1.770
 8128TIP3    H124341   1.256   2.039   1.768
 8128TIP3    H224342   1.326   1.913   1.813
 8129TIP3   OH224343   0.125   1.052   0.555
 8129TIP3    H124344   0.035   1.078   0.539
 8129TIP3    H224345   0.173   1.134   0.566
 8130TIP3   OH224346   1.386   7.711   0.214
 8130TIP3    H124347   1.316   7.705   0.278
 8130TIP3    H224348   1.344   7.690   0.130
 8131TIP3   OH224349   0.842   2.011   0.399
 8131TIP3    H124350   0.801   1.948   0.458
 8131TIP3    H224351   0.790   2.091   0.409
 8132TIP3   OH224352   0.762   0.235   1.725
 8132TIP3    H124353   0.783   0.146   1.753
 8132TIP3    H224354   0.803   0.291   1.789
 8133TIP3   OH224355   0.199   4.431   2.168
 8133TIP3    H124356   0.148   4.374   2.226
 8133TIP3    H224357   0.199   4.516   2.212
 8134TIP3   OH224358   1.401   0.587   5.592
 8134TIP3    H124359   1.377   0.519   5.529
 8134TIP3    H224360   1.435   0.659   5.538
 8135TIP3   OH224361   6.848   4.280   4.076
 8135TIP3    H124362   6.782   4.340   4.111
 8135TIP3    H224363   6.866   4.220   4.149
 8136TIP3   OH224364   5.074   4.768   3.848
 8136TIP3    H124365   5.063   4.862   3.866
 8136TIP3    H224366   4.989   4.730   3.869
 8137TIP3   OH224367   4.492   2.208   3.903
 8137TIP3    H124368   4.505   2.235   3.993
 8137TIP3    H224369   4.581   2.205   3.866
 8138TIP3   OH224370   0.401   4.779   2.683
 8138TIP3    H124371   0.367   4.846   2.624
 8138TIP3    H224372   0.329   4.716   2.692
 8139TIP3   OH224373   2.656   4.711   2.191
 8139TIP3    H124374   2.629   4.720   2.283
 8139TIP3    H224375   2.748   4.686   2.196
 8140TIP3   OH224376   2.086   2.403   3.918
 8140TIP3    H124377   2.000   2.394   3.876
 8140TIP3    H224378   2.066   2.436   4.005
 8141TIP3   OH224379   6.797   7.776   4.786
 8141TIP3    H124380   6.825   7.737   4.868
 8141TIP3    H224381   6.702   7.770   4.787
 8142TIP3   OH224382   3.437   4.600   3.975
 8142TIP3    H124383   3.477   4.525   3.932
 8142TIP3    H224384   3.430   4.575   4.067
 8143TIP3   OH224385   6.304   4.798   3.862
 8143TIP3    H124386   6.266   4.738   3.926
 8143TIP3    H224387   6.352   4.742   3.801
 8144TIP3   OH224388   3.312   3.272   2.217
 8144TIP3    H124389   3.309   3.342   2.282
 8144TIP3    H224390   3.323   3.318   2.134
 8145TIP3   OH224391   2.630   2.533   0.210
 8145TIP3    H124392   2.643   2.580   0.128
 8145TIP3    H224393   2.573   2.590   0.262
 8146TIP3   OH224394   5.080   6.140   5.144
 8146TIP3    H124395   5.101   6.233   5.143
 8146TIP3    H224396   5.088   6.112   5.053
 8147TIP3   OH224397   6.745   2.864   2.951
 8147TIP3    H124398   6.670   2.923   2.941
 8147TIP3    H224399   6.810   2.895   2.888
 8148TIP3   OH224400   6.161   7.328   0.143
 8148TIP3    H124401   6.091   7.303   0.084
 8148TIP3    H224402   6.236   7.274   0.117
 8149TIP3   OH224403   0.837   7.401   0.924
 8149TIP3    H124404   0.880   7.480   0.892
 8149TIP3    H224405   0.894   7.329   0.896
 8150TIP3   OH224406   6.371   3.586   4.267
 8150TIP3    H124407   6.296   3.635   4.232
 8150TIP3    H224408   6.445   3.618   4.217
 8151TIP3   OH224409   3.531   4.585   2.226
 8151TIP3    H124410   3.477   4.617   2.154
 8151TIP3    H224411   3.481   4.606   2.305
 8152TIP3   OH224412   1.652   6.077   2.333
 8152TIP3    H124413   1.665   6.103   2.424
 8152TIP3    H224414   1.631   6.159   2.288
 8153TIP3   OH224415   4.362   0.982   2.350
 8153TIP3    H124416   4.434   0.937   2.306
 8153TIP3    H224417   4.315   0.912   2.396
 8154TIP3   OH224418   4.967   5.442   3.581
 8154TIP3    H124419   5.057   5.449   3.550
 8154TIP3    H224420   4.934   5.362   3.538
 8155TIP3   OH224421   4.956   5.376   2.076
 8155TIP3    H124422   4.906   5.385   2.157
 8155TIP3    H224423   4.921   5.296   2.035
 8156TIP3   OH224424   1.495   5.416   0.412
 8156TIP3    H124425   1.486   5.467   0.331
 8156TIP3    H224426   1.565   5.354   0.395
 8157TIP3   OH224427   7.240   1.156   0.150
 8157TIP3    H124428   7.230   1.165   0.056
 8157TIP3    H224429   7.320   1.203   0.171
 8158TIP3   OH224430   7.083   6.070   6.284
 8158TIP3    H124431   7.029   6.149   6.291
 8158TIP3    H224432   7.167   6.102   6.250
 8159TIP3   OH224433   3.707   7.049   4.680
 8159TIP3    H124434   3.790   7.095   4.667
 8159TIP3    H224435   3.649   7.113   4.721
 8160TIP3   OH224436   5.724   6.402   0.645
 8160TIP3    H124437   5.733   6.497   0.659
 8160TIP3    H224438   5.703   6.394   0.552
 8161TIP3   OH224439   0.742   3.475   3.158
 8161TIP3    H124440   0.802   3.422   3.105
 8161TIP3    H224441   0.798   3.512   3.226
 8162TIP3   OH224442   6.735   6.109   0.027
 8162TIP3    H124443   6.770   6.025   0.057
 8162TIP3    H224444   6.719   6.159   0.107
 8163TIP3   OH224445   4.198   1.714   5.975
 8163TIP3    H124446   4.260   1.658   6.022
 8163TIP3    H224447   4.228   1.712   5.884
 8164TIP3   OH224448   3.101   0.979   2.911
 8164TIP3    H124449   3.187   1.018   2.899
 8164TIP3    H224450   3.112   0.917   2.983
 8165TIP3   OH224451   3.148   1.343   2.566
 8165TIP3    H124452   3.114   1.405   2.630
 8165TIP3    H224453   3.226   1.307   2.607
 8166TIP3   OH224454   5.162   1.485   0.031
 8166TIP3    H124455   5.211   1.565   0.052
 8166TIP3    H224456   5.111   1.507  -0.046
 8167TIP3   OH224457   4.040   2.934   6.399
 8167TIP3    H124458   4.025   2.842   6.379
 8167TIP3    H224459   3.970   2.957   6.460
 8168TIP3   OH224460   2.770   6.727   2.007
 8168TIP3    H124461   2.725   6.809   2.026
 8168TIP3    H224462   2.819   6.745   1.926
 8169TIP3   OH224463   4.727   6.899   3.809
 8169TIP3    H124464   4.639   6.866   3.788
 8169TIP3    H224465   4.786   6.839   3.763
 8170TIP3   OH224466   2.490   0.601   2.522
 8170TIP3    H124467   2.546   0.558   2.458
 8170TIP3    H224468   2.447   0.671   2.473
 8171TIP3   OH224469   7.979   3.863   1.208
 8171TIP3    H124470   8.013   3.936   1.259
 8171TIP3    H224471   8.052   3.834   1.154
 8172TIP3   OH224472   1.772   5.683   6.638
 8172TIP3    H124473   1.848   5.660   6.692
 8172TIP3    H224474   1.771   5.779   6.639
 8173TIP3   OH224475   7.427   7.473   5.459
 8173TIP3    H124476   7.352   7.431   5.501
 8173TIP3    H224477   7.414   7.567   5.475
 8174TIP3   OH224478   0.096   1.001   2.563
 8174TIP3    H124479   0.118   1.004   2.656
 8174TIP3    H224480   0.000   1.005   2.562
 8175TIP3   OH224481   0.834   6.400   6.403
 8175TIP3    H124482   0.779   6.322   6.416
 8175TIP3    H224483   0.772   6.470   6.382
 8176TIP3   OH224484   7.597   2.925   5.178
 8176TIP3    H124485   7.516   2.918   5.127
 8176TIP3    H224486   7.614   3.019   5.184
 8177TIP3   OH224487   7.469   4.964   1.577
 8177TIP3    H124488   7.537   5.023   1.545
 8177TIP3    H224489   7.506   4.876   1.567
 8178TIP3   OH224490   2.890   1.702   3.113
 8178TIP3    H124491   2.945   1.645   3.167
 8178TIP3    H224492   2.821   1.732   3.172
 8179TIP3   OH224493   4.620   1.912   5.619
 8179TIP3    H124494   4.681   1.931   5.547
 8179TIP3    H224495   4.628   1.818   5.633
 8180TIP3   OH224496   5.399   1.146   2.226
 8180TIP3    H124497   5.444   1.113   2.303
 8180TIP3    H224498   5.429   1.237   2.217
 8181TIP3   OH224499   2.632   7.453   5.911
 8181TIP3    H124500   2.541   7.446   5.937
 8181TIP3    H224501   2.666   7.527   5.963
 8182TIP3   OH224502   0.770   4.819   4.776
 8182TIP3    H124503   0.743   4.909   4.759
 8182TIP3    H224504   0.719   4.766   4.714
 8183TIP3   OH224505   4.115   1.624   1.772
 8183TIP3    H124506   4.035   1.672   1.794
 8183TIP3    H224507   4.092   1.532   1.785
 8184TIP3   OH224508   2.628   6.926   0.433
 8184TIP3    H124509   2.541   6.938   0.472
 8184TIP3    H224510   2.680   6.886   0.502
 8185TIP3   OH224511   7.321   3.948   5.211
 8185TIP3    H124512   7.358   3.946   5.123
 8185TIP3    H224513   7.364   3.876   5.257
 8186TIP3   OH224514   5.052   3.322   1.921
 8186TIP3    H124515   5.117   3.258   1.890
 8186TIP3    H224516   5.105   3.391   1.961
 8187TIP3   OH224517   7.805   5.410   1.825
 8187TIP3    H124518   7.787   5.383   1.735
 8187TIP3    H224519   7.727   5.457   1.853
 8188TIP3   OH224520   8.210   6.184   5.837
 8188TIP3    H124521   8.176   6.228   5.759
 8188TIP3    H224522   8.152   6.109   5.849
 8189TIP3   OH224523   7.238   7.296   4.293
 8189TIP3    H124524   7.305   7.365   4.292
 8189TIP3    H224525   7.243   7.256   4.207
 8190TIP3   OH224526   1.679   4.065   3.819
 8190TIP3    H124527   1.757   4.095   3.772
 8190TIP3    H224528   1.672   4.124   3.894
 8191TIP3   OH224529   7.108   3.071   5.337
 8191TIP3    H124530   7.024   3.025   5.346
 8191TIP3    H224531   7.124   3.109   5.423
 8192TIP3   OH224532   0.528   6.391   1.744
 8192TIP3    H124533   0.563   6.307   1.774
 8192TIP3    H224534   0.507   6.438   1.825
 8193TIP3   OH224535   0.167   2.776   6.703
 8193TIP3    H124536   0.076   2.805   6.711
 8193TIP3    H224537   0.210   2.811   6.781
 8194TIP3   OH224538   6.486   7.233   1.135
 8194TIP3    H124539   6.444   7.296   1.193
 8194TIP3    H224540   6.414   7.180   1.100
 8195TIP3   OH224541   6.670   2.618   3.996
 8195TIP3    H124542   6.697   2.536   4.035
 8195TIP3    H224543   6.593   2.596   3.944
 8196TIP3   OH224544   4.882   7.233   1.252
 8196TIP3    H124545   4.865   7.222   1.345
 8196TIP3    H224546   4.822   7.171   1.209
 8197TIP3   OH224547   3.153   7.065   6.193
 8197TIP3    H124548   3.244   7.039   6.206
 8197TIP3    H224549   3.120   7.084   6.281
 8198TIP3   OH224550   0.599   7.193   3.726
 8198TIP3    H124551   0.611   7.201   3.632
 8198TIP3    H224552   0.559   7.107   3.738
 8199TIP3   OH224553   0.031   3.651   4.416
 8199TIP3    H124554  -0.060   3.638   4.443
 8199TIP3    H224555   0.083   3.606   4.483
 8200TIP3   OH224556   4.828   7.503   0.720
 8200TIP3    H124557   4.829   7.440   0.792
 8200TIP3    H224558   4.917   7.537   0.716
 8201TIP3   OH224559   2.045   0.815   6.154
 8201TIP3    H124560   2.005   0.737   6.115
 8201TIP3    H224561   1.975   0.880   6.158
 8202TIP3   OH224562   3.429   6.509   2.768
 8202TIP3    H124563   3.477   6.507   2.686
 8202TIP3    H224564   3.408   6.601   2.782
 8203TIP3   OH224565   2.457   3.380   3.728
 8203TIP3    H124566   2.407   3.449   3.684
 8203TIP3    H224567   2.530   3.363   3.668
 8204TIP3   OH224568   4.494   4.936   3.059
 8204TIP3    H124569   4.580   4.948   3.099
 8204TIP3    H224570   4.448   5.019   3.074
 8205TIP3   OH224571   3.677   2.351   5.495
 8205TIP3    H124572   3.654   2.427   5.550
 8205TIP3    H224573   3.593   2.321   5.460
 8206TIP3   OH224574   4.598   7.813   2.667
 8206TIP3    H124575   4.575   7.750   2.735
 8206TIP3    H224576   4.514   7.839   2.629
 8207TIP3   OH224577   5.755   7.090   6.669
 8207TIP3    H124578   5.766   7.111   6.762
 8207TIP3    H224579   5.837   7.119   6.629
 8208TIP3   OH224580   3.458   6.166   2.776
 8208TIP3    H124581   3.525   6.198   2.716
 8208TIP3    H224582   3.417   6.245   2.810
 8209TIP3   OH224583   2.316   3.760   2.363
 8209TIP3    H124584   2.350   3.714   2.285
 8209TIP3    H224585   2.253   3.699   2.400
 8210TIP3   OH224586   2.211   2.372   4.818
 8210TIP3    H124587   2.244   2.396   4.731
 8210TIP3    H224588   2.159   2.293   4.802
 8211TIP3   OH224589   5.151   4.838   2.980
 8211TIP3    H124590   5.122   4.748   2.995
 8211TIP3    H224591   5.073   4.885   2.951
 8212TIP3   OH224592   5.670   6.524   4.508
 8212TIP3    H124593   5.590   6.501   4.460
 8212TIP3    H224594   5.738   6.469   4.469
 8213TIP3   OH224595   3.422   1.322   5.989
 8213TIP3    H124596   3.423   1.247   6.049
 8213TIP3    H224597   3.329   1.337   5.972
 8214TIP3   OH224598   1.178   3.671   5.383
 8214TIP3    H124599   1.101   3.671   5.440
 8214TIP3    H224600   1.181   3.760   5.348
 8215TIP3   OH224601   0.364   5.786   1.226
 8215TIP3    H124602   0.353   5.766   1.319
 8215TIP3    H224603   0.449   5.830   1.220
 8216TIP3   OH224604   5.220   4.618   2.110
 8216TIP3    H124605   5.300   4.613   2.058
 8216TIP3    H224606   5.234   4.556   2.182
 8217TIP3   OH224607   8.125   3.351   0.383
 8217TIP3    H124608   8.061   3.422   0.392
 8217TIP3    H224609   8.130   3.312   0.470
 8218TIP3   OH224610   5.953   5.769   4.575
 8218TIP3    H124611   6.024   5.706   4.568
 8218TIP3    H224612   5.900   5.738   4.648
 8219TIP3   OH224613   4.589   1.846   1.256
 8219TIP3    H124614   4.542   1.906   1.314
 8219TIP3    H224615   4.564   1.759   1.287
 8220TIP3   OH224616   3.549   4.112   1.475
 8220TIP3    H124617   3.641   4.135   1.488
 8220TIP3    H224618   3.552   4.021   1.443
 8221TIP3   OH224619   2.059   4.461   2.179
 8221TIP3    H124620   1.975   4.476   2.137
 8221TIP3    H224621   2.087   4.548   2.209
 8222TIP3   OH224622   1.886   0.311   6.206
 8222TIP3    H124623   1.818   0.373   6.232
 8222TIP3    H224624   1.898   0.326   6.112
 8223TIP3   OH224625   7.791   7.339   1.448
 8223TIP3    H124626   7.827   7.407   1.391
 8223TIP3    H224627   7.712   7.309   1.403
 8224TIP3   OH224628   0.574   0.339   0.789
 8224TIP3    H124629   0.644   0.306   0.845
 8224TIP3    H224630   0.516   0.387   0.848
 8225TIP3   OH224631   2.026   5.229   2.700
 8225TIP3    H124632   1.997   5.219   2.791
 8225TIP3    H224633   1.946   5.253   2.652
 8226TIP3   OH224634   0.534   2.005   5.514
 8226TIP3    H124635   0.449   2.014   5.558
 8226TIP3    H224636   0.538   2.079   5.453
 8227TIP3   OH224637   1.375   0.265   2.866
 8227TIP3    H124638   1.361   0.176   2.833
 8227TIP3    H224639   1.333   0.321   2.801
 8228TIP3   OH224640   0.565   6.898   2.608
 8228TIP3    H124641   0.558   6.965   2.676
 8228TIP3    H224642   0.638   6.926   2.553
 8229TIP3   OH224643   2.791   0.907   3.299
 8229TIP3    H124644   2.799   0.855   3.219
 8229TIP3    H224645   2.735   0.855   3.357
 8230TIP3   OH224646   5.726   4.433   1.313
 8230TIP3    H124647   5.677   4.430   1.230
 8230TIP3    H224648   5.675   4.494   1.367
 8231TIP3   OH224649   5.353   5.401   1.135
 8231TIP3    H124650   5.442   5.368   1.148
 8231TIP3    H224651   5.337   5.393   1.041
 8232TIP3   OH224652   5.142   5.752   1.948
 8232TIP3    H124653   5.107   5.734   2.034
 8232TIP3    H224654   5.081   5.711   1.887
 8233TIP3   OH224655   5.837   2.519   1.542
 8233TIP3    H124656   5.846   2.463   1.618
 8233TIP3    H224657   5.752   2.495   1.504
 8234TIP3   OH224658   7.846   7.735   0.416
 8234TIP3    H124659   7.902   7.712   0.490
 8234TIP3    H224660   7.767   7.771   0.456
 8235TIP3   OH224661   3.489   4.272   0.809
 8235TIP3    H124662   3.416   4.297   0.753
 8235TIP3    H224663   3.447   4.237   0.888
 8236TIP3   OH224664   1.571   5.205   0.722
 8236TIP3    H124665   1.557   5.276   0.785
 8236TIP3    H224666   1.628   5.244   0.655
 8237TIP3   OH224667   7.052   0.066   4.272
 8237TIP3    H124668   7.099   0.015   4.205
 8237TIP3    H224669   7.047   0.154   4.235
 8238TIP3   OH224670   6.190   5.382   4.108
 8238TIP3    H124671   6.104   5.343   4.125
 8238TIP3    H224672   6.240   5.365   4.189
 8239TIP3   OH224673   5.524   0.203   6.662
 8239TIP3    H124674   5.462   0.266   6.699
 8239TIP3    H224675   5.550   0.241   6.578
 8240TIP3   OH224676   4.476   4.566   4.477
 8240TIP3    H124677   4.505   4.504   4.543
 8240TIP3    H224678   4.381   4.570   4.488
 8241TIP3   OH224679   2.496   2.158   6.405
 8241TIP3    H124680   2.499   2.249   6.434
 8241TIP3    H224681   2.587   2.136   6.385
 8242TIP3   OH224682   7.520   7.756   1.955
 8242TIP3    H124683   7.528   7.716   2.041
 8242TIP3    H224684   7.429   7.784   1.948
 8243TIP3   OH224685   2.809   7.183   2.976
 8243TIP3    H124686   2.812   7.134   2.893
 8243TIP3    H224687   2.900   7.184   3.006
 8244TIP3   OH224688   7.098   7.470   4.681
 8244TIP3    H124689   7.103   7.563   4.704
 8244TIP3    H224690   7.062   7.469   4.592
 8245TIP3   OH224691   7.905   0.990   5.771
 8245TIP3    H124692   7.853   1.070   5.766
 8245TIP3    H224693   7.840   0.919   5.770
 8246TIP3   OH224694   0.610   3.644   0.670
 8246TIP3    H124695   0.631   3.707   0.601
 8246TIP3    H224696   0.693   3.628   0.714
 8247TIP3   OH224697   3.577   1.299   2.347
 8247TIP3    H124698   3.623   1.326   2.268
 8247TIP3    H224699   3.611   1.357   2.415
 8248TIP3   OH224700   1.236   0.515   5.131
 8248TIP3    H124701   1.325   0.547   5.115
 8248TIP3    H224702   1.229   0.511   5.227
 8249TIP3   OH224703   3.086   5.469   1.978
 8249TIP3    H124704   3.093   5.561   1.953
 8249TIP3    H224705   3.010   5.437   1.929
 8250TIP3   OH224706   5.543   6.186   3.887
 8250TIP3    H124707   5.472   6.218   3.942
 8250TIP3    H224708   5.502   6.116   3.835
 8251TIP3   OH224709   3.293   6.911   3.467
 8251TIP3    H124710   3.346   6.859   3.527
 8251TIP3    H224711   3.316   7.002   3.487
 8252TIP3   OH224712   4.117   6.831   5.821
 8252TIP3    H124713   4.133   6.870   5.907
 8252TIP3    H224714   4.025   6.850   5.803
 8253TIP3   OH224715   2.278   4.522   0.040
 8253TIP3    H124716   2.371   4.543   0.045
 8253TIP3    H224717   2.271   4.465  -0.037
 8254TIP3   OH224718   1.656   4.527   6.131
 8254TIP3    H124719   1.638   4.488   6.217
 8254TIP3    H224720   1.570   4.537   6.091
 8255TIP3   OH224721   5.087   6.671   2.700
 8255TIP3    H124722   5.078   6.742   2.763
 8255TIP3    H224723   4.998   6.656   2.668
 8256TIP3   OH224724   6.409   2.841   2.399
 8256TIP3    H124725   6.479   2.778   2.382
 8256TIP3    H224726   6.452   2.926   2.392
 8257TIP3   OH224727   3.300   3.937   3.093
 8257TIP3    H124728   3.234   3.950   3.025
 8257TIP3    H224729   3.297   4.017   3.145
 8258TIP3   OH224730   8.080   7.488   2.417
 8258TIP3    H124731   8.002   7.451   2.457
 8258TIP3    H224732   8.062   7.582   2.410
 8259TIP3   OH224733   1.261   2.322   4.633
 8259TIP3    H124734   1.239   2.349   4.722
 8259TIP3    H224735   1.348   2.282   4.641
 8260TIP3   OH224736   0.245   3.829   1.189
 8260TIP3    H124737   0.201   3.798   1.110
 8260TIP3    H224738   0.329   3.784   1.190
 8261TIP3   OH224739   0.760   3.646   1.973
 8261TIP3    H124740   0.776   3.562   1.930
 8261TIP3    H224741   0.728   3.703   1.903
 8262TIP3   OH224742   7.935   3.691   1.413
 8262TIP3    H124743   7.856   3.708   1.465
 8262TIP3    H224744   7.923   3.742   1.334
 8263TIP3   OH224745   0.382   0.723   5.074
 8263TIP3    H124746   0.463   0.771   5.095
 8263TIP3    H224747   0.394   0.698   4.982
 8264TIP3   OH224748   5.701  -0.012   6.735
 8264TIP3    H124749   5.789   0.024   6.744
 8264TIP3    H224750   5.649   0.060   6.700
 8265TIP3   OH224751   6.465   7.765   4.030
 8265TIP3    H124752   6.460   7.684   3.979
 8265TIP3    H224753   6.377   7.803   4.022
 8266TIP3   OH224754   3.149   7.004   0.111
 8266TIP3    H124755   3.143   6.909   0.119
 8266TIP3    H224756   3.213   7.029   0.178
 8267TIP3   OH224757   4.704   1.888   2.397
 8267TIP3    H124758   4.653   1.874   2.318
 8267TIP3    H224759   4.734   1.979   2.390
 8268TIP3   OH224760   0.236   0.952   5.578
 8268TIP3    H124761   0.292   0.877   5.561
 8268TIP3    H224762   0.168   0.947   5.511
 8269TIP3   OH224763   8.034   3.825   4.763
 8269TIP3    H124764   8.005   3.876   4.839
 8269TIP3    H224765   8.058   3.740   4.799
 8270TIP3   OH224766   2.651   0.362   3.877
 8270TIP3    H124767   2.722   0.311   3.839
 8270TIP3    H224768   2.599   0.298   3.925
 8271TIP3   OH224769   0.934   6.744   4.768
 8271TIP3    H124770   0.886   6.670   4.806
 8271TIP3    H224771   0.975   6.709   4.690
 8272TIP3   OH224772   1.584   3.540   4.143
 8272TIP3    H124773   1.649   3.563   4.076
 8272TIP3    H224774   1.569   3.447   4.131
 8273TIP3   OH224775   8.266   1.094   4.779
 8273TIP3    H124776   8.323   1.117   4.852
 8273TIP3    H224777   8.254   1.176   4.731
 8274TIP3   OH224778   1.905   0.404   4.018
 8274TIP3    H124779   1.936   0.371   4.103
 8274TIP3    H224780   1.964   0.365   3.954
 8275TIP3   OH224781   5.711   7.615   5.836
 8275TIP3    H124782   5.768   7.538   5.835
 8275TIP3    H224783   5.698   7.637   5.744
 8276TIP3   OH224784   3.745   5.398   4.581
 8276TIP3    H124785   3.807   5.376   4.651
 8276TIP3    H224786   3.768   5.487   4.555
 8277TIP3   OH224787   5.615   2.624   5.810
 8277TIP3    H124788   5.661   2.707   5.806
 8277TIP3    H224789   5.600   2.608   5.903
 8278TIP3   OH224790   3.313   7.548   3.416
 8278TIP3    H124791   3.262   7.581   3.341
 8278TIP3    H224792   3.403   7.544   3.383
 8279TIP3   OH224793   7.895   6.713   3.540
 8279TIP3    H124794   7.882   6.636   3.596
 8279TIP3    H224795   7.808   6.732   3.505
 8280TIP3   OH224796   4.481   3.687   2.893
 8280TIP3    H124797   4.450   3.755   2.952
 8280TIP3    H224798   4.524   3.734   2.822
 8281TIP3   OH224799   1.359   7.739   3.547
 8281TIP3    H124800   1.340   7.817   3.600
 8281TIP3    H224801   1.406   7.681   3.606
 8282TIP3   OH224802   4.668   5.546   3.229
 8282TIP3    H124803   4.650   5.524   3.138
 8282TIP3    H224804   4.650   5.465   3.278
 8283TIP3   OH224805   0.392   1.057   2.980
 8283TIP3    H124806   0.477   1.019   3.002
 8283TIP3    H224807   0.346   1.063   3.064
 8284TIP3   OH224808   6.572   2.956   3.559
 8284TIP3    H124809   6.514   3.031   3.578
 8284TIP3    H224810   6.630   2.951   3.635
 8285TIP3   OH224811   2.622   6.164   5.195
 8285TIP3    H124812   2.698   6.185   5.250
 8285TIP3    H224813   2.546   6.189   5.249
 8286TIP3   OH224814   5.768   7.660   1.188
 8286TIP3    H124815   5.758   7.566   1.172
 8286TIP3    H224816   5.777   7.667   1.283
 8287TIP3   OH224817   1.855   3.567   2.858
 8287TIP3    H124818   1.902   3.532   2.782
 8287TIP3    H224819   1.849   3.661   2.841
 8288TIP3   OH224820   0.580   6.393   4.539
 8288TIP3    H124821   0.570   6.361   4.628
 8288TIP3    H224822   0.647   6.337   4.500
 8289TIP3   OH224823   0.934   2.652   2.027
 8289TIP3    H124824   0.876   2.719   2.063
 8289TIP3    H224825   0.988   2.699   1.964
 8290TIP3   OH224826   4.266   5.088   3.619
 8290TIP3    H124827   4.310   5.083   3.534
 8290TIP3    H224828   4.215   5.169   3.615
 8291TIP3   OH224829   3.918   6.142   4.908
 8291TIP3    H124830   3.836   6.095   4.919
 8291TIP3    H224831   3.971   6.116   4.984
 8292TIP3   OH224832   0.688   2.232   4.655
 8292TIP3    H124833   0.777   2.243   4.622
 8292TIP3    H224834   0.694   2.159   4.716
 8293TIP3   OH224835   6.045   6.789   2.579
 8293TIP3    H124836   6.014   6.878   2.562
 8293TIP3    H224837   6.108   6.772   2.510
 8294TIP3   OH224838   5.612   6.373   5.298
 8294TIP3    H124839   5.703   6.347   5.285
 8294TIP3    H224840   5.588   6.417   5.217
 8295TIP3   OH224841   7.042   7.380   0.225
 8295TIP3    H124842   7.125   7.341   0.253
 8295TIP3    H224843   7.046   7.471   0.255
 8296TIP3   OH224844   3.317   6.304   4.921
 8296TIP3    H124845   3.272   6.327   4.840
 8296TIP3    H224846   3.328   6.387   4.967
 8297TIP3   OH224847   7.131   4.962   5.059
 8297TIP3    H124848   7.154   5.050   5.030
 8297TIP3    H224849   7.055   4.939   5.005
 8298TIP3   OH224850   3.942   3.887   0.994
 8298TIP3    H124851   3.949   3.875   0.899
 8298TIP3    H224852   3.852   3.862   1.014
 8299TIP3   OH224853   1.307   7.724   6.049
 8299TIP3    H124854   1.390   7.678   6.036
 8299TIP3    H224855   1.311   7.756   6.139
 8300TIP3   OH224856   7.035   0.254   5.321
 8300TIP3    H124857   7.050   0.269   5.415
 8300TIP3    H224858   6.976   0.178   5.319
 8301TIP3   OH224859   2.444   7.244   1.023
 8301TIP3    H124860   2.437   7.327   0.976
 8301TIP3    H224861   2.536   7.220   1.016
 8302TIP3   OH224862   2.143   5.430   1.792
 8302TIP3    H124863   2.144   5.367   1.864
 8302TIP3    H224864   2.138   5.516   1.834
 8303TIP3   OH224865   4.730   7.642   2.945
 8303TIP3    H124866   4.669   7.704   2.984
 8303TIP3    H224867   4.679   7.594   2.880
 8304TIP3   OH224868   7.453   0.879   6.357
 8304TIP3    H124869   7.503   0.887   6.439
 8304TIP3    H224870   7.387   0.948   6.363
 8305TIP3   OH224871   0.802   6.870   0.069
 8305TIP3    H124872   0.731   6.883   0.132
 8305TIP3    H224873   0.878   6.851   0.123
 8306TIP3   OH224874   6.806   6.280   1.404
 8306TIP3    H124875   6.855   6.362   1.391
 8306TIP3    H224876   6.805   6.239   1.318
 8307TIP3   OH224877   3.207   3.085   4.032
 8307TIP3    H124878   3.264   3.008   4.031
 8307TIP3    H224879   3.123   3.052   3.998
 8308TIP3   OH224880   5.501   1.983   3.091
 8308TIP3    H124881   5.430   1.940   3.044
 8308TIP3    H224882   5.458   2.045   3.150
 8309TIP3   OH224883   5.291   6.004   5.286
 8309TIP3    H124884   5.300   5.921   5.239
 8309TIP3    H224885   5.207   6.039   5.258
 8310TIP3   OH224886   6.863   7.416   6.493
 8310TIP3    H124887   6.890   7.328   6.520
 8310TIP3    H224888   6.888   7.421   6.400
 8311TIP3   OH224889   6.951   5.086   5.956
 8311TIP3    H124890   7.013   5.013   5.948
 8311TIP3    H224891   6.900   5.084   5.875
 8312TIP3   OH224892   4.912   5.420   1.405
 8312TIP3    H124893   4.983   5.466   1.359
 8312TIP3    H224894   4.837   5.479   1.397
 8313TIP3   OH224895   3.571   5.360   1.816
 8313TIP3    H124896   3.524   5.397   1.891
 8313TIP3    H224897   3.657   5.404   1.818
 8314TIP3   OH224898   8.165   7.188   5.996
 8314TIP3    H124899   8.175   7.146   6.081
 8314TIP3    H224900   8.074   7.216   5.993
 8315TIP3   OH224901   0.435   0.725   3.522
 8315TIP3    H124902   0.366   0.684   3.471
 8315TIP3    H224903   0.396   0.737   3.609
 8316TIP3   OH224904   0.351   2.776   3.595
 8316TIP3    H124905   0.326   2.687   3.619
 8316TIP3    H224906   0.276   2.830   3.619
 8317TIP3   OH224907   7.260   2.842   6.058
 8317TIP3    H124908   7.166   2.852   6.076
 8317TIP3    H224909   7.289   2.931   6.038
 8318TIP3   OH224910   3.553   0.918   2.308
 8318TIP3    H124911   3.462   0.938   2.332
 8318TIP3    H224912   3.564   0.826   2.331
 8319TIP3   OH224913   2.957   7.237   1.945
 8319TIP3    H124914   2.941   7.192   2.028
 8319TIP3    H224915   2.870   7.240   1.903
 8320TIP3   OH224916   7.145   1.454   5.787
 8320TIP3    H124917   7.162   1.471   5.694
 8320TIP3    H224918   7.198   1.518   5.833
 8321TIP3   OH224919   1.851   5.588   4.513
 8321TIP3    H124920   1.817   5.504   4.480
 8321TIP3    H224921   1.777   5.627   4.559
 8322TIP3   OH224922   6.607   0.205   5.467
 8322TIP3    H124923   6.523   0.161   5.451
 8322TIP3    H224924   6.657   0.192   5.387
 8323TIP3   OH224925   4.145   2.366   1.496
 8323TIP3    H124926   4.221   2.340   1.549
 8323TIP3    H224927   4.137   2.460   1.510
 8324TIP3   OH224928   0.358   6.358  -0.006
 8324TIP3    H124929   0.330   6.269   0.015
 8324TIP3    H224930   0.447   6.364   0.028
 8325TIP3   OH224931   4.000   1.745   0.558
 8325TIP3    H124932   3.940   1.781   0.624
 8325TIP3    H224933   4.078   1.721   0.608
 8326TIP3   OH224934   5.075   7.825   0.288
 8326TIP3    H124935   4.999   7.801   0.235
 8326TIP3    H224936   5.044   7.817   0.379
 8327TIP3   OH224937   4.359   2.494   6.344
 8327TIP3    H124938   4.389   2.455   6.261
 8327TIP3    H224939   4.330   2.582   6.319
 8328TIP3   OH224940   0.979   3.923   5.738
 8328TIP3    H124941   0.906   3.980   5.713
 8328TIP3    H224942   1.051   3.951   5.682
 8329TIP3   OH224943   3.670   5.855   3.723
 8329TIP3    H124944   3.633   5.807   3.649
 8329TIP3    H224945   3.663   5.947   3.697
 8330TIP3   OH224946   2.744   5.679   0.354
 8330TIP3    H124947   2.736   5.767   0.319
 8330TIP3    H224948   2.659   5.638   0.335
 8331TIP3   OH224949   6.503   3.670   0.471
 8331TIP3    H124950   6.598   3.667   0.476
 8331TIP3    H224951   6.484   3.697   0.381
 8332TIP3   OH224952   5.638   4.962   0.830
 8332TIP3    H124953   5.662   4.995   0.743
 8332TIP3    H224954   5.714   4.911   0.857
 8333TIP3   OH224955   5.265   1.848   0.436
 8333TIP3    H124956   5.341   1.794   0.415
 8333TIP3    H224957   5.270   1.862   0.530
 8334TIP3   OH224958   7.534   0.261   2.085
 8334TIP3    H124959   7.556   0.351   2.112
 8334TIP3    H224960   7.527   0.266   1.990
 8335TIP3   OH224961   2.101   7.078   1.304
 8335TIP3    H124962   2.060   7.139   1.365
 8335TIP3    H224963   2.195   7.097   1.311
 8336TIP3   OH224964   5.881   2.679   6.548
 8336TIP3    H124965   5.906   2.614   6.614
 8336TIP3    H224966   5.902   2.763   6.589
 8337TIP3   OH224967   5.391   7.710   2.736
 8337TIP3    H124968   5.469   7.761   2.757
 8337TIP3    H224969   5.327   7.775   2.708
 8338TIP3   OH224970   7.985   0.503   2.590
 8338TIP3    H124971   8.018   0.476   2.675
 8338TIP3    H224972   8.042   0.575   2.564
 8339TIP3   OH224973   1.325   5.248   6.641
 8339TIP3    H124974   1.357   5.223   6.727
 8339TIP3    H224975   1.277   5.171   6.610
 8340TIP3   OH224976   2.599   7.532   0.148
 8340TIP3    H124977   2.552   7.452   0.126
 8340TIP3    H224978   2.664   7.542   0.079
 8341TIP3   OH224979   1.111   1.944   2.391
 8341TIP3    H124980   1.123   1.850   2.376
 8341TIP3    H224981   1.142   1.985   2.310
 8342TIP3   OH224982   7.179   1.308   6.179
 8342TIP3    H124983   7.113   1.259   6.131
 8342TIP3    H224984   7.155   1.400   6.167
 8343TIP3   OH224985   1.939   1.793   6.324
 8343TIP3    H124986   1.937   1.766   6.416
 8343TIP3    H224987   1.974   1.882   6.326
 8344TIP3   OH224988   1.023   4.740  -0.001
 8344TIP3    H124989   1.048   4.832  -0.011
 8344TIP3    H224990   0.958   4.741   0.070
 8345TIP3   OH224991   6.705   3.533   1.219
 8345TIP3    H124992   6.762   3.468   1.260
 8345TIP3    H224993   6.645   3.560   1.289
 8346TIP3   OH224994   2.417   1.453   2.484
 8346TIP3    H124995   2.482   1.437   2.416
 8346TIP3    H224996   2.419   1.548   2.497
 8347TIP3   OH224997   2.259   7.306   2.458
 8347TIP3    H124998   2.343   7.263   2.471
 8347TIP3    H224999   2.281   7.392   2.421
 8348TIP3   OH225000   5.243   0.491   6.064
 8348TIP3    H125001   5.178   0.422   6.076
 8348TIP3    H225002   5.315   0.467   6.122
 8349TIP3   OH225003   0.221   4.271   1.031
 8349TIP3    H125004   0.297   4.215   1.045
 8349TIP3    H225005   0.251   4.359   1.055
 8350TIP3   OH225006   3.575   1.464   6.215
 8350TIP3    H125007   3.513   1.392   6.208
 8350TIP3    H225008   3.657   1.429   6.179
 8351TIP3   OH225009   2.835   0.706   4.094
 8351TIP3    H125010   2.761   0.662   4.136
 8351TIP3    H225011   2.795   0.777   4.044
 8352TIP3   OH225012   1.004   5.291   1.938
 8352TIP3    H125013   1.038   5.206   1.967
 8352TIP3    H225014   0.978   5.336   2.018
 8353TIP3   OH225015   3.399   4.721   3.553
 8353TIP3    H125016   3.408   4.768   3.636
 8353TIP3    H225017   3.479   4.742   3.505
 8354TIP3   OH225018   1.713   0.772   1.693
 8354TIP3    H125019   1.618   0.784   1.684
 8354TIP3    H225020   1.737   0.717   1.619
 8355TIP3   OH225021   0.157   1.857   3.495
 8355TIP3    H125022   0.087   1.905   3.540
 8355TIP3    H225023   0.114   1.779   3.461
 8356TIP3   OH225024   2.857   5.989   0.964
 8356TIP3    H125025   2.895   6.035   0.889
 8356TIP3    H225026   2.931   5.979   1.025
 8357TIP3   OH225027   7.971   5.564   1.984
 8357TIP3    H125028   7.932   5.499   1.926
 8357TIP3    H225029   7.987   5.640   1.928
 8358TIP3   OH225030   4.912   0.377   4.680
 8358TIP3    H125031   4.913   0.438   4.606
 8358TIP3    H225032   4.829   0.330   4.671
 8359TIP3   OH225033   0.661   4.826   2.472
 8359TIP3    H125034   0.626   4.742   2.504
 8359TIP3    H225035   0.606   4.892   2.514
 8360TIP3   OH225036   3.410   3.531   0.503
 8360TIP3    H125037   3.471   3.533   0.576
 8360TIP3    H225038   3.344   3.598   0.525
 8361TIP3   OH225039   6.234   1.217   4.422
 8361TIP3    H125040   6.217   1.237   4.514
 8361TIP3    H225041   6.249   1.302   4.381
 8362TIP3   OH225042   2.717   5.575   4.486
 8362TIP3    H125043   2.696   5.557   4.577
 8362TIP3    H225044   2.792   5.519   4.467
 8363TIP3   OH225045   1.523   2.105   0.561
 8363TIP3    H125046   1.456   2.136   0.622
 8363TIP3    H225047   1.475   2.088   0.480
 8364TIP3   OH225048   7.873   3.449   1.614
 8364TIP3    H125049   7.839   3.536   1.636
 8364TIP3    H225050   7.957   3.466   1.571
 8365TIP3   OH225051   1.994   7.018   5.996
 8365TIP3    H125052   1.997   6.945   6.058
 8365TIP3    H225053   2.027   6.981   5.914
 8366TIP3   OH225054   3.418   2.078   0.055
 8366TIP3    H125055   3.420   2.151   0.117
 8366TIP3    H225056   3.476   2.012   0.093
 8367TIP3   OH225057   6.544   4.268   6.524
 8367TIP3    H125058   6.484   4.332   6.561
 8367TIP3    H225059   6.630   4.310   6.529
 8368TIP3   OH225060   7.985   5.560   2.794
 8368TIP3    H125061   8.054   5.626   2.786
 8368TIP3    H225062   7.979   5.544   2.888
 8369TIP3   OH225063   0.191   1.896   2.554
 8369TIP3    H125064   0.116   1.922   2.608
 8369TIP3    H225065   0.153   1.842   2.484
 8370TIP3   OH225066   7.078   4.548   3.182
 8370TIP3    H125067   6.995   4.514   3.148
 8370TIP3    H225068   7.144   4.483   3.156
 8371TIP3   OH225069   3.124   3.504   1.711
 8371TIP3    H125070   3.097   3.450   1.785
 8371TIP3    H225071   3.216   3.483   1.698
 8372TIP3   OH225072   1.723   4.913   5.821
 8372TIP3    H125073   1.810   4.893   5.855
 8372TIP3    H225074   1.727   5.005   5.797
 8373TIP3   OH225075   4.159   6.982   1.102
 8373TIP3    H125076   4.085   6.929   1.130
 8373TIP3    H225077   4.235   6.925   1.113
 8374TIP3   OH225078   8.137   7.754   4.143
 8374TIP3    H125079   8.210   7.695   4.163
 8374TIP3    H225080   8.072   7.699   4.100
 8375TIP3   OH225081   7.777   5.271   3.915
 8375TIP3    H125082   7.755   5.227   3.997
 8375TIP3    H225083   7.846   5.216   3.876
 8376TIP3   OH225084   6.129   4.137   5.922
 8376TIP3    H125085   6.144   4.043   5.908
 8376TIP3    H225086   6.197   4.180   5.870
 8377TIP3   OH225087   6.867   0.049   5.357
 8377TIP3    H125088   6.833  -0.021   5.302
 8377TIP3    H225089   6.876   0.010   5.444
 8378TIP3   OH225090   3.122   0.546   6.244
 8378TIP3    H125091   3.138   0.555   6.338
 8378TIP3    H225092   3.063   0.617   6.223
 8379TIP3   OH225093   2.985   5.633   2.644
 8379TIP3    H125094   3.048   5.566   2.617
 8379TIP3    H225095   2.923   5.637   2.572
 8380TIP3   OH225096   4.475   3.593   5.949
 8380TIP3    H125097   4.436   3.522   6.001
 8380TIP3    H225098   4.564   3.601   5.982
 8381TIP3   OH225099   4.092   4.186   6.223
 8381TIP3    H125100   4.095   4.259   6.160
 8381TIP3    H225101   3.999   4.176   6.243
 8382TIP3   OH225102   6.868   6.372   0.971
 8382TIP3    H125103   6.794   6.431   0.984
 8382TIP3    H225104   6.938   6.410   1.023
 8383TIP3   OH225105   3.105   5.852   4.295
 8383TIP3    H125106   3.048   5.831   4.369
 8383TIP3    H225107   3.185   5.802   4.311
 8384TIP3   OH225108   6.796   0.067   3.954
 8384TIP3    H125109   6.842   0.067   3.869
 8384TIP3    H225110   6.861   0.032   4.015
 8385TIP3   OH225111   2.248   4.822   5.320
 8385TIP3    H125112   2.289   4.753   5.267
 8385TIP3    H225113   2.183   4.776   5.373
 8386TIP3   OH225114   3.197   1.108   1.468
 8386TIP3    H125115   3.261   1.069   1.527
 8386TIP3    H225116   3.192   1.199   1.495
 8387TIP3   OH225117   8.061   7.401   4.958
 8387TIP3    H125118   8.088   7.392   5.049
 8387TIP3    H225119   8.006   7.479   4.956
 8388TIP3   OH225120   2.985   5.128   2.387
 8388TIP3    H125121   3.035   5.098   2.463
 8388TIP3    H225122   2.945   5.048   2.352
 8389TIP3   OH225123   7.254   6.025   3.018
 8389TIP3    H125124   7.181   6.014   3.079
 8389TIP3    H225125   7.230   6.102   2.966
 8390TIP3   OH225126   5.851   7.087   4.503
 8390TIP3    H125127   5.928   7.041   4.536
 8390TIP3    H225128   5.777   7.032   4.529
 8391TIP3   OH225129   0.009   5.537   5.045
 8391TIP3    H125130   0.032   5.621   5.005
 8391TIP3    H225131   0.090   5.507   5.087
 8392TIP3   OH225132   2.904   3.654   1.268
 8392TIP3    H125133   2.908   3.586   1.201
 8392TIP3    H225134   2.962   3.623   1.338
 8393TIP3   OH225135   5.781   1.957   5.962
 8393TIP3    H125136   5.838   1.885   5.988
 8393TIP3    H225137   5.825   1.996   5.886
 8394TIP3   OH225138   7.270   1.927   4.242
 8394TIP3    H125139   7.293   1.849   4.191
 8394TIP3    H225140   7.346   1.942   4.298
 8395TIP3   OH225141   6.153   3.811   3.957
 8395TIP3    H125142   6.166   3.743   4.024
 8395TIP3    H225143   6.175   3.893   4.001
 8396TIP3   OH225144   5.505   5.875   0.850
 8396TIP3    H125145   5.491   5.892   0.943
 8396TIP3    H225146   5.440   5.929   0.805
 8397TIP3   OH225147   4.699   0.084   3.392
 8397TIP3    H125148   4.652   0.002   3.407
 8397TIP3    H225149   4.792   0.060   3.394
 8398TIP3   OH225150   3.725   6.901   3.220
 8398TIP3    H125151   3.820   6.895   3.225
 8398TIP3    H225152   3.695   6.810   3.228
 8399TIP3   OH225153   1.659   5.037   1.326
 8399TIP3    H125154   1.718   5.077   1.390
 8399TIP3    H225155   1.701   5.055   1.242
 8400TIP3   OH225156   4.001   6.280   4.626
 8400TIP3    H125157   3.999   6.269   4.721
 8400TIP3    H225158   4.090   6.255   4.601
 8401TIP3   OH225159   2.878   3.197   0.633
 8401TIP3    H125160   2.905   3.124   0.578
 8401TIP3    H225161   2.821   3.157   0.699
 8402TIP3   OH225162   7.726   6.117   1.394
 8402TIP3    H125163   7.757   6.155   1.312
 8402TIP3    H225164   7.679   6.038   1.368
 8403TIP3   OH225165   3.670   0.885   0.995
 8403TIP3    H125166   3.698   0.917   1.080
 8403TIP3    H225167   3.581   0.853   1.009
 8404TIP3   OH225168   0.574   0.957   5.354
 8404TIP3    H125169   0.664   0.984   5.335
 8404TIP3    H225170   0.562   0.979   5.446
 8405TIP3   OH225171   5.273   2.177   4.012
 8405TIP3    H125172   5.324   2.173   4.093
 8405TIP3    H225173   5.336   2.203   3.945
 8406TIP3   OH225174   6.216   1.580   2.973
 8406TIP3    H125175   6.194   1.572   2.880
 8406TIP3    H225176   6.274   1.507   2.991
 8407TIP3   OH225177   2.486   5.672   6.556
 8407TIP3    H125178   2.506   5.584   6.588
 8407TIP3    H225179   2.391   5.680   6.565
 8408TIP3   OH225180   2.796   5.187   0.744
 8408TIP3    H125181   2.780   5.099   0.776
 8408TIP3    H225182   2.883   5.209   0.777
 8409TIP3   OH225183   3.850   0.145   5.246
 8409TIP3    H125184   3.802   0.089   5.185
 8409TIP3    H225185   3.839   0.102   5.331
 8410TIP3   OH225186   4.037   6.812   1.282
 8410TIP3    H125187   3.943   6.821   1.268
 8410TIP3    H225188   4.045   6.740   1.344
 8411TIP3   OH225189   6.931   1.358   2.593
 8411TIP3    H125190   6.842   1.391   2.582
 8411TIP3    H225191   6.925   1.265   2.570
 8412TIP3   OH225192   0.218   4.075   2.562
 8412TIP3    H125193   0.237   4.047   2.472
 8412TIP3    H225194   0.291   4.040   2.614
 8413TIP3   OH225195   3.170   6.525   0.305
 8413TIP3    H125196   3.255   6.549   0.344
 8413TIP3    H225197   3.186   6.440   0.264
 8414TIP3   OH225198   7.970   1.500   3.504
 8414TIP3    H125199   7.896   1.514   3.444
 8414TIP3    H225200   7.950   1.417   3.547
 8415TIP3   OH225201   1.988   2.916   3.918
 8415TIP3    H125202   1.953   2.827   3.917
 8415TIP3    H225203   1.969   2.951   3.831
 8416TIP3   OH225204   0.123   6.448   5.746
 8416TIP3    H125205   0.052   6.414   5.692
 8416TIP3    H225206   0.186   6.483   5.683
 8417TIP3   OH225207   0.204   1.513   3.484
 8417TIP3    H125208   0.117   1.526   3.448
 8417TIP3    H225209   0.229   1.425   3.455
 8418TIP3   OH225210   1.259   2.022   1.167
 8418TIP3    H125211   1.170   1.989   1.176
 8418TIP3    H225212   1.283   2.003   1.077
 8419TIP3   OH225213   3.734   6.362   6.645
 8419TIP3    H125214   3.666   6.427   6.629
 8419TIP3    H225215   3.696   6.302   6.708
 8420TIP3   OH225216   0.924   2.163   1.637
 8420TIP3    H125217   0.834   2.138   1.660
 8420TIP3    H225218   0.927   2.157   1.542
 8421TIP3   OH225219   3.050   0.528   3.120
 8421TIP3    H125220   2.971   0.478   3.097
 8421TIP3    H225221   3.068   0.503   3.211
 8422TIP3   OH225222   6.833   5.588   3.677
 8422TIP3    H125223   6.861   5.625   3.593
 8422TIP3    H225224   6.880   5.505   3.684
 8423TIP3   OH225225   1.063   0.398   3.878
 8423TIP3    H125226   0.995   0.461   3.901
 8423TIP3    H225227   1.092   0.362   3.962
 8424TIP3   OH225228   3.205   0.116   4.617
 8424TIP3    H125229   3.216   0.115   4.712
 8424TIP3    H225230   3.173   0.028   4.595
 8425TIP3   OH225231   0.995   6.623   3.661
 8425TIP3    H125232   1.011   6.713   3.687
 8425TIP3    H225233   0.901   6.611   3.671
 8426TIP3   OH225234   8.201   7.003   1.638
 8426TIP3    H125235   8.178   6.958   1.557
 8426TIP3    H225236   8.289   7.038   1.622
 8427TIP3   OH225237   5.296   4.331   3.232
 8427TIP3    H125238   5.250   4.274   3.171
 8427TIP3    H225239   5.381   4.348   3.190
 8428TIP3   OH225240   5.254   0.945   0.398
 8428TIP3    H125241   5.261   0.933   0.492
 8428TIP3    H225242   5.188   1.014   0.387
 8429TIP3   OH225243   4.392   6.744   0.822
 8429TIP3    H125244   4.316   6.697   0.856
 8429TIP3    H225245   4.467   6.693   0.851
 8430TIP3   OH225246   7.398   4.896   3.525
 8430TIP3    H125247   7.448   4.816   3.507
 8430TIP3    H225248   7.318   4.865   3.568
 8431TIP3   OH225249   6.797   5.664   5.409
 8431TIP3    H125250   6.720   5.716   5.431
 8431TIP3    H225251   6.824   5.625   5.492
 8432TIP3   OH225252   7.317   6.829   6.304
 8432TIP3    H125253   7.364   6.771   6.364
 8432TIP3    H225254   7.276   6.895   6.361
 8433TIP3   OH225255   4.418   5.749   1.853
 8433TIP3    H125256   4.373   5.758   1.769
 8433TIP3    H225257   4.497   5.802   1.843
 8434TIP3   OH225258   1.584   1.601   4.230
 8434TIP3    H125259   1.585   1.696   4.239
 8434TIP3    H225260   1.666   1.572   4.270
 8435TIP3   OH225261   6.120   5.349   2.392
 8435TIP3    H125262   6.162   5.262   2.398
 8435TIP3    H225263   6.026   5.330   2.388
 8436TIP3   OH225264   4.781   1.404   3.641
 8436TIP3    H125265   4.876   1.405   3.635
 8436TIP3    H225266   4.756   1.313   3.629
 8437TIP3   OH225267   6.521   6.674   2.569
 8437TIP3    H125268   6.518   6.726   2.489
 8437TIP3    H225269   6.444   6.701   2.619
 8438TIP3   OH225270   6.401   0.418   5.614
 8438TIP3    H125271   6.359   0.333   5.597
 8438TIP3    H225272   6.333   0.482   5.593
 8439TIP3   OH225273   3.079   1.848   3.929
 8439TIP3    H125274   3.144   1.905   3.970
 8439TIP3    H225275   3.130   1.788   3.875
 8440TIP3   OH225276   6.894   6.837   3.624
 8440TIP3    H125277   6.864   6.876   3.706
 8440TIP3    H225278   6.849   6.888   3.556
 8441TIP3   OH225279   8.178   3.683   3.338
 8441TIP3    H125280   8.104   3.655   3.286
 8441TIP3    H225281   8.255   3.664   3.284
 8442TIP3   OH225282   0.153   6.306   0.232
 8442TIP3    H125283   0.241   6.276   0.254
 8442TIP3    H225284   0.105   6.226   0.212
 8443TIP3   OH225285   3.033   0.178   0.301
 8443TIP3    H125286   3.100   0.113   0.285
 8443TIP3    H225287   3.058   0.219   0.384
 8444TIP3   OH225288   6.444   6.192   2.256
 8444TIP3    H125289   6.479   6.263   2.310
 8444TIP3    H225290   6.495   6.115   2.282
 8445TIP3   OH225291   2.438   5.412   3.947
 8445TIP3    H125292   2.411   5.380   3.861
 8445TIP3    H225293   2.530   5.386   3.954
 8446TIP3   OH225294   5.281   4.441   5.664
 8446TIP3    H125295   5.228   4.450   5.743
 8446TIP3    H225296   5.360   4.492   5.683
 8447TIP3   OH225297   2.774   0.305   5.398
 8447TIP3    H125298   2.814   0.259   5.472
 8447TIP3    H225299   2.696   0.254   5.377
 8448TIP3   OH225300   2.982   2.237   5.639
 8448TIP3    H125301   2.997   2.277   5.725
 8448TIP3    H225302   2.888   2.250   5.623
 8449TIP3   OH225303   0.559   2.943   0.121
 8449TIP3    H125304   0.463   2.939   0.126
 8449TIP3    H225305   0.577   3.016   0.062
 8450TIP3   OH225306   7.783   5.637   0.548
 8450TIP3    H125307   7.872   5.617   0.518
 8450TIP3    H225308   7.727   5.603   0.478
 8451TIP3   OH225309   2.169   4.632   5.853
 8451TIP3    H125310   2.249   4.668   5.891
 8451TIP3    H225311   2.185   4.632   5.758
 8452TIP3   OH225312   1.425   2.682   3.117
 8452TIP3    H125313   1.483   2.686   3.193
 8452TIP3    H225314   1.338   2.664   3.154
 8453TIP3   OH225315   1.253   4.787   3.716
 8453TIP3    H125316   1.203   4.798   3.797
 8453TIP3    H225317   1.270   4.693   3.711
 8454TIP3   OH225318   4.426   5.194   3.150
 8454TIP3    H125319   4.498   5.257   3.150
 8454TIP3    H225320   4.361   5.231   3.090
 8455TIP3   OH225321   1.949   1.442   0.349
 8455TIP3    H125322   1.919   1.452   0.440
 8455TIP3    H225323   1.998   1.522   0.330
 8456TIP3   OH225324   6.792   3.528   2.409
 8456TIP3    H125325   6.838   3.612   2.406
 8456TIP3    H225326   6.700   3.551   2.424
 8457TIP3   OH225327   4.471   4.660   2.169
 8457TIP3    H125328   4.521   4.601   2.225
 8457TIP3    H225329   4.399   4.690   2.225
 8458TIP3   OH225330   4.018   7.779   0.624
 8458TIP3    H125331   4.003   7.872   0.643
 8458TIP3    H225332   3.931   7.740   0.626
 8459TIP3   OH225333   2.240   1.094   1.587
 8459TIP3    H125334   2.166   1.049   1.629
 8459TIP3    H225335   2.213   1.186   1.584
 8460TIP3   OH225336   7.405   0.891   0.366
 8460TIP3    H125337   7.473   0.825   0.373
 8460TIP3    H225338   7.414   0.927   0.278
 8461TIP3   OH225339   3.026   0.466   4.669
 8461TIP3    H125340   2.995   0.378   4.689
 8461TIP3    H225341   3.055   0.501   4.754
 8462TIP3   OH225342   5.098   5.751   5.923
 8462TIP3    H125343   5.027   5.724   5.981
 8462TIP3    H225344   5.094   5.690   5.849
 8463TIP3   OH225345   4.620   5.856   0.735
 8463TIP3    H125346   4.609   5.906   0.816
 8463TIP3    H225347   4.607   5.765   0.761
 8464TIP3   OH225348   0.729   3.301   6.379
 8464TIP3    H125349   0.713   3.354   6.301
 8464TIP3    H225350   0.753   3.364   6.446
 8465TIP3   OH225351   2.512   3.681   5.843
 8465TIP3    H125352   2.581   3.661   5.907
 8465TIP3    H225353   2.543   3.642   5.761
 8466TIP3   OH225354   7.844   2.245   5.483
 8466TIP3    H125355   7.886   2.324   5.449
 8466TIP3    H225356   7.841   2.258   5.578
 8467TIP3   OH225357   0.204   3.294   5.754
 8467TIP3    H125358   0.282   3.289   5.808
 8467TIP3    H225359   0.133   3.312   5.815
 8468TIP3   OH225360   6.050   7.134   2.263
 8468TIP3    H125361   6.015   7.151   2.175
 8468TIP3    H225362   6.107   7.058   2.251
 8469TIP3   OH225363   2.241   2.085  -0.009
 8469TIP3    H125364   2.310   2.150  -0.015
 8469TIP3    H225365   2.227   2.074   0.086
 8470TIP3   OH225366   1.366   6.768   4.765
 8470TIP3    H125367   1.350   6.760   4.859
 8470TIP3    H225368   1.295   6.825   4.734
 8471TIP3   OH225369   3.577   5.141   6.089
 8471TIP3    H125370   3.541   5.053   6.077
 8471TIP3    H225371   3.660   5.127   6.134
 8472TIP3   OH225372   1.108   6.021   3.938
 8472TIP3    H125373   1.080   6.016   3.846
 8472TIP3    H225374   1.026   6.023   3.987
 8473TIP3   OH225375   4.814   6.643   1.450
 8473TIP3    H125376   4.874   6.701   1.497
 8473TIP3    H225377   4.858   6.557   1.451
 8474TIP3   OH225378   3.444   5.376   6.010
 8474TIP3    H125379   3.368   5.348   5.959
 8474TIP3    H225380   3.495   5.296   6.023
 8475TIP3   OH225381   3.180   1.900   0.965
 8475TIP3    H125382   3.181   1.823   0.909
 8475TIP3    H225383   3.087   1.923   0.972
 8476TIP3   OH225384   7.747   6.376   0.342
 8476TIP3    H125385   7.783   6.419   0.419
 8476TIP3    H225386   7.663   6.341   0.371
 8477TIP3   OH225387   7.407   5.687   2.519
 8477TIP3    H125388   7.409   5.781   2.502
 8477TIP3    H225389   7.479   5.652   2.467
 8478TIP3   OH225390   3.133   1.908   6.348
 8478TIP3    H125391   3.063   1.846   6.325
 8478TIP3    H225392   3.195   1.856   6.400
 8479TIP3   OH225393   4.791   2.437   2.221
 8479TIP3    H125394   4.747   2.497   2.161
 8479TIP3    H225395   4.871   2.483   2.247
 8480TIP3   OH225396   2.549   2.979   2.621
 8480TIP3    H125397   2.610   3.051   2.602
 8480TIP3    H225398   2.469   3.003   2.575
 8481TIP3   OH225399   7.516   7.201   6.787
 8481TIP3    H125400   7.564   7.235   6.711
 8481TIP3    H225401   7.451   7.141   6.749
 8482TIP3   OH225402   3.056   6.510   1.673
 8482TIP3    H125403   3.109   6.582   1.708
 8482TIP3    H225404   3.030   6.540   1.586
 8483TIP3   OH225405   0.256   7.489   6.443
 8483TIP3    H125406   0.192   7.502   6.513
 8483TIP3    H225407   0.212   7.519   6.364
 8484TIP3   OH225408   0.948   2.280   4.604
 8484TIP3    H125409   0.994   2.197   4.591
 8484TIP3    H225410   1.017   2.347   4.601
 8485TIP3   OH225411   2.851   1.300   2.186
 8485TIP3    H125412   2.856   1.204   2.179
 8485TIP3    H225413   2.902   1.332   2.112
 8486TIP3   OH225414   4.827   4.618   3.892
 8486TIP3    H125415   4.822   4.523   3.898
 8486TIP3    H225416   4.779   4.640   3.812
 8487TIP3   OH225417   3.183   6.080   4.097
 8487TIP3    H125418   3.227   6.107   4.177
 8487TIP3    H225419   3.204   5.987   4.089
 8488TIP3   OH225420   5.757   2.247   6.249
 8488TIP3    H125421   5.805   2.287   6.321
 8488TIP3    H225422   5.675   2.296   6.246
 8489TIP3   OH225423   0.427   4.231   2.428
 8489TIP3    H125424   0.479   4.152   2.445
 8489TIP3    H225425   0.430   4.241   2.333
 8490TIP3   OH225426   1.570   6.574   3.349
 8490TIP3    H125427   1.543   6.663   3.329
 8490TIP3    H225428   1.489   6.527   3.368
 8491TIP3   OH225429   2.996   5.833   6.238
 8491TIP3    H125430   2.980   5.744   6.269
 8491TIP3    H225431   3.018   5.821   6.145
 8492TIP3   OH225432   1.946   0.657   5.948
 8492TIP3    H125433   1.994   0.693   5.874
 8492TIP3    H225434   1.945   0.563   5.934
 8493TIP3   OH225435   6.720   1.875   0.558
 8493TIP3    H125436   6.770   1.801   0.523
 8493TIP3    H225437   6.766   1.898   0.639
 8494TIP3   OH225438   1.238   7.052   5.409
 8494TIP3    H125439   1.263   6.975   5.358
 8494TIP3    H225440   1.293   7.122   5.374
 8495TIP3   OH225441   3.442   7.202   3.258
 8495TIP3    H125442   3.445   7.203   3.162
 8495TIP3    H225443   3.533   7.187   3.284
 8496TIP3   OH225444   5.900   5.681   3.142
 8496TIP3    H125445   5.936   5.616   3.082
 8496TIP3    H225446   5.910   5.642   3.229
 8497TIP3   OH225447   2.351   4.962   3.496
 8497TIP3    H125448   2.409   5.012   3.439
 8497TIP3    H225449   2.330   5.021   3.568
 8498TIP3   OH225450   4.957   4.310   6.139
 8498TIP3    H125451   4.950   4.339   6.049
 8498TIP3    H225452   4.905   4.373   6.189
 8499TIP3   OH225453   7.389   5.678   3.488
 8499TIP3    H125454   7.408   5.696   3.580
 8499TIP3    H225455   7.461   5.720   3.440
 8500TIP3   OH225456   6.837   6.186   2.424
 8500TIP3    H125457   6.794   6.239   2.357
 8500TIP3    H225458   6.926   6.175   2.391
 8501TIP3   OH225459   1.907   2.722   1.523
 8501TIP3    H125460   1.958   2.669   1.462
 8501TIP3    H225461   1.968   2.741   1.595
 8502TIP3   OH225462   4.498   5.692   2.854
 8502TIP3    H125463   4.482   5.706   2.948
 8502TIP3    H225464   4.461   5.769   2.812
 8503TIP3   OH225465   4.296   2.508   2.329
 8503TIP3    H125466   4.202   2.506   2.313
 8503TIP3    H225467   4.310   2.443   2.398
 8504TIP3   OH225468   2.281   7.412   5.287
 8504TIP3    H125469   2.238   7.369   5.214
 8504TIP3    H225470   2.331   7.342   5.330
 8505TIP3   OH225471   6.869   0.397   0.118
 8505TIP3    H125472   6.862   0.486   0.083
 8505TIP3    H225473   6.892   0.409   0.211
 8506TIP3   OH225474   5.917   1.049   0.715
 8506TIP3    H125475   5.893   0.980   0.654
 8506TIP3    H225476   6.003   1.078   0.685
 8507TIP3   OH225477   4.910   7.055   3.247
 8507TIP3    H125478   4.906   6.979   3.190
 8507TIP3    H225479   4.900   7.130   3.189
 8508TIP3   OH225480   2.582   4.506   1.023
 8508TIP3    H125481   2.501   4.557   1.036
 8508TIP3    H225482   2.622   4.503   1.110
 8509TIP3   OH225483   6.556   5.719   2.060
 8509TIP3    H125484   6.588   5.689   2.145
 8509TIP3    H225485   6.631   5.764   2.020
 8510TIP3   OH225486   0.767   0.447   4.376
 8510TIP3    H125487   0.812   0.511   4.431
 8510TIP3    H225488   0.682   0.435   4.419
 8511TIP3   OH225489   8.016   6.421   1.336
 8511TIP3    H125490   7.979   6.375   1.260
 8511TIP3    H225491   8.077   6.358   1.375
 8512TIP3   OH225492   2.518   5.863   0.517
 8512TIP3    H125493   2.521   5.894   0.427
 8512TIP3    H225494   2.488   5.772   0.511
 8513TIP3   OH225495   8.150   7.651   3.429
 8513TIP3    H125496   8.113   7.728   3.473
 8513TIP3    H225497   8.181   7.596   3.501
 8514TIP3   OH225498   5.314   1.331   3.150
 8514TIP3    H125499   5.357   1.263   3.202
 8514TIP3    H225500   5.223   1.330   3.180
 8515TIP3   OH225501   1.355   3.695   0.090
 8515TIP3    H125502   1.412   3.723   0.018
 8515TIP3    H225503   1.390   3.741   0.166
 8516TIP3   OH225504   7.042   7.749   1.123
 8516TIP3    H125505   7.105   7.817   1.097
 8516TIP3    H225506   6.965   7.766   1.069
 8517TIP3   OH225507   3.071   6.268   0.862
 8517TIP3    H125508   3.054   6.359   0.887
 8517TIP3    H225509   2.986   6.225   0.868
 8518TIP3   OH225510   0.961   0.590   0.439
 8518TIP3    H125511   0.910   0.554   0.511
 8518TIP3    H225512   0.955   0.525   0.370
 8519TIP3   OH225513   6.345   0.622   5.093
 8519TIP3    H125514   6.293   0.642   5.014
 8519TIP3    H225515   6.436   0.632   5.064
 8520TIP3   OH225516   3.930   7.129   1.013
 8520TIP3    H125517   3.982   7.201   0.978
 8520TIP3    H225518   3.978   7.098   1.089
 8521TIP3   OH225519   7.148   3.944   3.932
 8521TIP3    H125520   7.081   4.004   3.964
 8521TIP3    H225521   7.147   3.955   3.837
 8522TIP3   OH225522   2.538   6.426   3.146
 8522TIP3    H125523   2.563   6.422   3.054
 8522TIP3    H225524   2.538   6.335   3.176
 8523TIP3   OH225525   2.189   3.203   0.021
 8523TIP3    H125526   2.249   3.264  -0.022
 8523TIP3    H225527   2.224   3.195   0.110
 8524TIP3   OH225528   4.025   2.493   0.539
 8524TIP3    H125529   3.945   2.546   0.537
 8524TIP3    H225530   4.040   2.476   0.632
 8525TIP3   OH225531   4.290   4.464   4.727
 8525TIP3    H125532   4.213   4.504   4.687
 8525TIP3    H225533   4.299   4.381   4.681
 8526TIP3   OH225534   6.541   4.167   1.534
 8526TIP3    H125535   6.466   4.205   1.489
 8526TIP3    H225536   6.548   4.078   1.500
 8527TIP3   OH225537   3.028   0.535   2.081
 8527TIP3    H125538   2.943   0.529   2.125
 8527TIP3    H225539   3.007   0.535   1.988
 8528TIP3   OH225540   7.970   3.139   6.389
 8528TIP3    H125541   8.057   3.172   6.368
 8528TIP3    H225542   7.979   3.101   6.477
 8529TIP3   OH225543   3.105   4.492   6.342
 8529TIP3    H125544   3.012   4.469   6.342
 8529TIP3    H225545   3.114   4.554   6.270
 8530TIP3   OH225546   5.874   0.055   1.922
 8530TIP3    H125547   5.953   0.102   1.949
 8530TIP3    H225548   5.896   0.017   1.838
 8531TIP3   OH225549   4.788   5.015   1.610
 8531TIP3    H125550   4.787   4.999   1.704
 8531TIP3    H225551   4.737   4.943   1.573
 8532TIP3   OH225552   6.694   5.426   2.712
 8532TIP3    H125553   6.752   5.446   2.786
 8532TIP3    H225554   6.607   5.451   2.743
 8533TIP3   OH225555   0.010   5.030   2.062
 8533TIP3    H125556  -0.065   4.992   2.016
 8533TIP3    H225557   0.086   4.987   2.022
 8534TIP3   OH225558   7.735   4.843   4.468
 8534TIP3    H125559   7.709   4.763   4.422
 8534TIP3    H225560   7.738   4.910   4.400
 8535TIP3   OH225561   1.408   6.192   5.881
 8535TIP3    H125562   1.504   6.196   5.880
 8535TIP3    H225563   1.380   6.281   5.863
 8536TIP3   OH225564   6.913   1.281   3.032
 8536TIP3    H125565   6.866   1.355   2.994
 8536TIP3    H225566   6.975   1.256   2.964
 8537TIP3   OH225567   7.472   4.393   5.591
 8537TIP3    H125568   7.487   4.327   5.523
 8537TIP3    H225569   7.389   4.368   5.631
 8538TIP3   OH225570   1.923   2.662   2.492
 8538TIP3    H125571   1.848   2.721   2.500
 8538TIP3    H225572   1.988   2.712   2.442
 8539TIP3   OH225573   1.272   2.870   4.587
 8539TIP3    H125574   1.185   2.830   4.588
 8539TIP3    H225575   1.328   2.809   4.634
 8540TIP3   OH225576   1.354   2.636   4.068
 8540TIP3    H125577   1.283   2.574   4.081
 8540TIP3    H225578   1.310   2.720   4.051
 8541TIP3   OH225579   6.426   2.143   1.525
 8541TIP3    H125580   6.348   2.184   1.561
 8541TIP3    H225581   6.396   2.058   1.492
 8542TIP3   OH225582   2.617   5.827   3.630
 8542TIP3    H125583   2.562   5.750   3.645
 8542TIP3    H225584   2.698   5.808   3.678
 8543TIP3   OH225585   2.776   1.361   1.306
 8543TIP3    H125586   2.715   1.329   1.240
 8543TIP3    H225587   2.856   1.310   1.293
 8544TIP3   OH225588   3.849   7.816   0.116
 8544TIP3    H125589   3.824   7.881   0.181
 8544TIP3    H225590   3.879   7.741   0.167
 8545TIP3   OH225591   2.584   2.725   0.789
 8545TIP3    H125592   2.525   2.785   0.835
 8545TIP3    H225593   2.560   2.638   0.820
 8546TIP3   OH225594   5.744   7.258   4.689
 8546TIP3    H125595   5.736   7.180   4.634
 8546TIP3    H225596   5.703   7.328   4.638
 8547TIP3   OH225597   1.211   3.778   2.220
 8547TIP3    H125598   1.281   3.716   2.239
 8547TIP3    H225599   1.142   3.756   2.281
 8548TIP3   OH225600   1.100   3.992   0.338
 8548TIP3    H125601   1.147   3.920   0.381
 8548TIP3    H225602   1.159   4.067   0.344
 8549TIP3   OH225603   2.395   1.527   4.152
 8549TIP3    H125604   2.446   1.592   4.104
 8549TIP3    H225605   2.454   1.493   4.219
 8550TIP3   OH225606   3.897   3.855   5.466
 8550TIP3    H125607   3.862   3.922   5.407
 8550TIP3    H225608   3.991   3.872   5.469
 8551TIP3   OH225609   3.984   3.973   4.966
 8551TIP3    H125610   4.014   3.931   4.885
 8551TIP3    H225611   4.043   4.048   4.977
 8552TIP3   OH225612   5.682   2.495   3.658
 8552TIP3    H125613   5.773   2.520   3.676
 8552TIP3    H225614   5.683   2.464   3.567
 8553TIP3   OH225615   2.599   7.709   4.259
 8553TIP3    H125616   2.602   7.717   4.355
 8553TIP3    H225617   2.610   7.615   4.244
 8554TIP3   OH225618   6.956   7.133   6.501
 8554TIP3    H125619   6.962   7.059   6.562
 8554TIP3    H225620   6.999   7.102   6.421
 8555TIP3   OH225621   0.609   6.234   4.263
 8555TIP3    H125622   0.519   6.232   4.298
 8555TIP3    H225623   0.665   6.222   4.340
 8556TIP3   OH225624   0.585   1.554   1.545
 8556TIP3    H125625   0.675   1.565   1.576
 8556TIP3    H225626   0.535   1.619   1.595
 8557TIP3   OH225627   1.054   6.967   6.745
 8557TIP3    H125628   0.991   7.038   6.733
 8557TIP3    H225629   1.010   6.906   6.804
 8558TIP3   OH225630   2.493   2.321   0.652
 8558TIP3    H125631   2.406   2.301   0.686
 8558TIP3    H225632   2.477   2.385   0.582
 8559TIP3   OH225633   4.123   7.621   3.636
 8559TIP3    H125634   4.149   7.602   3.546
 8559TIP3    H225635   4.202   7.607   3.688
 8560TIP3   OH225636   6.831   3.467   3.844
 8560TIP3    H125637   6.790   3.440   3.762
 8560TIP3    H225638   6.834   3.562   3.840
 8561TIP3   OH225639   4.362   6.281   1.455
 8561TIP3    H125640   4.268   6.261   1.456
 8561TIP3    H225641   4.379   6.311   1.366
 8562TIP3   OH225642   1.123   4.888   3.194
 8562TIP3    H125643   1.049   4.905   3.135
 8562TIP3    H225644   1.154   4.974   3.219
 8563TIP3   OH225645   7.299   2.971   4.011
 8563TIP3    H125646   7.255   2.888   3.996
 8563TIP3    H225647   7.259   3.005   4.091
 8564TIP3   OH225648   3.133   0.792   2.092
 8564TIP3    H125649   3.201   0.747   2.043
 8564TIP3    H225650   3.057   0.734   2.086
 8565TIP3   OH225651   7.117   6.109   2.047
 8565TIP3    H125652   7.125   6.018   2.073
 8565TIP3    H225653   7.051   6.109   1.977
 8566TIP3   OH225654   2.253   3.943   5.797
 8566TIP3    H125655   2.339   3.916   5.765
 8566TIP3    H225656   2.196   3.939   5.720
 8567TIP3   OH225657   3.010   3.202   2.177
 8567TIP3    H125658   3.090   3.164   2.213
 8567TIP3    H225659   2.939   3.153   2.218
 8568TIP3   OH225660   4.663   5.143   0.017
 8568TIP3    H125661   4.720   5.204   0.064
 8568TIP3    H225662   4.607   5.200  -0.036
 8569TIP3   OH225663   7.178   2.109   0.696
 8569TIP3    H125664   7.117   2.154   0.754
 8569TIP3    H225665   7.163   2.148   0.610
 8570TIP3   OH225666   1.440   5.117   2.428
 8570TIP3    H125667   1.437   5.045   2.492
 8570TIP3    H225668   1.479   5.077   2.350
 8571TIP3   OH225669   4.815   6.635   0.141
 8571TIP3    H125670   4.739   6.610   0.088
 8571TIP3    H225671   4.819   6.730   0.134
 8572TIP3   OH225672   4.042   0.604   4.923
 8572TIP3    H125673   3.965   0.553   4.949
 8572TIP3    H225674   4.016   0.647   4.841
 8573TIP3   OH225675   3.121   5.851   5.737
 8573TIP3    H125676   3.092   5.820   5.823
 8573TIP3    H225677   3.048   5.830   5.679
 8574TIP3   OH225678   7.512   3.788   5.470
 8574TIP3    H125679   7.608   3.782   5.475
 8574TIP3    H225680   7.487   3.718   5.410
 8575TIP3   OH225681   5.570   1.154   4.956
 8575TIP3    H125682   5.510   1.229   4.963
 8575TIP3    H225683   5.576   1.136   4.863
 8576TIP3   OH225684   2.512   1.118   1.343
 8576TIP3    H125685   2.591   1.096   1.392
 8576TIP3    H225686   2.451   1.047   1.362
 8577TIP3   OH225687   1.509   7.420   1.674
 8577TIP3    H125688   1.419   7.388   1.681
 8577TIP3    H225689   1.504   7.493   1.613
 8578TIP3   OH225690   4.837   0.560   2.523
 8578TIP3    H125691   4.807   0.643   2.485
 8578TIP3    H225692   4.757   0.516   2.551
 8579TIP3   OH225693   4.702   0.672   5.513
 8579TIP3    H125694   4.638   0.714   5.456
 8579TIP3    H225695   4.735   0.742   5.569
 8580TIP3   OH225696   0.329   7.061   5.858
 8580TIP3    H125697   0.235   7.077   5.845
 8580TIP3    H225698   0.356   7.013   5.780
 8581TIP3   OH225699   6.359   1.999   2.264
 8581TIP3    H125700   6.303   1.926   2.290
 8581TIP3    H225701   6.299   2.065   2.231
 8582TIP3   OH225702   7.672   5.859   4.933
 8582TIP3    H125703   7.600   5.841   4.993
 8582TIP3    H225704   7.682   5.778   4.882
 8583TIP3   OH225705   1.526   2.507   5.589
 8583TIP3    H125706   1.512   2.476   5.678
 8583TIP3    H225707   1.511   2.602   5.593
 8584TIP3   OH225708   2.571   7.767   0.855
 8584TIP3    H125709   2.663   7.791   0.842
 8584TIP3    H225710   2.548   7.719   0.776
 8585TIP3   OH225711   2.290   6.137   0.805
 8585TIP3    H125712   2.381   6.120   0.780
 8585TIP3    H225713   2.239   6.074   0.754
 8586TIP3   OH225714   7.263   4.855   6.452
 8586TIP3    H125715   7.249   4.762   6.438
 8586TIP3    H225716   7.286   4.862   6.545
 8587TIP3   OH225717   5.654   3.429   6.091
 8587TIP3    H125718   5.576   3.395   6.136
 8587TIP3    H225719   5.621   3.501   6.037
 8588TIP3   OH225720   4.320   3.091   1.923
 8588TIP3    H125721   4.301   3.015   1.978
 8588TIP3    H225722   4.239   3.107   1.875
 8589TIP3   OH225723   2.041   1.897   5.390
 8589TIP3    H125724   2.031   1.877   5.483
 8589TIP3    H225725   2.018   1.990   5.382
 8590TIP3   OH225726   8.002   7.750   2.346
 8590TIP3    H125727   7.935   7.760   2.278
 8590TIP3    H225728   8.034   7.839   2.361
 8591TIP3   OH225729   0.916   1.636   5.536
 8591TIP3    H125730   0.840   1.694   5.525
 8591TIP3    H225731   0.984   1.693   5.572
 8592TIP3   OH225732   6.681   7.078   0.406
 8592TIP3    H125733   6.588   7.055   0.405
 8592TIP3    H225734   6.720   7.014   0.465
 8593TIP3   OH225735   0.751   4.278   1.082
 8593TIP3    H125736   0.740   4.207   1.019
 8593TIP3    H225737   0.707   4.247   1.161
 8594TIP3   OH225738   5.459   2.496   4.804
 8594TIP3    H125739   5.412   2.488   4.721
 8594TIP3    H225740   5.395   2.472   4.870
 8595TIP3   OH225741   5.761   5.712   5.178
 8595TIP3    H125742   5.788   5.642   5.118
 8595TIP3    H225743   5.675   5.684   5.209
 8596TIP3   OH225744   8.159   2.221   3.154
 8596TIP3    H125745   8.210   2.294   3.118
 8596TIP3    H225746   8.153   2.240   3.248
 8597TIP3   OH225747   5.017   6.625   1.834
 8597TIP3    H125748   5.086   6.682   1.869
 8597TIP3    H225749   4.946   6.632   1.897
 8598TIP3   OH225750   8.000   6.196   3.192
 8598TIP3    H125751   8.055   6.273   3.181
 8598TIP3    H225752   8.037   6.150   3.267
 8599TIP3   OH225753   2.450   4.156   0.599
 8599TIP3    H125754   2.440   4.073   0.644
 8599TIP3    H225755   2.420   4.222   0.662
 8600TIP3   OH225756   2.708   6.391   3.995
 8600TIP3    H125757   2.779   6.328   3.983
 8600TIP3    H225758   2.665   6.397   3.910
 8601TIP3   OH225759   5.066   5.142   1.469
 8601TIP3    H125760   5.107   5.149   1.555
 8601TIP3    H225761   4.987   5.195   1.476
 8602TIP3   OH225762   4.161   0.331   0.929
 8602TIP3    H125763   4.244   0.359   0.968
 8602TIP3    H225764   4.130   0.408   0.881
 8603TIP3   OH225765   4.726   0.808   6.583
 8603TIP3    H125766   4.731   0.860   6.664
 8603TIP3    H225767   4.641   0.829   6.545
 8604TIP3   OH225768   2.717   5.883   4.658
 8604TIP3    H125769   2.685   5.968   4.688
 8604TIP3    H225770   2.639   5.838   4.624
 8605TIP3   OH225771   6.436   3.498   5.764
 8605TIP3    H125772   6.401   3.534   5.846
 8605TIP3    H225773   6.447   3.405   5.781
 8606TIP3   OH225774   3.349   5.786   1.884
 8606TIP3    H125775   3.427   5.746   1.922
 8606TIP3    H225776   3.355   5.767   1.790
 8607TIP3   OH225777   2.547   2.598   2.891
 8607TIP3    H125778   2.490   2.633   2.960
 8607TIP3    H225779   2.500   2.522   2.857
 8608TIP3   OH225780   7.429   1.938   5.411
 8608TIP3    H125781   7.393   2.022   5.440
 8608TIP3    H225782   7.384   1.920   5.329
 8609TIP3   OH225783   1.407   0.320   2.511
 8609TIP3    H125784   1.342   0.347   2.576
 8609TIP3    H225785   1.362   0.254   2.458
 8610TIP3   OH225786   4.134   5.322   6.656
 8610TIP3    H125787   4.059   5.274   6.689
 8610TIP3    H225788   4.108   5.351   6.569
 8611TIP3   OH225789   4.353   1.281   5.239
 8611TIP3    H125790   4.369   1.284   5.333
 8611TIP3    H225791   4.416   1.342   5.201
 8612TIP3   OH225792   7.726   1.792   2.140
 8612TIP3    H125793   7.765   1.860   2.194
 8612TIP3    H225794   7.648   1.765   2.188
 8613TIP3   OH225795   7.081   3.568   4.388
 8613TIP3    H125796   7.091   3.556   4.482
 8613TIP3    H225797   7.105   3.484   4.350
 8614TIP3   OH225798   4.465   5.812   3.110
 8614TIP3    H125799   4.556   5.831   3.130
 8614TIP3    H225800   4.425   5.897   3.092
 8615TIP3   OH225801   4.485   0.339   3.167
 8615TIP3    H125802   4.580   0.346   3.183
 8615TIP3    H225803   4.475   0.257   3.119
 8616TIP3   OH225804   8.224   7.387   2.126
 8616TIP3    H125805   8.208   7.336   2.047
 8616TIP3    H225806   8.142   7.383   2.175
 8617TIP3   OH225807   2.783   7.578   0.882
 8617TIP3    H125808   2.732   7.602   0.959
 8617TIP3    H225809   2.874   7.590   0.909
 8618TIP3   OH225810   3.375   6.745   3.682
 8618TIP3    H125811   3.447   6.802   3.711
 8618TIP3    H225812   3.419   6.672   3.638
 8619TIP3   OH225813   6.151   7.371   2.323
 8619TIP3    H125814   6.075   7.426   2.343
 8619TIP3    H225815   6.113   7.286   2.299
 8620TIP3   OH225816   7.331   3.309   5.777
 8620TIP3    H125817   7.363   3.325   5.688
 8620TIP3    H225818   7.367   3.381   5.829
 8621TIP3   OH225819   4.906   5.495   2.648
 8621TIP3    H125820   4.883   5.408   2.617
 8621TIP3    H225821   4.988   5.483   2.696
 8622TIP3   OH225822   5.277   6.343   1.541
 8622TIP3    H125823   5.261   6.373   1.452
 8622TIP3    H225824   5.341   6.405   1.577
 8623TIP3   OH225825   8.215   5.165   3.324
 8623TIP3    H125826   8.160   5.158   3.246
 8623TIP3    H225827   8.284   5.227   3.298
 8624TIP3   OH225828   3.129   0.696   1.767
 8624TIP3    H125829   3.150   0.714   1.675
 8624TIP3    H225830   3.203   0.732   1.816
 8625TIP3   OH225831   6.087   0.344   0.046
 8625TIP3    H125832   6.181   0.356   0.060
 8625TIP3    H225833   6.079   0.331  -0.049
 8626TIP3   OH225834   5.907   1.281   4.225
 8626TIP3    H125835   5.952   1.232   4.156
 8626TIP3    H225836   5.944   1.369   4.220
 8627TIP3   OH225837   4.393   7.118   1.375
 8627TIP3    H125838   4.325   7.080   1.431
 8627TIP3    H225839   4.422   7.045   1.320
 8628TIP3   OH225840   4.410   5.434   5.783
 8628TIP3    H125841   4.459   5.373   5.728
 8628TIP3    H225842   4.473   5.464   5.848
 8629TIP3   OH225843   0.860   2.239   0.032
 8629TIP3    H125844   0.823   2.274   0.113
 8629TIP3    H225845   0.895   2.154   0.057
 8630TIP3   OH225846   5.036   6.375   4.807
 8630TIP3    H125847   4.994   6.301   4.851
 8630TIP3    H225848   4.968   6.442   4.804
 8631TIP3   OH225849   6.776   2.253   4.521
 8631TIP3    H125850   6.834   2.177   4.523
 8631TIP3    H225851   6.706   2.232   4.582
 8632TIP3   OH225852   6.188   1.121   5.051
 8632TIP3    H125853   6.235   1.201   5.030
 8632TIP3    H225854   6.096   1.143   5.036
 8633TIP3   OH225855   2.379   6.844   6.655
 8633TIP3    H125856   2.307   6.822   6.596
 8633TIP3    H225857   2.448   6.876   6.597
 8634TIP3   OH225858   1.277   5.786   6.318
 8634TIP3    H125859   1.191   5.800   6.279
 8634TIP3    H225860   1.321   5.723   6.260
 8635TIP3   OH225861   5.439   5.608   1.388
 8635TIP3    H125862   5.367   5.578   1.443
 8635TIP3    H225863   5.516   5.559   1.419
 8636TIP3   OH225864   6.148   2.743   3.631
 8636TIP3    H125865   6.218   2.685   3.661
 8636TIP3    H225866   6.179   2.778   3.547
 8637TIP3   OH225867   2.780   5.032   4.247
 8637TIP3    H125868   2.840   4.971   4.204
 8637TIP3    H225869   2.693   4.999   4.225
 8638TIP3   OH225870   7.570   2.663   1.100
 8638TIP3    H125871   7.599   2.700   1.184
 8638TIP3    H225872   7.533   2.738   1.053
 8639TIP3   OH225873   1.921   6.747   3.924
 8639TIP3    H125874   1.928   6.720   4.016
 8639TIP3    H225875   1.968   6.679   3.876
 8640TIP3   OH225876   3.315   6.049   5.837
 8640TIP3    H125877   3.266   5.971   5.809
 8640TIP3    H225878   3.256   6.122   5.818
 8641TIP3   OH225879   1.172   3.135   2.628
 8641TIP3    H125880   1.225   3.214   2.631
 8641TIP3    H225881   1.198   3.091   2.547
 8642TIP3   OH225882   7.986   0.509  -0.006
 8642TIP3    H125883   7.919   0.442   0.008
 8642TIP3    H225884   8.069   0.464   0.014
 8643TIP3   OH225885   6.360   5.618   2.943
 8643TIP3    H125886   6.374   5.711   2.924
 8643TIP3    H225887   6.349   5.578   2.856
 8644TIP3   OH225888   4.607   7.414   3.490
 8644TIP3    H125889   4.683   7.449   3.443
 8644TIP3    H225890   4.587   7.331   3.446
 8645TIP3   OH225891   8.132   3.406   5.140
 8645TIP3    H125892   8.140   3.444   5.227
 8645TIP3    H225893   8.083   3.325   5.153
 8646TIP3   OH225894   7.399   4.860   2.373
 8646TIP3    H125895   7.400   4.766   2.356
 8646TIP3    H225896   7.328   4.893   2.318
 8647TIP3   OH225897   4.127   7.398   2.404
 8647TIP3    H125898   4.198   7.454   2.436
 8647TIP3    H225899   4.103   7.345   2.480
 8648TIP3   OH225900   7.364   6.164   4.548
 8648TIP3    H125901   7.281   6.142   4.506
 8648TIP3    H225902   7.393   6.244   4.504
 8649TIP3   OH225903   2.087   2.195   2.065
 8649TIP3    H125904   2.055   2.121   2.013
 8649TIP3    H225905   2.169   2.163   2.104
 8650TIP3   OH225906   7.896   4.731   3.405
 8650TIP3    H125907   7.923   4.656   3.459
 8650TIP3    H225908   7.972   4.789   3.406
 8651TIP3   OH225909   0.599   5.371   2.835
 8651TIP3    H125910   0.572   5.286   2.868
 8651TIP3    H225911   0.694   5.372   2.845
 8652TIP3   OH225912   1.792   5.554   3.036
 8652TIP3    H125913   1.826   5.622   2.978
 8652TIP3    H225914   1.850   5.556   3.112
 8653TIP3   OH225915   4.409   6.862   5.306
 8653TIP3    H125916   4.501   6.851   5.281
 8653TIP3    H225917   4.378   6.773   5.320
 8654TIP3   OH225918   1.845   0.042   1.318
 8654TIP3    H125919   1.858  -0.020   1.246
 8654TIP3    H225920   1.802   0.117   1.277
 8655TIP3   OH225921   2.612   7.011   0.964
 8655TIP3    H125922   2.578   7.051   0.884
 8655TIP3    H225923   2.694   7.056   0.981
 8656TIP3   OH225924   6.060   7.692   2.785
 8656TIP3    H125925   6.142   7.656   2.818
 8656TIP3    H225926   6.066   7.786   2.804
 8657TIP3   OH225927   7.758   5.062   4.982
 8657TIP3    H125928   7.832   5.088   4.927
 8657TIP3    H225929   7.749   5.134   5.045
 8658TIP3   OH225930   0.967   2.440   5.006
 8658TIP3    H125931   0.994   2.445   5.098
 8658TIP3    H225932   0.899   2.373   5.005
 8659TIP3   OH225933   2.864   3.257   3.453
 8659TIP3    H125934   2.853   3.337   3.504
 8659TIP3    H225935   2.957   3.235   3.462
 8660TIP3   OH225936   3.904   6.716   2.541
 8660TIP3    H125937   3.867   6.790   2.492
 8660TIP3    H225938   3.834   6.651   2.542
 8661TIP3   OH225939   2.226   7.720   5.134
 8661TIP3    H125940   2.293   7.749   5.072
 8661TIP3    H225941   2.270   7.651   5.185
 8662TIP3   OH225942   7.864   3.056   0.397
 8662TIP3    H125943   7.879   3.132   0.452
 8662TIP3    H225944   7.774   3.066   0.365
 8663TIP3   OH225945   6.986   0.089   5.722
 8663TIP3    H125946   6.961   0.003   5.690
 8663TIP3    H225947   7.078   0.080   5.748
 8664TIP3   OH225948   0.763   0.861   4.862
 8664TIP3    H125949   0.682   0.898   4.826
 8664TIP3    H225950   0.743   0.767   4.871
 8665TIP3   OH225951   8.253   5.434   4.701
 8665TIP3    H125952   8.309   5.478   4.765
 8665TIP3    H225953   8.223   5.356   4.746
 8666TIP3   OH225954   5.110   4.555   2.992
 8666TIP3    H125955   5.056   4.486   2.953
 8666TIP3    H225956   5.199   4.522   2.986
 8667TIP3   OH225957   7.397   4.780   4.538
 8667TIP3    H125958   7.330   4.712   4.536
 8667TIP3    H225959   7.472   4.741   4.491
 8668TIP3   OH225960   5.423   2.186   0.250
 8668TIP3    H125961   5.457   2.224   0.331
 8668TIP3    H225962   5.333   2.162   0.270
 8669TIP3   OH225963   4.365   7.117   2.172
 8669TIP3    H125964   4.322   7.202   2.171
 8669TIP3    H225965   4.383   7.097   2.080
 8670TIP3   OH225966   7.184   6.911   4.978
 8670TIP3    H125967   7.198   6.956   5.061
 8670TIP3    H225968   7.176   6.819   5.001
 8671TIP3   OH225969   7.364   4.816   1.257
 8671TIP3    H125970   7.318   4.756   1.198
 8671TIP3    H225971   7.319   4.899   1.246
 8672TIP3   OH225972   4.282   6.288   2.336
 8672TIP3    H125973   4.187   6.291   2.321
 8672TIP3    H225974   4.318   6.351   2.273
 8673TIP3   OH225975   8.140   7.434   0.870
 8673TIP3    H125976   8.223   7.450   0.824
 8673TIP3    H225977   8.140   7.340   0.888
 8674TIP3   OH225978   7.486   2.378   3.343
 8674TIP3    H125979   7.494   2.397   3.250
 8674TIP3    H225980   7.555   2.430   3.385
 8675TIP3   OH225981   5.016   0.279   4.233
 8675TIP3    H125982   5.097   0.325   4.212
 8675TIP3    H225983   4.968   0.274   4.150
 8676TIP3   OH225984   6.421   5.995   0.180
 8676TIP3    H125985   6.359   5.971   0.111
 8676TIP3    H225986   6.503   5.953   0.154
 8677TIP3   OH225987   1.841   4.102   4.092
 8677TIP3    H125988   1.831   4.193   4.066
 8677TIP3    H225989   1.899   4.065   4.025
 8678TIP3   OH225990   3.980   4.923   1.232
 8678TIP3    H125991   3.955   5.013   1.252
 8678TIP3    H225992   4.073   4.918   1.255
 8679TIP3   OH225993   2.173   1.725   3.857
 8679TIP3    H125994   2.214   1.802   3.816
 8679TIP3    H225995   2.146   1.756   3.944
 8680TIP3   OH225996   3.022   7.317   0.632
 8680TIP3    H125997   2.961   7.244   0.642
 8680TIP3    H225998   2.967   7.392   0.609
 8681TIP3   OH225999   1.942   5.771   4.334
 8681TIP3    H126000   1.912   5.723   4.411
 8681TIP3    H226001   2.018   5.721   4.303
 8682TIP3   OH226002   4.022   1.378   1.867
 8682TIP3    H126003   3.945   1.418   1.909
 8682TIP3    H226004   4.005   1.284   1.872
 8683TIP3   OH226005   7.773   2.277   0.013
 8683TIP3    H126006   7.717   2.205   0.045
 8683TIP3    H226007   7.832   2.295   0.086
 8684TIP3   OH226008   3.044   1.704   0.628
 8684TIP3    H126009   3.119   1.711   0.569
 8684TIP3    H226010   3.083   1.708   0.716
 8685TIP3   OH226011   1.518   6.970   6.013
 8685TIP3    H126012   1.466   6.908   5.963
 8685TIP3    H226013   1.468   7.051   6.011
 8686TIP3   OH226014   7.823   7.308   6.563
 8686TIP3    H126015   7.740   7.263   6.546
 8686TIP3    H226016   7.797   7.389   6.607
 8687TIP3   OH226017   2.300   3.729   4.958
 8687TIP3    H126018   2.382   3.706   4.915
 8687TIP3    H226019   2.318   3.715   5.051
 8688TIP3   OH226020   6.836   4.760   1.731
 8688TIP3    H126021   6.887   4.696   1.682
 8688TIP3    H226022   6.801   4.819   1.664
 8689TIP3   OH226023   1.571   2.193   2.001
 8689TIP3    H126024   1.503   2.255   2.024
 8689TIP3    H226025   1.591   2.147   2.082
 8690TIP3   OH226026   4.162   0.168   4.805
 8690TIP3    H126027   4.242   0.182   4.755
 8690TIP3    H226028   4.105   0.241   4.781
 8691TIP3   OH226029   6.728   2.305   6.097
 8691TIP3    H126030   6.816   2.290   6.133
 8691TIP3    H226031   6.731   2.263   6.011
 8692TIP3   OH226032   4.380   0.861   1.772
 8692TIP3    H126033   4.417   0.791   1.718
 8692TIP3    H226034   4.302   0.890   1.724
 8693TIP3   OH226035   6.409   7.336   3.732
 8693TIP3    H126036   6.360   7.299   3.806
 8693TIP3    H226037   6.353   7.405   3.698
 8694TIP3   OH226038   3.988   7.364   0.414
 8694TIP3    H126039   4.077   7.333   0.398
 8694TIP3    H226040   3.957   7.311   0.488
 8695TIP3   OH226041   6.939   0.495   1.423
 8695TIP3    H126042   6.907   0.581   1.451
 8695TIP3    H226043   6.980   0.459   1.501
 8696TIP3   OH226044   1.656   5.878   1.066
 8696TIP3    H126045   1.736   5.931   1.057
 8696TIP3    H226046   1.615   5.910   1.146
 8697TIP3   OH226047   0.705   1.836   4.165
 8697TIP3    H126048   0.788   1.818   4.209
 8697TIP3    H226049   0.691   1.761   4.107
 8698TIP3   OH226050   0.216   3.197   3.359
 8698TIP3    H126051   0.266   3.167   3.435
 8698TIP3    H226052   0.160   3.267   3.393
 8699TIP3   OH226053   4.824   5.687   3.627
 8699TIP3    H126054   4.881   5.611   3.619
 8699TIP3    H226055   4.757   5.660   3.690
 8700TIP3   OH226056   4.327   7.083   4.954
 8700TIP3    H126057   4.328   7.132   5.037
 8700TIP3    H226058   4.250   7.028   4.960
 8701TIP3   OH226059   5.111   4.829   4.420
 8701TIP3    H126060   5.047   4.889   4.381
 8701TIP3    H226061   5.089   4.744   4.384
 8702TIP3   OH226062   4.058   4.575   2.313
 8702TIP3    H126063   4.058   4.490   2.356
 8702TIP3    H226064   3.974   4.614   2.335
 8703TIP3   OH226065   1.563   1.360   5.622
 8703TIP3    H126066   1.508   1.290   5.588
 8703TIP3    H226067   1.537   1.370   5.713
 8704TIP3   OH226068   5.500   7.253   1.188
 8704TIP3    H126069   5.540   7.198   1.121
 8704TIP3    H226070   5.456   7.191   1.247
 8705TIP3   OH226071   5.092   2.348   0.185
 8705TIP3    H126072   5.065   2.404   0.112
 8705TIP3    H226073   5.026   2.364   0.252
 8706TIP3   OH226074   5.787   2.408   3.968
 8706TIP3    H126075   5.790   2.503   3.980
 8706TIP3    H226076   5.786   2.374   4.058
 8707TIP3   OH226077   4.946   7.291   1.767
 8707TIP3    H126078   4.947   7.344   1.687
 8707TIP3    H226079   4.862   7.312   1.808
 8708TIP3   OH226080   0.699   1.792   0.509
 8708TIP3    H126081   0.771   1.729   0.500
 8708TIP3    H226082   0.676   1.790   0.602
 8709TIP3   OH226083   3.628   6.010   4.772
 8709TIP3    H126084   3.645   6.080   4.710
 8709TIP3    H226085   3.562   6.047   4.831
 8710TIP3   OH226086   5.027   0.910   3.691
 8710TIP3    H126087   5.015   0.817   3.673
 8710TIP3    H226088   4.939   0.947   3.687
 8711TIP3   OH226089   1.847   1.591   2.671
 8711TIP3    H126090   1.892   1.673   2.652
 8711TIP3    H226091   1.830   1.594   2.765
 8712TIP3   OH226092   7.501   0.042   5.764
 8712TIP3    H126093   7.446   0.109   5.804
 8712TIP3    H226094   7.446  -0.037   5.764
 8713TIP3   OH226095   5.194   6.872   4.121
 8713TIP3    H126096   5.147   6.850   4.202
 8713TIP3    H226097   5.142   6.831   4.051
 8714TIP3   OH226098   1.298   5.434   5.856
 8714TIP3    H126099   1.254   5.438   5.941
 8714TIP3    H226100   1.289   5.523   5.821
 8715TIP3   OH226101   5.290   6.537   0.270
 8715TIP3    H126102   5.249   6.512   0.353
 8715TIP3    H226103   5.321   6.626   0.284
 8716TIP3   OH226104   3.499   2.579   5.675
 8716TIP3    H126105   3.497   2.644   5.605
 8716TIP3    H226106   3.563   2.614   5.738
 8717TIP3   OH226107   2.777   5.348   3.296
 8717TIP3    H126108   2.839   5.275   3.287
 8717TIP3    H226109   2.814   5.418   3.243
 8718TIP3   OH226110   4.742   2.977   1.270
 8718TIP3    H126111   4.694   2.993   1.351
 8718TIP3    H226112   4.702   2.897   1.234
 8719TIP3   OH226113   1.366   3.942   3.005
 8719TIP3    H126114   1.397   3.988   3.083
 8719TIP3    H226115   1.299   4.001   2.968
 8720TIP3   OH226116   2.955   0.567   2.654
 8720TIP3    H126117   2.993   0.636   2.599
 8720TIP3    H226118   3.021   0.552   2.722
 8721TIP3   OH226119   0.996   3.349   6.277
 8721TIP3    H126120   0.915   3.341   6.327
 8721TIP3    H226121   1.015   3.259   6.248
 8722TIP3   OH226122   1.427   1.947   2.484
 8722TIP3    H126123   1.512   1.992   2.482
 8722TIP3    H226124   1.363   2.018   2.478
 8723TIP3   OH226125   6.592   6.906   6.695
 8723TIP3    H126126   6.610   6.994   6.728
 8723TIP3    H226127   6.610   6.848   6.770
 8724TIP3   OH226128   7.397   5.640   4.190
 8724TIP3    H126129   7.482   5.599   4.175
 8724TIP3    H226130   7.416   5.715   4.247
 8725TIP3   OH226131   0.637   4.608   4.302
 8725TIP3    H126132   0.596   4.693   4.289
 8725TIP3    H226133   0.589   4.549   4.245
 8726TIP3   OH226134   2.416   3.182   0.499
 8726TIP3    H126135   2.453   3.151   0.581
 8726TIP3    H226136   2.490   3.186   0.439
 8727TIP3   OH226137   4.268   1.853   2.977
 8727TIP3    H126138   4.355   1.835   2.940
 8727TIP3    H226139   4.250   1.944   2.952
 8728TIP3   OH226140   7.587   1.031   4.742
 8728TIP3    H126141   7.677   1.055   4.719
 8728TIP3    H226142   7.594   0.992   4.829
 8729TIP3   OH226143   2.904   5.032   1.452
 8729TIP3    H126144   2.881   5.101   1.390
 8729TIP3    H226145   2.982   5.065   1.497
 8730TIP3   OH226146   4.486   3.548   5.056
 8730TIP3    H126147   4.397   3.540   5.021
 8730TIP3    H226148   4.514   3.636   5.030
 8731TIP3   OH226149   3.419   2.543   5.102
 8731TIP3    H126150   3.334   2.508   5.076
 8731TIP3    H226151   3.480   2.513   5.034
 8732TIP3   OH226152   3.631   5.945   5.267
 8732TIP3    H126153   3.555   5.917   5.215
 8732TIP3    H226154   3.635   6.040   5.254
 8733TIP3   OH226155   8.122   1.420   3.041
 8733TIP3    H126156   8.190   1.456   2.983
 8733TIP3    H226157   8.115   1.328   3.015
 8734TIP3   OH226158   0.789   1.008   2.856
 8734TIP3    H126159   0.807   1.091   2.811
 8734TIP3    H226160   0.777   0.945   2.786
 8735TIP3   OH226161   4.206   2.435   5.830
 8735TIP3    H126162   4.163   2.364   5.877
 8735TIP3    H226163   4.292   2.400   5.805
 8736TIP3   OH226164   1.157   3.007   6.204
 8736TIP3    H126165   1.251   2.995   6.215
 8736TIP3    H226166   1.148   3.064   6.127
 8737TIP3   OH226167   6.193   0.742   1.447
 8737TIP3    H126168   6.241   0.764   1.527
 8737TIP3    H226169   6.134   0.671   1.472
 8738TIP3   OH226170   8.069   5.570   5.210
 8738TIP3    H126171   8.138   5.564   5.144
 8738TIP3    H226172   8.015   5.643   5.181
 8739TIP3   OH226173   3.187   4.636   1.629
 8739TIP3    H126174   3.202   4.552   1.588
 8739TIP3    H226175   3.198   4.619   1.723
 8740TIP3   OH226176   7.189   2.175   3.545
 8740TIP3    H126177   7.106   2.138   3.516
 8740TIP3    H226178   7.254   2.108   3.522
 8741TIP3   OH226179   1.667   2.536   0.969
 8741TIP3    H126180   1.740   2.557   1.027
 8741TIP3    H226181   1.588   2.558   1.020
 8742TIP3   OH226182   5.982   5.245   5.493
 8742TIP3    H126183   5.934   5.194   5.428
 8742TIP3    H226184   6.047   5.184   5.528
 8743TIP3   OH226185   3.752   0.086   6.696
 8743TIP3    H126186   3.701   0.166   6.709
 8743TIP3    H226187   3.723   0.027   6.765
 8744TIP3   OH226188   6.580   0.943   6.493
 8744TIP3    H126189   6.636   0.890   6.550
 8744TIP3    H226190   6.634   1.018   6.469
 8745TIP3   OH226191   5.789   2.087   3.114
 8745TIP3    H126192   5.758   2.164   3.163
 8745TIP3    H226193   5.714   2.027   3.114
 8746TIP3   OH226194   2.173   3.260   5.058
 8746TIP3    H126195   2.252   3.239   5.008
 8746TIP3    H226196   2.120   3.312   4.999
 8747TIP3   OH226197   4.187   5.915   2.647
 8747TIP3    H126198   4.258   5.979   2.642
 8747TIP3    H226199   4.107   5.967   2.637
 8748TIP3   OH226200   4.450   3.290   0.618
 8748TIP3    H126201   4.409   3.369   0.582
 8748TIP3    H226202   4.436   3.297   0.712
 8749TIP3   OH226203  -0.007   2.301   4.320
 8749TIP3    H126204   0.084   2.322   4.342
 8749TIP3    H226205  -0.034   2.370   4.260
 8750TIP3   OH226206   2.520   5.105   6.622
 8750TIP3    H126207   2.481   5.093   6.535
 8750TIP3    H226208   2.478   5.039   6.676
 8751TIP3   OH226209   6.135   3.904   6.189
 8751TIP3    H126210   6.109   3.814   6.211
 8751TIP3    H226211   6.146   3.903   6.094
 8752TIP3   OH226212   4.928   2.559   4.043
 8752TIP3    H126213   4.949   2.527   4.130
 8752TIP3    H226214   4.868   2.632   4.058
 8753TIP3   OH226215   3.160   4.320   4.733
 8753TIP3    H126216   3.172   4.282   4.820
 8753TIP3    H226217   3.096   4.390   4.745
 8754TIP3   OH226218   2.984   7.523   2.935
 8754TIP3    H126219   2.926   7.528   3.011
 8754TIP3    H226220   2.935   7.566   2.865
 8755TIP3   OH226221   3.580   4.086   0.533
 8755TIP3    H126222   3.596   4.090   0.628
 8755TIP3    H226223   3.565   4.176   0.507
 8756TIP3   OH226224   6.176   2.582   0.353
 8756TIP3    H126225   6.110   2.515   0.370
 8756TIP3    H226226   6.177   2.636   0.432
 8757TIP3   OH226227   2.548   4.223   5.775
 8757TIP3    H126228   2.572   4.133   5.750
 8757TIP3    H226229   2.453   4.224   5.774
 8758TIP3   OH226230   0.111   2.367   1.390
 8758TIP3    H126231   0.064   2.443   1.355
 8758TIP3    H226232   0.054   2.335   1.460
 8759TIP3   OH226233   0.492   6.369   2.257
 8759TIP3    H126234   0.572   6.371   2.310
 8759TIP3    H226235   0.423   6.401   2.315
 8760TIP3   OH226236   3.297   2.843   2.246
 8760TIP3    H126237   3.254   2.805   2.323
 8760TIP3    H226238   3.242   2.818   2.173
 8761TIP3   OH226239   4.425   1.246   5.586
 8761TIP3    H126240   4.396   1.333   5.556
 8761TIP3    H226241   4.417   1.250   5.681
 8762TIP3   OH226242   0.398   5.566   6.094
 8762TIP3    H126243   0.420   5.473   6.091
 8762TIP3    H226244   0.403   5.589   6.187
 8763TIP3   OH226245   5.561   3.070   6.030
 8763TIP3    H126246   5.527   2.998   6.082
 8763TIP3    H226247   5.534   3.149   6.077
 8764TIP3   OH226248   5.256   0.206   1.211
 8764TIP3    H126249   5.182   0.266   1.222
 8764TIP3    H226250   5.327   0.261   1.179
 8765TIP3   OH226251   3.299   1.732   0.140
 8765TIP3    H126252   3.340   1.729   0.053
 8765TIP3    H226253   3.252   1.816   0.142
 8766TIP3   OH226254   6.427   2.659   2.054
 8766TIP3    H126255   6.449   2.575   2.094
 8766TIP3    H226256   6.451   2.650   1.962
 8767TIP3   OH226257   7.863   5.075   1.183
 8767TIP3    H126258   7.818   5.153   1.215
 8767TIP3    H226259   7.795   5.007   1.182
 8768TIP3   OH226260   2.945   3.761   3.086
 8768TIP3    H126261   2.857   3.727   3.105
 8768TIP3    H226262   2.932   3.856   3.078
 8769TIP3   OH226263   7.155   4.188   4.492
 8769TIP3    H126264   7.237   4.143   4.509
 8769TIP3    H226265   7.094   4.152   4.557
 8770TIP3   OH226266   2.508   6.471   6.506
 8770TIP3    H126267   2.468   6.530   6.442
 8770TIP3    H226268   2.517   6.524   6.585
 8771TIP3   OH226269   6.572   1.431   4.772
 8771TIP3    H126270   6.661   1.463   4.755
 8771TIP3    H226271   6.585   1.341   4.803
 8772TIP3   OH226272   4.800   1.707   6.713
 8772TIP3    H126273   4.785   1.798   6.737
 8772TIP3    H226274   4.717   1.663   6.732
 8773TIP3   OH226275   2.513   5.101   0.890
 8773TIP3    H126276   2.558   5.179   0.858
 8773TIP3    H226277   2.504   5.116   0.984
 8774TIP3   OH226278   0.754   4.344   3.608
 8774TIP3    H126279   0.724   4.376   3.693
 8774TIP3    H226280   0.744   4.419   3.549
 8775TIP3   OH226281   3.378   6.249   2.054
 8775TIP3    H126282   3.467   6.219   2.037
 8775TIP3    H226283   3.381   6.343   2.038
 8776TIP3   OH226284   3.649   1.753   1.065
 8776TIP3    H126285   3.677   1.843   1.084
 8776TIP3    H226286   3.555   1.752   1.085
 8777TIP3   OH226287   2.244   4.218   0.880
 8777TIP3    H126288   2.239   4.286   0.813
 8777TIP3    H226289   2.250   4.265   0.963
 8778TIP3   OH226290   6.474   3.237   5.811
 8778TIP3    H126291   6.477   3.150   5.770
 8778TIP3    H226292   6.562   3.249   5.847
 8779TIP3   OH226293   3.115   0.263   5.807
 8779TIP3    H126294   3.041   0.289   5.863
 8779TIP3    H226295   3.133   0.341   5.755
 8780TIP3   OH226296   1.168   7.058   0.888
 8780TIP3    H126297   1.236   7.056   0.956
 8780TIP3    H226298   1.183   6.978   0.838
 8781TIP3   OH226299   0.481   6.339   5.420
 8781TIP3    H126300   0.570   6.371   5.408
 8781TIP3    H226301   0.491   6.246   5.439
 8782TIP3   OH226302   8.176   7.635   2.911
 8782TIP3    H126303   8.189   7.729   2.905
 8782TIP3    H226304   8.090   7.625   2.952
 8783TIP3   OH226305   8.029   1.088   3.848
 8783TIP3    H126306   8.085   1.027   3.896
 8783TIP3    H226307   7.950   1.095   3.902
 8784TIP3   OH226308   7.492   6.443   3.706
 8784TIP3    H126309   7.505   6.493   3.625
 8784TIP3    H226310   7.408   6.473   3.740
 8785TIP3   OH226311   5.531   3.715   4.942
 8785TIP3    H126312   5.436   3.702   4.937
 8785TIP3    H226313   5.558   3.731   4.852
 8786TIP3   OH226314   3.779   1.360   6.046
 8786TIP3    H126315   3.834   1.438   6.054
 8786TIP3    H226316   3.829   1.291   6.090
 8787TIP3   OH226317   0.806   1.746   6.073
 8787TIP3    H126318   0.854   1.805   6.132
 8787TIP3    H226319   0.813   1.788   5.987
 8788TIP3   OH226320   7.209   3.612   6.629
 8788TIP3    H126321   7.251   3.615   6.543
 8788TIP3    H226322   7.141   3.545   6.620
 8789TIP3   OH226323   5.462   3.277   5.478
 8789TIP3    H126324   5.373   3.308   5.462
 8789TIP3    H226325   5.479   3.301   5.570
 8790TIP3   OH226326   6.250   2.852   2.958
 8790TIP3    H126327   6.239   2.782   3.023
 8790TIP3    H226328   6.163   2.862   2.919
 8791TIP3   OH226329   7.749   3.491   5.938
 8791TIP3    H126330   7.750   3.449   5.852
 8791TIP3    H226331   7.656   3.498   5.960
 8792TIP3   OH226332   2.536   5.368   4.282
 8792TIP3    H126333   2.462   5.313   4.257
 8792TIP3    H226334   2.496   5.440   4.332
 8793TIP3   OH226335   4.787   4.704   3.624
 8793TIP3    H126336   4.705   4.686   3.579
 8793TIP3    H226337   4.850   4.645   3.581
 8794TIP3   OH226338   0.778   6.413   3.732
 8794TIP3    H126339   0.699   6.442   3.777
 8794TIP3    H226340   0.746   6.348   3.669
 8795TIP3   OH226341   7.399   0.016   0.243
 8795TIP3    H126342   7.388   0.111   0.247
 8795TIP3    H226343   7.353  -0.010   0.163
 8796TIP3   OH226344   6.899   1.515   3.790
 8796TIP3    H126345   6.890   1.556   3.876
 8796TIP3    H226346   6.961   1.571   3.743
 8797TIP3   OH226347   6.887   7.027   3.867
 8797TIP3    H126348   6.878   6.942   3.910
 8797TIP3    H226349   6.844   7.089   3.925
 8798TIP3   OH226350   8.271   4.260   4.898
 8798TIP3    H126351   8.268   4.346   4.940
 8798TIP3    H226352   8.250   4.278   4.806
 8799TIP3   OH226353   2.277   0.041   2.190
 8799TIP3    H126354   2.302   0.110   2.129
 8799TIP3    H226355   2.213   0.081   2.248
 8800TIP3   OH226356   4.844   1.820   5.063
 8800TIP3    H126357   4.919   1.877   5.079
 8800TIP3    H226358   4.809   1.851   4.979
 8801TIP3   OH226359   5.430   0.609   2.649
 8801TIP3    H126360   5.507   0.633   2.701
 8801TIP3    H226361   5.359   0.663   2.683
 8802TIP3   OH226362   4.933   0.979   6.430
 8802TIP3    H126363   4.962   0.912   6.491
 8802TIP3    H226364   4.847   1.006   6.463
 8803TIP3   OH226365   6.943   6.111   1.803
 8803TIP3    H126366   6.905   6.188   1.761
 8803TIP3    H226367   6.909   6.037   1.753
 8804TIP3   OH226368   0.435   3.977   6.776
 8804TIP3    H126369   0.493   4.051   6.756
 8804TIP3    H226370   0.372   3.975   6.704
 8805TIP3   OH226371   1.304   2.750   6.308
 8805TIP3    H126372   1.375   2.688   6.329
 8805TIP3    H226373   1.311   2.817   6.375
 8806TIP3   OH226374   2.986   0.164   2.587
 8806TIP3    H126375   2.963   0.202   2.672
 8806TIP3    H226376   3.065   0.211   2.560
 8807TIP3   OH226377   4.620   3.056   5.740
 8807TIP3    H126378   4.527   3.039   5.729
 8807TIP3    H226379   4.663   2.981   5.699
 8808TIP3   OH226380   1.691   3.934   6.447
 8808TIP3    H126381   1.653   3.854   6.484
 8808TIP3    H226382   1.779   3.908   6.420
 8809TIP3   OH226383   1.952   5.660   4.075
 8809TIP3    H126384   2.015   5.726   4.047
 8809TIP3    H226385   1.884   5.710   4.121
 8810TIP3   OH226386   8.201   4.436   0.355
 8810TIP3    H126387   8.200   4.532   0.351
 8810TIP3    H226388   8.214   4.417   0.448
 8811TIP3   OH226389   5.325   7.613   3.446
 8811TIP3    H126390   5.341   7.520   3.429
 8811TIP3    H226391   5.389   7.659   3.391
 8812TIP3   OH226392   6.944   5.075   5.301
 8812TIP3    H126393   6.959   5.168   5.314
 8812TIP3    H226394   6.887   5.049   5.374
 8813TIP3   OH226395   7.753   2.733   2.664
 8813TIP3    H126396   7.668   2.772   2.685
 8813TIP3    H226397   7.759   2.656   2.721
 8814TIP3   OH226398   6.202   5.077   3.447
 8814TIP3    H126399   6.181   5.046   3.359
 8814TIP3    H226400   6.169   5.008   3.505
 8815TIP3   OH226401   1.431   5.125   0.124
 8815TIP3    H126402   1.421   5.088   0.037
 8815TIP3    H226403   1.491   5.066   0.169
 8816TIP3   OH226404   2.733   5.751   2.154
 8816TIP3    H126405   2.674   5.797   2.214
 8816TIP3    H226406   2.816   5.798   2.160
 8817TIP3   OH226407   4.700   3.494   6.464
 8817TIP3    H126408   4.783   3.542   6.473
 8817TIP3    H226409   4.698   3.467   6.372
 8818TIP3   OH226410   0.920   2.631   1.366
 8818TIP3    H126411   0.849   2.591   1.416
 8818TIP3    H226412   0.992   2.568   1.373
 8819TIP3   OH226413   4.766   7.106   6.451
 8819TIP3    H126414   4.695   7.065   6.501
 8819TIP3    H226415   4.818   7.032   6.419
 8820TIP3   OH226416   6.214   3.415   4.754
 8820TIP3    H126417   6.234   3.484   4.817
 8820TIP3    H226418   6.243   3.450   4.669
 8821TIP3   OH226419   3.612   6.829   6.514
 8821TIP3    H126420   3.665   6.813   6.593
 8821TIP3    H226421   3.677   6.847   6.446
 8822TIP3   OH226422   1.984   3.340   4.845
 8822TIP3    H126423   1.946   3.252   4.838
 8822TIP3    H226424   1.959   3.383   4.763
 8823TIP3   OH226425   0.030   5.005   1.086
 8823TIP3    H126426   0.064   5.000   0.996
 8823TIP3    H226427   0.073   5.081   1.124
 8824TIP3   OH226428   4.251   2.556   2.750
 8824TIP3    H126429   4.241   2.563   2.844
 8824TIP3    H226430   4.169   2.590   2.714
 8825TIP3   OH226431   4.282   7.761   3.407
 8825TIP3    H126432   4.206   7.782   3.353
 8825TIP3    H226433   4.357   7.799   3.359
 8826TIP3   OH226434   0.033   7.442   4.435
 8826TIP3    H126435  -0.049   7.451   4.386
 8826TIP3    H226436   0.042   7.348   4.450
 8827TIP3   OH226437   2.258   6.340   2.455
 8827TIP3    H126438   2.352   6.355   2.465
 8827TIP3    H226439   2.225   6.332   2.544
 8828TIP3   OH226440   1.750   4.898   4.331
 8828TIP3    H126441   1.835   4.900   4.286
 8828TIP3    H226442   1.689   4.935   4.268
 8829TIP3   OH226443   2.271   7.345   0.720
 8829TIP3    H126444   2.238   7.344   0.630
 8829TIP3    H226445   2.192   7.356   0.774
 8830TIP3   OH226446   4.515   2.149   5.034
 8830TIP3    H126447   4.522   2.243   5.018
 8830TIP3    H226448   4.469   2.142   5.117
 8831TIP3   OH226449   7.681   5.629   4.170
 8831TIP3    H126450   7.744   5.639   4.242
 8831TIP3    H226451   7.734   5.609   4.094
 8832TIP3   OH226452   7.982   6.570   1.053
 8832TIP3    H126453   8.038   6.564   0.976
 8832TIP3    H226454   8.040   6.552   1.127
 8833TIP3   OH226455   1.273   1.975   3.329
 8833TIP3    H126456   1.264   1.999   3.237
 8833TIP3    H226457   1.337   1.904   3.330
 8834TIP3   OH226458   0.840   2.408   3.592
 8834TIP3    H126459   0.773   2.340   3.586
 8834TIP3    H226460   0.912   2.366   3.640
 8835TIP3   OH226461   5.036   6.781   2.268
 8835TIP3    H126462   5.070   6.778   2.179
 8835TIP3    H226463   5.021   6.689   2.291
 8836TIP3   OH226464   4.989   4.114   0.489
 8836TIP3    H126465   4.971   4.087   0.399
 8836TIP3    H226466   5.011   4.207   0.483
 8837TIP3   OH226467   6.007   5.345   1.785
 8837TIP3    H126468   5.968   5.422   1.827
 8837TIP3    H226469   6.049   5.297   1.857
 8838TIP3   OH226470   6.601   5.305   3.613
 8838TIP3    H126471   6.570   5.232   3.560
 8838TIP3    H226472   6.694   5.314   3.591
 8839TIP3   OH226473   5.356   1.851   4.908
 8839TIP3    H126474   5.371   1.917   4.976
 8839TIP3    H226475   5.363   1.898   4.826
 8840TIP3   OH226476   7.285   7.006   5.228
 8840TIP3    H126477   7.231   7.003   5.307
 8840TIP3    H226478   7.342   7.081   5.241
 8841TIP3   OH226479   4.508   2.649   2.700
 8841TIP3    H126480   4.499   2.703   2.622
 8841TIP3    H226481   4.433   2.590   2.698
 8842TIP3   OH226482   3.835   7.296   2.608
 8842TIP3    H126483   3.927   7.269   2.611
 8842TIP3    H226484   3.801   7.256   2.528
 8843TIP3   OH226485   8.219   3.003   4.987
 8843TIP3    H126486   8.276   3.013   4.911
 8843TIP3    H226487   8.174   2.920   4.973
 8844TIP3   OH226488   3.825   2.689   0.453
 8844TIP3    H126489   3.780   2.773   0.457
 8844TIP3    H226490   3.773   2.637   0.392
 8845TIP3   OH226491   8.299   0.973   6.270
 8845TIP3    H126492   8.320   0.880   6.270
 8845TIP3    H226493   8.217   0.980   6.318
 8846TIP3   OH226494   3.750   6.491   2.582
 8846TIP3    H126495   3.660   6.494   2.550
 8846TIP3    H226496   3.765   6.399   2.603
 8847TIP3   OH226497   4.405   4.182   4.254
 8847TIP3    H126498   4.438   4.131   4.179
 8847TIP3    H226499   4.484   4.204   4.303
 8848TIP3   OH226500   6.273   7.457   5.216
 8848TIP3    H126501   6.283   7.372   5.260
 8848TIP3    H226502   6.180   7.477   5.223
 8849TIP3   OH226503   1.599   1.239   1.652
 8849TIP3    H126504   1.660   1.212   1.584
 8849TIP3    H226505   1.653   1.254   1.729
 8850TIP3   OH226506   8.123   5.234   4.511
 8850TIP3    H126507   8.098   5.297   4.579
 8850TIP3    H226508   8.211   5.259   4.486
 8851TIP3   OH226509   3.357   0.884   6.570
 8851TIP3    H126510   3.350   0.825   6.645
 8851TIP3    H226511   3.362   0.827   6.494
 8852TIP3   OH226512   4.817   3.254   1.360
 8852TIP3    H126513   4.849   3.192   1.295
 8852TIP3    H226514   4.815   3.338   1.314
 8853TIP3   OH226515   7.993   0.405   6.736
 8853TIP3    H126516   8.006   0.339   6.668
 8853TIP3    H226517   7.908   0.383   6.775
 8854TIP3   OH226518   1.246   4.943   4.534
 8854TIP3    H126519   1.203   4.935   4.448
 8854TIP3    H226520   1.173   4.941   4.596
 8855TIP3   OH226521   2.431   3.502   1.458
 8855TIP3    H126522   2.371   3.503   1.532
 8855TIP3    H226523   2.472   3.589   1.458
 8856TIP3   OH226524   3.337   2.722   5.283
 8856TIP3    H126525   3.370   2.639   5.249
 8856TIP3    H226526   3.385   2.788   5.233
 8857TIP3   OH226527   7.708   0.229   6.112
 8857TIP3    H126528   7.677   0.194   6.029
 8857TIP3    H226529   7.793   0.187   6.125
 8858TIP3   OH226530   4.385   5.104   2.812
 8858TIP3    H126531   4.437   5.182   2.795
 8858TIP3    H226532   4.357   5.112   2.903
 8859TIP3   OH226533   7.054   5.618   2.921
 8859TIP3    H126534   7.075   5.585   2.833
 8859TIP3    H226535   6.977   5.568   2.948
 8860TIP3   OH226536   4.366   2.108   5.887
 8860TIP3    H126537   4.282   2.088   5.844
 8860TIP3    H226538   4.431   2.097   5.817
 8861TIP3   OH226539   6.496   7.496   3.921
 8861TIP3    H126540   6.496   7.441   3.843
 8861TIP3    H226541   6.457   7.440   3.989
 8862TIP3   OH226542   7.215   7.420   5.934
 8862TIP3    H126543   7.299   7.446   5.972
 8862TIP3    H226544   7.169   7.503   5.921
 8863TIP3   OH226545   0.290   7.298   0.587
 8863TIP3    H126546   0.201   7.266   0.600
 8863TIP3    H226547   0.314   7.338   0.671
 8864TIP3   OH226548   4.244   2.667   1.841
 8864TIP3    H126549   4.209   2.720   1.912
 8864TIP3    H226550   4.314   2.616   1.882
 8865TIP3   OH226551   3.553   6.956   3.701
 8865TIP3    H126552   3.610   6.953   3.624
 8865TIP3    H226553   3.555   7.047   3.729
 8866TIP3   OH226554   5.326   6.065   0.687
 8866TIP3    H126555   5.421   6.075   0.680
 8866TIP3    H226556   5.295   6.151   0.716
 8867TIP3   OH226557   4.085   0.899   3.663
 8867TIP3    H126558   4.035   0.870   3.740
 8867TIP3    H226559   4.175   0.875   3.683
 8868TIP3   OH226560   0.568   1.676   4.994
 8868TIP3    H126561   0.592   1.768   5.001
 8868TIP3    H226562   0.607   1.647   4.912
 8869TIP3   OH226563   5.135   3.845   2.911
 8869TIP3    H126564   5.207   3.873   2.966
 8869TIP3    H226565   5.138   3.749   2.914
 8870TIP3   OH226566   5.528   5.623   4.697
 8870TIP3    H126567   5.493   5.587   4.615
 8870TIP3    H226568   5.475   5.584   4.766
 8871TIP3   OH226569   5.591   0.382   3.770
 8871TIP3    H126570   5.510   0.332   3.780
 8871TIP3    H226571   5.615   0.371   3.678
 8872TIP3   OH226572   4.514   6.782   6.275
 8872TIP3    H126573   4.605   6.757   6.261
 8872TIP3    H226574   4.505   6.791   6.370
 8873TIP3   OH226575   0.248   0.139   4.511
 8873TIP3    H126576   0.322   0.089   4.545
 8873TIP3    H226577   0.287   0.223   4.486
 8874TIP3   OH226578   5.327   1.693   3.306
 8874TIP3    H126579   5.417   1.674   3.279
 8874TIP3    H226580   5.288   1.735   3.229
 8875TIP3   OH226581   6.969   4.964   0.171
 8875TIP3    H126582   6.909   4.999   0.106
 8875TIP3    H226583   6.953   4.869   0.170
 8876TIP3   OH226584   8.088   5.870   6.159
 8876TIP3    H126585   8.118   5.880   6.249
 8876TIP3    H226586   7.993   5.862   6.166
 8877TIP3   OH226587   1.145   5.602   0.650
 8877TIP3    H126588   1.077   5.631   0.711
 8877TIP3    H226589   1.206   5.552   0.704
 8878TIP3   OH226590   2.122   5.993   2.465
 8878TIP3    H126591   2.030   6.011   2.486
 8878TIP3    H226592   2.166   5.996   2.550
 8879TIP3   OH226593   1.909   6.436   0.701
 8879TIP3    H126594   1.974   6.388   0.753
 8879TIP3    H226595   1.835   6.448   0.761
 8880TIP3   OH226596   1.702   4.470   2.496
 8880TIP3    H126597   1.628   4.415   2.520
 8880TIP3    H226598   1.704   4.538   2.564
 8881TIP3   OH226599   2.032   2.684   1.857
 8881TIP3    H126600   2.101   2.620   1.840
 8881TIP3    H226601   1.951   2.635   1.846
 8882TIP3   OH226602   6.112   7.266   1.507
 8882TIP3    H126603   6.078   7.179   1.485
 8882TIP3    H226604   6.109   7.270   1.602
 8883TIP3   OH226605   6.216   6.569   0.962
 8883TIP3    H126606   6.265   6.498   1.004
 8883TIP3    H226607   6.151   6.524   0.908
 8884TIP3   OH226608   6.715   3.566   3.229
 8884TIP3    H126609   6.748   3.594   3.314
 8884TIP3    H226610   6.741   3.474   3.223
 8885TIP3   OH226611   1.600   5.754   4.858
 8885TIP3    H126612   1.541   5.713   4.921
 8885TIP3    H226613   1.628   5.682   4.802
 8886TIP3   OH226614   2.675   1.463   1.554
 8886TIP3    H126615   2.748   1.421   1.508
 8886TIP3    H226616   2.597   1.420   1.517
 8887TIP3   OH226617   8.162   7.452   4.698
 8887TIP3    H126618   8.104   7.401   4.641
 8887TIP3    H226619   8.133   7.431   4.786
 8888TIP3   OH226620   3.209   4.823   4.316
 8888TIP3    H126621   3.125   4.776   4.318
 8888TIP3    H226622   3.270   4.760   4.279
 8889TIP3   OH226623   1.299   3.822   4.998
 8889TIP3    H126624   1.355   3.828   5.075
 8889TIP3    H226625   1.319   3.901   4.948
 8890TIP3   OH226626   3.716   4.027   5.023
 8890TIP3    H126627   3.709   4.107   4.970
 8890TIP3    H226628   3.810   4.015   5.038
 8891TIP3   OH226629   4.640   5.171   4.359
 8891TIP3    H126630   4.724   5.209   4.381
 8891TIP3    H226631   4.619   5.207   4.272
 8892TIP3   OH226632   7.266   7.337   3.449
 8892TIP3    H126633   7.356   7.356   3.473
 8892TIP3    H226634   7.269   7.316   3.356
 8893TIP3   OH226635   2.775   1.523   2.924
 8893TIP3    H126636   2.826   1.570   2.991
 8893TIP3    H226637   2.704   1.583   2.902
 8894TIP3   OH226638   6.930   5.970   3.955
 8894TIP3    H126639   6.960   6.057   3.927
 8894TIP3    H226640   6.846   5.987   3.998
 8895TIP3   OH226641   3.473   2.819   5.516
 8895TIP3    H126642   3.563   2.850   5.512
 8895TIP3    H226643   3.447   2.806   5.425
 8896TIP3   OH226644   2.704   3.494   6.023
 8896TIP3    H126645   2.745   3.413   5.992
 8896TIP3    H226646   2.771   3.561   6.010
 8897TIP3   OH226647   4.240   3.426   1.831
 8897TIP3    H126648   4.236   3.512   1.789
 8897TIP3    H226649   4.282   3.370   1.766
 8898TIP3   OH226650   7.350   0.832   4.895
 8898TIP3    H126651   7.368   0.918   4.933
 8898TIP3    H226652   7.401   0.771   4.948
 8899TIP3   OH226653   0.509   4.024   3.485
 8899TIP3    H126654   0.456   3.987   3.555
 8899TIP3    H226655   0.490   3.969   3.409
 8900TIP3   OH226656   8.091   4.804   1.412
 8900TIP3    H126657   8.084   4.793   1.507
 8900TIP3    H226658   8.161   4.745   1.386
 8901TIP3   OH226659   0.993   2.379   3.356
 8901TIP3    H126660   0.929   2.376   3.427
 8901TIP3    H226661   0.951   2.332   3.283
 8902TIP3   OH226662   7.253   6.127   1.333
 8902TIP3    H126663   7.243   6.209   1.381
 8902TIP3    H226664   7.182   6.071   1.366
 8903TIP3   OH226665   5.112   5.558   5.708
 8903TIP3    H126666   5.062   5.487   5.666
 8903TIP3    H226667   5.153   5.517   5.784
 8904TIP3   OH226668  -0.009   0.026   1.701
 8904TIP3    H126669   0.032  -0.044   1.752
 8904TIP3    H226670   0.064   0.077   1.666
 8905TIP3   OH226671   0.019   6.982   3.601
 8905TIP3    H126672   0.019   6.886   3.600
 8905TIP3    H226673   0.018   7.006   3.508
 8906TIP3   OH226674   5.308   6.203   1.232
 8906TIP3    H126675   5.316   6.107   1.237
 8906TIP3    H226676   5.355   6.227   1.153
 8907TIP3   OH226677   7.825   7.713   3.804
 8907TIP3    H126678   7.824   7.657   3.727
 8907TIP3    H226679   7.755   7.777   3.790
 8908TIP3   OH226680   0.388   4.767   0.953
 8908TIP3    H126681   0.464   4.723   0.992
 8908TIP3    H226682   0.402   4.760   0.859
 8909TIP3   OH226683   2.376   7.780   1.283
 8909TIP3    H126684   2.457   7.819   1.250
 8909TIP3    H226685   2.307   7.839   1.251
 8910TIP3   OH226686   2.420   6.774   0.236
 8910TIP3    H126687   2.393   6.781   0.327
 8910TIP3    H226688   2.499   6.828   0.230
 8911TIP3   OH226689   1.211   7.316   2.804
 8911TIP3    H126690   1.199   7.241   2.745
 8911TIP3    H226691   1.159   7.294   2.882
 8912TIP3   OH226692   2.511   7.057   4.482
 8912TIP3    H126693   2.496   7.051   4.388
 8912TIP3    H226694   2.567   7.133   4.493
 8913TIP3   OH226695   0.431   4.422   3.360
 8913TIP3    H126696   0.477   4.338   3.353
 8913TIP3    H226697   0.500   4.487   3.368
 8914TIP3   OH226698   2.148   5.235   1.575
 8914TIP3    H126699   2.173   5.166   1.636
 8914TIP3    H226700   2.123   5.309   1.631
 8915TIP3   OH226701   3.325   0.608   0.801
 8915TIP3    H126702   3.355   0.536   0.745
 8915TIP3    H226703   3.309   0.567   0.886
 8916TIP3   OH226704   2.927   4.761   1.008
 8916TIP3    H126705   2.929   4.665   0.998
 8916TIP3    H226706   2.965   4.794   0.926
 8917TIP3   OH226707   1.742   3.124   5.274
 8917TIP3    H126708   1.739   3.209   5.230
 8917TIP3    H226709   1.703   3.063   5.211
 8918TIP3   OH226710   6.466   3.295   3.425
 8918TIP3    H126711   6.480   3.226   3.360
 8918TIP3    H226712   6.446   3.247   3.506
 8919TIP3   OH226713   4.244   4.745   3.308
 8919TIP3    H126714   4.235   4.725   3.215
 8919TIP3    H226715   4.317   4.691   3.337
 8920TIP3   OH226716   5.721   7.791   2.442
 8920TIP3    H126717   5.737   7.784   2.348
 8920TIP3    H226718   5.798   7.836   2.476
 8921TIP3   OH226719   2.044   5.452   5.291
 8921TIP3    H126720   2.012   5.404   5.215
 8921TIP3    H226721   2.111   5.395   5.330
 8922TIP3   OH226722   6.589   6.612   5.626
 8922TIP3    H126723   6.525   6.569   5.683
 8922TIP3    H226724   6.552   6.603   5.538
 8923TIP3   OH226725   1.733   2.921   0.662
 8923TIP3    H126726   1.818   2.914   0.705
 8923TIP3    H226727   1.684   2.844   0.693
 8924TIP3   OH226728   7.240   5.985   5.940
 8924TIP3    H126729   7.279   6.022   5.861
 8924TIP3    H226730   7.291   5.905   5.957
 8925TIP3   OH226731   7.478   7.134   1.545
 8925TIP3    H126732   7.480   7.185   1.626
 8925TIP3    H226733   7.496   7.045   1.573
 8926TIP3   OH226734   1.034   2.214   6.583
 8926TIP3    H126735   0.963   2.229   6.520
 8926TIP3    H226736   1.017   2.277   6.653
 8927TIP3   OH226737   0.763   3.349   5.539
 8927TIP3    H126738   0.732   3.266   5.575
 8927TIP3    H226739   0.685   3.389   5.500
 8928TIP3   OH226740   7.251   6.649   1.239
 8928TIP3    H126741   7.184   6.716   1.247
 8928TIP3    H226742   7.294   6.647   1.324
 8929TIP3   OH226743   2.538   2.070   5.023
 8929TIP3    H126744   2.512   1.983   4.994
 8929TIP3    H226745   2.458   2.109   5.057
 8930TIP3   OH226746   7.810   2.441   2.549
 8930TIP3    H126747   7.850   2.495   2.481
 8930TIP3    H226748   7.773   2.366   2.501
 8931TIP3   OH226749   6.202   0.529   1.674
 8931TIP3    H126750   6.280   0.563   1.719
 8931TIP3    H226751   6.234   0.455   1.623
 8932TIP3   OH226752   5.747   0.286   0.280
 8932TIP3    H126753   5.759   0.379   0.298
 8932TIP3    H226754   5.680   0.283   0.213
 8933TIP3   OH226755   6.880   4.292   4.745
 8933TIP3    H126756   6.836   4.211   4.717
 8933TIP3    H226757   6.831   4.320   4.822
 8934TIP3   OH226758   7.213   6.988   4.201
 8934TIP3    H126759   7.173   7.074   4.210
 8934TIP3    H226760   7.306   7.005   4.189
 8935TIP3   OH226761   6.297   5.244   4.377
 8935TIP3    H126762   6.357   5.206   4.441
 8935TIP3    H226763   6.351   5.254   4.298
 8936TIP3   OH226764   5.566   5.014   6.397
 8936TIP3    H126765   5.520   4.972   6.324
 8936TIP3    H226766   5.577   4.945   6.461
 8937TIP3   OH226767   7.378   2.203   3.097
 8937TIP3    H126768   7.335   2.230   3.016
 8937TIP3    H226769   7.471   2.212   3.079
 8938TIP3   OH226770   4.782   4.763   4.898
 8938TIP3    H126771   4.834   4.843   4.900
 8938TIP3    H226772   4.717   4.779   4.829
 8939TIP3   OH226773   7.279   4.428   3.046
 8939TIP3    H126774   7.273   4.370   2.970
 8939TIP3    H226775   7.370   4.422   3.075
 8940TIP3   OH226776   8.007   0.300   5.388
 8940TIP3    H126777   7.918   0.266   5.378
 8940TIP3    H226778   8.063   0.224   5.379
 8941TIP3   OH226779   5.976   3.018   4.926
 8941TIP3    H126780   5.902   3.044   4.982
 8941TIP3    H226781   6.042   3.086   4.941
 8942TIP3   OH226782   2.315   3.037   2.486
 8942TIP3    H126783   2.265   3.056   2.566
 8942TIP3    H226784   2.271   3.087   2.418
 8943TIP3   OH226785   7.194   5.154   4.013
 8943TIP3    H126786   7.148   5.088   3.961
 8943TIP3    H226787   7.227   5.105   4.089
 8944TIP3   OH226788   0.325   6.097   1.822
 8944TIP3    H126789   0.330   6.043   1.743
 8944TIP3    H226790   0.411   6.088   1.863
 8945TIP3   OH226791   4.332   0.361   0.445
 8945TIP3    H126792   4.354   0.289   0.505
 8945TIP3    H226793   4.344   0.440   0.498
 8946TIP3   OH226794   6.586   5.300   3.941
 8946TIP3    H126795   6.660   5.359   3.951
 8946TIP3    H226796   6.596   5.262   3.854
 8947TIP3   OH226797   7.219   0.700   0.408
 8947TIP3    H126798   7.260   0.780   0.374
 8947TIP3    H226799   7.287   0.633   0.398
 8948TIP3   OH226800   7.110   1.837   3.196
 8948TIP3    H126801   7.154   1.913   3.234
 8948TIP3    H226802   7.017   1.859   3.201
 8949TIP3   OH226803   3.656   0.717   5.199
 8949TIP3    H126804   3.575   0.763   5.221
 8949TIP3    H226805   3.627   0.646   5.141
 8950TIP3   OH226806   0.723   0.058   4.365
 8950TIP3    H126807   0.733  -0.012   4.300
 8950TIP3    H226808   0.785   0.125   4.337
 8951TIP3   OH226809   1.572   2.481   3.945
 8951TIP3    H126810   1.479   2.479   3.967
 8951TIP3    H226811   1.574   2.501   3.851
 8952TIP3   OH226812   5.543   6.537   5.073
 8952TIP3    H126813   5.463   6.541   5.021
 8952TIP3    H226814   5.597   6.609   5.041
 8953TIP3   OH226815   6.169   4.524   1.443
 8953TIP3    H126816   6.116   4.444   1.444
 8953TIP3    H226817   6.111   4.592   1.476
 8954TIP3   OH226818   7.426   2.550   0.666
 8954TIP3    H126819   7.467   2.637   0.661
 8954TIP3    H226820   7.350   2.557   0.608
 8955TIP3   OH226821   1.328   4.744   5.201
 8955TIP3    H126822   1.413   4.713   5.232
 8955TIP3    H226823   1.264   4.688   5.246
 8956TIP3   OH226824   2.075   4.335   4.138
 8956TIP3    H126825   2.100   4.243   4.131
 8956TIP3    H226826   2.097   4.360   4.227
 8957TIP3   OH226827   3.063   5.386   1.619
 8957TIP3    H126828   3.041   5.293   1.624
 8957TIP3    H226829   3.156   5.390   1.639
 8958TIP3   OH226830   7.652   5.190   0.751
 8958TIP3    H126831   7.623   5.100   0.734
 8958TIP3    H226832   7.699   5.215   0.671
 8959TIP3   OH226833   7.126   2.135   2.603
 8959TIP3    H126834   7.134   2.107   2.512
 8959TIP3    H226835   7.147   2.229   2.602
 8960TIP3   OH226836   7.676   1.091   3.098
 8960TIP3    H126837   7.729   1.167   3.074
 8960TIP3    H226838   7.588   1.113   3.068
 8961TIP3   OH226839   6.408   6.560   4.378
 8961TIP3    H126840   6.377   6.523   4.296
 8961TIP3    H226841   6.339   6.620   4.405
 8962TIP3   OH226842   4.575   0.566   4.432
 8962TIP3    H126843   4.592   0.658   4.449
 8962TIP3    H226844   4.661   0.527   4.418
 8963TIP3   OH226845   4.447   3.416   4.123
 8963TIP3    H126846   4.478   3.412   4.213
 8963TIP3    H226847   4.354   3.434   4.129
 8964TIP3   OH226848   3.201   7.399   0.825
 8964TIP3    H126849   3.290   7.387   0.790
 8964TIP3    H226850   3.145   7.351   0.763
 8965TIP3   OH226851   2.956   5.162   4.011
 8965TIP3    H126852   3.040   5.154   4.057
 8965TIP3    H226853   2.901   5.093   4.049
 8966TIP3   OH226854   7.086   4.806   2.699
 8966TIP3    H126855   7.162   4.860   2.677
 8966TIP3    H226856   7.017   4.870   2.716
 8967TIP3   OH226857   2.558   6.025   4.388
 8967TIP3    H126858   2.585   5.938   4.359
 8967TIP3    H226859   2.571   6.081   4.311
 8968TIP3   OH226860   4.517   3.674   0.058
 8968TIP3    H126861   4.485   3.584   0.046
 8968TIP3    H226862   4.452   3.729   0.014
 8969TIP3   OH226863   7.635   2.138   4.084
 8969TIP3    H126864   7.701   2.205   4.102
 8969TIP3    H226865   7.645   2.074   4.154
 8970TIP3   OH226866   6.417   1.432   5.539
 8970TIP3    H126867   6.412   1.392   5.453
 8970TIP3    H226868   6.511   1.436   5.558
 8971TIP3   OH226869   2.156   7.616   3.220
 8971TIP3    H126870   2.164   7.686   3.285
 8971TIP3    H226871   2.217   7.640   3.151
 8972TIP3   OH226872   6.092   2.697   6.285
 8972TIP3    H126873   6.087   2.780   6.332
 8972TIP3    H226874   6.178   2.662   6.308
 8973TIP3   OH226875   7.749   5.186   5.248
 8973TIP3    H126876   7.729   5.114   5.307
 8973TIP3    H226877   7.843   5.181   5.234
 8974TIP3   OH226878   5.823   6.493   1.652
 8974TIP3    H126879   5.807   6.583   1.625
 8974TIP3    H226880   5.872   6.501   1.734
 8975TIP3   OH226881   2.527   1.423   2.034
 8975TIP3    H126882   2.533   1.424   2.129
 8975TIP3    H226883   2.467   1.352   2.014
 8976TIP3   OH226884   2.272   2.234   4.055
 8976TIP3    H126885   2.329   2.300   4.095
 8976TIP3    H226886   2.203   2.285   4.012
 8977TIP3   OH226887   3.961   4.628   5.976
 8977TIP3    H126888   3.957   4.606   6.069
 8977TIP3    H226889   3.879   4.595   5.940
 8978TIP3   OH226890   3.537   0.889   4.348
 8978TIP3    H126891   3.536   0.979   4.316
 8978TIP3    H226892   3.490   0.840   4.280
 8979TIP3   OH226893   4.955   0.878   1.325
 8979TIP3    H126894   4.961   0.970   1.353
 8979TIP3    H226895   5.008   0.875   1.245
 8980TIP3   OH226896   2.704   4.034   3.864
 8980TIP3    H126897   2.612   4.045   3.888
 8980TIP3    H226898   2.710   3.942   3.837
 8981TIP3   OH226899   0.047   1.620   6.285
 8981TIP3    H126900   0.143   1.624   6.289
 8981TIP3    H226901   0.025   1.660   6.201
 8982TIP3   OH226902   4.359   6.194   3.809
 8982TIP3    H126903   4.355   6.148   3.725
 8982TIP3    H226904   4.318   6.134   3.871
 8983TIP3   OH226905   5.425   2.073   1.858
 8983TIP3    H126906   5.509   2.078   1.902
 8983TIP3    H226907   5.363   2.110   1.920
 8984TIP3   OH226908   6.457   0.452   2.866
 8984TIP3    H126909   6.390   0.516   2.845
 8984TIP3    H226910   6.413   0.367   2.859
 8985TIP3   OH226911   3.231   7.780   2.244
 8985TIP3    H126912   3.259   7.831   2.168
 8985TIP3    H226913   3.312   7.763   2.293
 8986TIP3   OH226914   7.402   7.508   1.424
 8986TIP3    H126915   7.439   7.511   1.512
 8986TIP3    H226916   7.467   7.552   1.369
 8987TIP3   OH226917   7.809   5.269   1.567
 8987TIP3    H126918   7.722   5.266   1.528
 8987TIP3    H226919   7.826   5.179   1.595
 8988TIP3   OH226920   7.904   7.600   5.105
 8988TIP3    H126921   7.822   7.551   5.112
 8988TIP3    H226922   7.877   7.692   5.107
 8989TIP3   OH226923   1.617   5.141   3.389
 8989TIP3    H126924   1.708   5.138   3.358
 8989TIP3    H226925   1.565   5.116   3.313
 8990TIP3   OH226926   8.111   7.251   3.759
 8990TIP3    H126927   8.199   7.236   3.794
 8990TIP3    H226928   8.062   7.171   3.780
 8991TIP3   OH226929   5.454   1.918   0.112
 8991TIP3    H126930   5.460   2.013   0.113
 8991TIP3    H226931   5.444   1.895   0.020
 8992TIP3   OH226932   5.072   3.653   2.188
 8992TIP3    H126933   5.028   3.586   2.240
 8992TIP3    H226934   5.142   3.606   2.142
 8993TIP3   OH226935   6.733   0.332   1.616
 8993TIP3    H126936   6.779   0.253   1.589
 8993TIP3    H226937   6.645   0.322   1.580
 8994TIP3   OH226938   5.154   7.148   4.112
 8994TIP3    H126939   5.168   7.053   4.110
 8994TIP3    H226940   5.132   7.167   4.203
 8995TIP3   OH226941   6.359   2.186   0.363
 8995TIP3    H126942   6.289   2.146   0.311
 8995TIP3    H226943   6.408   2.112   0.399
 8996TIP3   OH226944   7.344   5.792   1.657
 8996TIP3    H126945   7.342   5.774   1.563
 8996TIP3    H226946   7.427   5.755   1.687
 8997TIP3   OH226947   6.051   2.002   0.375
 8997TIP3    H126948   6.088   1.996   0.286
 8997TIP3    H226949   6.066   1.915   0.412
 8998TIP3   OH226950   2.571   7.225   2.263
 8998TIP3    H126951   2.526   7.157   2.213
 8998TIP3    H226952   2.594   7.291   2.198
 8999TIP3   OH226953   6.281   0.395   3.757
 8999TIP3    H126954   6.359   0.374   3.706
 8999TIP3    H226955   6.234   0.459   3.704
 9000TIP3   OH226956   1.058   3.023   4.407
 9000TIP3    H126957   1.087   2.932   4.393
 9000TIP3    H226958   1.027   3.051   4.321
 9001TIP3   OH226959   3.895   4.463   1.082
 9001TIP3    H126960   3.852   4.410   1.014
 9001TIP3    H226961   3.984   4.475   1.050
 9002TIP3   OH226962   7.555   1.122   3.540
 9002TIP3    H126963   7.482   1.146   3.483
 9002TIP3    H226964   7.617   1.079   3.481
 9003TIP3   OH226965   5.762   2.713   6.305
 9003TIP3    H126966   5.803   2.700   6.391
 9003TIP3    H226967   5.805   2.650   6.248
 9004TIP3   OH226968   4.900   0.734   4.318
 9004TIP3    H126969   4.974   0.789   4.344
 9004TIP3    H226970   4.833   0.796   4.291
 9005TIP3   OH226971   2.459   3.429   5.075
 9005TIP3    H126972   2.414   3.499   5.122
 9005TIP3    H226973   2.431   3.439   4.984
 9006TIP3   OH226974   4.318   7.565   1.576
 9006TIP3    H126975   4.241   7.591   1.527
 9006TIP3    H226976   4.337   7.639   1.634
 9007TIP3   OH226977   6.605   1.962   5.150
 9007TIP3    H126978   6.588   1.975   5.057
 9007TIP3    H226979   6.679   2.020   5.169
 9008TIP3   OH226980   4.482   4.764   1.617
 9008TIP3    H126981   4.514   4.836   1.562
 9008TIP3    H226982   4.395   4.745   1.582
 9009TIP3   OH226983   2.053   0.217   0.504
 9009TIP3    H126984   2.121   0.266   0.458
 9009TIP3    H226985   1.997   0.182   0.435
 9010TIP3   OH226986   4.253   0.243   4.215
 9010TIP3    H126987   4.267   0.210   4.126
 9010TIP3    H226988   4.339   0.242   4.256
 9011TIP3   OH226989   0.766   3.599   5.963
 9011TIP3    H126990   0.710   3.673   5.939
 9011TIP3    H226991   0.837   3.601   5.899
 9012TIP3   OH226992   6.274   1.399   2.224
 9012TIP3    H126993   6.287   1.482   2.179
 9012TIP3    H226994   6.273   1.421   2.317
 9013TIP3   OH226995   2.660   3.861   0.973
 9013TIP3    H126996   2.609   3.789   1.008
 9013TIP3    H226997   2.715   3.822   0.905
 9014TIP3   OH226998   2.608   0.188   2.617
 9014TIP3    H126999   2.631   0.144   2.535
 9014TIP3    H227000   2.515   0.210   2.606
 9015TIP3   OH227001   3.939   4.837   3.828
 9015TIP3    H127002   4.024   4.814   3.791
 9015TIP3    H227003   3.887   4.757   3.823
 9016TIP3   OH227004   3.241   5.238   2.258
 9016TIP3    H127005   3.204   5.326   2.249
 9016TIP3    H227006   3.166   5.180   2.264
 9017TIP3   OH227007   7.449   1.062   5.737
 9017TIP3    H127008   7.428   1.070   5.644
 9017TIP3    H227009   7.462   1.152   5.767
 9018TIP3   OH227010   6.103   7.453   1.776
 9018TIP3    H127011   6.068   7.540   1.794
 9018TIP3    H227012   6.035   7.393   1.807
 9019TIP3   OH227013   7.347   1.398   1.582
 9019TIP3    H127014   7.372   1.340   1.509
 9019TIP3    H227015   7.424   1.452   1.596
 9020TIP3   OH227016   0.082   3.056   0.551
 9020TIP3    H127017   0.053   3.012   0.630
 9020TIP3    H227018   0.170   3.023   0.535
 9021TIP3   OH227019   6.299   2.760   6.643
 9021TIP3    H127020   6.275   2.803   6.561
 9021TIP3    H227021   6.330   2.831   6.699
 9022TIP3   OH227022   3.440   1.806   3.992
 9022TIP3    H127023   3.476   1.718   3.995
 9022TIP3    H227024   3.464   1.846   4.075
 9023TIP3   OH227025   3.357   4.902   0.590
 9023TIP3    H127026   3.423   4.962   0.625
 9023TIP3    H227027   3.378   4.895   0.497
 9024TIP3   OH227028   1.059   2.986   2.820
 9024TIP3    H127029   1.076   2.895   2.794
 9024TIP3    H227030   1.104   3.038   2.753
 9025TIP3   OH227031   7.825   7.301   3.744
 9025TIP3    H127032   7.792   7.305   3.654
 9025TIP3    H227033   7.916   7.329   3.738
 9026TIP3   OH227034   3.536   2.960   5.255
 9026TIP3    H127035   3.567   2.947   5.166
 9026TIP3    H227036   3.615   2.957   5.309
 9027TIP3   OH227037   6.808   3.030   0.494
 9027TIP3    H127038   6.813   3.072   0.580
 9027TIP3    H227039   6.854   3.090   0.436
 9028TIP3   OH227040   3.253   0.150   1.906
 9028TIP3    H127041   3.222   0.180   1.991
 9028TIP3    H227042   3.205   0.068   1.890
 9029TIP3   OH227043   3.092   5.942   3.097
 9029TIP3    H127044   3.085   5.889   3.176
 9029TIP3    H227045   3.010   5.991   3.093
 9030TIP3   OH227046   2.382   0.149   0.951
 9030TIP3    H127047   2.391   0.185   1.040
 9030TIP3    H227048   2.380   0.227   0.895
 9031TIP3   OH227049   5.366   6.219   4.173
 9031TIP3    H127050   5.316   6.230   4.092
 9031TIP3    H227051   5.328   6.141   4.214
 9032TIP3   OH227052   1.690   0.550   6.236
 9032TIP3    H127053   1.668   0.587   6.151
 9032TIP3    H227054   1.606   0.536   6.279
 9033TIP3   OH227055   4.579   7.722   6.537
 9033TIP3    H127056   4.501   7.677   6.569
 9033TIP3    H227057   4.561   7.737   6.444
 9034TIP3   OH227058   2.656   7.696   6.782
 9034TIP3    H127059   2.583   7.749   6.751
 9034TIP3    H227060   2.734   7.742   6.751
 9035TIP3   OH227061   5.075   7.399   0.599
 9035TIP3    H127062   5.125   7.370   0.675
 9035TIP3    H227063   5.083   7.327   0.536
 9036TIP3   OH227064   7.226   1.200   2.076
 9036TIP3    H127065   7.211   1.291   2.101
 9036TIP3    H227066   7.140   1.159   2.080
 9037TIP3   OH227067   1.888   0.478   6.530
 9037TIP3    H127068   1.956   0.421   6.496
 9037TIP3    H227069   1.910   0.565   6.497
 9038TIP3   OH227070   2.312   1.732   1.417
 9038TIP3    H127071   2.304   1.825   1.439
 9038TIP3    H227072   2.281   1.687   1.496
 9039TIP3   OH227073   7.941   7.449   0.001
 9039TIP3    H127074   7.966   7.540  -0.014
 9039TIP3    H227075   7.942   7.439   0.096
 9040TIP3   OH227076   4.119   0.507   5.761
 9040TIP3    H127077   4.023   0.513   5.760
 9040TIP3    H227078   4.148   0.597   5.745
 9041TIP3   OH227079   0.570   1.670   3.928
 9041TIP3    H127080   0.479   1.639   3.926
 9041TIP3    H227081   0.622   1.591   3.912
 9042TIP3   OH227082   0.424   3.520   1.786
 9042TIP3    H127083   0.503   3.525   1.733
 9042TIP3    H227084   0.354   3.552   1.729
 9043TIP3   OH227085   4.231   6.200   0.466
 9043TIP3    H127086   4.288   6.235   0.397
 9043TIP3    H227087   4.286   6.137   0.512
 9044TIP3   OH227088   3.092   3.265   5.849
 9044TIP3    H127089   3.184   3.257   5.872
 9044TIP3    H227090   3.089   3.337   5.786
 9045TIP3   OH227091   7.441   2.185   6.562
 9045TIP3    H127092   7.397   2.269   6.548
 9045TIP3    H227093   7.531   2.201   6.535
 9046TIP3   OH227094   7.221   6.127   0.376
 9046TIP3    H127095   7.154   6.161   0.316
 9046TIP3    H227096   7.294   6.187   0.367
 9047TIP3   OH227097   6.880   2.298   4.282
 9047TIP3    H127098   6.819   2.294   4.356
 9047TIP3    H227099   6.939   2.224   4.295
 9048TIP3   OH227100   2.846   0.375   3.013
 9048TIP3    H127101   2.812   0.362   2.924
 9048TIP3    H227102   2.798   0.312   3.066
 9049TIP3   OH227103   2.305   4.016   6.570
 9049TIP3    H127104   2.393   4.021   6.608
 9049TIP3    H227105   2.317   4.038   6.477
 9050TIP3   OH227106   5.238   6.469   1.316
 9050TIP3    H127107   5.271   6.407   1.251
 9050TIP3    H227108   5.187   6.532   1.264
 9051TIP3   OH227109   1.574   5.880   2.900
 9051TIP3    H127110   1.533   5.888   2.814
 9051TIP3    H227111   1.592   5.970   2.927
 9052TIP3   OH227112   4.793   3.077   4.976
 9052TIP3    H127113   4.721   3.135   5.000
 9052TIP3    H227114   4.769   3.043   4.890
 9053TIP3   OH227115   1.773   0.052   5.113
 9053TIP3    H127116   1.768   0.023   5.021
 9053TIP3    H227117   1.865   0.074   5.125
 9054TIP3   OH227118   5.103   5.216   0.603
 9054TIP3    H127119   5.158   5.213   0.525
 9054TIP3    H227120   5.103   5.308   0.629
 9055TIP3   OH227121   1.693   1.780   2.956
 9055TIP3    H127122   1.643   1.790   2.875
 9055TIP3    H227123   1.739   1.697   2.946
 9056TIP3   OH227124   2.493   3.488   3.134
 9056TIP3    H127125   2.462   3.398   3.144
 9056TIP3    H227126   2.419   3.543   3.158
 9057TIP3   OH227127   6.674   4.315   1.205
 9057TIP3    H127128   6.650   4.223   1.206
 9057TIP3    H227129   6.761   4.317   1.165
 9058TIP3   OH227130   7.594   4.022   5.339
 9058TIP3    H127131   7.600   3.979   5.254
 9058TIP3    H227132   7.570   3.953   5.400
 9059TIP3   OH227133   8.203   4.072   2.121
 9059TIP3    H127134   8.266   4.000   2.129
 9059TIP3    H227135   8.210   4.100   2.030
 9060TIP3   OH227136   1.025   3.244   5.546
 9060TIP3    H127137   0.988   3.251   5.633
 9060TIP3    H227138   0.952   3.263   5.487
 9061TIP3   OH227139   2.485   7.679   3.385
 9061TIP3    H127140   2.468   7.661   3.293
 9061TIP3    H227141   2.451   7.602   3.431
 9062TIP3   OH227142   3.026   1.041   6.639
 9062TIP3    H127143   3.039   0.954   6.602
 9062TIP3    H227144   3.082   1.044   6.716
 9063TIP3   OH227145   3.054   5.717   6.656
 9063TIP3    H127146   3.128   5.731   6.715
 9063TIP3    H227147   3.095   5.688   6.574
 9064TIP3   OH227148   3.169   4.536   2.168
 9064TIP3    H127149   3.227   4.482   2.221
 9064TIP3    H227150   3.191   4.626   2.192
 9065TIP3   OH227151   1.020   3.620   4.034
 9065TIP3    H127152   1.058   3.552   4.091
 9065TIP3    H227153   1.090   3.642   3.973
 9066TIP3   OH227154   5.758   4.717   2.648
 9066TIP3    H127155   5.827   4.658   2.677
 9066TIP3    H227156   5.800   4.773   2.582
 9067TIP3   OH227157   4.209   3.550   2.971
 9067TIP3    H127158   4.203   3.609   3.046
 9067TIP3    H227159   4.281   3.490   2.994
 9068TIP3   OH227160   7.149   4.879   4.728
 9068TIP3    H127161   7.235   4.886   4.770
 9068TIP3    H227162   7.096   4.827   4.788
 9069TIP3   OH227163   0.201   0.087   1.455
 9069TIP3    H127164   0.208   0.000   1.415
 9069TIP3    H227165   0.289   0.123   1.449
 9070TIP3   OH227166   4.889   5.013   4.466
 9070TIP3    H127167   4.806   4.973   4.443
 9070TIP3    H227168   4.872   5.056   4.550
 9071TIP3   OH227169   4.282   0.422   1.244
 9071TIP3    H127170   4.271   0.357   1.314
 9071TIP3    H227171   4.335   0.377   1.178
 9072TIP3   OH227172   6.206   3.189   0.505
 9072TIP3    H127173   6.278   3.251   0.515
 9072TIP3    H227174   6.196   3.178   0.411
 9073TIP3   OH227175   3.568   0.495   3.334
 9073TIP3    H127176   3.480   0.524   3.359
 9073TIP3    H227177   3.593   0.433   3.402
 9074TIP3   OH227178   1.326   0.491   1.814
 9074TIP3    H127179   1.342   0.419   1.753
 9074TIP3    H227180   1.234   0.514   1.800
 9075TIP3   OH227181   1.638   5.371   5.034
 9075TIP3    H127182   1.709   5.334   5.087
 9075TIP3    H227183   1.605   5.445   5.085
 9076TIP3   OH227184   1.357   6.366   3.335
 9076TIP3    H127185   1.295   6.313   3.284
 9076TIP3    H227186   1.345   6.336   3.425
 9077TIP3   OH227187   2.066   1.867   1.558
 9077TIP3    H127188   2.135   1.934   1.561
 9077TIP3    H227189   1.988   1.912   1.590
 9078TIP3   OH227190   7.038   1.690   3.606
 9078TIP3    H127191   7.104   1.758   3.595
 9078TIP3    H227192   7.030   1.651   3.518
 9079TIP3   OH227193   7.648   6.888   6.338
 9079TIP3    H127194   7.592   6.840   6.399
 9079TIP3    H227195   7.645   6.837   6.257
 9080TIP3   OH227196   6.753   1.399   1.695
 9080TIP3    H127197   6.742   1.371   1.786
 9080TIP3    H227198   6.758   1.318   1.645
 9081TIP3   OH227199   3.240   0.928   3.824
 9081TIP3    H127200   3.192   0.995   3.871
 9081TIP3    H227201   3.326   0.926   3.865
 9082TIP3   OH227202   2.281   3.144   2.007
 9082TIP3    H127203   2.213   3.131   1.941
 9082TIP3    H227204   2.361   3.113   1.966
 9083TIP3   OH227205   4.931   1.234   0.890
 9083TIP3    H127206   4.921   1.275   0.976
 9083TIP3    H227207   5.025   1.221   0.880
 9084TIP3   OH227208   8.232   5.314   1.670
 9084TIP3    H127209   8.258   5.222   1.676
 9084TIP3    H227210   8.143   5.317   1.705
 9085TIP3   OH227211   2.208   0.772   5.186
 9085TIP3    H127212   2.204   0.677   5.187
 9085TIP3    H227213   2.246   0.794   5.100
 9086TIP3   OH227214   5.486   1.205   1.279
 9086TIP3    H127215   5.569   1.166   1.251
 9086TIP3    H227216   5.502   1.229   1.371
 9087TIP3   OH227217   5.951   0.584   0.089
 9087TIP3    H127218   6.018   0.647   0.060
 9087TIP3    H227219   5.993   0.499   0.080
 9088TIP3   OH227220   4.748   4.389   3.236
 9088TIP3    H127221   4.711   4.473   3.261
 9088TIP3    H227222   4.695   4.360   3.161
 9089TIP3   OH227223   4.655   5.356   0.368
 9089TIP3    H127224   4.717   5.366   0.295
 9089TIP3    H227225   4.609   5.274   0.350
 9090TIP3   OH227226   7.388   5.269   4.296
 9090TIP3    H127227   7.431   5.230   4.372
 9090TIP3    H227228   7.295   5.257   4.311
 9091TIP3   OH227229   7.771   2.157   0.707
 9091TIP3    H127230   7.842   2.170   0.771
 9091TIP3    H227231   7.720   2.238   0.713
 9092TIP3   OH227232   1.563   3.145   6.009
 9092TIP3    H127233   1.545   3.066   5.958
 9092TIP3    H227234   1.649   3.173   5.979
 9093TIP3   OH227235   2.755   6.392   0.947
 9093TIP3    H127236   2.675   6.340   0.959
 9093TIP3    H227237   2.758   6.409   0.852
 9094TIP3   OH227238   6.810   0.071   1.529
 9094TIP3    H127239   6.792  -0.020   1.552
 9094TIP3    H227240   6.891   0.067   1.478
 9095TIP3   OH227241   2.170   7.153   2.243
 9095TIP3    H127242   2.200   7.219   2.180
 9095TIP3    H227243   2.143   7.203   2.319
 9096TIP3   OH227244   6.477   4.521   5.878
 9096TIP3    H127245   6.563   4.487   5.900
 9096TIP3    H227246   6.478   4.612   5.909
 9097TIP3   OH227247   0.816   4.412   2.503
 9097TIP3    H127248   0.852   4.440   2.419
 9097TIP3    H227249   0.892   4.381   2.552
 9098TIP3   OH227250   7.449   0.320   3.685
 9098TIP3    H127251   7.488   0.234   3.668
 9098TIP3    H227252   7.377   0.326   3.622
 9099TIP3   OH227253   3.220   5.610   2.455
 9099TIP3    H127254   3.210   5.685   2.397
 9099TIP3    H227255   3.148   5.551   2.431
 9100TIP3   OH227256   4.582   7.735   3.559
 9100TIP3    H127257   4.545   7.822   3.545
 9100TIP3    H227258   4.508   7.681   3.585
 9101TIP3   OH227259   2.169   6.581   3.364
 9101TIP3    H127260   2.190   6.669   3.331
 9101TIP3    H227261   2.252   6.549   3.401
 9102TIP3   OH227262   4.956   0.878   0.733
 9102TIP3    H127263   4.937   0.876   0.827
 9102TIP3    H227264   4.886   0.825   0.693
 9103TIP3   OH227265   1.335   2.410   1.689
 9103TIP3    H127266   1.370   2.464   1.761
 9103TIP3    H227267   1.409   2.356   1.663
 9104TIP3   OH227268   5.105   3.302   1.566
 9104TIP3    H127269   5.116   3.345   1.481
 9104TIP3    H227270   5.185   3.249   1.576
 9105TIP3   OH227271   0.548   6.787   6.151
 9105TIP3    H127272   0.457   6.762   6.165
 9105TIP3    H227273   0.548   6.882   6.162
 9106TIP3   OH227274   3.692   7.364   5.079
 9106TIP3    H127275   3.653   7.297   5.136
 9106TIP3    H227276   3.767   7.320   5.039
 9107TIP3   OH227277   4.710   1.955   3.948
 9107TIP3    H127278   4.771   1.961   4.022
 9107TIP3    H227279   4.624   1.943   3.988
 9108TIP3   OH227280   0.130   2.217   4.628
 9108TIP3    H127281   0.075   2.164   4.571
 9108TIP3    H227282   0.209   2.235   4.575
 9109TIP3   OH227283   4.331   2.102   6.497
 9109TIP3    H127284   4.258   2.145   6.452
 9109TIP3    H227285   4.301   2.089   6.586
 9110TIP3   OH227286   6.767   6.129   4.805
 9110TIP3    H127287   6.690   6.082   4.774
 9110TIP3    H227288   6.791   6.186   4.731
 9111TIP3   OH227289   3.299   5.125   4.857
 9111TIP3    H127290   3.283   5.092   4.769
 9111TIP3    H227291   3.274   5.053   4.915
 9112TIP3   OH227292   2.797   2.822   1.723
 9112TIP3    H127293   2.857   2.773   1.668
 9112TIP3    H227294   2.787   2.768   1.802
 9113TIP3   OH227295   5.387   6.851   3.362
 9113TIP3    H127296   5.453   6.919   3.376
 9113TIP3    H227297   5.364   6.820   3.449
 9114TIP3   OH227298   3.150   2.069   5.467
 9114TIP3    H127299   3.229   2.059   5.520
 9114TIP3    H227300   3.092   2.124   5.520
 9115TIP3   OH227301   0.467   1.397   4.960
 9115TIP3    H127302   0.498   1.484   4.936
 9115TIP3    H227303   0.390   1.413   5.014
 9116TIP3   OH227304   3.388   1.459   0.269
 9116TIP3    H127305   3.413   1.544   0.232
 9116TIP3    H227306   3.294   1.465   0.282
 9117TIP3   OH227307   7.004   2.357   3.161
 9117TIP3    H127308   7.054   2.364   3.242
 9117TIP3    H227309   6.997   2.448   3.130
 9118TIP3   OH227310   2.533   7.216   3.754
 9118TIP3    H127311   2.575   7.136   3.722
 9118TIP3    H227312   2.604   7.279   3.762
 9119TIP3   OH227313   0.152   6.573   4.253
 9119TIP3    H127314   0.176   6.517   4.179
 9119TIP3    H227315   0.206   6.542   4.325
 9120TIP3   OH227316   6.377   1.496   0.614
 9120TIP3    H127317   6.428   1.419   0.637
 9120TIP3    H227318   6.349   1.533   0.697
 9121TIP3   OH227319   5.480   1.294   1.537
 9121TIP3    H127320   5.527   1.359   1.588
 9121TIP3    H227321   5.396   1.283   1.583
 9122TIP3   OH227322   3.484   7.254   0.085
 9122TIP3    H127323   3.539   7.320   0.126
 9122TIP3    H227324   3.438   7.301   0.016
 9123TIP3   OH227325   5.324   4.511   4.505
 9123TIP3    H127326   5.232   4.533   4.487
 9123TIP3    H227327   5.325   4.481   4.595
 9124TIP3   OH227328   3.155   5.721   0.574
 9124TIP3    H127329   3.121   5.754   0.491
 9124TIP3    H227330   3.180   5.800   0.623
 9125TIP3   OH227331   3.293   6.352   1.745
 9125TIP3    H127332   3.220   6.374   1.687
 9125TIP3    H227333   3.296   6.256   1.744
 9126TIP3   OH227334   4.626   2.337   2.585
 9126TIP3    H127335   4.610   2.305   2.496
 9126TIP3    H227336   4.670   2.421   2.573
 9127TIP3   OH227337   5.245   2.104   5.445
 9127TIP3    H127338   5.241   2.101   5.541
 9127TIP3    H227339   5.334   2.074   5.424
 9128TIP3   OH227340   7.147   6.970   3.939
 9128TIP3    H127341   7.192   6.999   4.018
 9128TIP3    H227342   7.063   7.016   3.940
 9129TIP3   OH227343   2.969   1.048   4.976
 9129TIP3    H127344   3.027   1.080   5.046
 9129TIP3    H227345   3.028   1.003   4.915
 9130TIP3   OH227346   2.694   4.481   4.210
 9130TIP3    H127347   2.752   4.485   4.286
 9130TIP3    H227348   2.641   4.560   4.216
 9131TIP3   OH227349   6.366   2.937   6.037
 9131TIP3    H127350   6.383   2.936   5.943
 9131TIP3    H227351   6.343   2.846   6.058
 9132TIP3   OH227352   3.816   6.941   2.419
 9132TIP3    H127353   3.777   7.024   2.393
 9132TIP3    H227354   3.901   6.940   2.377
 9133TIP3   OH227355   0.764   0.910   1.255
 9133TIP3    H127356   0.841   0.918   1.312
 9133TIP3    H227357   0.798   0.868   1.175
 9134TIP3   OH227358   3.943   6.913   5.217
 9134TIP3    H127359   3.956   7.007   5.225
 9134TIP3    H227360   3.848   6.902   5.219
 9135TIP3   OH227361   4.105   6.917   4.961
 9135TIP3    H127362   4.038   6.908   5.029
 9135TIP3    H227363   4.107   6.833   4.917
 9136TIP3   OH227364   6.419   6.926   3.371
 9136TIP3    H127365   6.353   6.873   3.415
 9136TIP3    H227366   6.453   6.983   3.441
 9137TIP3   OH227367   8.159   0.814   3.585
 9137TIP3    H127368   8.134   0.739   3.639
 9137TIP3    H227369   8.204   0.873   3.646
 9138TIP3   OH227370   6.861   2.533   2.410
 9138TIP3    H127371   6.868   2.615   2.361
 9138TIP3    H227372   6.935   2.536   2.471
 9139TIP3   OH227373   7.353   0.793   4.609
 9139TIP3    H127374   7.359   0.778   4.704
 9139TIP3    H227375   7.389   0.714   4.570
 9140TIP3   OH227376   2.687   6.497   5.220
 9140TIP3    H127377   2.753   6.536   5.277
 9140TIP3    H227378   2.722   6.411   5.199
 9141TIP3   OH227379   0.754   7.427   2.488
 9141TIP3    H127380   0.726   7.516   2.467
 9141TIP3    H227381   0.804   7.399   2.412
 9142TIP3   OH227382   6.929   2.939   0.785
 9142TIP3    H127383   6.986   2.986   0.724
 9142TIP3    H227384   6.859   3.002   0.806
 9143TIP3   OH227385   4.693   4.532   6.523
 9143TIP3    H127386   4.619   4.484   6.561
 9143TIP3    H227387   4.660   4.622   6.512
 9144TIP3   OH227388   0.609   0.884   2.474
 9144TIP3    H127389   0.646   0.971   2.462
 9144TIP3    H227390   0.557   0.869   2.396
 9145TIP3   OH227391   2.321   5.191   4.985
 9145TIP3    H127392   2.255   5.252   4.952
 9145TIP3    H227393   2.271   5.114   5.012
 9146TIP3   OH227394   4.995   3.522   3.207
 9146TIP3    H127395   5.002   3.598   3.148
 9146TIP3    H227396   4.953   3.455   3.153
 9147TIP3   OH227397   4.544   3.734   6.268
 9147TIP3    H127398   4.517   3.643   6.261
 9147TIP3    H227399   4.638   3.730   6.285
 9148TIP3   OH227400   3.224   2.359   1.521
 9148TIP3    H127401   3.252   2.363   1.612
 9148TIP3    H227402   3.184   2.273   1.511
 9149TIP3   OH227403   4.886   7.337   5.380
 9149TIP3    H127404   4.861   7.249   5.353
 9149TIP3    H227405   4.981   7.340   5.372
 9150TIP3   OH227406   7.753   4.308   0.458
 9150TIP3    H127407   7.806   4.355   0.393
 9150TIP3    H227408   7.692   4.373   0.492
 9151TIP3   OH227409   0.931   0.894   6.515
 9151TIP3    H127410   0.928   0.928   6.604
 9151TIP3    H227411   0.854   0.837   6.508
 9152TIP3   OH227412   3.894   7.284   3.257
 9152TIP3    H127413   3.854   7.356   3.208
 9152TIP3    H227414   3.820   7.227   3.280
 9153TIP3   OH227415   5.412   1.365   1.826
 9153TIP3    H127416   5.457   1.281   1.837
 9153TIP3    H227417   5.479   1.425   1.795
 9154TIP3   OH227418   1.308   3.261   2.902
 9154TIP3    H127419   1.379   3.295   2.849
 9154TIP3    H227420   1.231   3.267   2.846
 9155TIP3   OH227421   4.555   6.964   4.873
 9155TIP3    H127422   4.483   7.006   4.919
 9155TIP3    H227423   4.535   6.976   4.781
 9156TIP3   OH227424   1.962   2.971   0.897
 9156TIP3    H127425   1.935   3.055   0.859
 9156TIP3    H227426   1.925   2.971   0.985
 9157TIP3   OH227427   6.218   3.469   1.761
 9157TIP3    H127428   6.267   3.414   1.699
 9157TIP3    H227429   6.135   3.424   1.773
 9158TIP3   OH227430   0.914   0.580   5.849
 9158TIP3    H127431   1.007   0.593   5.829
 9158TIP3    H227432   0.870   0.585   5.764
 9159TIP3   OH227433   2.294   6.542   6.359
 9159TIP3    H127434   2.316   6.569   6.271
 9159TIP3    H227435   2.291   6.446   6.355
 9160TIP3   OH227436   1.833   4.227   0.638
 9160TIP3    H127437   1.820   4.161   0.570
 9160TIP3    H227438   1.783   4.303   0.607
 9161TIP3   OH227439   5.536   3.968   0.244
 9161TIP3    H127440   5.544   4.063   0.234
 9161TIP3    H227441   5.540   3.953   0.338
 9162TIP3   OH227442   5.716   4.548   1.890
 9162TIP3    H127443   5.749   4.599   1.964
 9162TIP3    H227444   5.794   4.519   1.844
 9163TIP3   OH227445   5.521   0.895   5.399
 9163TIP3    H127446   5.436   0.865   5.368
 9163TIP3    H227447   5.583   0.833   5.362
 9164TIP3   OH227448   6.939   3.155   6.648
 9164TIP3    H127449   6.934   3.155   6.552
 9164TIP3    H227450   6.975   3.070   6.670
 9165TIP3   OH227451   1.474   3.270   5.553
 9165TIP3    H127452   1.569   3.272   5.541
 9165TIP3    H227453   1.448   3.361   5.559
 9166TIP3   OH227454   5.729   3.149   4.979
 9166TIP3    H127455   5.788   3.224   4.992
 9166TIP3    H227456   5.641   3.185   4.993
 9167TIP3   OH227457   1.719   3.840   5.779
 9167TIP3    H127458   1.804   3.864   5.814
 9167TIP3    H227459   1.729   3.749   5.750
 9168TIP3   OH227460   3.496   4.678   5.987
 9168TIP3    H127461   3.408   4.664   5.954
 9168TIP3    H227462   3.498   4.634   6.072
 9169TIP3   OH227463   0.687   3.141   4.939
 9169TIP3    H127464   0.637   3.159   4.859
 9169TIP3    H227465   0.754   3.079   4.912
 9170TIP3   OH227466   1.199   5.876   1.799
 9170TIP3    H127467   1.192   5.854   1.706
 9170TIP3    H227468   1.291   5.899   1.811
 9171TIP3   OH227469   6.306   3.199   6.143
 9171TIP3    H127470   6.219   3.183   6.179
 9171TIP3    H227471   6.329   3.118   6.099
 9172TIP3   OH227472   6.538   6.334   4.504
 9172TIP3    H127473   6.564   6.294   4.421
 9172TIP3    H227474   6.502   6.419   4.479
 9173TIP3   OH227475   3.411   1.244   3.540
 9173TIP3    H127476   3.364   1.164   3.516
 9173TIP3    H227477   3.437   1.282   3.456
 9174TIP3   OH227478   1.357   2.700   0.909
 9174TIP3    H127479   1.302   2.728   0.836
 9174TIP3    H227480   1.294   2.668   0.974
 9175TIP3   OH227481   1.015   6.130   1.450
 9175TIP3    H127482   1.098   6.171   1.423
 9175TIP3    H227483   1.017   6.043   1.411
 9176TIP3   OH227484   7.819   2.329   4.130
 9176TIP3    H127485   7.895   2.307   4.076
 9176TIP3    H227486   7.839   2.293   4.217
 9177TIP3   OH227487   1.284   6.335   3.594
 9177TIP3    H127488   1.288   6.429   3.610
 9177TIP3    H227489   1.294   6.296   3.681
 9178TIP3   OH227490   8.269   7.774   0.231
 9178TIP3    H127491   8.279   7.688   0.272
 9178TIP3    H227492   8.266   7.835   0.304
 9179TIP3   OH227493   7.610   5.736   1.652
 9179TIP3    H127494   7.661   5.713   1.575
 9179TIP3    H227495   7.655   5.813   1.688
 9180TIP3   OH227496   2.036   2.638   3.254
 9180TIP3    H127497   2.123   2.603   3.234
 9180TIP3    H227498   1.983   2.560   3.273
 9181TIP3   OH227499   8.094   5.953   5.901
 9181TIP3    H127500   8.105   5.931   5.994
 9181TIP3    H227501   8.014   5.908   5.875
 9182TIP3   OH227502   4.866   7.441   5.093
 9182TIP3    H127503   4.895   7.420   5.181
 9182TIP3    H227504   4.895   7.367   5.039
 9183TIP3   OH227505   0.130   6.499   0.908
 9183TIP3    H127506   0.190   6.443   0.957
 9183TIP3    H227507   0.054   6.508   0.965
 9184TIP3   OH227508   6.605   1.108   6.750
 9184TIP3    H127509   6.688   1.155   6.756
 9184TIP3    H227510   6.558   1.151   6.678
 9185TIP3   OH227511   3.503   4.505   5.397
 9185TIP3    H127512   3.503   4.411   5.381
 9185TIP3    H227513   3.564   4.541   5.332
 9186TIP3   OH227514   3.805   7.302   3.896
 9186TIP3    H127515   3.871   7.313   3.827
 9186TIP3    H227516   3.815   7.379   3.951
 9187TIP3   OH227517   6.483   4.928   0.716
 9187TIP3    H127518   6.403   4.981   0.725
 9187TIP3    H227519   6.513   4.915   0.806
 9188TIP3   OH227520   5.153   0.375   2.043
 9188TIP3    H127521   5.122   0.454   2.089
 9188TIP3    H227522   5.104   0.303   2.083
 9189TIP3   OH227523   0.659   5.639   4.898
 9189TIP3    H127524   0.590   5.610   4.957
 9189TIP3    H227525   0.711   5.560   4.882
 9190TIP3   OH227526   1.295   3.426   3.917
 9190TIP3    H127527   1.229   3.438   3.850
 9190TIP3    H227528   1.330   3.514   3.932
 9191TIP3   OH227529   6.419   4.185   4.692
 9191TIP3    H127530   6.468   4.184   4.610
 9191TIP3    H227531   6.480   4.219   4.757
 9192TIP3   OH227532   0.194   5.841   0.850
 9192TIP3    H127533   0.176   5.836   0.756
 9192TIP3    H227534   0.264   5.777   0.864
 9193TIP3   OH227535   3.580   3.832   1.086
 9193TIP3    H127536   3.488   3.806   1.078
 9193TIP3    H227537   3.578   3.928   1.083
 9194TIP3   OH227538   5.540   4.278   3.126
 9194TIP3    H127539   5.585   4.241   3.202
 9194TIP3    H227540   5.608   4.327   3.079
 9195TIP3   OH227541   0.935   5.847   1.551
 9195TIP3    H127542   0.925   5.752   1.562
 9195TIP3    H227543   0.984   5.856   1.470
 9196TIP3   OH227544   3.449   0.173   3.326
 9196TIP3    H127545   3.420   0.181   3.417
 9196TIP3    H227546   3.488   0.086   3.321
 9197TIP3   OH227547   6.190   7.381   0.897
 9197TIP3    H127548   6.186   7.374   0.992
 9197TIP3    H227549   6.145   7.463   0.877
 9198TIP3   OH227550   4.166   6.230   0.022
 9198TIP3    H127551   4.255   6.250   0.049
 9198TIP3    H227552   4.111   6.260   0.094
 9199TIP3   OH227553   6.873   7.406   0.715
 9199TIP3    H127554   6.807   7.472   0.696
 9199TIP3    H227555   6.902   7.427   0.804
 9200TIP3   OH227556   7.486   0.507   6.456
 9200TIP3    H127557   7.569   0.478   6.493
 9200TIP3    H227558   7.507   0.528   6.365
 9201TIP3   OH227559   3.354   0.263   3.620
 9201TIP3    H127560   3.321   0.179   3.651
 9201TIP3    H227561   3.351   0.320   3.697
 9202TIP3   OH227562   3.254   5.167   0.101
 9202TIP3    H127563   3.276   5.182   0.193
 9202TIP3    H227564   3.161   5.192   0.095
 9203TIP3   OH227565   4.393   4.323   3.633
 9203TIP3    H127566   4.395   4.292   3.543
 9203TIP3    H227567   4.317   4.381   3.637
 9204TIP3   OH227568   5.610   5.077   5.817
 9204TIP3    H127569   5.659   5.042   5.743
 9204TIP3    H227570   5.574   5.160   5.785
 9205TIP3   OH227571   1.862   3.148   0.184
 9205TIP3    H127572   1.915   3.221   0.215
 9205TIP3    H227573   1.916   3.070   0.201
 9206TIP3   OH227574   0.209   4.188   1.528
 9206TIP3    H127575   0.260   4.268   1.519
 9206TIP3    H227576   0.118   4.218   1.533
 9207TIP3   OH227577   2.900   4.743   1.287
 9207TIP3    H127578   2.967   4.674   1.284
 9207TIP3    H227579   2.877   4.758   1.195
 9208TIP3   OH227580   6.839   3.856   1.893
 9208TIP3    H127581   6.790   3.893   1.820
 9208TIP3    H227582   6.860   3.767   1.866
 9209TIP3   OH227583   3.761   4.294   6.165
 9209TIP3    H127584   3.785   4.235   6.094
 9209TIP3    H227585   3.755   4.239   6.243
 9210TIP3   OH227586   1.309   3.844   6.549
 9210TIP3    H127587   1.363   3.921   6.566
 9210TIP3    H227588   1.371   3.778   6.514
 9211TIP3   OH227589   3.451   0.391   2.070
 9211TIP3    H127590   3.498   0.329   2.126
 9211TIP3    H227591   3.359   0.383   2.096
 9212TIP3   OH227592   7.338   1.064   5.483
 9212TIP3    H127593   7.297   1.127   5.423
 9212TIP3    H227594   7.349   0.985   5.430
 9213TIP3   OH227595   3.847   3.807   1.316
 9213TIP3    H127596   3.932   3.788   1.276
 9213TIP3    H227597   3.785   3.752   1.267
 9214TIP3   OH227598   8.192   0.658   3.369
 9214TIP3    H127599   8.184   0.724   3.438
 9214TIP3    H227600   8.103   0.644   3.338
 9215TIP3   OH227601   0.105   0.534   0.858
 9215TIP3    H127602   0.068   0.457   0.814
 9215TIP3    H227603   0.195   0.508   0.879
 9216TIP3   OH227604   4.929   5.108   1.920
 9216TIP3    H127605   4.927   5.042   1.989
 9216TIP3    H227606   5.011   5.091   1.873
 9217TIP3   OH227607   1.133   1.945   6.686
 9217TIP3    H127608   1.114   2.038   6.669
 9217TIP3    H227609   1.065   1.898   6.638
 9218TIP3   OH227610   2.021   0.112   5.154
 9218TIP3    H127611   2.034   0.115   5.249
 9218TIP3    H227612   2.106   0.136   5.117
 9219TIP3   OH227613   2.446   7.145   5.930
 9219TIP3    H127614   2.385   7.166   6.000
 9219TIP3    H227615   2.514   7.092   5.972
 9220TIP3   OH227616   2.552   3.030   5.621
 9220TIP3    H127617   2.588   2.981   5.694
 9220TIP3    H227618   2.476   2.979   5.593
 9221TIP3   OH227619   5.870   7.105   0.924
 9221TIP3    H127620   5.883   7.025   0.873
 9221TIP3    H227621   5.924   7.092   1.002
 9222TIP3   OH227622   5.699   1.489   5.467
 9222TIP3    H127623   5.629   1.550   5.491
 9222TIP3    H227624   5.718   1.508   5.375
 9223TIP3   OH227625   6.496   7.711   6.031
 9223TIP3    H127626   6.411   7.752   6.048
 9223TIP3    H227627   6.542   7.775   5.976
 9224TIP3   OH227628   7.389   5.629   2.803
 9224TIP3    H127629   7.386   5.667   2.716
 9224TIP3    H227630   7.341   5.690   2.859
 9225TIP3   OH227631   3.614   4.792   4.809
 9225TIP3    H127632   3.553   4.755   4.745
 9225TIP3    H227633   3.638   4.877   4.772
 9226TIP3   OH227634   6.774   7.825   0.381
 9226TIP3    H127635   6.840   7.756   0.378
 9226TIP3    H227636   6.701   7.790   0.330
 9227TIP3   OH227637   6.392   6.674   6.587
 9227TIP3    H127638   6.415   6.691   6.496
 9227TIP3    H227639   6.455   6.726   6.638
 9228TIP3   OH227640   8.122   6.067   5.227
 9228TIP3    H127641   8.079   5.993   5.185
 9228TIP3    H227642   8.101   6.059   5.320
 9229TIP3   OH227643   2.946   3.676   3.345
 9229TIP3    H127644   2.886   3.743   3.378
 9229TIP3    H227645   2.938   3.682   3.249
 9230TIP3   OH227646   5.055   1.172   5.280
 9230TIP3    H127647   5.013   1.239   5.333
 9230TIP3    H227648   5.031   1.089   5.322
 9231TIP3   OH227649   8.322   5.675   0.614
 9231TIP3    H127650   8.264   5.745   0.646
 9231TIP3    H227651   8.262   5.605   0.587
 9232TIP3   OH227652   5.141   5.507   0.684
 9232TIP3    H127653   5.047   5.520   0.677
 9232TIP3    H227654   5.178   5.595   0.686
 9233TIP3   OH227655   0.046   2.106   6.542
 9233TIP3    H127656   0.005   2.186   6.511
 9233TIP3    H227657   0.016   2.038   6.481
 9234TIP3   OH227658   0.550   2.667   0.454
 9234TIP3    H127659   0.509   2.749   0.481
 9234TIP3    H227660   0.636   2.693   0.420
 9235TIP3   OH227661   1.308   0.933   5.391
 9235TIP3    H127662   1.235   0.994   5.381
 9235TIP3    H227663   1.313   0.888   5.307
 9236TIP3   OH227664   6.726   7.549   5.989
 9236TIP3    H127665   6.674   7.627   6.010
 9236TIP3    H227666   6.738   7.552   5.895
 9237TIP3   OH227667   4.823   7.114   2.233
 9237TIP3    H127668   4.864   7.194   2.266
 9237TIP3    H227669   4.820   7.127   2.138
 9238TIP3   OH227670   0.469   5.685   3.949
 9238TIP3    H127671   0.539   5.717   4.005
 9238TIP3    H227672   0.446   5.759   3.893
 9239TIP3   OH227673   2.357   4.769   3.153
 9239TIP3    H127674   2.385   4.858   3.173
 9239TIP3    H227675   2.426   4.714   3.191
 9240TIP3   OH227676   5.794   0.131   1.361
 9240TIP3    H127677   5.772   0.045   1.327
 9240TIP3    H227678   5.888   0.129   1.375
 9241TIP3   OH227679   2.419   3.416   4.168
 9241TIP3    H127680   2.356   3.350   4.139
 9241TIP3    H227681   2.398   3.429   4.261
 9242TIP3   OH227682   5.952   5.992   6.182
 9242TIP3    H127683   5.878   5.975   6.240
 9242TIP3    H227684   6.017   6.034   6.237
 9243TIP3   OH227685   5.879   5.194   2.347
 9243TIP3    H127686   5.920   5.109   2.331
 9243TIP3    H227687   5.858   5.193   2.440
 9244TIP3   OH227688   7.039   7.267   6.081
 9244TIP3    H127689   7.092   7.307   6.012
 9244TIP3    H227690   6.983   7.204   6.035
 9245TIP3   OH227691   2.267   0.700   0.336
 9245TIP3    H127692   2.339   0.711   0.275
 9245TIP3    H227693   2.240   0.609   0.326
 9246TIP3   OH227694   3.441   4.608   4.249
 9246TIP3    H127695   3.513   4.653   4.293
 9246TIP3    H227696   3.398   4.557   4.318
 9247TIP3   OH227697   5.941   0.822   4.447
 9247TIP3    H127698   6.027   0.840   4.408
 9247TIP3    H227699   5.879   0.861   4.385
 9248TIP3   OH227700   1.165   4.383   3.956
 9248TIP3    H127701   1.223   4.321   3.999
 9248TIP3    H227702   1.218   4.461   3.941
 9249TIP3   OH227703   2.912   6.198   1.350
 9249TIP3    H127704   2.880   6.116   1.312
 9249TIP3    H227705   2.903   6.263   1.281
 9250TIP3   OH227706   2.085   0.661   4.391
 9250TIP3    H127707   2.143   0.728   4.353
 9250TIP3    H227708   2.008   0.710   4.419
 9251TIP3   OH227709   3.854   0.205   2.956
 9251TIP3    H127710   3.940   0.190   2.994
 9251TIP3    H227711   3.813   0.268   3.015
 9252TIP3   OH227712   5.838   1.948   0.840
 9252TIP3    H127713   5.742   1.944   0.833
 9252TIP3    H227714   5.854   2.006   0.915
 9253TIP3   OH227715   7.558   0.284   1.505
 9253TIP3    H127716   7.524   0.195   1.506
 9253TIP3    H227717   7.533   0.319   1.420
 9254TIP3   OH227718   5.856   0.956   5.603
 9254TIP3    H127719   5.885   1.034   5.557
 9254TIP3    H227720   5.917   0.947   5.676
 9255TIP3   OH227721   3.670   3.621   1.237
 9255TIP3    H127722   3.685   3.544   1.181
 9255TIP3    H227723   3.622   3.682   1.181
 9256TIP3   OH227724   1.243   3.321   0.135
 9256TIP3    H127725   1.222   3.254   0.200
 9256TIP3    H227726   1.274   3.273   0.059
 9257TIP3   OH227727   3.879   3.179   6.700
 9257TIP3    H127728   3.847   3.097   6.662
 9257TIP3    H227729   3.950   3.153   6.758
 9258TIP3   OH227730   2.417   5.938   2.822
 9258TIP3    H127731   2.362   5.985   2.885
 9258TIP3    H227732   2.357   5.879   2.777
 9259TIP3   OH227733   2.406   1.873   5.322
 9259TIP3    H127734   2.324   1.824   5.322
 9259TIP3    H227735   2.401   1.927   5.243
 9260TIP3   OH227736   3.198   3.003   6.041
 9260TIP3    H127737   3.267   2.971   5.983
 9260TIP3    H227738   3.123   2.947   6.022
 9261TIP3   OH227739   6.748   5.569   4.798
 9261TIP3    H127740   6.683   5.541   4.863
 9261TIP3    H227741   6.812   5.619   4.848
 9262TIP3   OH227742   6.607   3.562   6.212
 9262TIP3    H127743   6.698   3.540   6.230
 9262TIP3    H227744   6.606   3.658   6.206
 9263TIP3   OH227745   5.151   5.760   4.720
 9263TIP3    H127746   5.075   5.734   4.773
 9263TIP3    H227747   5.161   5.689   4.656
 9264TIP3   OH227748   7.014   1.789   2.200
 9264TIP3    H127749   6.928   1.750   2.213
 9264TIP3    H227750   7.070   1.716   2.174
 9265TIP3   OH227751   0.151   2.734   3.357
 9265TIP3    H127752   0.070   2.769   3.394
 9265TIP3    H227753   0.220   2.766   3.415
 9266TIP3   OH227754   6.333   2.006   1.805
 9266TIP3    H127755   6.393   1.939   1.773
 9266TIP3    H227756   6.380   2.049   1.877
 9267TIP3   OH227757   5.437   7.185   0.347
 9267TIP3    H127758   5.448   7.251   0.415
 9267TIP3    H227759   5.464   7.227   0.266
 9268TIP3   OH227760   4.089   3.043   3.876
 9268TIP3    H127761   4.094   2.951   3.902
 9268TIP3    H227762   4.139   3.046   3.794
 9269TIP3   OH227763   0.558   5.296   1.579
 9269TIP3    H127764   0.570   5.359   1.650
 9269TIP3    H227765   0.625   5.229   1.594
 9270TIP3   OH227766   2.505   5.596   1.060
 9270TIP3    H127767   2.582   5.609   1.005
 9270TIP3    H227768   2.532   5.623   1.148
 9271TIP3   OH227769   4.805   5.414   2.324
 9271TIP3    H127770   4.752   5.478   2.276
 9271TIP3    H227771   4.746   5.380   2.392
 9272TIP3   OH227772   3.225   4.643  -0.015
 9272TIP3    H127773   3.195   4.714   0.041
 9272TIP3    H227774   3.165   4.571   0.003
 9273TIP3   OH227775   7.567   7.424   4.420
 9273TIP3    H127776   7.567   7.352   4.484
 9273TIP3    H227777   7.581   7.503   4.473
 9274TIP3   OH227778   0.171   3.080   4.743
 9274TIP3    H127779   0.118   3.146   4.699
 9274TIP3    H227780   0.158   3.000   4.692
 9275TIP3   OH227781   2.857   0.790   5.564
 9275TIP3    H127782   2.940   0.798   5.612
 9275TIP3    H227783   2.879   0.814   5.474
 9276TIP3   OH227784   0.663   0.760   5.150
 9276TIP3    H127785   0.752   0.727   5.143
 9276TIP3    H227786   0.673   0.853   5.171
 9277TIP3   OH227787   5.918   6.090   6.542
 9277TIP3    H127788   5.876   6.172   6.567
 9277TIP3    H227789   5.846   6.035   6.510
 9278TIP3   OH227790   8.090   5.485   0.757
 9278TIP3    H127791   8.035   5.534   0.819
 9278TIP3    H227792   8.160   5.448   0.811
 9279TIP3   OH227793   2.560   2.301   1.378
 9279TIP3    H127794   2.609   2.343   1.449
 9279TIP3    H227795   2.598   2.213   1.372
 9280TIP3   OH227796   0.439   6.984   6.466
 9280TIP3    H127797   0.384   7.062   6.457
 9280TIP3    H227798   0.378   6.911   6.457
 9281TIP3   OH227799   5.222   1.239   2.889
 9281TIP3    H127800   5.129   1.241   2.913
 9281TIP3    H227801   5.268   1.263   2.970
 9282TIP3   OH227802   3.848   6.923   0.601
 9282TIP3    H127803   3.919   6.949   0.659
 9282TIP3    H227804   3.814   6.842   0.639
 9283TIP3   OH227805   2.041   0.432   1.433
 9283TIP3    H127806   2.082   0.346   1.433
 9283TIP3    H227807   1.955   0.418   1.474
 9284TIP3   OH227808   5.521   4.650   4.007
 9284TIP3    H127809   5.533   4.628   3.915
 9284TIP3    H227810   5.441   4.603   4.032
 9285TIP3   OH227811   5.329   0.769   4.342
 9285TIP3    H127812   5.338   0.773   4.247
 9285TIP3    H227813   5.417   0.787   4.375
 9286TIP3   OH227814   4.940   2.588   6.141
 9286TIP3    H127815   4.994   2.514   6.114
 9286TIP3    H227816   4.972   2.611   6.228
 9287TIP3   OH227817   4.056   0.992   1.343
 9287TIP3    H127818   3.992   1.044   1.390
 9287TIP3    H227819   4.110   0.953   1.412
 9288TIP3   OH227820   6.696   1.469   3.615
 9288TIP3    H127821   6.783   1.472   3.654
 9288TIP3    H227822   6.680   1.559   3.585
 9289TIP3   OH227823   0.690   7.404   0.653
 9289TIP3    H127824   0.730   7.351   0.584
 9289TIP3    H227825   0.754   7.403   0.724
 9290TIP3   OH227826   6.860   3.932   4.126
 9290TIP3    H127827   6.797   3.864   4.150
 9290TIP3    H227828   6.817   3.981   4.055
 9291TIP3   OH227829   1.504   3.595   0.345
 9291TIP3    H127830   1.581   3.538   0.337
 9291TIP3    H227831   1.524   3.670   0.290
 9292TIP3   OH227832   1.269   7.222   0.075
 9292TIP3    H127833   1.303   7.149   0.023
 9292TIP3    H227834   1.267   7.187   0.165
 9293TIP3   OH227835   3.577   6.436   2.967
 9293TIP3    H127836   3.536   6.453   2.881
 9293TIP3    H227837   3.644   6.371   2.948
 9294TIP3   OH227838   4.129   4.502   6.787
 9294TIP3    H127839   4.184   4.515   6.710
 9294TIP3    H227840   4.054   4.452   6.755
 9295TIP3   OH227841   4.156   3.589   6.012
 9295TIP3    H127842   4.177   3.502   6.045
 9295TIP3    H227843   4.130   3.639   6.089
 9296TIP3   OH227844   0.243   1.238   4.258
 9296TIP3    H127845   0.232   1.166   4.320
 9296TIP3    H227846   0.158   1.283   4.259
 9297TIP3   OH227847   1.650   3.831   4.006
 9297TIP3    H127848   1.560   3.848   4.033
 9297TIP3    H227849   1.678   3.911   3.963
 9298TIP3   OH227850   7.323   6.116   5.709
 9298TIP3    H127851   7.418   6.130   5.703
 9298TIP3    H227852   7.299   6.081   5.623
 9299TIP3   OH227853   0.226   2.378   4.134
 9299TIP3    H127854   0.221   2.294   4.088
 9299TIP3    H227855   0.297   2.425   4.092
 9300TIP3   OH227856   0.181   1.287   2.774
 9300TIP3    H127857   0.258   1.333   2.741
 9300TIP3    H227858   0.119   1.357   2.795
 9301TIP3   OH227859   3.993   4.467   3.334
 9301TIP3    H127860   3.992   4.500   3.424
 9301TIP3    H227861   3.914   4.504   3.295
 9302TIP3   OH227862   7.541   6.550   5.349
 9302TIP3    H127863   7.574   6.588   5.431
 9302TIP3    H227864   7.463   6.601   5.329
 9303TIP3   OH227865   3.731   2.255   3.764
 9303TIP3    H127866   3.752   2.281   3.853
 9303TIP3    H227867   3.645   2.214   3.771
 9304TIP3   OH227868   5.641   3.807   3.012
 9304TIP3    H127869   5.604   3.740   2.953
 9304TIP3    H227870   5.620   3.890   2.969
 9305TIP3   OH227871   6.143   2.994   1.447
 9305TIP3    H127872   6.077   2.999   1.378
 9305TIP3    H227873   6.123   3.067   1.506
 9306TIP3   OH227874   3.703   6.098   6.524
 9306TIP3    H127875   3.725   6.005   6.531
 9306TIP3    H227876   3.680   6.124   6.614
 9307TIP3   OH227877   0.571   7.209   3.202
 9307TIP3    H127878   0.494   7.152   3.207
 9307TIP3    H227879   0.540   7.288   3.156
 9308TIP3   OH227880   2.839   2.796   5.461
 9308TIP3    H127881   2.885   2.801   5.545
 9308TIP3    H227882   2.908   2.802   5.395
 9309TIP3   OH227883   5.063   1.213   0.341
 9309TIP3    H127884   5.051   1.235   0.434
 9309TIP3    H227885   4.998   1.267   0.296
 9310TIP3   OH227886   6.236   7.616   3.453
 9310TIP3    H127887   6.329   7.603   3.475
 9310TIP3    H227888   6.208   7.532   3.416
 9311TIP3   OH227889   7.628   7.486   1.066
 9311TIP3    H127890   7.691   7.493   1.138
 9311TIP3    H227891   7.638   7.569   1.018
 9312TIP3   OH227892   2.298   3.797   0.496
 9312TIP3    H127893   2.235   3.808   0.567
 9312TIP3    H227894   2.265   3.722   0.446
 9313TIP3   OH227895   2.441   7.703   6.000
 9313TIP3    H127896   2.431   7.767   5.929
 9313TIP3    H227897   2.525   7.724   6.039
 9314TIP3   OH227898   3.573   3.119   0.049
 9314TIP3    H127899   3.525   3.181  -0.006
 9314TIP3    H227900   3.663   3.126   0.019
 9315TIP3   OH227901   7.159   2.515   5.624
 9315TIP3    H127902   7.154   2.569   5.702
 9315TIP3    H227903   7.082   2.539   5.573
 9316TIP3   OH227904   3.016   7.299   1.029
 9316TIP3    H127905   3.041   7.212   1.062
 9316TIP3    H227906   3.097   7.337   0.997
 9317TIP3   OH227907   4.316   6.014   5.954
 9317TIP3    H127908   4.340   5.993   5.864
 9317TIP3    H227909   4.305   5.929   5.996
 9318TIP3   OH227910   0.201   1.499   5.419
 9318TIP3    H127911   0.209   1.537   5.506
 9318TIP3    H227912   0.110   1.514   5.394
 9319TIP3   OH227913   2.526   4.119   1.677
 9319TIP3    H127914   2.575   4.038   1.665
 9319TIP3    H227915   2.435   4.095   1.660
 9320TIP3   OH227916   5.075   6.501   0.487
 9320TIP3    H127917   5.011   6.457   0.544
 9320TIP3    H227918   5.091   6.585   0.531
 9321TIP3   OH227919   5.438   6.299   6.196
 9321TIP3    H127920   5.497   6.361   6.239
 9321TIP3    H227921   5.442   6.221   6.252
 9322TIP3   OH227922   3.214   5.516   5.346
 9322TIP3    H127923   3.120   5.522   5.329
 9322TIP3    H227924   3.251   5.482   5.265
 9323TIP3   OH227925   7.206   6.725   0.424
 9323TIP3    H127926   7.135   6.669   0.393
 9323TIP3    H227927   7.165   6.810   0.440
 9324TIP3   OH227928   4.089   0.693   3.474
 9324TIP3    H127929   4.013   0.635   3.480
 9324TIP3    H227930   4.068   0.766   3.533
 9325TIP3   OH227931   6.673   1.671   4.282
 9325TIP3    H127932   6.695   1.718   4.363
 9325TIP3    H227933   6.667   1.740   4.216
 9326TIP3   OH227934   1.823   4.501   4.773
 9326TIP3    H127935   1.753   4.521   4.710
 9326TIP3    H227936   1.779   4.454   4.844
 9327TIP3   OH227937   1.664   0.646   4.709
 9327TIP3    H127938   1.614   0.681   4.783
 9327TIP3    H227939   1.602   0.590   4.663
 9328TIP3   OH227940   0.593   4.310   0.656
 9328TIP3    H127941   0.688   4.321   0.665
 9328TIP3    H227942   0.583   4.226   0.611
 9329TIP3   OH227943   0.273   3.928   2.348
 9329TIP3    H127944   0.357   3.943   2.303
 9329TIP3    H227945   0.244   3.842   2.316
 9330TIP3   OH227946   3.692   3.273   0.689
 9330TIP3    H127947   3.660   3.361   0.707
 9330TIP3    H227948   3.755   3.285   0.618
 9331TIP3   OH227949   6.926   2.702   6.638
 9331TIP3    H127950   6.844   2.705   6.588
 9331TIP3    H227951   6.911   2.758   6.714
 9332TIP3   OH227952   0.116   7.590   6.183
 9332TIP3    H127953   0.056   7.653   6.224
 9332TIP3    H227954   0.151   7.637   6.107
 9333TIP3   OH227955   6.033   4.740   6.480
 9333TIP3    H127956   6.017   4.829   6.513
 9333TIP3    H227957   5.974   4.733   6.405
 9334TIP3   OH227958   6.100   3.092   2.098
 9334TIP3    H127959   6.068   3.149   2.169
 9334TIP3    H227960   6.156   3.149   2.046
 9335TIP3   OH227961   3.384   0.098   6.590
 9335TIP3    H127962   3.423   0.185   6.601
 9335TIP3    H227963   3.377   0.064   6.679
 9336TIP3   OH227964   2.721   0.352   1.948
 9336TIP3    H127965   2.785   0.415   1.916
 9336TIP3    H227966   2.719   0.367   2.043
 9337TIP3   OH227967   6.865   6.941   0.914
 9337TIP3    H127968   6.770   6.930   0.921
 9337TIP3    H227969   6.877   7.015   0.855
 9338TIP3   OH227970   8.061   1.097   0.730
 9338TIP3    H127971   8.007   1.167   0.766
 9338TIP3    H227972   8.090   1.047   0.807
 9339TIP3   OH227973   0.367   5.388   6.628
 9339TIP3    H127974   0.292   5.429   6.585
 9339TIP3    H227975   0.399   5.325   6.564
 9340TIP3   OH227976   0.511   0.696   3.225
 9340TIP3    H127977   0.544   0.760   3.162
 9340TIP3    H227978   0.491   0.748   3.303
 9341TIP3   OH227979   7.156   2.797   3.793
 9341TIP3    H127980   7.249   2.777   3.802
 9341TIP3    H227981   7.120   2.724   3.743
 9342TIP3   OH227982   1.069   4.262   2.536
 9342TIP3    H127983   1.112   4.178   2.517
 9342TIP3    H227984   1.123   4.327   2.490
 9343TIP3   OH227985   3.611   5.906   2.863
 9343TIP3    H127986   3.575   5.825   2.825
 9343TIP3    H227987   3.558   5.975   2.824
 9344TIP3   OH227988   2.935   7.518   5.618
 9344TIP3    H127989   2.886   7.593   5.583
 9344TIP3    H227990   2.873   7.474   5.676
 9345TIP3   OH227991   4.056   5.683   4.936
 9345TIP3    H127992   4.060   5.616   4.868
 9345TIP3    H227993   3.965   5.712   4.936
 9346TIP3   OH227994   7.175   4.345   2.034
 9346TIP3    H127995   7.137   4.421   1.989
 9346TIP3    H227996   7.154   4.360   2.127
 9347TIP3   OH227997   4.996   3.256   0.672
 9347TIP3    H127998   4.905   3.261   0.702
 9347TIP3    H227999   5.007   3.333   0.617
 9348TIP3   OH228000   7.028   3.043   1.178
 9348TIP3    H128001   7.079   2.979   1.128
 9348TIP3    H228002   7.001   3.108   1.113
 9349TIP3   OH228003   3.836   7.033   3.869
 9349TIP3    H128004   3.873   6.983   3.942
 9349TIP3    H228005   3.809   7.116   3.907
 9350TIP3   OH228006   5.501   7.777   3.289
 9350TIP3    H128007   5.449   7.816   3.219
 9350TIP3    H228008   5.590   7.808   3.274
 9351TIP3   OH228009   7.130   5.703   4.132
 9351TIP3    H128010   7.068   5.688   4.060
 9351TIP3    H228011   7.104   5.787   4.169
 9352TIP3   OH228012   5.951   0.374   2.799
 9352TIP3    H128013   5.969   0.302   2.859
 9352TIP3    H228014   5.903   0.335   2.727
 9353TIP3   OH228015   6.940   5.929   1.112
 9353TIP3    H128016   6.890   5.903   1.034
 9353TIP3    H228017   6.939   6.025   1.110
 9354TIP3   OH228018   0.717   3.860   4.489
 9354TIP3    H128019   0.625   3.834   4.479
 9354TIP3    H228020   0.739   3.900   4.405
 9355TIP3   OH228021   3.224   4.324   6.091
 9355TIP3    H128022   3.157   4.255   6.082
 9355TIP3    H228023   3.211   4.359   6.179
 9356TIP3   OH228024   5.339   5.387   2.986
 9356TIP3    H128025   5.418   5.441   2.983
 9356TIP3    H228026   5.372   5.297   2.984
 9357TIP3   OH228027   2.117   4.716   6.606
 9357TIP3    H128028   2.078   4.790   6.652
 9357TIP3    H228029   2.154   4.661   6.676
 9358TIP3   OH228030   3.064   5.482   2.257
 9358TIP3    H128031   2.976   5.490   2.293
 9358TIP3    H228032   3.051   5.478   2.162
 9359TIP3   OH228033   0.438   0.318   3.943
 9359TIP3    H128034   0.478   0.248   3.892
 9359TIP3    H228035   0.364   0.276   3.987
 9360TIP3   OH228036   1.951   4.190   5.753
 9360TIP3    H128037   1.885   4.216   5.818
 9360TIP3    H228038   2.022   4.254   5.764
 9361TIP3   OH228039   3.855   5.265   2.189
 9361TIP3    H128040   3.915   5.231   2.122
 9361TIP3    H228041   3.845   5.357   2.167
 9362TIP3   OH228042   1.906   5.926   1.524
 9362TIP3    H128043   1.946   5.860   1.468
 9362TIP3    H228044   1.855   5.876   1.588
 9363TIP3   OH228045   4.350   6.780   1.208
 9363TIP3    H128046   4.420   6.796   1.271
 9363TIP3    H228047   4.371   6.695   1.170
 9364TIP3   OH228048   6.260   2.605   4.331
 9364TIP3    H128049   6.171   2.573   4.344
 9364TIP3    H228050   6.279   2.587   4.238
 9365TIP3   OH228051   0.963   1.156   6.182
 9365TIP3    H128052   0.918   1.076   6.208
 9365TIP3    H228053   0.903   1.199   6.120
 9366TIP3   OH228054   1.638   7.665   0.652
 9366TIP3    H128055   1.572   7.731   0.673
 9366TIP3    H228056   1.661   7.683   0.561
 9367TIP3   OH228057   5.634   4.403   1.048
 9367TIP3    H128058   5.681   4.454   0.982
 9367TIP3    H228059   5.611   4.321   1.002
 9368TIP3   OH228060   5.133   2.250   2.252
 9368TIP3    H128061   5.186   2.173   2.271
 9368TIP3    H228062   5.124   2.294   2.336
 9369TIP3   OH228063   1.855   1.422   6.219
 9369TIP3    H128064   1.793   1.372   6.166
 9369TIP3    H228065   1.921   1.359   6.246
 9370TIP3   OH228066   5.084   4.220   5.798
 9370TIP3    H128067   5.067   4.250   5.709
 9370TIP3    H228068   5.105   4.300   5.847
 9371TIP3   OH228069   2.410   5.329   0.464
 9371TIP3    H128070   2.374   5.307   0.378
 9371TIP3    H228071   2.420   5.244   0.507
 9372TIP3   OH228072   4.238   2.226   3.513
 9372TIP3    H128073   4.248   2.251   3.421
 9372TIP3    H228074   4.151   2.258   3.538
 9373TIP3   OH228075   1.426   1.852   0.678
 9373TIP3    H128076   1.380   1.774   0.647
 9373TIP3    H228077   1.421   1.913   0.604
 9374TIP3   OH228078   5.939   6.350   3.255
 9374TIP3    H128079   5.904   6.415   3.315
 9374TIP3    H228080   5.886   6.272   3.270
 9375TIP3   OH228081   1.847   4.613   1.379
 9375TIP3    H128082   1.768   4.567   1.409
 9375TIP3    H228083   1.894   4.634   1.459
 9376TIP3   OH228084   1.948   6.880   2.124
 9376TIP3    H128085   1.876   6.937   2.098
 9376TIP3    H228086   1.931   6.860   2.216
 9377TIP3   OH228087   6.296   3.432   6.559
 9377TIP3    H128088   6.238   3.409   6.487
 9377TIP3    H228089   6.317   3.349   6.601
 9378TIP3   OH228090   2.497   0.362   5.460
 9378TIP3    H128091   2.550   0.441   5.460
 9378TIP3    H228092   2.471   0.351   5.552
 9379TIP3   OH228093   2.560   6.547   4.647
 9379TIP3    H128094   2.633   6.505   4.693
 9379TIP3    H228095   2.600   6.617   4.597
 9380TIP3   OH228096   3.159   1.334   5.948
 9380TIP3    H128097   3.122   1.250   5.922
 9380TIP3    H228098   3.124   1.396   5.885
 9381TIP3   OH228099   6.321   5.624   3.819
 9381TIP3    H128100   6.299   5.716   3.808
 9381TIP3    H228101   6.416   5.622   3.822
 9382TIP3   OH228102   4.274   5.983   0.012
 9382TIP3    H128103   4.225   6.056  -0.025
 9382TIP3    H228104   4.322   6.020   0.086
 9383TIP3   OH228105   1.080   3.242   4.578
 9383TIP3    H128106   1.078   3.222   4.671
 9383TIP3    H228107   1.045   3.163   4.536
 9384TIP3   OH228108   7.347   5.447   1.279
 9384TIP3    H128109   7.334   5.353   1.273
 9384TIP3    H228110   7.287   5.484   1.214
 9385TIP3   OH228111   6.339   1.649   2.039
 9385TIP3    H128112   6.257   1.619   1.999
 9385TIP3    H228113   6.405   1.634   1.971
 9386TIP3   OH228114   8.031   1.419   1.954
 9386TIP3    H128115   7.978   1.390   1.881
 9386TIP3    H228116   8.071   1.339   1.989
 9387TIP3   OH228117   5.819   3.809   2.774
 9387TIP3    H128118   5.738   3.759   2.783
 9387TIP3    H228119   5.876   3.775   2.843
 9388TIP3   OH228120   4.513   0.260   4.335
 9388TIP3    H128121   4.569   0.189   4.367
 9388TIP3    H228122   4.482   0.303   4.414
 9389TIP3   OH228123   4.014   3.463   2.462
 9389TIP3    H128124   3.933   3.415   2.446
 9389TIP3    H228125   4.083   3.398   2.455
 9390TIP3   OH228126   5.660   3.408   5.303
 9390TIP3    H128127   5.666   3.484   5.362
 9390TIP3    H228128   5.582   3.361   5.333
 9391TIP3   OH228129   0.550   0.051   1.059
 9391TIP3    H128130   0.635   0.094   1.063
 9391TIP3    H228131   0.529   0.030   1.150
 9392TIP3   OH228132   3.467   0.509   2.641
 9392TIP3    H128133   3.404   0.437   2.644
 9392TIP3    H228134   3.537   0.482   2.699
 9393TIP3   OH228135   3.070   2.808   0.101
 9393TIP3    H128136   3.089   2.724   0.143
 9393TIP3    H228137   3.086   2.793   0.008
 9394TIP3   OH228138   4.637   1.924   1.862
 9394TIP3    H128139   4.613   1.873   1.784
 9394TIP3    H228140   4.623   2.015   1.836
 9395TIP3   OH228141   5.367   7.648   1.866
 9395TIP3    H128142   5.392   7.721   1.809
 9395TIP3    H228143   5.295   7.683   1.918
 9396TIP3   OH228144   7.844   7.357   3.425
 9396TIP3    H128145   7.939   7.367   3.422
 9396TIP3    H228146   7.829   7.264   3.406
 9397TIP3   OH228147   7.116   4.941   1.137
 9397TIP3    H128148   7.117   5.036   1.151
 9397TIP3    H228149   7.141   4.930   1.045
 9398TIP3   OH228150   6.717   2.771   6.156
 9398TIP3    H128151   6.762   2.689   6.178
 9398TIP3    H228152   6.667   2.793   6.234
 9399TIP3   OH228153   1.669   5.037   6.641
 9399TIP3    H128154   1.607   5.015   6.572
 9399TIP3    H228155   1.716   5.114   6.608
 9400TIP3   OH228156   3.565   4.591   2.961
 9400TIP3    H128157   3.619   4.573   3.038
 9400TIP3    H228158   3.476   4.593   2.995
 9401TIP3   OH228159   5.318   6.979   1.809
 9401TIP3    H128160   5.231   7.003   1.777
 9401TIP3    H228161   5.378   7.022   1.748
 9402TIP3   OH228162   4.041   2.678   1.119
 9402TIP3    H128163   4.012   2.733   1.192
 9402TIP3    H228164   4.003   2.592   1.136
 9403TIP3   OH228165   8.012   2.170   2.928
 9403TIP3    H128166   8.064   2.120   2.865
 9403TIP3    H228167   8.071   2.186   3.001
 9404TIP3   OH228168   7.951   7.480   5.400
 9404TIP3    H128169   7.939   7.459   5.308
 9404TIP3    H228170   8.039   7.448   5.420
 9405TIP3   OH228171   1.422   1.258   0.111
 9405TIP3    H128172   1.401   1.341   0.069
 9405TIP3    H228173   1.384   1.192   0.053
 9406TIP3   OH228174   2.577   5.666   2.760
 9406TIP3    H128175   2.618   5.750   2.783
 9406TIP3    H228176   2.559   5.674   2.666
 9407TIP3   OH228177   6.522   0.447   6.376
 9407TIP3    H128178   6.472   0.431   6.296
 9407TIP3    H228179   6.536   0.542   6.377
 9408TIP3   OH228180   2.423   7.651   5.305
 9408TIP3    H128181   2.498   7.639   5.246
 9408TIP3    H228182   2.377   7.567   5.302
 9409TIP3   OH228183   6.337   2.703   0.649
 9409TIP3    H128184   6.278   2.667   0.715
 9409TIP3    H228185   6.321   2.797   0.650
 9410TIP3   OH228186   4.434   0.228   2.367
 9410TIP3    H128187   4.423   0.307   2.314
 9410TIP3    H228188   4.419   0.155   2.306
 9411TIP3   OH228189   4.418   2.029   1.421
 9411TIP3    H128190   4.328   2.005   1.397
 9411TIP3    H228191   4.409   2.116   1.462
 9412TIP3   OH228192   0.235   5.222   2.045
 9412TIP3    H128193   0.274   5.186   2.124
 9412TIP3    H228194   0.146   5.188   2.044
 9413TIP3   OH228195   6.420   5.045   1.115
 9413TIP3    H128196   6.408   5.014   1.204
 9413TIP3    H228197   6.458   4.971   1.068
 9414TIP3   OH228198   0.878   2.085   4.829
 9414TIP3    H128199   0.858   2.052   4.917
 9414TIP3    H228200   0.966   2.052   4.811
 9415TIP3   OH228201   1.863   6.624   4.486
 9415TIP3    H128202   1.818   6.704   4.459
 9415TIP3    H228203   1.906   6.592   4.407
 9416TIP3   OH228204   2.676   6.035   5.809
 9416TIP3    H128205   2.698   6.023   5.716
 9416TIP3    H228206   2.605   6.099   5.809
 9417TIP3   OH228207   5.635   7.281   5.233
 9417TIP3    H128208   5.703   7.297   5.297
 9417TIP3    H228209   5.673   7.216   5.173
 9418TIP3   OH228210   4.173   4.654   4.206
 9418TIP3    H128211   4.229   4.584   4.172
 9418TIP3    H228212   4.088   4.636   4.167
 9419TIP3   OH228213   5.523   0.302   5.035
 9419TIP3    H128214   5.436   0.269   5.057
 9419TIP3    H228215   5.542   0.263   4.949
 9420TIP3   OH228216   1.700   7.252   0.917
 9420TIP3    H128217   1.725   7.315   0.984
 9420TIP3    H228218   1.630   7.296   0.868
 9421TIP3   OH228219   5.901   1.150   5.895
 9421TIP3    H128220   5.898   1.229   5.841
 9421TIP3    H228221   5.969   1.168   5.960
 9422TIP3   OH228222   0.843   3.014   5.320
 9422TIP3    H128223   0.806   3.092   5.279
 9422TIP3    H228224   0.773   2.949   5.315
 9423TIP3   OH228225   1.243   3.047   0.227
 9423TIP3    H128226   1.320   3.008   0.268
 9423TIP3    H228227   1.201   2.975   0.180
 9424TIP3   OH228228   0.298   7.145   4.173
 9424TIP3    H128229   0.241   7.097   4.113
 9424TIP3    H228230   0.312   7.229   4.130
 9425TIP3   OH228231   4.839   5.365   3.979
 9425TIP3    H128232   4.847   5.291   4.039
 9425TIP3    H228233   4.879   5.334   3.897
 9426TIP3   OH228234   8.198   0.414   1.031
 9426TIP3    H128235   8.161   0.483   1.087
 9426TIP3    H228236   8.279   0.453   0.998
 9427TIP3   OH228237   8.242   3.250   6.375
 9427TIP3    H128238   8.250   3.293   6.290
 9427TIP3    H228239   8.332   3.244   6.407
 9428TIP3   OH228240   6.735   7.021   6.320
 9428TIP3    H128241   6.718   6.961   6.247
 9428TIP3    H228242   6.830   7.030   6.321
 9429TIP3   OH228243   7.597   4.213   0.195
 9429TIP3    H128244   7.534   4.145   0.219
 9429TIP3    H228245   7.559   4.294   0.229
 9430TIP3   OH228246   5.095   1.672   3.842
 9430TIP3    H128247   5.099   1.592   3.790
 9430TIP3    H228248   5.186   1.690   3.866
 9431TIP3   OH228249   1.262   5.837   3.164
 9431TIP3    H128250   1.230   5.780   3.093
 9431TIP3    H228251   1.268   5.924   3.124
 9432TIP3   OH228252   7.475   0.544   1.023
 9432TIP3    H128253   7.520   0.468   0.985
 9432TIP3    H228254   7.464   0.605   0.950
 9433TIP3   OH228255   5.760   2.757   0.032
 9433TIP3    H128256   5.696   2.702  -0.014
 9433TIP3    H228257   5.816   2.696   0.078
 9434TIP3   OH228258   2.298   5.443   2.940
 9434TIP3    H128259   2.248   5.362   2.942
 9434TIP3    H228260   2.376   5.425   2.991
 9435TIP3   OH228261   2.524   1.956   1.216
 9435TIP3    H128262   2.508   2.043   1.252
 9435TIP3    H228263   2.611   1.933   1.248
 9436TIP3   OH228264   5.910   2.335   0.751
 9436TIP3    H128265   5.932   2.285   0.672
 9436TIP3    H228266   5.991   2.336   0.802
 9437TIP3   OH228267   4.679   4.455   0.059
 9437TIP3    H128268   4.716   4.465  -0.028
 9437TIP3    H228269   4.608   4.520   0.063
 9438TIP3   OH228270   1.249   2.744   6.021
 9438TIP3    H128271   1.198   2.825   6.012
 9438TIP3    H228272   1.273   2.741   6.113
 9439TIP3   OH228273   0.394   6.709   3.074
 9439TIP3    H128274   0.301   6.696   3.056
 9439TIP3    H228275   0.402   6.698   3.169
 9440TIP3   OH228276   2.807   1.425   3.235
 9440TIP3    H128277   2.737   1.408   3.299
 9440TIP3    H228278   2.767   1.482   3.170
 9441TIP3   OH228279   2.062  -0.003   2.608
 9441TIP3    H128280   2.153  -0.009   2.637
 9441TIP3    H228281   2.059   0.074   2.552
 9442TIP3   OH228282   4.008   5.083   2.762
 9442TIP3    H128283   3.939   5.019   2.779
 9442TIP3    H228284   4.046   5.056   2.678
 9443TIP3   OH228285   2.497   4.281   2.328
 9443TIP3    H128286   2.551   4.341   2.379
 9443TIP3    H228287   2.441   4.338   2.275
 9444TIP3   OH228288   4.301   1.295   1.672
 9444TIP3    H128289   4.312   1.274   1.580
 9444TIP3    H228290   4.215   1.258   1.696
 9445TIP3   OH228291   8.225   5.939   6.393
 9445TIP3    H128292   8.288   5.961   6.462
 9445TIP3    H228293   8.191   6.023   6.364
 9446TIP3   OH228294   0.794   5.221   0.415
 9446TIP3    H128295   0.707   5.261   0.421
 9446TIP3    H228296   0.792   5.171   0.333
 9447TIP3   OH228297   7.544   3.674   0.420
 9447TIP3    H128298   7.516   3.744   0.362
 9447TIP3    H228299   7.467   3.656   0.475
 9448TIP3   OH228300   0.838   5.693   1.269
 9448TIP3    H128301   0.825   5.651   1.355
 9448TIP3    H228302   0.815   5.625   1.206
 9449TIP3   OH228303   3.309   4.986   4.564
 9449TIP3    H128304   3.275   4.906   4.523
 9449TIP3    H228305   3.366   5.025   4.498
 9450TIP3   OH228306   7.174   3.698   4.975
 9450TIP3    H128307   7.200   3.607   4.962
 9450TIP3    H228308   7.220   3.725   5.055
 9451TIP3   OH228309   7.146   6.895   2.568
 9451TIP3    H128310   7.217   6.871   2.508
 9451TIP3    H228311   7.072   6.842   2.539
 9452TIP3   OH228312   4.155   4.138   2.992
 9452TIP3    H128313   4.134   4.045   2.999
 9452TIP3    H228314   4.251   4.140   2.985
 9453TIP3   OH228315   6.421   6.859   3.005
 9453TIP3    H128316   6.359   6.931   3.011
 9453TIP3    H228317   6.450   6.860   2.913
 9454TIP3   OH228318   3.679   1.046   6.182
 9454TIP3    H128319   3.658   0.956   6.207
 9454TIP3    H228320   3.733   1.036   6.103
 9455TIP3   OH228321   2.451   5.561   0.599
 9455TIP3    H128322   2.533   5.544   0.644
 9455TIP3    H228323   2.444   5.491   0.534
 9456TIP3   OH228324   5.873   1.621   6.112
 9456TIP3    H128325   5.933   1.695   6.121
 9456TIP3    H228326   5.818   1.626   6.190
 9457TIP3   OH228327   6.346   7.665   0.372
 9457TIP3    H128328   6.289   7.588   0.383
 9457TIP3    H228329   6.433   7.629   0.357
 9458TIP3   OH228330   7.499   0.089   5.130
 9458TIP3    H128331   7.429   0.153   5.141
 9458TIP3    H228332   7.579   0.134   5.159
 9459TIP3   OH228333   7.093   3.325   2.898
 9459TIP3    H128334   7.141   3.389   2.951
 9459TIP3    H228335   7.061   3.375   2.823
 9460TIP3   OH228336   3.116   4.535   4.230
 9460TIP3    H128337   3.127   4.445   4.200
 9460TIP3    H228338   3.066   4.528   4.311
 9461TIP3   OH228339   1.381   3.313   3.151
 9461TIP3    H128340   1.358   3.242   3.211
 9461TIP3    H228341   1.338   3.289   3.069
 9462TIP3   OH228342   2.933   6.678   1.420
 9462TIP3    H128343   3.020   6.714   1.402
 9462TIP3    H228344   2.884   6.692   1.339
 9463TIP3   OH228345   0.038   1.510   2.869
 9463TIP3    H128346   0.008   1.582   2.814
 9463TIP3    H228347   0.058   1.551   2.953
 9464TIP3   OH228348   1.231   3.468   4.817
 9464TIP3    H128349   1.136   3.476   4.815
 9464TIP3    H228350   1.250   3.420   4.897
 9465TIP3   OH228351   0.282   7.067   3.574
 9465TIP3    H128352   0.270   7.140   3.513
 9465TIP3    H228353   0.194   7.046   3.604
 9466TIP3   OH228354   0.795   1.246   5.680
 9466TIP3    H128355   0.856   1.311   5.717
 9466TIP3    H228356   0.822   1.163   5.720
 9467TIP3   OH228357   4.428   6.962   4.630
 9467TIP3    H128358   4.379   7.043   4.615
 9467TIP3    H228359   4.362   6.900   4.663
 9468TIP3   OH228360   2.309   4.802   0.670
 9468TIP3    H128361   2.273   4.790   0.582
 9468TIP3    H228362   2.254   4.870   0.710
 9469TIP3   OH228363   2.653   5.668   5.112
 9469TIP3    H128364   2.708   5.719   5.053
 9469TIP3    H228365   2.618   5.732   5.174
 9470TIP3   OH228366   7.738   5.725   0.809
 9470TIP3    H128367   7.664   5.680   0.850
 9470TIP3    H228368   7.775   5.660   0.749
 9471TIP3   OH228369   3.745   0.036   3.261
 9471TIP3    H128370   3.773   0.011   3.173
 9471TIP3    H228371   3.806   0.105   3.287
 9472TIP3   OH228372   1.386   7.543   0.761
 9472TIP3    H128373   1.459   7.540   0.698
 9472TIP3    H228374   1.378   7.453   0.792
 9473TIP3   OH228375   6.389   6.897   5.423
 9473TIP3    H128376   6.398   6.861   5.511
 9473TIP3    H228377   6.317   6.849   5.384
 9474TIP3   OH228378   7.065   6.910   1.460
 9474TIP3    H128379   7.119   6.978   1.420
 9474TIP3    H228380   6.987   6.905   1.405
 9475TIP3   OH228381   1.939   5.273   5.104
 9475TIP3    H128382   1.995   5.250   5.030
 9475TIP3    H228383   1.926   5.190   5.151
 9476TIP3   OH228384   5.721   3.221   4.599
 9476TIP3    H128385   5.795   3.245   4.655
 9476TIP3    H228386   5.655   3.288   4.616
 9477TIP3   OH228387   7.935   2.079   1.919
 9477TIP3    H128388   7.937   2.129   2.001
 9477TIP3    H228389   7.843   2.079   1.894
 9478TIP3   OH228390   7.259   2.155   5.122
 9478TIP3    H128391   7.280   2.082   5.064
 9478TIP3    H228392   7.314   2.140   5.199
 9479TIP3   OH228393   8.054   1.055   6.062
 9479TIP3    H128394   7.991   0.983   6.070
 9479TIP3    H228395   8.050   1.100   6.146
 9480TIP3   OH228396   7.574   3.571   5.282
 9480TIP3    H128397   7.510   3.511   5.244
 9480TIP3    H228398   7.644   3.514   5.314
 9481TIP3   OH228399   7.449   0.035   1.555
 9481TIP3    H128400   7.504  -0.013   1.617
 9481TIP3    H228401   7.451  -0.019   1.476
 9482TIP3   OH228402   1.488   1.438   1.317
 9482TIP3    H128403   1.408   1.390   1.295
 9482TIP3    H228404   1.477   1.522   1.273
 9483TIP3   OH228405   5.074   0.340   3.437
 9483TIP3    H128406   5.014   0.412   3.415
 9483TIP3    H228407   5.035   0.299   3.514
 9484TIP3   OH228408   1.667   6.784   5.232
 9484TIP3    H128409   1.701   6.696   5.248
 9484TIP3    H228410   1.591   6.771   5.175
 9485TIP3   OH228411   3.401   6.466   5.458
 9485TIP3    H128412   3.413   6.560   5.443
 9485TIP3    H228413   3.306   6.456   5.468
 9486TIP3   OH228414   0.920   4.000   2.597
 9486TIP3    H128415   0.839   3.962   2.631
 9486TIP3    H228416   0.905   4.094   2.598
 9487TIP3   OH228417   5.586   4.617   1.465
 9487TIP3    H128418   5.623   4.692   1.512
 9487TIP3    H228419   5.565   4.652   1.378
 9488TIP3   OH228420   7.799   5.180   5.756
 9488TIP3    H128421   7.819   5.261   5.710
 9488TIP3    H228422   7.768   5.121   5.688
 9489TIP3   OH228423   7.802   2.863   5.460
 9489TIP3    H128424   7.768   2.774   5.470
 9489TIP3    H228425   7.886   2.851   5.415
 9490TIP3   OH228426   3.106   4.361   0.322
 9490TIP3    H128427   3.174   4.295   0.339
 9490TIP3    H228428   3.039   4.343   0.388
 9491TIP3   OH228429   3.054   7.611   0.030
 9491TIP3    H128430   3.019   7.646   0.112
 9491TIP3    H228431   3.070   7.518   0.049
 9492TIP3   OH228432   2.179   0.191   0.131
 9492TIP3    H128433   2.199   0.284   0.140
 9492TIP3    H228434   2.095   0.180   0.175
 9493TIP3   OH228435   3.292   7.764   1.088
 9493TIP3    H128436   3.234   7.811   1.029
 9493TIP3    H228437   3.336   7.699   1.033
 9494TIP3   OH228438   4.972   5.285   6.481
 9494TIP3    H128439   4.961   5.294   6.576
 9494TIP3    H228440   4.964   5.374   6.448
 9495TIP3   OH228441   1.046   1.866   1.976
 9495TIP3    H128442   1.098   1.861   1.896
 9495TIP3    H228443   0.974   1.925   1.955
 9496TIP3   OH228444   6.660   0.487   6.009
 9496TIP3    H128445   6.640   0.394   6.000
 9496TIP3    H228446   6.576   0.526   6.035
 9497TIP3   OH228447   5.380   7.558   2.993
 9497TIP3    H128448   5.464   7.544   3.038
 9497TIP3    H228449   5.405   7.579   2.903
 9498TIP3   OH228450   1.969   3.708   3.805
 9498TIP3    H128451   1.939   3.772   3.870
 9498TIP3    H228452   2.064   3.706   3.815
 9499TIP3   OH228453   4.751   5.606   1.339
 9499TIP3    H128454   4.819   5.628   1.275
 9499TIP3    H228455   4.686   5.676   1.329
 9500TIP3   OH228456   4.228   7.600   0.993
 9500TIP3    H128457   4.189   7.685   1.015
 9500TIP3    H228458   4.256   7.610   0.903
 9501TIP3   OH228459   2.742   1.112   6.287
 9501TIP3    H128460   2.756   1.070   6.202
 9501TIP3    H228461   2.648   1.130   6.290
 9502TIP3   OH228462   6.552   4.235   4.934
 9502TIP3    H128463   6.502   4.310   4.967
 9502TIP3    H228464   6.628   4.229   4.992
 9503TIP3   OH228465   5.426   1.412   0.035
 9503TIP3    H128466   5.339   1.371   0.037
 9503TIP3    H228467   5.409   1.505   0.045
 9504TIP3   OH228468   2.313   2.773   2.580
 9504TIP3    H128469   2.334   2.854   2.532
 9504TIP3    H228470   2.311   2.799   2.672
 9505TIP3   OH228471   2.892   4.091   5.656
 9505TIP3    H128472   2.922   4.077   5.566
 9505TIP3    H228473   2.963   4.059   5.711
 9506TIP3   OH228474   0.680   3.924   3.721
 9506TIP3    H128475   0.696   3.988   3.790
 9506TIP3    H228476   0.697   3.971   3.639
 9507TIP3   OH228477   2.023   5.149   6.310
 9507TIP3    H128478   2.017   5.175   6.218
 9507TIP3    H228479   2.030   5.053   6.308
 9508TIP3   OH228480   0.291   7.794   4.381
 9508TIP3    H128481   0.242   7.754   4.453
 9508TIP3    H228482   0.355   7.728   4.355
 9509TIP3   OH228483   3.418   2.645   4.596
 9509TIP3    H128484   3.365   2.724   4.611
 9509TIP3    H228485   3.506   2.671   4.621
 9510TIP3   OH228486   2.275   7.465   5.704
 9510TIP3    H128487   2.365   7.478   5.672
 9510TIP3    H228488   2.223   7.526   5.652
 9511TIP3   OH228489   3.885   7.139   1.402
 9511TIP3    H128490   3.836   7.149   1.484
 9511TIP3    H228491   3.903   7.045   1.396
 9512TIP3   OH228492   3.146   1.387   0.402
 9512TIP3    H128493   3.051   1.383   0.414
 9512TIP3    H228494   3.172   1.296   0.390
 9513TIP3   OH228495   6.225   7.565   6.158
 9513TIP3    H128496   6.205   7.473   6.141
 9513TIP3    H228497   6.252   7.600   6.073
 9514TIP3   OH228498   3.426   7.607   0.890
 9514TIP3    H128499   3.496   7.543   0.903
 9514TIP3    H228500   3.423   7.620   0.795
 9515TIP3   OH228501   7.384   7.756   4.519
 9515TIP3    H128502   7.452   7.790   4.461
 9515TIP3    H228503   7.372   7.824   4.585
 9516TIP3   OH228504   6.976   5.889   2.904
 9516TIP3    H128505   6.971   5.794   2.915
 9516TIP3    H228506   6.931   5.925   2.980
 9517TIP3   OH228507   1.314   4.684   5.482
 9517TIP3    H128508   1.356   4.763   5.517
 9517TIP3    H228509   1.221   4.707   5.478
 9518TIP3   OH228510   6.897   3.806   1.228
 9518TIP3    H128511   6.979   3.772   1.263
 9518TIP3    H228512   6.848   3.728   1.203
 9519TIP3   OH228513   2.038   7.285   5.850
 9519TIP3    H128514   1.959   7.234   5.867
 9519TIP3    H228515   2.102   7.220   5.822
 9520TIP3   OH228516   0.590   5.505   0.531
 9520TIP3    H128517   0.586   5.429   0.473
 9520TIP3    H228518   0.673   5.548   0.509
 9521TIP3   OH228519   2.104   4.444   0.433
 9521TIP3    H128520   2.170   4.375   0.433
 9521TIP3    H228521   2.150   4.520   0.397
 9522TIP3   OH228522   5.158   7.694   2.412
 9522TIP3    H128523   5.243   7.668   2.378
 9522TIP3    H228524   5.176   7.734   2.497
 9523TIP3   OH228525   1.643   2.123   1.040
 9523TIP3    H128526   1.655   2.054   1.105
 9523TIP3    H228527   1.562   2.167   1.066
 9524TIP3   OH228528   6.169   0.183   6.345
 9524TIP3    H128529   6.229   0.111   6.325
 9524TIP3    H228530   6.113   0.190   6.267
 9525TIP3   OH228531   5.880   7.627   6.130
 9525TIP3    H128532   5.818   7.684   6.085
 9525TIP3    H228533   5.874   7.543   6.083
 9526TIP3   OH228534   4.308   4.833   6.585
 9526TIP3    H128535   4.316   4.928   6.587
 9526TIP3    H228536   4.295   4.808   6.676
 9527TIP3   OH228537   0.804   2.435   6.043
 9527TIP3    H128538   0.862   2.455   6.116
 9527TIP3    H228539   0.791   2.340   6.048
 9528TIP3   OH228540   0.498   2.500   5.798
 9528TIP3    H128541   0.473   2.433   5.862
 9528TIP3    H228542   0.417   2.547   5.779
 9529TIP3   OH228543   3.100   3.497   5.273
 9529TIP3    H128544   3.099   3.436   5.199
 9529TIP3    H228545   3.188   3.535   5.270
 9530TIP3   OH228546   5.825   1.801   3.542
 9530TIP3    H128547   5.745   1.829   3.498
 9530TIP3    H228548   5.845   1.871   3.603
 9531TIP3   OH228549   6.281   4.286   3.047
 9531TIP3    H128550   6.216   4.350   3.074
 9531TIP3    H228551   6.282   4.221   3.118
 9532TIP3   OH228552   5.170   1.989   1.773
 9532TIP3    H128553   5.261   1.962   1.771
 9532TIP3    H228554   5.147   1.989   1.866
 9533TIP3   OH228555   2.581   5.097   0.070
 9533TIP3    H128556   2.594   5.108   0.164
 9533TIP3    H228557   2.649   5.036   0.043
 9534TIP3   OH228558   5.526   4.733   6.261
 9534TIP3    H128559   5.609   4.706   6.300
 9534TIP3    H228560   5.459   4.702   6.322
 9535TIP3   OH228561   1.939   4.897   4.857
 9535TIP3    H128562   1.958   4.989   4.837
 9535TIP3    H228563   1.928   4.856   4.771
 9536TIP3   OH228564   3.110   1.990   1.328
 9536TIP3    H128565   3.059   1.938   1.267
 9536TIP3    H228566   3.133   2.069   1.279
 9537TIP3   OH228567   5.189   6.761   4.638
 9537TIP3    H128568   5.113   6.818   4.641
 9537TIP3    H228569   5.234   6.775   4.721
 9538TIP3   OH228570   5.537   3.650   0.810
 9538TIP3    H128571   5.480   3.595   0.756
 9538TIP3    H228572   5.514   3.740   0.787
 9539TIP3   OH228573   6.833   6.229   2.900
 9539TIP3    H128574   6.778   6.195   2.828
 9539TIP3    H228575   6.842   6.322   2.881
 9540TIP3   OH228576   4.358   1.758   1.869
 9540TIP3    H128577   4.296   1.703   1.820
 9540TIP3    H228578   4.407   1.804   1.801
 9541TIP3   OH228579   4.161   1.477   6.482
 9541TIP3    H128580   4.191   1.568   6.483
 9541TIP3    H228581   4.231   1.428   6.524
 9542TIP3   OH228582   7.969   0.293   5.111
 9542TIP3    H128583   7.957   0.202   5.138
 9542TIP3    H228584   8.031   0.329   5.175
 9543TIP3   OH228585   1.942   6.174   6.341
 9543TIP3    H128586   1.980   6.090   6.364
 9543TIP3    H228587   1.849   6.165   6.360
 9544TIP3   OH228588   0.092   1.239   1.872
 9544TIP3    H128589   0.144   1.191   1.807
 9544TIP3    H228590   0.004   1.242   1.835
 9545TIP3   OH228591   0.703   5.095   4.710
 9545TIP3    H128592   0.629   5.149   4.684
 9545TIP3    H228593   0.761   5.155   4.758
 9546TIP3   OH228594   1.012   0.484   6.445
 9546TIP3    H128595   0.981   0.520   6.528
 9546TIP3    H228596   1.107   0.497   6.448
 9547TIP3   OH228597   0.855   2.329   6.406
 9547TIP3    H128598   0.871   2.373   6.322
 9547TIP3    H228599   0.796   2.388   6.453
 9548TIP3   OH228600   4.689   1.546   6.161
 9548TIP3    H128601   4.750   1.473   6.173
 9548TIP3    H228602   4.718   1.613   6.223
 9549TIP3   OH228603   0.137   5.432   3.063
 9549TIP3    H128604   0.071   5.500   3.054
 9549TIP3    H228605   0.117   5.369   2.993
 9550TIP3   OH228606   8.069   3.564   5.853
 9550TIP3    H128607   7.991   3.568   5.910
 9550TIP3    H228608   8.128   3.630   5.889
 9551TIP3   OH228609   3.190   6.684   1.316
 9551TIP3    H128610   3.248   6.736   1.372
 9551TIP3    H228611   3.160   6.745   1.249
 9552TIP3   OH228612   6.616   2.658   5.890
 9552TIP3    H128613   6.659   2.596   5.831
 9552TIP3    H228614   6.680   2.673   5.960
 9553TIP3   OH228615   1.040   5.193   6.247
 9553TIP3    H128616   0.946   5.206   6.234
 9553TIP3    H228617   1.081   5.268   6.203
 9554TIP3   OH228618   0.845   5.482   5.177
 9554TIP3    H128619   0.797   5.564   5.178
 9554TIP3    H228620   0.832   5.444   5.263
 9555TIP3   OH228621   3.001   4.764   2.546
 9555TIP3    H128622   3.022   4.738   2.636
 9555TIP3    H228623   2.941   4.696   2.516
 9556TIP3   OH228624   6.062   3.388   4.062
 9556TIP3    H128625   6.101   3.306   4.033
 9556TIP3    H228626   5.974   3.364   4.091
 9557TIP3   OH228627   1.030   5.619   6.098
 9557TIP3    H128628   1.027   5.691   6.161
 9557TIP3    H228629   1.028   5.662   6.013
 9558TIP3   OH228630   3.685   7.453   6.640
 9558TIP3    H128631   3.776   7.458   6.669
 9558TIP3    H228632   3.634   7.485   6.714
 9559TIP3   OH228633   2.925   4.758   1.587
 9559TIP3    H128634   3.012   4.719   1.586
 9559TIP3    H228635   2.878   4.711   1.656
 9560TIP3   OH228636   1.634   0.636   2.379
 9560TIP3    H128637   1.644   0.731   2.371
 9560TIP3    H228638   1.613   0.621   2.471
 9561TIP3   OH228639   7.846   3.517   0.913
 9561TIP3    H128640   7.884   3.444   0.863
 9561TIP3    H228641   7.815   3.477   0.994
 9562TIP3   OH228642   7.850   0.690   5.071
 9562TIP3    H128643   7.850   0.647   4.986
 9562TIP3    H228644   7.942   0.694   5.097
 9563TIP3   OH228645   4.712   5.856   1.660
 9563TIP3    H128646   4.802   5.877   1.636
 9563TIP3    H228647   4.697   5.906   1.741
 9564TIP3   OH228648   6.097   1.004   1.404
 9564TIP3    H128649   6.133   0.917   1.386
 9564TIP3    H228650   6.086   1.044   1.317
 9565TIP3   OH228651   3.933   5.072   3.371
 9565TIP3    H128652   3.942   5.086   3.465
 9565TIP3    H228653   3.986   5.140   3.331
 9566TIP3   OH228654   3.291   3.844   2.466
 9566TIP3    H128655   3.237   3.893   2.528
 9566TIP3    H228656   3.381   3.855   2.498
 9567TIP3   OH228657   0.746   1.170   3.256
 9567TIP3    H128658   0.714   1.258   3.276
 9567TIP3    H228659   0.840   1.174   3.273
 9568TIP3   OH228660   0.047   2.008   3.682
 9568TIP3    H128661  -0.012   1.955   3.736
 9568TIP3    H228662   0.133   1.997   3.722
 9569TIP3   OH228663   0.862   2.140   6.026
 9569TIP3    H128664   0.825   2.114   5.941
 9569TIP3    H228665   0.921   2.067   6.049
 9570TIP3   OH228666   4.422   6.106   1.690
 9570TIP3    H128667   4.401   6.159   1.613
 9570TIP3    H228668   4.412   6.015   1.661
 9571TIP3   OH228669   3.145   3.737   5.710
 9571TIP3    H128670   3.227   3.743   5.760
 9571TIP3    H228671   3.157   3.797   5.637
 9572TIP3   OH228672   2.115   4.092   2.528
 9572TIP3    H128673   2.148   4.068   2.442
 9572TIP3    H228674   2.185   4.069   2.589
 9573TIP3   OH228675   0.892   2.741   0.655
 9573TIP3    H128676   0.879   2.647   0.640
 9573TIP3    H228677   0.817   2.767   0.708
 9574TIP3   OH228678   6.292   1.729   1.186
 9574TIP3    H128679   6.288   1.664   1.257
 9574TIP3    H228680   6.220   1.706   1.128
 9575TIP3   OH228681   6.194   1.525   2.473
 9575TIP3    H128682   6.213   1.562   2.559
 9575TIP3    H228683   6.155   1.440   2.491
 9576TIP3   OH228684   0.578   1.986   5.096
 9576TIP3    H128685   0.589   2.012   5.004
 9576TIP3    H228686   0.565   2.069   5.142
 9577TIP3   OH228687   6.084   2.020   1.761
 9577TIP3    H128688   6.069   2.107   1.724
 9577TIP3    H228689   6.179   2.013   1.769
 9578TIP3   OH228690   3.449   5.682   5.276
 9578TIP3    H128691   3.400   5.764   5.267
 9578TIP3    H228692   3.383   5.618   5.302
 9579TIP3   OH228693   5.468   3.253   1.077
 9579TIP3    H128694   5.383   3.234   1.117
 9579TIP3    H228695   5.470   3.197   0.999
 9580TIP3   OH228696   3.387   6.508   1.940
 9580TIP3    H128697   3.370   6.469   1.854
 9580TIP3    H228698   3.302   6.541   1.969
 9581TIP3   OH228699   3.331   5.396   3.909
 9581TIP3    H128700   3.344   5.406   4.003
 9581TIP3    H228701   3.237   5.381   3.898
 9582TIP3   OH228702   3.888   5.170   2.438
 9582TIP3    H128703   3.983   5.169   2.439
 9582TIP3    H228704   3.864   5.223   2.362
 9583TIP3   OH228705   2.733   4.089   2.391
 9583TIP3    H128706   2.650   4.107   2.436
 9583TIP3    H228707   2.770   4.176   2.375
 9584TIP3   OH228708   7.712   4.552   0.046
 9584TIP3    H128709   7.730   4.567  -0.047
 9584TIP3    H228710   7.630   4.599   0.062
 9585TIP3   OH228711   3.669   6.137   1.715
 9585TIP3    H128712   3.747   6.176   1.676
 9585TIP3    H228713   3.695   6.117   1.805
 9586TIP3   OH228714   6.791   7.654   1.874
 9586TIP3    H128715   6.836   7.590   1.928
 9586TIP3    H228716   6.755   7.603   1.802
 9587TIP3   OH228717   0.037   6.475   2.285
 9587TIP3    H128718   0.011   6.392   2.246
 9587TIP3    H228719  -0.036   6.534   2.267
 9588TIP3   OH228720   6.513   5.576   1.788
 9588TIP3    H128721   6.491   5.669   1.794
 9588TIP3    H228722   6.456   5.541   1.720
 9589TIP3   OH228723   1.424   1.061   1.811
 9589TIP3    H128724   1.466   1.100   1.734
 9589TIP3    H228725   1.484   1.078   1.883
 9590TIP3   OH228726   3.698   5.045   4.748
 9590TIP3    H128727   3.766   5.106   4.779
 9590TIP3    H228728   3.618   5.097   4.747
 9591TIP3   OH228729   4.595   7.476   0.527
 9591TIP3    H128730   4.602   7.389   0.486
 9591TIP3    H228731   4.663   7.476   0.595
 9592TIP3   OH228732   4.730   6.237   5.007
 9592TIP3    H128733   4.679   6.209   5.083
 9592TIP3    H228734   4.665   6.275   4.948
 9593TIP3   OH228735   6.670   6.952   4.356
 9593TIP3    H128736   6.760   6.929   4.330
 9593TIP3    H228737   6.680   6.995   4.440
 9594TIP3   OH228738   2.721   2.239   3.553
 9594TIP3    H128739   2.732   2.334   3.549
 9594TIP3    H228740   2.809   2.205   3.565
 9595TIP3   OH228741   4.168   5.743   3.769
 9595TIP3    H128742   4.135   5.744   3.680
 9595TIP3    H228743   4.198   5.832   3.785
 9596TIP3   OH228744   3.543   0.019   4.813
 9596TIP3    H128745   3.575   0.086   4.752
 9596TIP3    H228746   3.467   0.059   4.855
 9597TIP3   OH228747   6.442   7.046   3.872
 9597TIP3    H128748   6.398   7.130   3.883
 9597TIP3    H228749   6.371   6.983   3.859
 9598TIP3   OH228750   0.546   2.022   1.038
 9598TIP3    H128751   0.475   1.967   1.072
 9598TIP3    H228752   0.506   2.069   0.965
 9599TIP3   OH228753   3.832   4.201   5.281
 9599TIP3    H128754   3.917   4.159   5.294
 9599TIP3    H228755   3.845   4.255   5.203
 9600TIP3   OH228756   1.333   6.884   3.975
 9600TIP3    H128757   1.363   6.930   3.896
 9600TIP3    H228758   1.362   6.939   4.047
 9601TIP3   OH228759   3.896   3.592   3.717
 9601TIP3    H128760   3.865   3.668   3.667
 9601TIP3    H228761   3.819   3.535   3.723
 9602TIP3   OH228762   2.967   2.938   0.836
 9602TIP3    H128763   3.034   2.957   0.770
 9602TIP3    H228764   2.915   2.868   0.797
 9603TIP3   OH228765   8.168   4.705   3.767
 9603TIP3    H128766   8.217   4.720   3.849
 9603TIP3    H228767   8.142   4.613   3.772
 9604TIP3   OH228768   5.763   3.555   3.589
 9604TIP3    H128769   5.717   3.522   3.511
 9604TIP3    H228770   5.824   3.619   3.555
 9605TIP3   OH228771   3.156   7.345   3.872
 9605TIP3    H128772   3.111   7.301   3.801
 9605TIP3    H228773   3.210   7.277   3.913
 9606TIP3   OH228774   4.525   4.680   0.039
 9606TIP3    H128775   4.598   4.742   0.030
 9606TIP3    H228776   4.506   4.652  -0.051
 9607TIP3   OH228777   0.006   4.014   4.093
 9607TIP3    H128778  -0.024   4.095   4.133
 9607TIP3    H228779   0.055   3.970   4.163
 9608TIP3   OH228780   5.693   1.404   5.932
 9608TIP3    H128781   5.617   1.446   5.972
 9608TIP3    H228782   5.656   1.336   5.875
 9609TIP3   OH228783   6.658   5.735   4.114
 9609TIP3    H128784   6.729   5.748   4.176
 9609TIP3    H228785   6.625   5.823   4.096
 9610TIP3   OH228786   1.087   1.743   2.712
 9610TIP3    H128787   1.121   1.698   2.635
 9610TIP3    H228788   1.100   1.836   2.693
 9611TIP3   OH228789   7.941   2.519   0.673
 9611TIP3    H128790   7.927   2.485   0.762
 9611TIP3    H228791   7.855   2.552   0.647
 9612TIP3   OH228792   3.243   7.028   2.106
 9612TIP3    H128793   3.167   6.972   2.091
 9612TIP3    H228794   3.258   7.071   2.022
 9613TIP3   OH228795   0.318   6.509   0.366
 9613TIP3    H128796   0.401   6.471   0.338
 9613TIP3    H228797   0.252   6.445   0.339
 9614TIP3   OH228798   4.005   2.100   0.049
 9614TIP3    H128799   4.088   2.053   0.047
 9614TIP3    H228800   3.990   2.126  -0.041
 9615TIP3   OH228801   2.964   0.561   0.651
 9615TIP3    H128802   3.008   0.645   0.665
 9615TIP3    H228803   2.992   0.506   0.724
 9616TIP3   OH228804   0.533   2.799   2.202
 9616TIP3    H128805   0.472   2.813   2.130
 9616TIP3    H228806   0.619   2.821   2.165
 9617TIP3   OH228807   7.187   6.760   3.587
 9617TIP3    H128808   7.101   6.797   3.607
 9617TIP3    H228809   7.244   6.836   3.577
 9618TIP3   OH228810   0.584   4.968   0.252
 9618TIP3    H128811   0.535   4.907   0.198
 9618TIP3    H228812   0.663   4.986   0.201
 9619TIP3   OH228813   7.734   1.038   4.397
 9619TIP3    H128814   7.680   0.961   4.385
 9619TIP3    H228815   7.722   1.089   4.316
 9620TIP3   OH228816   1.449   5.190   5.673
 9620TIP3    H128817   1.451   5.285   5.661
 9620TIP3    H228818   1.357   5.170   5.690
 9621TIP3   OH228819   7.509   1.701   0.021
 9621TIP3    H128820   7.500   1.619  -0.028
 9621TIP3    H228821   7.592   1.692   0.068
 9622TIP3   OH228822   0.928   1.327   3.713
 9622TIP3    H128823   0.998   1.269   3.744
 9622TIP3    H228824   0.973   1.390   3.656
 9623TIP3   OH228825   5.359   0.088   4.057
 9623TIP3    H128826   5.357   0.031   4.134
 9623TIP3    H228827   5.439   0.064   4.011
 9624TIP3   OH228828   0.440   7.699   2.058
 9624TIP3    H128829   0.384   7.717   1.983
 9624TIP3    H228830   0.501   7.633   2.026
 9625TIP3   OH228831   2.646   2.727   2.045
 9625TIP3    H128832   2.671   2.653   1.989
 9625TIP3    H228833   2.550   2.720   2.052
 9626TIP3   OH228834   3.181   2.089   4.498
 9626TIP3    H128835   3.222   2.050   4.421
 9626TIP3    H228836   3.088   2.064   4.491
 9627TIP3   OH228837   2.885   2.887   3.382
 9627TIP3    H128838   2.833   2.924   3.311
 9627TIP3    H228839   2.851   2.930   3.461
 9628TIP3   OH228840   6.879   5.238   0.603
 9628TIP3    H128841   6.848   5.148   0.608
 9628TIP3    H228842   6.931   5.251   0.682
 9629TIP3   OH228843   6.368   1.505   0.909
 9629TIP3    H128844   6.286   1.475   0.949
 9629TIP3    H228845   6.404   1.568   0.972
 9630TIP3   OH228846   6.861   0.668   3.442
 9630TIP3    H128847   6.847   0.600   3.376
 9630TIP3    H228848   6.842   0.625   3.525
 9631TIP3   OH228849   4.644   0.499   0.585
 9631TIP3    H128850   4.685   0.452   0.513
 9631TIP3    H228851   4.651   0.439   0.660
 9632TIP3   OH228852   1.023   3.136   4.141
 9632TIP3    H128853   0.952   3.197   4.121
 9632TIP3    H228854   1.103   3.185   4.124
 9633TIP3   OH228855   0.796   5.806   5.876
 9633TIP3    H128856   0.781   5.861   5.953
 9633TIP3    H228857   0.761   5.721   5.900
 9634TIP3   OH228858   3.178   0.825   3.117
 9634TIP3    H128859   3.176   0.730   3.125
 9634TIP3    H228860   3.261   0.851   3.155
 9635TIP3   OH228861   6.183   0.134   0.838
 9635TIP3    H128862   6.158   0.099   0.753
 9635TIP3    H228863   6.154   0.226   0.836
 9636TIP3   OH228864   4.297   5.644   2.090
 9636TIP3    H128865   4.323   5.654   1.998
 9636TIP3    H228866   4.248   5.562   2.093
 9637TIP3   OH228867   2.452   4.364   6.306
 9637TIP3    H128868   2.514   4.380   6.235
 9637TIP3    H228869   2.401   4.445   6.312
 9638TIP3   OH228870   2.630   7.519   2.898
 9638TIP3    H128871   2.603   7.585   2.835
 9638TIP3    H228872   2.599   7.552   2.983
 9639TIP3   OH228873   7.667   3.278   1.452
 9639TIP3    H128874   7.616   3.328   1.387
 9639TIP3    H228875   7.758   3.300   1.432
 9640TIP3   OH228876   7.702   6.764   0.489
 9640TIP3    H128877   7.609   6.776   0.512
 9640TIP3    H228878   7.746   6.750   0.573
 9641TIP3   OH228879   7.365   3.248   1.518
 9641TIP3    H128880   7.306   3.180   1.487
 9641TIP3    H228881   7.332   3.328   1.477
 9642TIP3   OH228882   5.778   3.646   1.239
 9642TIP3    H128883   5.726   3.612   1.166
 9642TIP3    H228884   5.724   3.714   1.278
 9643TIP3   OH228885   2.258   6.803   4.820
 9643TIP3    H128886   2.182   6.765   4.866
 9643TIP3    H228887   2.241   6.785   4.728
 9644TIP3   OH228888   1.286   7.489   1.177
 9644TIP3    H128889   1.287   7.420   1.244
 9644TIP3    H228890   1.325   7.448   1.100
 9645TIP3   OH228891   6.759   3.309   1.592
 9645TIP3    H128892   6.734   3.228   1.637
 9645TIP3    H228893   6.850   3.297   1.568
 9646TIP3   OH228894   3.804   0.078   0.886
 9646TIP3    H128895   3.824   0.024   0.963
 9646TIP3    H228896   3.884   0.075   0.834
 9647TIP3   OH228897   4.095   0.626   4.605
 9647TIP3    H128898   4.057   0.542   4.630
 9647TIP3    H228899   4.161   0.604   4.539
 9648TIP3   OH228900   7.630   5.467   2.753
 9648TIP3    H128901   7.538   5.447   2.769
 9648TIP3    H228902   7.678   5.415   2.818
 9649TIP3   OH228903   0.832   2.288   5.300
 9649TIP3    H128904   0.850   2.207   5.253
 9649TIP3    H228905   0.914   2.338   5.294
 9650TIP3   OH228906   0.574   5.076   6.707
 9650TIP3    H128907   0.624   5.030   6.775
 9650TIP3    H228908   0.616   5.162   6.700
 9651TIP3   OH228909   6.559   0.581   2.600
 9651TIP3    H128910   6.587   0.547   2.515
 9651TIP3    H228911   6.558   0.504   2.658
 9652TIP3   OH228912   4.944   7.227   4.928
 9652TIP3    H128913   4.920   7.175   5.005
 9652TIP3    H228914   4.886   7.195   4.859
 9653TIP3   OH228915   6.658   5.864   3.510
 9653TIP3    H128916   6.743   5.902   3.488
 9653TIP3    H228917   6.674   5.770   3.514
 9654TIP3   OH228918   2.378   2.730   4.834
 9654TIP3    H128919   2.301   2.754   4.782
 9654TIP3    H228920   2.410   2.650   4.793
 9655TIP3   OH228921   7.072   2.062   2.892
 9655TIP3    H128922   7.074   2.156   2.908
 9655TIP3    H228923   7.103   2.052   2.802
 9656TIP3   OH228924   6.060   5.097   4.255
 9656TIP3    H128925   6.126   5.120   4.320
 9656TIP3    H228926   5.980   5.139   4.285
 9657TIP3   OH228927   4.522   4.955   3.620
 9657TIP3    H128928   4.501   4.886   3.683
 9657TIP3    H228929   4.438   4.999   3.603
 9658TIP3   OH228930   1.359   2.016   4.323
 9658TIP3    H128931   1.368   1.972   4.239
 9658TIP3    H228932   1.436   2.073   4.328
 9659TIP3   OH228933   2.322   0.316   6.316
 9659TIP3    H128934   2.376   0.238   6.329
 9659TIP3    H228935   2.240   0.295   6.360
 9660TIP3   OH228936   7.704   3.829   3.906
 9660TIP3    H128937   7.693   3.739   3.936
 9660TIP3    H228938   7.658   3.882   3.971
 9661TIP3   OH228939   6.696   7.593   5.468
 9661TIP3    H128940   6.712   7.551   5.384
 9661TIP3    H228941   6.606   7.570   5.490
 9662TIP3   OH228942   5.843   1.054   2.061
 9662TIP3    H128943   5.837   0.978   2.002
 9662TIP3    H228944   5.782   1.118   2.024
 9663TIP3   OH228945   0.082   4.836   3.946
 9663TIP3    H128946   0.022   4.910   3.948
 9663TIP3    H228947   0.084   4.804   4.036
 9664TIP3   OH228948   0.915   1.474   6.192
 9664TIP3    H128949   0.855   1.541   6.224
 9664TIP3    H228950   0.860   1.416   6.139
 9665TIP3   OH228951   0.793   2.799   0.074
 9665TIP3    H128952   0.766   2.729   0.016
 9665TIP3    H228953   0.718   2.859   0.076
 9666TIP3   OH228954   6.726   7.287   0.240
 9666TIP3    H128955   6.802   7.265   0.187
 9666TIP3    H228956   6.712   7.211   0.296
 9667TIP3   OH228957   2.936   3.644   4.563
 9667TIP3    H128958   2.895   3.633   4.649
 9667TIP3    H228959   2.914   3.564   4.515
 9668TIP3   OH228960   7.229   2.166   6.008
 9668TIP3    H128961   7.213   2.199   5.920
 9668TIP3    H228962   7.277   2.084   5.994
 9669TIP3   OH228963   0.332   6.897   3.956
 9669TIP3    H128964   0.331   6.829   4.024
 9669TIP3    H228965   0.250   6.944   3.969
 9670TIP3   OH228966   5.452   7.527   5.971
 9670TIP3    H128967   5.445   7.544   6.065
 9670TIP3    H228968   5.547   7.523   5.955
 9671TIP3   OH228969   7.399   0.170   5.399
 9671TIP3    H128970   7.388   0.221   5.480
 9671TIP3    H228971   7.339   0.211   5.337
 9672TIP3   OH228972   5.776   5.054   0.568
 9672TIP3    H128973   5.743   5.144   0.573
 9672TIP3    H228974   5.865   5.060   0.604
 9673TIP3   OH228975   5.288   1.027   5.060
 9673TIP3    H128976   5.299   1.049   4.967
 9673TIP3    H228977   5.239   1.101   5.096
 9674TIP3   OH228978   6.118   7.692   4.881
 9674TIP3    H128979   6.098   7.695   4.788
 9674TIP3    H228980   6.088   7.776   4.915
 9675TIP3   OH228981   5.852   2.086   3.691
 9675TIP3    H128982   5.792   2.134   3.748
 9675TIP3    H228983   5.924   2.147   3.675
 9676TIP3   OH228984   0.313   3.987   2.885
 9676TIP3    H128985   0.393   3.964   2.837
 9676TIP3    H228986   0.272   3.902   2.904
 9677TIP3   OH228987   6.792   5.214   1.577
 9677TIP3    H128988   6.710   5.169   1.557
 9677TIP3    H228989   6.823   5.173   1.658
 9678TIP3   OH228990   7.428   5.083   3.838
 9678TIP3    H128991   7.453   5.164   3.883
 9678TIP3    H228992   7.339   5.066   3.867
 9679TIP3   OH228993   7.335   4.871   6.762
 9679TIP3    H128994   7.425   4.839   6.755
 9679TIP3    H228995   7.337   4.957   6.720
 9680TIP3   OH228996   4.566   3.206   2.197
 9680TIP3    H128997   4.609   3.147   2.136
 9680TIP3    H228998   4.578   3.165   2.283
 9681TIP3   OH228999   4.834   3.380   6.744
 9681TIP3    H129000   4.803   3.293   6.768
 9681TIP3    H229001   4.820   3.385   6.649
 9682TIP3   OH229002   0.262   1.662   1.291
 9682TIP3    H129003   0.267   1.704   1.205
 9682TIP3    H229004   0.170   1.638   1.299
 9683TIP3   OH229005   5.228   6.538   6.174
 9683TIP3    H129006   5.221   6.492   6.090
 9683TIP3    H229007   5.158   6.604   6.171
 9684TIP3   OH229008   2.684   3.434   4.062
 9684TIP3    H129009   2.714   3.521   4.085
 9684TIP3    H229010   2.589   3.438   4.071
 9685TIP3   OH229011   0.324   3.678   4.886
 9685TIP3    H129012   0.392   3.621   4.853
 9685TIP3    H229013   0.368   3.761   4.903
 9686TIP3   OH229014   5.317   7.775   0.147
 9686TIP3    H129015   5.338   7.686   0.119
 9686TIP3    H229016   5.244   7.764   0.209
 9687TIP3   OH229017   3.373   2.283   2.155
 9687TIP3    H129018   3.442   2.259   2.217
 9687TIP3    H229019   3.383   2.377   2.142
 9688TIP3   OH229020   3.315   1.486   0.622
 9688TIP3    H129021   3.286   1.457   0.536
 9688TIP3    H229022   3.408   1.465   0.625
 9689TIP3   OH229023   4.963   7.495   1.298
 9689TIP3    H129024   4.955   7.403   1.270
 9689TIP3    H229025   5.043   7.526   1.255
 9690TIP3   OH229026   2.310   1.641   1.927
 9690TIP3    H129027   2.359   1.720   1.949
 9690TIP3    H229028   2.372   1.570   1.941
 9691TIP3   OH229029   6.978   5.704   0.697
 9691TIP3    H129030   7.066   5.734   0.675
 9691TIP3    H229031   6.941   5.675   0.614
 9692TIP3   OH229032   0.486   7.749   3.299
 9692TIP3    H129033   0.448   7.815   3.241
 9692TIP3    H229034   0.574   7.734   3.263
 9693TIP3   OH229035   5.617   1.501   1.647
 9693TIP3    H129036   5.614   1.542   1.561
 9693TIP3    H229037   5.708   1.508   1.675
 9694TIP3   OH229038   4.426   4.295   0.547
 9694TIP3    H129039   4.417   4.203   0.522
 9694TIP3    H229040   4.358   4.340   0.496
 9695TIP3   OH229041   2.594   2.268   3.259
 9695TIP3    H129042   2.579   2.302   3.170
 9695TIP3    H229043   2.574   2.342   3.316
 9696TIP3   OH229044   2.822   4.942   6.364
 9696TIP3    H129045   2.736   4.902   6.351
 9696TIP3    H229046   2.873   4.915   6.288
 9697TIP3   OH229047   6.463   7.332   3.014
 9697TIP3    H129048   6.490   7.315   3.104
 9697TIP3    H229049   6.369   7.313   3.013
 9698TIP3   OH229050   4.407   0.473   2.229
 9698TIP3    H129051   4.325   0.513   2.255
 9698TIP3    H229052   4.387   0.430   2.146
 9699TIP3   OH229053   0.849   2.983   4.596
 9699TIP3    H129054   0.945   2.982   4.598
 9699TIP3    H229055   0.825   2.905   4.545
 9700TIP3   OH229056   0.221   1.507   0.245
 9700TIP3    H129057   0.159   1.510   0.317
 9700TIP3    H229058   0.267   1.423   0.256
 9701TIP3   OH229059   3.732   1.024   1.221
 9701TIP3    H129060   3.725   1.101   1.164
 9701TIP3    H229061   3.711   1.056   1.308
 9702TIP3   OH229062   0.331   3.242   1.475
 9702TIP3    H129063   0.346   3.240   1.570
 9702TIP3    H229064   0.364   3.327   1.447
 9703TIP3   OH229065   3.236   4.600   1.912
 9703TIP3    H129066   3.309   4.662   1.905
 9703TIP3    H229067   3.221   4.591   2.006
 9704TIP3   OH229068   7.249   2.815   0.842
 9704TIP3    H129069   7.220   2.732   0.878
 9704TIP3    H229070   7.199   2.881   0.890
 9705TIP3   OH229071   0.115   0.713   6.245
 9705TIP3    H129072   0.134   0.708   6.339
 9705TIP3    H229073   0.197   0.686   6.204
 9706TIP3   OH229074   4.696   2.540   0.674
 9706TIP3    H129075   4.685   2.554   0.769
 9706TIP3    H229076   4.790   2.532   0.663
 9707TIP3   OH229077   0.226   3.007   1.352
 9707TIP3    H129078   0.276   3.060   1.415
 9707TIP3    H229079   0.280   3.007   1.273
 9708TIP3   OH229080   1.705   6.820   1.098
 9708TIP3    H129081   1.657   6.739   1.114
 9708TIP3    H229082   1.797   6.793   1.097
 9709TIP3   OH229083   1.948   5.216   6.047
 9709TIP3    H129084   1.957   5.132   6.003
 9709TIP3    H229085   1.888   5.266   5.990
 9710TIP3   OH229086   1.660   5.436   0.854
 9710TIP3    H129087   1.633   5.497   0.786
 9710TIP3    H229088   1.747   5.466   0.881
 9711TIP3   OH229089   3.828   2.006   5.119
 9711TIP3    H129090   3.828   2.074   5.186
 9711TIP3    H229091   3.774   1.936   5.156
 9712TIP3   OH229092   4.910   5.194   3.444
 9712TIP3    H129093   4.937   5.178   3.354
 9712TIP3    H229094   4.823   5.154   3.450
 9713TIP3   OH229095   6.520   1.959   0.046
 9713TIP3    H129096   6.580   1.949   0.119
 9713TIP3    H229097   6.550   1.895  -0.019
 9714TIP3   OH229098   4.446   2.690   0.855
 9714TIP3    H129099   4.520   2.673   0.914
 9714TIP3    H229100   4.438   2.785   0.854
 9715TIP3   OH229101   3.760   1.672   2.314
 9715TIP3    H129102   3.844   1.642   2.279
 9715TIP3    H229103   3.771   1.666   2.409
 9716TIP3   OH229104   2.431   2.656   2.356
 9716TIP3    H129105   2.374   2.700   2.419
 9716TIP3    H229106   2.378   2.583   2.323
 9717TIP3   OH229107   5.650   7.498   3.018
 9717TIP3    H129108   5.725   7.552   2.996
 9717TIP3    H229109   5.678   7.408   3.001
 9718TIP3   OH229110   1.697   7.265   5.268
 9718TIP3    H129111   1.775   7.315   5.245
 9718TIP3    H229112   1.712   7.178   5.232
 9719TIP3   OH229113   5.875   0.779   0.573
 9719TIP3    H129114   5.926   0.706   0.608
 9719TIP3    H229115   5.928   0.813   0.501
 9720TIP3   OH229116   3.891   5.838   0.937
 9720TIP3    H129117   3.847   5.863   1.018
 9720TIP3    H229118   3.901   5.743   0.943
 9721TIP3   OH229119   7.935   5.180   2.495
 9721TIP3    H129120   7.999   5.112   2.472
 9721TIP3    H229121   7.961   5.256   2.443
 9722TIP3   OH229122   2.933   1.942   1.103
 9722TIP3    H129123   2.901   2.033   1.106
 9722TIP3    H229124   2.854   1.889   1.092
 9723TIP3   OH229125   1.949   0.644   4.732
 9723TIP3    H129126   1.871   0.660   4.679
 9723TIP3    H229127   1.999   0.725   4.726
 9724TIP3   OH229128   0.711   4.601   5.867
 9724TIP3    H129129   0.666   4.685   5.882
 9724TIP3    H229130   0.736   4.603   5.775
 9725TIP3   OH229131   2.137   5.380   6.149
 9725TIP3    H129132   2.074   5.335   6.092
 9725TIP3    H229133   2.082   5.436   6.205
 9726TIP3   OH229134   4.962   3.625   1.443
 9726TIP3    H129135   4.982   3.624   1.537
 9726TIP3    H229136   5.013   3.552   1.407
 9727TIP3   OH229137   2.250   4.099   4.167
 9727TIP3    H129138   2.226   4.085   4.259
 9727TIP3    H229139   2.345   4.107   4.168
 9728TIP3   OH229140   5.821   0.497   2.401
 9728TIP3    H129141   5.803   0.442   2.477
 9728TIP3    H229142   5.909   0.532   2.417
 9729TIP3   OH229143   1.965   2.285   5.177
 9729TIP3    H129144   2.052   2.305   5.210
 9729TIP3    H229145   1.931   2.220   5.239
 9730TIP3   OH229146   2.106   5.680   0.076
 9730TIP3    H129147   2.071   5.717  -0.005
 9730TIP3    H229148   2.189   5.641   0.050
 9731TIP3   OH229149   4.339   5.010   3.373
 9731TIP3    H129150   4.310   4.921   3.351
 9731TIP3    H229151   4.384   5.041   3.294
 9732TIP3   OH229152   0.765   3.036   3.516
 9732TIP3    H129153   0.696   3.093   3.549
 9732TIP3    H229154   0.770   2.964   3.579
 9733TIP3   OH229155   0.170   1.399   1.544
 9733TIP3    H129156   0.111   1.442   1.482
 9733TIP3    H229157   0.187   1.466   1.611
 9734TIP3   OH229158   7.730   1.522   3.906
 9734TIP3    H129159   7.786   1.448   3.885
 9734TIP3    H229160   7.644   1.496   3.873
 9735TIP3   OH229161   7.676   2.684   4.850
 9735TIP3    H129162   7.639   2.737   4.779
 9735TIP3    H229163   7.726   2.746   4.903
 9736TIP3   OH229164   0.176   3.411   4.200
 9736TIP3    H129165   0.172   3.506   4.191
 9736TIP3    H229166   0.086   3.381   4.187
 9737TIP3   OH229167   1.892   7.660   0.288
 9737TIP3    H129168   1.971   7.715   0.289
 9737TIP3    H229169   1.854   7.670   0.375
 9738TIP3   OH229170   7.600   3.079   2.569
 9738TIP3    H129171   7.574   3.127   2.490
 9738TIP3    H229172   7.695   3.072   2.563
 9739TIP3   OH229173   0.980   7.536   4.257
 9739TIP3    H129174   0.942   7.449   4.243
 9739TIP3    H229175   1.005   7.536   4.350
 9740TIP3   OH229176   1.494   4.502   5.548
 9740TIP3    H129177   1.422   4.554   5.513
 9740TIP3    H229178   1.532   4.557   5.617
 9741TIP3   OH229179   7.377   3.308   6.184
 9741TIP3    H129180   7.454   3.363   6.199
 9741TIP3    H229181   7.322   3.322   6.261
 9742TIP3   OH229182   0.556   5.915   4.318
 9742TIP3    H129183   0.526   5.915   4.227
 9742TIP3    H229184   0.638   5.866   4.316
 9743TIP3   OH229185   1.193   7.053   4.862
 9743TIP3    H129186   1.113   7.093   4.895
 9743TIP3    H229187   1.169   7.017   4.777
 9744TIP3   OH229188   5.267   5.624   3.136
 9744TIP3    H129189   5.341   5.565   3.123
 9744TIP3    H229190   5.192   5.567   3.148
 9745TIP3   OH229191   1.637   1.093   4.949
 9745TIP3    H129192   1.704   1.139   4.999
 9745TIP3    H229193   1.633   1.140   4.866
 9746TIP3   OH229194   3.829   1.111   2.690
 9746TIP3    H129195   3.915   1.099   2.731
 9746TIP3    H229196   3.827   1.047   2.619
 9747TIP3   OH229197   2.226   0.462   0.052
 9747TIP3    H129198   2.196   0.513  -0.024
 9747TIP3    H229199   2.317   0.440   0.032
 9748TIP3   OH229200   0.457   1.534   3.229
 9748TIP3    H129201   0.541   1.492   3.247
 9748TIP3    H229202   0.462   1.618   3.275
 9749TIP3   OH229203   7.409   0.464   0.433
 9749TIP3    H129204   7.390   0.461   0.527
 9749TIP3    H229205   7.494   0.422   0.425
 9750TIP3   OH229206   2.060   2.387   3.597
 9750TIP3    H129207   2.022   2.472   3.621
 9750TIP3    H229208   2.135   2.409   3.542
 9751TIP3   OH229209   2.162   0.111   5.768
 9751TIP3    H129210   2.083   0.065   5.797
 9751TIP3    H229211   2.173   0.086   5.676
 9752TIP3   OH229212   4.233   3.148   0.640
 9752TIP3    H129213   4.207   3.153   0.732
 9752TIP3    H229214   4.315   3.197   0.636
 9753TIP3   OH229215   8.016   2.494   5.075
 9753TIP3    H129216   8.013   2.437   4.998
 9753TIP3    H229217   8.109   2.506   5.093
 9754TIP3   OH229218   3.842   6.441   1.359
 9754TIP3    H129219   3.822   6.513   1.300
 9754TIP3    H229220   3.756   6.411   1.389
 9755TIP3   OH229221   7.443   0.411   1.274
 9755TIP3    H129222   7.351   0.394   1.296
 9755TIP3    H229223   7.438   0.479   1.206
 9756TIP3   OH229224   3.194   7.374   6.324
 9756TIP3    H129225   3.116   7.421   6.293
 9756TIP3    H229226   3.266   7.436   6.310
 9757TIP3   OH229227   4.406   2.259   5.565
 9757TIP3    H129228   4.373   2.169   5.561
 9757TIP3    H229229   4.439   2.276   5.477
 9758TIP3   OH229230   0.985   3.658   5.796
 9758TIP3    H129231   0.971   3.620   5.709
 9758TIP3    H229232   1.004   3.750   5.779
 9759TIP3   OH229233   7.449   5.503   6.570
 9759TIP3    H129234   7.360   5.495   6.534
 9759TIP3    H229235   7.453   5.436   6.638
 9760TIP3   OH229236   2.546   1.763   6.607
 9760TIP3    H129237   2.456   1.731   6.594
 9760TIP3    H229238   2.544   1.805   6.692
 9761TIP3   OH229239   6.845   7.179   4.215
 9761TIP3    H129240   6.816   7.167   4.305
 9761TIP3    H229241   6.785   7.124   4.163
 9762TIP3   OH229242   1.886   5.958   2.631
 9762TIP3    H129243   1.819   5.938   2.696
 9762TIP3    H229244   1.893   6.054   2.632
 9763TIP3   OH229245   8.233   4.274   4.220
 9763TIP3    H129246   8.252   4.309   4.307
 9763TIP3    H229247   8.283   4.329   4.160
 9764TIP3   OH229248   0.565   4.489   0.883
 9764TIP3    H129249   0.586   4.430   0.811
 9764TIP3    H229250   0.510   4.557   0.844
 9765TIP3   OH229251   6.345   5.298   1.042
 9765TIP3    H129252   6.391   5.305   0.958
 9765TIP3    H229253   6.381   5.219   1.082
 9766TIP3   OH229254   4.793   5.758   3.367
 9766TIP3    H129255   4.763   5.679   3.321
 9766TIP3    H229256   4.795   5.732   3.460
 9767TIP3   OH229257   1.714   2.400   6.536
 9767TIP3    H129258   1.747   2.403   6.626
 9767TIP3    H229259   1.739   2.313   6.505
 9768TIP3   OH229260   0.518   7.508   6.485
 9768TIP3    H129261   0.450   7.519   6.419
 9768TIP3    H229262   0.480   7.545   6.565
 9769TIP3   OH229263   6.005   7.070   0.185
 9769TIP3    H129264   5.984   7.048   0.095
 9769TIP3    H229265   6.097   7.046   0.195
 9770TIP3   OH229266   6.786   4.001   5.557
 9770TIP3    H129267   6.707   4.050   5.582
 9770TIP3    H229268   6.859   4.059   5.579
 9771TIP3   OH229269   3.703   1.714   5.923
 9771TIP3    H129270   3.618   1.758   5.917
 9771TIP3    H229271   3.698   1.643   5.859
 9772TIP3   OH229272   0.743   3.812   2.599
 9772TIP3    H129273   0.741   3.723   2.635
 9772TIP3    H229274   0.669   3.815   2.539
 9773TIP3   OH229275   3.393   5.180   2.767
 9773TIP3    H129276   3.428   5.266   2.789
 9773TIP3    H229277   3.347   5.192   2.684
 9774TIP3   OH229278   0.485   1.394   5.791
 9774TIP3    H129279   0.566   1.429   5.828
 9774TIP3    H229280   0.457   1.327   5.853
 9775TIP3   OH229281   0.683   6.128   0.601
 9775TIP3    H129282   0.776   6.122   0.620
 9775TIP3    H229283   0.662   6.044   0.560
 9776TIP3   OH229284   3.988   0.404   3.729
 9776TIP3    H129285   4.059   0.467   3.742
 9776TIP3    H229286   3.960   0.417   3.639
 9777TIP3   OH229287   2.781   3.630   0.110
 9777TIP3    H129288   2.734   3.714   0.107
 9777TIP3    H229289   2.734   3.578   0.175
 9778TIP3   OH229290   2.986   5.181   1.947
 9778TIP3    H129291   2.930   5.106   1.968
 9778TIP3    H229292   3.070   5.142   1.921
 9779TIP3   OH229293   1.232   6.598   3.264
 9779TIP3    H129294   1.279   6.515   3.269
 9779TIP3    H229295   1.291   6.663   3.302
 9780TIP3   OH229296   2.540   0.161   6.674
 9780TIP3    H129297   2.532   0.243   6.722
 9780TIP3    H229298   2.451   0.125   6.673
 9781TIP3   OH229299   3.624   2.343   1.727
 9781TIP3    H129300   3.687   2.358   1.657
 9781TIP3    H229301   3.674   2.358   1.807
 9782TIP3   OH229302   1.723   5.989   2.044
 9782TIP3    H129303   1.779   6.060   2.076
 9782TIP3    H229304   1.634   6.022   2.058
 9783TIP3   OH229305   2.652   0.783   3.540
 9783TIP3    H129306   2.722   0.730   3.579
 9783TIP3    H229307   2.652   0.864   3.591
 9784TIP3   OH229308   6.637   4.089   2.629
 9784TIP3    H129309   6.644   4.171   2.677
 9784TIP3    H229310   6.725   4.051   2.634
 9785TIP3   OH229311   6.820   4.123   1.999
 9785TIP3    H129312   6.873   4.171   1.934
 9785TIP3    H229313   6.832   4.031   1.976
 9786TIP3   OH229314   6.497   7.468   2.608
 9786TIP3    H129315   6.571   7.447   2.550
 9786TIP3    H229316   6.423   7.422   2.570
 9787TIP3   OH229317   5.528   1.358   2.150
 9787TIP3    H129318   5.572   1.304   2.084
 9787TIP3    H229319   5.552   1.448   2.127
 9788TIP3   OH229320   1.549   1.159   0.332
 9788TIP3    H129321   1.512   1.205   0.257
 9788TIP3    H229322   1.623   1.110   0.296
 9789TIP3   OH229323   2.063   7.832   6.033
 9789TIP3    H129324   2.002   7.772   6.076
 9789TIP3    H229325   2.145   7.822   6.081
 9790TIP3   OH229326   4.755   3.083   1.571
 9790TIP3    H129327   4.792   3.159   1.526
 9790TIP3    H229328   4.739   3.113   1.660
 9791TIP3   OH229329   0.806   1.258   1.967
 9791TIP3    H129330   0.723   1.264   1.920
 9791TIP3    H229331   0.786   1.205   2.044
 9792TIP3   OH229332   2.195   3.919   3.088
 9792TIP3    H129333   2.132   3.982   3.122
 9792TIP3    H229334   2.155   3.885   3.008
 9793TIP3   OH229335   7.671   2.237   2.403
 9793TIP3    H129336   7.626   2.260   2.322
 9793TIP3    H229337   7.623   2.161   2.436
 9794TIP3   OH229338   1.250   4.551   6.742
 9794TIP3    H129339   1.219   4.584   6.827
 9794TIP3    H229340   1.175   4.559   6.684
 9795TIP3   OH229341   4.926   3.210   6.432
 9795TIP3    H129342   4.984   3.280   6.462
 9795TIP3    H229343   4.864   3.255   6.374
 9796TIP3   OH229344   0.632   6.232   6.198
 9796TIP3    H129345   0.613   6.204   6.288
 9796TIP3    H229346   0.711   6.184   6.174
 9797TIP3   OH229347   4.873   0.323   6.692
 9797TIP3    H129348   4.835   0.407   6.667
 9797TIP3    H229349   4.882   0.329   6.788
 9798TIP3   OH229350   1.545   6.451   1.704
 9798TIP3    H129351   1.471   6.502   1.736
 9798TIP3    H229352   1.581   6.504   1.632
 9799TIP3   OH229353   2.480   2.397   6.539
 9799TIP3    H129354   2.423   2.454   6.487
 9799TIP3    H229355   2.464   2.423   6.630
 9800TIP3   OH229356   2.218   3.729   1.105
 9800TIP3    H129357   2.174   3.687   1.032
 9800TIP3    H229358   2.243   3.657   1.163
 9801TIP3   OH229359   0.219   3.915   6.547
 9801TIP3    H129360   0.195   3.823   6.536
 9801TIP3    H229361   0.245   3.944   6.460
 9802TIP3   OH229362   0.801   6.209   4.463
 9802TIP3    H129363   0.884   6.256   4.453
 9802TIP3    H229364   0.810   6.164   4.547
 9803TIP3   OH229365   6.309   2.214   1.106
 9803TIP3    H129366   6.255   2.267   1.165
 9803TIP3    H229367   6.390   2.264   1.095
 9804TIP3   OH229368   3.230   0.487   1.034
 9804TIP3    H129369   3.206   0.513   1.123
 9804TIP3    H229370   3.307   0.431   1.046
 9805TIP3   OH229371   4.729   2.298   3.020
 9805TIP3    H129372   4.779   2.317   3.100
 9805TIP3    H229373   4.780   2.339   2.950
 9806TIP3   OH229374   2.975   2.655   4.145
 9806TIP3    H129375   3.045   2.706   4.186
 9806TIP3    H229376   2.895   2.699   4.170
 9807TIP3   OH229377   1.993   6.259   2.356
 9807TIP3    H129378   1.971   6.212   2.436
 9807TIP3    H229379   2.089   6.264   2.357
 9808TIP3   OH229380   6.822   5.380   6.108
 9808TIP3    H129381   6.776   5.301   6.137
 9808TIP3    H229382   6.754   5.436   6.073
 9809TIP3   OH229383   0.198   0.315   2.473
 9809TIP3    H129384   0.258   0.337   2.544
 9809TIP3    H229385   0.204   0.219   2.467
 9810TIP3   OH229386   5.109   1.425   6.141
 9810TIP3    H129387   5.152   1.500   6.182
 9810TIP3    H229388   5.051   1.464   6.075
 9811TIP3   OH229389   3.022   3.131   1.917
 9811TIP3    H129390   3.021   3.184   1.996
 9811TIP3    H229391   2.940   3.150   1.873
 9812TIP3   OH229392   0.973   6.587   0.740
 9812TIP3    H129393   1.036   6.586   0.812
 9812TIP3    H229394   1.025   6.562   0.663
 9813TIP3   OH229395   2.541   0.995   5.758
 9813TIP3    H129396   2.523   0.908   5.793
 9813TIP3    H229397   2.601   0.980   5.685
 9814TIP3   OH229398   0.991   2.072   1.374
 9814TIP3    H129399   0.952   2.019   1.305
 9814TIP3    H229400   1.043   2.010   1.426
 9815TIP3   OH229401   7.720   5.025   4.168
 9815TIP3    H129402   7.639   5.001   4.124
 9815TIP3    H229403   7.780   4.953   4.149
 9816TIP3   OH229404   3.514   6.334   0.730
 9816TIP3    H129405   3.478   6.423   0.723
 9816TIP3    H229406   3.546   6.315   0.642
 9817TIP3   OH229407   6.458   2.478   6.631
 9817TIP3    H129408   6.511   2.497   6.708
 9817TIP3    H229409   6.421   2.563   6.605
 9818TIP3   OH229410   4.125   5.498   0.196
 9818TIP3    H129411   4.126   5.590   0.170
 9818TIP3    H229412   4.211   5.465   0.171
 9819TIP3   OH229413   4.183   5.411   4.986
 9819TIP3    H129414   4.168   5.475   5.056
 9819TIP3    H229415   4.095   5.393   4.951
 9820TIP3   OH229416   6.277   7.386   1.298
 9820TIP3    H129417   6.211   7.434   1.249
 9820TIP3    H229418   6.229   7.344   1.370
 9821TIP3   OH229419   3.604   2.631   0.312
 9821TIP3    H129420   3.534   2.599   0.369
 9821TIP3    H229421   3.561   2.694   0.255
 9822TIP3   OH229422   1.871   3.009   1.153
 9822TIP3    H129423   1.938   3.077   1.152
 9822TIP3    H229424   1.798   3.047   1.103
 9823TIP3   OH229425   3.888   3.778   2.437
 9823TIP3    H129426   3.905   3.684   2.448
 9823TIP3    H229427   3.911   3.796   2.346
 9824TIP3   OH229428   4.303   6.464   3.846
 9824TIP3    H129429   4.324   6.374   3.871
 9824TIP3    H229430   4.332   6.517   3.920
 9825TIP3   OH229431   3.202   1.929   4.239
 9825TIP3    H129432   3.216   2.003   4.179
 9825TIP3    H229433   3.269   1.866   4.216
 9826TIP3   OH229434   1.312   5.240   1.838
 9826TIP3    H129435   1.288   5.332   1.845
 9826TIP3    H229436   1.394   5.240   1.790
 9827TIP3   OH229437   1.930   1.619   4.972
 9827TIP3    H129438   1.977   1.538   4.993
 9827TIP3    H229439   1.893   1.647   5.056
 9828TIP3   OH229440   0.133   6.799   4.569
 9828TIP3    H129441   0.204   6.856   4.598
 9828TIP3    H229442   0.166   6.710   4.580
 9829TIP3   OH229443   4.577   7.149   2.360
 9829TIP3    H129444   4.641   7.112   2.299
 9829TIP3    H229445   4.504   7.177   2.304
 9830TIP3   OH229446   6.019   7.039   1.164
 9830TIP3    H129447   6.050   7.053   1.253
 9830TIP3    H229448   6.022   6.944   1.152
 9831TIP3   OH229449   7.019   7.672   0.354
 9831TIP3    H129450   7.085   7.688   0.422
 9831TIP3    H229451   7.069   7.668   0.273
 9832TIP3   OH229452   4.660   1.119   4.889
 9832TIP3    H129453   4.587   1.080   4.936
 9832TIP3    H229454   4.711   1.164   4.957
 9833TIP3   OH229455   5.359   0.535   3.205
 9833TIP3    H129456   5.415   0.613   3.198
 9833TIP3    H229457   5.347   0.522   3.299
 9834TIP3   OH229458   0.226   2.387   5.516
 9834TIP3    H129459   0.279   2.321   5.561
 9834TIP3    H229460   0.220   2.460   5.579
 9835TIP3   OH229461   2.835   4.480   5.951
 9835TIP3    H129462   2.913   4.444   5.908
 9835TIP3    H229463   2.780   4.510   5.879
 9836TIP3   OH229464   0.120   3.316   1.312
 9836TIP3    H129465   0.142   3.404   1.345
 9836TIP3    H229466   0.187   3.259   1.351
 9837TIP3   OH229467   7.965   6.531   1.609
 9837TIP3    H129468   7.973   6.624   1.585
 9837TIP3    H229469   7.974   6.485   1.525
 9838TIP3   OH229470   5.322   3.854   2.480
 9838TIP3    H129471   5.355   3.896   2.560
 9838TIP3    H229472   5.240   3.899   2.461
 9839TIP3   OH229473   4.112   1.203   4.154
 9839TIP3    H129474   4.021   1.231   4.144
 9839TIP3    H229475   4.162   1.264   4.098
 9840TIP3   OH229476   0.636   4.171   5.353
 9840TIP3    H129477   0.630   4.088   5.305
 9840TIP3    H229478   0.594   4.235   5.295
 9841TIP3   OH229479   6.980   0.010   4.699
 9841TIP3    H129480   7.069  -0.026   4.690
 9841TIP3    H229481   6.992   0.091   4.748
 9842TIP3   OH229482   4.737   4.264   0.988
 9842TIP3    H129483   4.816   4.307   1.019
 9842TIP3    H229484   4.688   4.334   0.943
 9843TIP3   OH229485   6.625   2.219   5.832
 9843TIP3    H129486   6.642   2.234   5.739
 9843TIP3    H229487   6.537   2.256   5.846
 9844TIP3   OH229488   2.266   6.080   1.102
 9844TIP3    H129489   2.233   6.097   1.014
 9844TIP3    H229490   2.301   5.991   1.098
 9845TIP3   OH229491   2.748   6.512   3.716
 9845TIP3    H129492   2.729   6.482   3.628
 9845TIP3    H229493   2.680   6.577   3.734
 9846TIP3   OH229494   7.499   3.141   6.434
 9846TIP3    H129495   7.569   3.182   6.383
 9846TIP3    H229496   7.544   3.102   6.510
 9847TIP3   OH229497   1.593   0.944   6.120
 9847TIP3    H129498   1.507   0.969   6.086
 9847TIP3    H229499   1.613   0.861   6.076
 9848TIP3   OH229500   3.108   1.172   5.198
 9848TIP3    H129501   3.096   1.201   5.289
 9848TIP3    H229502   3.190   1.123   5.199
 9849TIP3   OH229503   3.326   1.617   3.228
 9849TIP3    H129504   3.310   1.706   3.262
 9849TIP3    H229505   3.246   1.569   3.248
 9850TIP3   OH229506   7.703   2.107   2.773
 9850TIP3    H129507   7.614   2.079   2.751
 9850TIP3    H229508   7.727   2.054   2.849
 9851TIP3   OH229509   0.390   0.845   4.358
 9851TIP3    H129510   0.297   0.840   4.336
 9851TIP3    H229511   0.394   0.910   4.428
 9852TIP3   OH229512   6.341   7.735   2.486
 9852TIP3    H129513   6.275   7.673   2.455
 9852TIP3    H229514   6.417   7.682   2.506
 9853TIP3   OH229515   4.038   2.394   4.810
 9853TIP3    H129516   4.107   2.433   4.864
 9853TIP3    H229517   3.963   2.387   4.868
 9854TIP3   OH229518   3.847   7.727   4.610
 9854TIP3    H129519   3.842   7.752   4.702
 9854TIP3    H229520   3.912   7.786   4.572
 9855TIP3   OH229521   0.939   5.352   3.863
 9855TIP3    H129522   0.861   5.402   3.885
 9855TIP3    H229523   0.905   5.274   3.818
 9856TIP3   OH229524   4.556   6.578   4.629
 9856TIP3    H129525   4.469   6.617   4.638
 9856TIP3    H229526   4.545   6.508   4.565
 9857TIP3   OH229527   4.904   0.629   3.740
 9857TIP3    H129528   4.976   0.624   3.802
 9857TIP3    H229529   4.829   0.589   3.785
 9858TIP3   OH229530   6.268   0.424   2.041
 9858TIP3    H129531   6.299   0.434   1.951
 9858TIP3    H229532   6.343   0.450   2.095
 9859TIP3   OH229533   5.407   6.037   6.271
 9859TIP3    H129534   5.350   5.986   6.214
 9859TIP3    H229535   5.477   5.977   6.297
 9860TIP3   OH229536   1.077   5.840   5.916
 9860TIP3    H129537   1.114   5.907   5.859
 9860TIP3    H229538   0.984   5.838   5.893
 9861TIP3   OH229539   5.069   4.628   6.299
 9861TIP3    H129540   5.030   4.704   6.344
 9861TIP3    H229541   4.994   4.577   6.269
 9862TIP3   OH229542   2.757   2.324   6.634
 9862TIP3    H129543   2.726   2.414   6.639
 9862TIP3    H229544   2.677   2.271   6.630
 9863TIP3   OH229545   0.508   7.391   2.897
 9863TIP3    H129546   0.527   7.344   2.816
 9863TIP3    H229547   0.427   7.350   2.929
 9864TIP3   OH229548   4.301   6.195   6.615
 9864TIP3    H129549   4.315   6.203   6.521
 9864TIP3    H229550   4.206   6.184   6.624
 9865TIP3   OH229551   5.445   2.555   4.175
 9865TIP3    H129552   5.430   2.591   4.088
 9865TIP3    H229553   5.377   2.594   4.230
 9866TIP3   OH229554   3.122   3.054   2.357
 9866TIP3    H129555   3.201   3.106   2.346
 9866TIP3    H229556   3.152   2.963   2.360
 9867TIP3   OH229557   6.464   5.739   4.336
 9867TIP3    H129558   6.521   5.720   4.262
 9867TIP3    H229559   6.495   5.682   4.406
 9868TIP3   OH229560   6.439   2.143   2.884
 9868TIP3    H129561   6.531   2.126   2.863
 9868TIP3    H229562   6.392   2.113   2.806
 9869TIP3   OH229563   6.978   2.496   0.215
 9869TIP3    H129564   6.921   2.522   0.142
 9869TIP3    H229565   7.017   2.578   0.245
 9870TIP3   OH229566   4.461   7.488   5.343
 9870TIP3    H129567   4.383   7.508   5.292
 9870TIP3    H229568   4.508   7.572   5.349
 9871TIP3   OH229569   2.687   0.522   4.282
 9871TIP3    H129570   2.734   0.514   4.365
 9871TIP3    H229571   2.692   0.435   4.243
 9872TIP3   OH229572   5.718   6.786   2.328
 9872TIP3    H129573   5.728   6.719   2.396
 9872TIP3    H229574   5.746   6.867   2.370
 9873TIP3   OH229575   1.253   7.336   4.812
 9873TIP3    H129576   1.259   7.303   4.723
 9873TIP3    H229577   1.237   7.259   4.865
 9874TIP3   OH229578   3.071   3.010   5.322
 9874TIP3    H129579   3.132   3.080   5.299
 9874TIP3    H229580   3.010   3.050   5.384
 9875TIP3   OH229581   2.678   5.981   0.300
 9875TIP3    H129582   2.694   6.022   0.215
 9875TIP3    H229583   2.704   6.048   0.364
 9876TIP3   OH229584   6.819   4.138   3.057
 9876TIP3    H129585   6.835   4.217   3.006
 9876TIP3    H229586   6.883   4.074   3.025
 9877TIP3   OH229587   4.400   6.109   1.036
 9877TIP3    H129588   4.342   6.034   1.046
 9877TIP3    H229589   4.487   6.070   1.027
 9878TIP3   OH229590   0.672   7.311   5.622
 9878TIP3    H129591   0.605   7.379   5.631
 9878TIP3    H229592   0.719   7.313   5.706
 9879TIP3   OH229593   8.254   2.333   0.329
 9879TIP3    H129594   8.324   2.307   0.389
 9879TIP3    H229595   8.250   2.428   0.337
 9880TIP3   OH229596   2.405   3.825   2.014
 9880TIP3    H129597   2.310   3.814   2.004
 9880TIP3    H229598   2.415   3.916   2.041
 9881TIP3   OH229599   2.246   1.012   0.087
 9881TIP3    H129600   2.270   0.926   0.054
 9881TIP3    H229601   2.329   1.060   0.094
 9882TIP3   OH229602   1.963   3.988   5.583
 9882TIP3    H129603   1.880   4.011   5.541
 9882TIP3    H229604   1.969   4.046   5.659
 9883TIP3   OH229605   1.044   1.264   2.244
 9883TIP3    H129606   1.109   1.207   2.202
 9883TIP3    H229607   0.964   1.250   2.194
 9884TIP3   OH229608   6.194   2.290   1.634
 9884TIP3    H129609   6.245   2.316   1.710
 9884TIP3    H229610   6.103   2.296   1.663
 9885TIP3   OH229611   0.943   0.427   3.100
 9885TIP3    H129612   1.037   0.408   3.096
 9885TIP3    H229613   0.901   0.342   3.089
 9886TIP3   OH229614   4.761   0.217   3.045
 9886TIP3    H129615   4.745   0.202   3.138
 9886TIP3    H229616   4.679   0.193   3.002
 9887TIP3   OH229617   4.580   2.335   4.117
 9887TIP3    H129618   4.596   2.389   4.195
 9887TIP3    H229619   4.645   2.364   4.054
 9888TIP3   OH229620   2.451   0.054   5.395
 9888TIP3    H129621   2.365   0.068   5.434
 9888TIP3    H229622   2.433   0.000   5.317
 9889TIP3   OH229623   2.428   1.638   1.007
 9889TIP3    H129624   2.346   1.601   0.975
 9889TIP3    H229625   2.421   1.634   1.102
 9890TIP3   OH229626   1.441   5.184   4.992
 9890TIP3    H129627   1.513   5.244   4.974
 9890TIP3    H229628   1.379   5.198   4.920
 9891TIP3   OH229629   3.097   4.112   0.633
 9891TIP3    H129630   3.051   4.031   0.653
 9891TIP3    H229631   3.175   4.084   0.585
 9892TIP3   OH229632   7.285   2.794   3.411
 9892TIP3    H129633   7.283   2.883   3.447
 9892TIP3    H229634   7.359   2.794   3.350
 9893TIP3   OH229635   6.313   1.343   4.115
 9893TIP3    H129636   6.269   1.261   4.093
 9893TIP3    H229637   6.246   1.396   4.158
 9894TIP3   OH229638   6.214   6.504   0.589
 9894TIP3    H129639   6.148   6.514   0.658
 9894TIP3    H229640   6.231   6.410   0.585
 9895TIP3   OH229641   6.388   1.510   6.731
 9895TIP3    H129642   6.361   1.560   6.808
 9895TIP3    H229643   6.339   1.428   6.738
 9896TIP3   OH229644   5.762   4.463   3.208
 9896TIP3    H129645   5.845   4.486   3.250
 9896TIP3    H229646   5.764   4.509   3.124
 9897TIP3   OH229647   1.326   1.026   0.731
 9897TIP3    H129648   1.284   1.081   0.665
 9897TIP3    H229649   1.258   0.961   0.754
 9898TIP3   OH229650   6.299   5.331   6.677
 9898TIP3    H129651   6.339   5.356   6.760
 9898TIP3    H229652   6.227   5.273   6.702
 9899TIP3   OH229653   2.504   1.893   0.912
 9899TIP3    H129654   2.559   1.896   0.990
 9899TIP3    H229655   2.446   1.818   0.926
 9900TIP3   OH229656   5.010   0.895   5.722
 9900TIP3    H129657   5.040   0.806   5.706
 9900TIP3    H229658   5.078   0.951   5.683
 9901TIP3   OH229659   2.608   4.150   3.127
 9901TIP3    H129660   2.565   4.233   3.148
 9901TIP3    H229661   2.553   4.083   3.167
 9902TIP3   OH229662   7.365   1.216   4.181
 9902TIP3    H129663   7.355   1.131   4.224
 9902TIP3    H229664   7.458   1.237   4.189
 9903TIP3   OH229665   5.625   3.574   4.396
 9903TIP3    H129666   5.608   3.645   4.459
 9903TIP3    H229667   5.542   3.526   4.392
 9904TIP3   OH229668   5.381   5.052   0.817
 9904TIP3    H129669   5.469   5.027   0.789
 9904TIP3    H229670   5.323   5.007   0.756
 9905TIP3   OH229671   6.636   6.690   2.817
 9905TIP3    H129672   6.625   6.786   2.816
 9905TIP3    H229673   6.585   6.660   2.742
 9906TIP3   OH229674   1.306   2.723   6.748
 9906TIP3    H129675   1.271   2.797   6.697
 9906TIP3    H229676   1.342   2.763   6.827
 9907TIP3   OH229677   3.172   2.594   1.007
 9907TIP3    H129678   3.206   2.668   0.956
 9907TIP3    H229679   3.097   2.563   0.957
 9908TIP3   OH229680   1.706   0.247   1.201
 9908TIP3    H129681   1.657   0.239   1.119
 9908TIP3    H229682   1.640   0.260   1.268
 9909TIP3   OH229683   7.552   4.703   6.179
 9909TIP3    H129684   7.458   4.709   6.163
 9909TIP3    H229685   7.592   4.709   6.093
 9910TIP3   OH229686   7.336   3.831   2.420
 9910TIP3    H129687   7.382   3.903   2.464
 9910TIP3    H229688   7.404   3.783   2.374
 9911TIP3   OH229689   4.583   0.320   5.847
 9911TIP3    H129690   4.579   0.377   5.770
 9911TIP3    H229691   4.637   0.246   5.819
 9912TIP3   OH229692   0.936   4.154   3.775
 9912TIP3    H129693   0.852   4.198   3.790
 9912TIP3    H229694   0.981   4.210   3.711
 9913TIP3   OH229695   6.141   1.996   4.935
 9913TIP3    H129696   6.130   2.060   5.005
 9913TIP3    H229697   6.169   2.047   4.859
 9914TIP3   OH229698   2.102   2.487   4.177
 9914TIP3    H129699   2.169   2.554   4.188
 9914TIP3    H229700   2.033   2.512   4.239
 9915TIP3   OH229701   3.444   4.037   4.480
 9915TIP3    H129702   3.453   4.007   4.570
 9915TIP3    H229703   3.412   4.127   4.488
 9916TIP3   OH229704   1.339   7.023   2.499
 9916TIP3    H129705   1.410   6.982   2.549
 9916TIP3    H229706   1.381   7.059   2.422
 9917TIP3   OH229707   2.889   1.264   4.764
 9917TIP3    H129708   2.798   1.294   4.767
 9917TIP3    H229709   2.887   1.189   4.704
 9918TIP3   OH229710   6.723   4.020   1.141
 9918TIP3    H129711   6.707   4.031   1.047
 9918TIP3    H229712   6.779   3.943   1.147
 9919TIP3   OH229713   6.216   6.042   0.865
 9919TIP3    H129714   6.139   5.989   0.845
 9919TIP3    H229715   6.191   6.094   0.941
 9920TIP3   OH229716   2.362   5.834   0.241
 9920TIP3    H129717   2.436   5.847   0.181
 9920TIP3    H229718   2.368   5.742   0.267
 9921TIP3   OH229719   0.624   2.492   1.774
 9921TIP3    H129720   0.700   2.471   1.828
 9921TIP3    H229721   0.589   2.573   1.812
 9922TIP3   OH229722   7.853   2.325   0.460
 9922TIP3    H129723   7.940   2.287   0.470
 9922TIP3    H229724   7.821   2.337   0.550
 9923TIP3   OH229725   3.746   4.511   4.583
 9923TIP3    H129726   3.716   4.428   4.545
 9923TIP3    H229727   3.696   4.520   4.664
 9924TIP3   OH229728   2.462   5.010   0.374
 9924TIP3    H129729   2.425   4.924   0.354
 9924TIP3    H229730   2.529   4.992   0.440
 9925TIP3   OH229731   6.253   2.736   5.018
 9925TIP3    H129732   6.291   2.666   5.071
 9925TIP3    H229733   6.266   2.815   5.070
 9926TIP3   OH229734   2.812   2.517   3.489
 9926TIP3    H129735   2.816   2.573   3.567
 9926TIP3    H229736   2.892   2.465   3.492
 9927TIP3   OH229737   2.793   1.632   6.520
 9927TIP3    H129738   2.711   1.659   6.560
 9927TIP3    H229739   2.844   1.596   6.592
 9928TIP3   OH229740   7.448   0.228   2.827
 9928TIP3    H129741   7.424   0.154   2.771
 9928TIP3    H229742   7.436   0.305   2.771
 9929TIP3   OH229743  -0.008   2.819   1.383
 9929TIP3    H129744   0.002   2.724   1.391
 9929TIP3    H229745   0.079   2.855   1.402
 9930TIP3   OH229746   0.890   4.911   0.450
 9930TIP3    H129747   0.902   4.993   0.498
 9930TIP3    H229748   0.977   4.870   0.451
 9931TIP3   OH229749   2.675   4.326   1.736
 9931TIP3    H129750   2.617   4.263   1.695
 9931TIP3    H229751   2.661   4.314   1.830
 9932TIP3   OH229752   0.507   5.635   3.482
 9932TIP3    H129753   0.415   5.660   3.485
 9932TIP3    H229754   0.540   5.656   3.569
 9933TIP3   OH229755   6.386   7.655   5.041
 9933TIP3    H129756   6.356   7.591   5.106
 9933TIP3    H229757   6.332   7.639   4.964
 9934TIP3   OH229758   5.839   2.550   1.849
 9934TIP3    H129759   5.825   2.586   1.936
 9934TIP3    H229760   5.876   2.622   1.799
 9935TIP3   OH229761   3.312   3.063   2.801
 9935TIP3    H129762   3.247   3.132   2.784
 9935TIP3    H229763   3.367   3.098   2.870
 9936TIP3   OH229764   1.729   5.157   5.717
 9936TIP3    H129765   1.790   5.230   5.728
 9936TIP3    H229766   1.645   5.198   5.701
 9937TIP3   OH229767   5.945   1.836   1.134
 9937TIP3    H129768   5.873   1.897   1.152
 9937TIP3    H229769   5.948   1.779   1.211
 9938TIP3   OH229770   7.499   6.299   5.475
 9938TIP3    H129771   7.484   6.364   5.543
 9938TIP3    H229772   7.534   6.349   5.401
 9939TIP3   OH229773   8.259   6.020   0.341
 9939TIP3    H129774   8.221   6.069   0.269
 9939TIP3    H229775   8.266   6.083   0.412
 9940TIP3   OH229776   1.913   3.015   1.429
 9940TIP3    H129777   1.909   3.015   1.333
 9940TIP3    H229778   1.901   2.923   1.453
 9941TIP3   OH229779   0.630   0.299   2.274
 9941TIP3    H129780   0.556   0.239   2.277
 9941TIP3    H229781   0.692   0.263   2.338
 9942TIP3   OH229782   6.664   4.971   0.027
 9942TIP3    H129783   6.683   5.065   0.033
 9942TIP3    H229784   6.703   4.944  -0.056
 9943TIP3   OH229785   6.089   0.853   4.125
 9943TIP3    H129786   6.052   0.937   4.095
 9943TIP3    H229787   6.148   0.827   4.055
 9944TIP3   OH229788   3.582   4.952   1.343
 9944TIP3    H129789   3.641   5.025   1.327
 9944TIP3    H229790   3.565   4.915   1.257
 9945TIP3   OH229791   2.160   4.817   2.968
 9945TIP3    H129792   2.230   4.791   3.028
 9945TIP3    H229793   2.202   4.877   2.907
 9946TIP3   OH229794   2.014   4.932   1.861
 9946TIP3    H129795   2.095   4.939   1.912
 9946TIP3    H229796   1.997   4.838   1.856
 9947TIP3   OH229797   8.033   4.916   3.620
 9947TIP3    H129798   8.071   4.848   3.676
 9947TIP3    H229799   8.093   4.919   3.544
 9948TIP3   OH229800   0.233   5.758   3.550
 9948TIP3    H129801   0.195   5.687   3.496
 9948TIP3    H229802   0.157   5.804   3.585
 9949TIP3   OH229803   5.728   4.654   0.186
 9949TIP3    H129804   5.680   4.608   0.255
 9949TIP3    H229805   5.749   4.739   0.224
 9950TIP3   OH229806   7.962   7.559   3.075
 9950TIP3    H129807   8.007   7.527   3.153
 9950TIP3    H229808   7.878   7.513   3.076
 9951TIP3   OH229809   8.232   4.873   5.781
 9951TIP3    H129810   8.295   4.833   5.842
 9951TIP3    H229811   8.280   4.881   5.699
 9952TIP3   OH229812   1.946   7.323   5.094
 9952TIP3    H129813   1.935   7.237   5.054
 9952TIP3    H229814   2.040   7.330   5.109
 9953TIP3   OH229815   2.832   0.133   2.165
 9953TIP3    H129816   2.804   0.048   2.130
 9953TIP3    H229817   2.918   0.116   2.202
 9954TIP3   OH229818   5.997   6.886   5.068
 9954TIP3    H129819   6.090   6.870   5.052
 9954TIP3    H229820   5.993   6.979   5.093
 9955TIP3   OH229821   0.309   3.188   1.730
 9955TIP3    H129822   0.216   3.169   1.717
 9955TIP3    H229823   0.315   3.216   1.821
 9956TIP3   OH229824   2.807   1.731   4.765
 9956TIP3    H129825   2.864   1.654   4.757
 9956TIP3    H229826   2.830   1.785   4.690
 9957TIP3   OH229827   4.612   3.650   1.520
 9957TIP3    H129828   4.529   3.643   1.472
 9957TIP3    H229829   4.616   3.570   1.573
 9958TIP3   OH229830   4.188   4.042   2.039
 9958TIP3    H129831   4.170   4.135   2.050
 9958TIP3    H229832   4.152   4.001   2.118
 9959TIP3   OH229833   6.774   2.963   2.087
 9959TIP3    H129834   6.697   2.920   2.050
 9959TIP3    H229835   6.849   2.915   2.050
 9960TIP3   OH229836   1.034   5.185   0.931
 9960TIP3    H129837   0.979   5.146   1.000
 9960TIP3    H229838   1.084   5.253   0.975
 9961TIP3   OH229839   7.311   6.563   6.581
 9961TIP3    H129840   7.244   6.586   6.517
 9961TIP3    H229841   7.284   6.477   6.613
 9962TIP3   OH229842   2.295   6.038   4.229
 9962TIP3    H129843   2.384   6.042   4.195
 9962TIP3    H229844   2.253   6.117   4.195
 9963TIP3   OH229845   7.721   1.546   4.817
 9963TIP3    H129846   7.785   1.565   4.886
 9963TIP3    H229847   7.759   1.474   4.768
 9964TIP3   OH229848   2.932   1.612   0.883
 9964TIP3    H129849   2.933   1.616   0.788
 9964TIP3    H229850   2.841   1.634   0.907
 9965TIP3   OH229851   0.583   0.611   1.860
 9965TIP3    H129852   0.650   0.656   1.912
 9965TIP3    H229853   0.620   0.609   1.772
 9966TIP3   OH229854   6.312   5.101   1.827
 9966TIP3    H129855   6.367   5.179   1.838
 9966TIP3    H229856   6.291   5.099   1.734
 9967TIP3   OH229857   3.566   7.227   5.281
 9967TIP3    H129858   3.508   7.247   5.354
 9967TIP3    H229859   3.653   7.257   5.310
 9968TIP3   OH229860   3.900   1.366   4.161
 9968TIP3    H129861   3.839   1.379   4.089
 9968TIP3    H229862   3.943   1.451   4.172
 9969TIP3   OH229863   3.490   0.779   1.499
 9969TIP3    H129864   3.574   0.825   1.506
 9969TIP3    H229865   3.500   0.703   1.556
 9970TIP3   OH229866   3.367   4.299   5.837
 9970TIP3    H129867   3.363   4.204   5.823
 9970TIP3    H229868   3.326   4.312   5.923
 9971TIP3   OH229869   6.173   4.512   4.595
 9971TIP3    H129870   6.224   4.444   4.551
 9971TIP3    H229871   6.180   4.491   4.688
 9972TIP3   OH229872   4.796   0.280   0.071
 9972TIP3    H129873   4.875   0.301   0.022
 9972TIP3    H229874   4.726   0.325   0.023
 9973TIP3   OH229875   5.316   7.605   6.519
 9973TIP3    H129876   5.285   7.529   6.568
 9973TIP3    H229877   5.335   7.671   6.586
 9974TIP3   OH229878   4.620   2.818   0.044
 9974TIP3    H129879   4.588   2.751  -0.017
 9974TIP3    H229880   4.682   2.770   0.100
 9975TIP3   OH229881   5.954   5.562   0.098
 9975TIP3    H129882   5.957   5.573   0.193
 9975TIP3    H229883   6.021   5.496   0.080
 9976TIP3   OH229884   5.889   1.814   1.826
 9976TIP3    H129885   5.950   1.886   1.806
 9976TIP3    H229886   5.876   1.821   1.921
 9977TIP3   OH229887   3.134   5.698   3.597
 9977TIP3    H129888   3.085   5.620   3.569
 9977TIP3    H229889   3.130   5.696   3.692
 9978TIP3   OH229890   7.453   3.515   5.973
 9978TIP3    H129891   7.429   3.445   6.034
 9978TIP3    H229892   7.456   3.594   6.027
 9979TIP3   OH229893   0.291   2.052   3.813
 9979TIP3    H129894   0.341   2.103   3.749
 9979TIP3    H229895   0.356   2.023   3.877
 9980TIP3   OH229896   2.512   4.343   4.998
 9980TIP3    H129897   2.532   4.405   5.068
 9980TIP3    H229898   2.445   4.386   4.946
 9981TIP3   OH229899   4.838   4.484   6.300
 9981TIP3    H129900   4.774   4.489   6.230
 9981TIP3    H229901   4.787   4.489   6.381
 9982TIP3   OH229902   7.106   5.216   1.131
 9982TIP3    H129903   7.050   5.266   1.190
 9982TIP3    H229904   7.053   5.206   1.052
 9983TIP3   OH229905   1.929   0.314   3.395
 9983TIP3    H129906   1.846   0.275   3.368
 9983TIP3    H229907   1.906   0.372   3.468
 9984TIP3   OH229908   4.879   3.569   4.036
 9984TIP3    H129909   4.832   3.564   4.120
 9984TIP3    H229910   4.919   3.482   4.026
 9985TIP3   OH229911   3.628   0.189   0.655
 9985TIP3    H129912   3.695   0.184   0.724
 9985TIP3    H229913   3.667   0.245   0.588
 9986TIP3   OH229914   6.822   7.294   1.100
 9986TIP3    H129915   6.786   7.224   1.047
 9986TIP3    H229916   6.891   7.252   1.152
 9987TIP3   OH229917   5.595   4.552   5.076
 9987TIP3    H129918   5.547   4.577   5.156
 9987TIP3    H229919   5.614   4.459   5.088
 9988TIP3   OH229920   6.555   3.215   3.863
 9988TIP3    H129921   6.561   3.141   3.923
 9988TIP3    H229922   6.631   3.206   3.806
 9989TIP3   OH229923   6.404   7.353   4.965
 9989TIP3    H129924   6.427   7.269   5.003
 9989TIP3    H229925   6.308   7.353   4.964
 9990TIP3   OH229926   6.924   0.876   5.799
 9990TIP3    H129927   6.889   0.821   5.869
 9990TIP3    H229928   6.854   0.939   5.780
 9991TIP3   OH229929   2.042   4.905   4.367
 9991TIP3    H129930   2.125   4.930   4.325
 9991TIP3    H229931   2.046   4.810   4.374
 9992TIP3   OH229932   5.087   3.338   2.824
 9992TIP3    H129933   5.032   3.324   2.901
 9992TIP3    H229934   5.076   3.257   2.772
 9993TIP3   OH229935   1.491   7.585   3.145
 9993TIP3    H129936   1.401   7.569   3.174
 9993TIP3    H229937   1.521   7.657   3.201
 9994TIP3   OH229938   2.432   2.038   3.132
 9994TIP3    H129939   2.502   2.098   3.105
 9994TIP3    H229940   2.475   1.978   3.193
 9995TIP3   OH229941   4.441   2.541   3.705
 9995TIP3    H129942   4.376   2.494   3.758
 9995TIP3    H229943   4.525   2.518   3.745
 9996TIP3   OH229944   7.407   2.640   3.655
 9996TIP3    H129945   7.330   2.656   3.600
 9996TIP3    H229946   7.422   2.546   3.649
 9997TIP3   OH229947   7.913   0.638   2.967
 9997TIP3    H129948   7.905   0.715   3.024
 9997TIP3    H229949   7.881   0.566   3.021
 9998TIP3   OH229950   3.668   6.217   1.997
 9998TIP3    H129951   3.735   6.274   1.959
 9998TIP3    H229952   3.692   6.211   2.089
 9999TIP3   OH229953   0.551   4.864   4.224
 9999TIP3    H129954   0.640   4.878   4.194
 9999TIP3    H229955   0.522   4.950   4.254
10000TIP3   OH229956   1.409   2.649   1.807
10000TIP3    H129957   1.361   2.700   1.873
10000TIP3    H229958   1.500   2.677   1.817
10001TIP3   OH229959   5.555   6.701   2.904
10001TIP3    H129960   5.558   6.793   2.879
10001TIP3    H229961   5.467   6.672   2.879
10002TIP3   OH229962   2.059   2.038   6.451
10002TIP3    H129963   2.056   2.133   6.455
10002TIP3    H229964   1.985   2.010   6.506
10003TIP3   OH229965   7.535   3.545   3.122
10003TIP3    H129966   7.568   3.635   3.115
10003TIP3    H229967   7.472   3.548   3.194
10004TIP3   OH229968   6.968   2.113   3.352
10004TIP3    H129969   6.911   2.047   3.313
10004TIP3    H229970   7.023   2.143   3.280
10005TIP3   OH229971   7.409   5.110   4.523
10005TIP3    H129972   7.392   5.147   4.610
10005TIP3    H229973   7.442   5.022   4.541
10006TIP3   OH229974   4.500   1.531   0.242
10006TIP3    H129975   4.560   1.529   0.167
10006TIP3    H229976   4.539   1.593   0.303
10007TIP3   OH229977   3.350   1.902   5.360
10007TIP3    H129978   3.399   1.919   5.280
10007TIP3    H229979   3.316   1.988   5.386
10008TIP3   OH229980   1.983   0.861   1.921
10008TIP3    H129981   1.951   0.924   1.985
10008TIP3    H229982   2.032   0.914   1.858
10009TIP3   OH229983   4.425   3.189   2.586
10009TIP3    H129984   4.499   3.153   2.537
10009TIP3    H229985   4.466   3.244   2.653
10010TIP3   OH229986   7.154   0.178   2.613
10010TIP3    H129987   7.072   0.204   2.655
10010TIP3    H229988   7.189   0.258   2.574
10011TIP3   OH229989   7.899   5.471   3.357
10011TIP3    H129990   7.979   5.523   3.349
10011TIP3    H229991   7.895   5.447   3.450
10012TIP3   OH229992   8.098   0.226   3.887
10012TIP3    H129993   8.043   0.288   3.936
10012TIP3    H229994   8.184   0.231   3.929
10013TIP3   OH229995   1.062   0.580   0.788
10013TIP3    H129996   1.031   0.555   0.875
10013TIP3    H229997   1.063   0.675   0.790
10014TIP3   OH229998   4.651   3.029   1.988
10014TIP3    H129999   4.633   2.938   2.009
10014TIP3    H230000   4.742   3.030   1.959
10015TIP3   OH230001   0.280   5.299   0.468
10015TIP3    H130002   0.286   5.212   0.428
10015TIP3    H230003   0.311   5.287   0.557
10016TIP3   OH230004   6.880   3.051   5.071
10016TIP3    H130005   6.840   2.986   5.014
10016TIP3    H230006   6.935   3.001   5.130
10017TIP3   OH230007   2.066   4.253   5.400
10017TIP3    H130008   2.131   4.186   5.381
10017TIP3    H230009   2.094   4.329   5.349
10018TIP3   OH230010   2.089   3.908   4.026
10018TIP3    H130011   2.159   3.871   3.972
10018TIP3    H230012   2.132   3.974   4.079
10019TIP3   OH230013   4.211   1.234   0.122
10019TIP3    H130014   4.210   1.277   0.208
10019TIP3    H230015   4.227   1.306   0.060
10020TIP3   OH230016   0.800   4.113   5.696
10020TIP3    H130017   0.713   4.126   5.659
10020TIP3    H230018   0.802   4.169   5.774
10021TIP3   OH230019   7.401   3.732   1.725
10021TIP3    H130020   7.415   3.638   1.737
10021TIP3    H230021   7.320   3.738   1.675
10022TIP3   OH230022   4.642   6.836   2.128
10022TIP3    H130023   4.595   6.848   2.211
10022TIP3    H230024   4.580   6.864   2.061
10023TIP3   OH230025   5.183   5.960   2.851
10023TIP3    H130026   5.099   5.962   2.806
10023TIP3    H230027   5.200   5.867   2.866
10024TIP3   OH230028   7.284   6.657   2.380
10024TIP3    H130029   7.277   6.606   2.461
10024TIP3    H230030   7.357   6.616   2.333
10025TIP3   OH230031   1.430   0.239   5.684
10025TIP3    H130032   1.389   0.288   5.755
10025TIP3    H230033   1.373   0.255   5.609
10026TIP3   OH230034   2.504   2.881   4.104
10026TIP3    H130035   2.453   2.899   4.025
10026TIP3    H230036   2.513   2.967   4.147
10027TIP3   OH230037   2.097   6.443   1.295
10027TIP3    H130038   2.159   6.456   1.366
10027TIP3    H230039   2.151   6.421   1.219
10028TIP3   OH230040   0.922   0.653   2.947
10028TIP3    H130041   0.940   0.587   3.014
10028TIP3    H230042   0.910   0.734   2.996
10029TIP3   OH230043   0.271   0.815   2.464
10029TIP3    H130044   0.294   0.777   2.549
10029TIP3    H230045   0.206   0.882   2.484
10030TIP3   OH230046   3.820   7.588   0.295
10030TIP3    H130047   3.799   7.546   0.211
10030TIP3    H230048   3.873   7.523   0.342
10031TIP3   OH230049   2.012   1.964   2.795
10031TIP3    H130050   2.057   1.909   2.859
10031TIP3    H230051   2.042   2.053   2.815
10032TIP3   OH230052   8.024   0.638   1.421
10032TIP3    H130053   7.976   0.666   1.499
10032TIP3    H230054   8.103   0.693   1.421
10033TIP3   OH230055   1.351   0.781   2.609
10033TIP3    H130056   1.418   0.848   2.622
10033TIP3    H230057   1.386   0.703   2.653
10034TIP3   OH230058   1.359   7.387   5.145
10034TIP3    H130059   1.371   7.308   5.198
10034TIP3    H230060   1.264   7.391   5.131
10035TIP3   OH230061   8.059   7.102   3.024
10035TIP3    H130062   8.106   7.183   3.002
10035TIP3    H230063   7.968   7.129   3.030
10036TIP3   OH230064   1.144   2.586   1.090
10036TIP3    H130065   1.091   2.558   1.164
10036TIP3    H230066   1.128   2.680   1.083
10037TIP3   OH230067   3.404   4.901   2.769
10037TIP3    H130068   3.441   4.989   2.779
10037TIP3    H230069   3.462   4.858   2.706
10038TIP3   OH230070   5.164   5.247   4.351
10038TIP3    H130071   5.190   5.171   4.300
10038TIP3    H230072   5.215   5.319   4.314
10039TIP3   OH230073   5.223   1.512   2.062
10039TIP3    H130074   5.282   1.549   2.127
10039TIP3    H230075   5.164   1.455   2.111
10040TIP3   OH230076   4.531   2.947   1.528
10040TIP3    H130077   4.515   2.912   1.616
10040TIP3    H230078   4.616   2.990   1.535
10041TIP3   OH230079   6.929   2.582   6.374
10041TIP3    H130080   6.886   2.560   6.456
10041TIP3    H230081   7.018   2.609   6.400
10042TIP3   OH230082   7.222   4.342   2.806
10042TIP3    H130083   7.291   4.376   2.749
10042TIP3    H230084   7.157   4.413   2.809
10043TIP3   OH230085   6.394   7.201   0.687
10043TIP3    H130086   6.408   7.114   0.724
10043TIP3    H230087   6.299   7.212   0.688
10044TIP3   OH230088   4.972   1.890   3.293
10044TIP3    H130089   5.050   1.944   3.309
10044TIP3    H230090   4.934   1.927   3.214
10045TIP3   OH230091   2.518   1.746   6.019
10045TIP3    H130092   2.492   1.835   5.998
10045TIP3    H230093   2.614   1.748   6.019
10046TIP3   OH230094   8.187   0.735   0.734
10046TIP3    H130095   8.109   0.693   0.697
10046TIP3    H230096   8.237   0.664   0.773
10047TIP3   OH230097   0.862   4.817   6.612
10047TIP3    H130098   0.795   4.832   6.679
10047TIP3    H230099   0.871   4.901   6.568
10048TIP3   OH230100   5.470   1.007   6.726
10048TIP3    H130101   5.504   0.960   6.650
10048TIP3    H230102   5.526   0.979   6.799
10049TIP3   OH230103   1.110   5.422   5.069
10049TIP3    H130104   1.020   5.455   5.060
10049TIP3    H230105   1.107   5.368   5.148
10050TIP3   OH230106   5.237   3.505   2.036
10050TIP3    H130107   5.292   3.446   1.984
10050TIP3    H230108   5.298   3.543   2.100
10051TIP3   OH230109   3.297   0.223   0.047
10051TIP3    H130110   3.346   0.229   0.129
10051TIP3    H230111   3.338   0.151  -0.001
10052TIP3   OH230112   1.555   2.910   2.798
10052TIP3    H130113   1.629   2.971   2.799
10052TIP3    H230114   1.527   2.909   2.706
10053TIP3   OH230115   1.436   2.272   1.127
10053TIP3    H130116   1.467   2.361   1.138
10053TIP3    H230117   1.388   2.253   1.208
10054TIP3   OH230118   0.148   3.579   4.655
10054TIP3    H130119   0.182   3.619   4.734
10054TIP3    H230120   0.222   3.531   4.618
10055TIP3   OH230121   7.227   3.550   3.012
10055TIP3    H130122   7.241   3.640   2.983
10055TIP3    H230123   7.311   3.524   3.051
10056TIP3   OH230124   6.031   7.424   3.294
10056TIP3    H130125   6.084   7.346   3.283
10056TIP3    H230126   5.946   7.391   3.325
10057TIP3   OH230127   0.300   6.693   5.831
10057TIP3    H130128   0.261   6.700   5.743
10057TIP3    H230129   0.366   6.625   5.823
10058TIP3   OH230130   0.354   0.729   2.793
10058TIP3    H130131   0.422   0.661   2.798
10058TIP3    H230132   0.335   0.750   2.884
10059TIP3   OH230133   3.877   5.025   0.600
10059TIP3    H130134   3.952   4.974   0.632
10059TIP3    H230135   3.916   5.106   0.568
10060TIP3   OH230136   7.773   7.563   6.686
10060TIP3    H130137   7.788   7.497   6.754
10060TIP3    H230138   7.684   7.595   6.704
10061TIP3   OH230139   8.269   3.871   5.543
10061TIP3    H130140   8.202   3.811   5.575
10061TIP3    H230141   8.231   3.908   5.463
10062TIP3   OH230142   5.604   5.366   2.657
10062TIP3    H130143   5.616   5.341   2.566
10062TIP3    H230144   5.512   5.389   2.664
10063TIP3   OH230145   5.972   2.580   0.126
10063TIP3    H130146   5.989   2.627   0.208
10063TIP3    H230147   5.969   2.487   0.152
10064TIP3   OH230148   6.577   5.592   6.468
10064TIP3    H130149   6.483   5.577   6.453
10064TIP3    H230150   6.617   5.506   6.455
10065TIP3   OH230151   0.716   1.702   4.483
10065TIP3    H130152   0.645   1.663   4.433
10065TIP3    H230153   0.794   1.689   4.428
10066TIP3   OH230154   2.956   5.628   1.134
10066TIP3    H130155   2.908   5.567   1.189
10066TIP3    H230156   2.941   5.714   1.175
10067TIP3   OH230157   0.572   5.915   6.054
10067TIP3    H130158   0.483   5.943   6.032
10067TIP3    H230159   0.627   5.988   6.025
10068TIP3   OH230160   3.922   4.348   0.638
10068TIP3    H130161   3.915   4.442   0.654
10068TIP3    H230162   3.912   4.339   0.544
10069TIP3   OH230163   3.357   3.359   0.299
10069TIP3    H130164   3.277   3.369   0.247
10069TIP3    H230165   3.352   3.427   0.365
10070TIP3   OH230166   5.072   1.329   2.227
10070TIP3    H130167   5.142   1.348   2.290
10070TIP3    H230168   4.994   1.369   2.265
10071TIP3   OH230169   2.447   6.547   3.373
10071TIP3    H130170   2.469   6.573   3.284
10071TIP3    H230171   2.506   6.474   3.392
10072TIP3   OH230172   2.448   5.966   2.073
10072TIP3    H130173   2.380   6.029   2.049
10072TIP3    H230174   2.409   5.915   2.144
10073TIP3   OH230175   5.047   7.208   4.362
10073TIP3    H130176   5.021   7.281   4.419
10073TIP3    H230177   5.052   7.133   4.421
10074TIP3   OH230178   0.104   3.520   3.667
10074TIP3    H130179   0.028   3.477   3.707
10074TIP3    H230180   0.091   3.613   3.687
10075TIP3   OH230181   6.393   2.933   4.256
10075TIP3    H130182   6.409   2.884   4.337
10075TIP3    H230183   6.302   2.913   4.234
10076TIP3   OH230184   1.035   3.979   0.077
10076TIP3    H130185   1.073   3.962   0.163
10076TIP3    H230186   0.956   4.031   0.096
10077TIP3   OH230187   5.739   0.149   2.889
10077TIP3    H130188   5.761   0.066   2.846
10077TIP3    H230189   5.813   0.165   2.948
10078TIP3   OH230190   6.880   7.132   1.661
10078TIP3    H130191   6.864   7.211   1.713
10078TIP3    H230192   6.959   7.094   1.699
10079TIP3   OH230193   6.857   1.260   5.761
10079TIP3    H130194   6.866   1.276   5.855
10079TIP3    H230195   6.941   1.221   5.736
10080TIP3   OH230196   2.491   5.902   5.205
10080TIP3    H130197   2.562   5.951   5.163
10080TIP3    H230198   2.452   5.965   5.266
10081TIP3   OH230199   6.045   0.862   3.256
10081TIP3    H130200   6.065   0.913   3.177
10081TIP3    H230201   5.949   0.854   3.256
10082TIP3   OH230202   1.499   6.534   5.340
10082TIP3    H130203   1.429   6.469   5.350
10082TIP3    H230204   1.568   6.488   5.292
10083TIP3   OH230205   5.003   2.000   2.699
10083TIP3    H130206   4.965   1.919   2.664
10083TIP3    H230207   4.927   2.052   2.725
10084TIP3   OH230208   7.357   1.090   6.160
10084TIP3    H130209   7.406   1.170   6.139
10084TIP3    H230210   7.274   1.121   6.196
10085TIP3   OH230211   5.626   2.985   6.309
10085TIP3    H130212   5.661   2.896   6.318
10085TIP3    H230213   5.545   2.984   6.360
10086TIP3   OH230214   6.548   5.035   2.504
10086TIP3    H130215   6.536   5.045   2.599
10086TIP3    H230216   6.619   5.096   2.483
10087TIP3   OH230217   0.054   2.219   2.499
10087TIP3    H130218   0.055   2.161   2.575
10087TIP3    H230219   0.083   2.304   2.534
10088TIP3   OH230220   3.081   0.040   2.240
10088TIP3    H130221   3.058  -0.016   2.314
10088TIP3    H230222   3.114  -0.021   2.174
10089TIP3   OH230223   0.607   5.456   1.814
10089TIP3    H130224   0.655   5.504   1.882
10089TIP3    H230225   0.516   5.457   1.844
10090TIP3   OH230226   7.587   3.059   4.812
10090TIP3    H130227   7.621   3.023   4.730
10090TIP3    H230228   7.646   3.024   4.879
10091TIP3   OH230229   1.554   6.694   5.576
10091TIP3    H130230   1.547   6.637   5.499
10091TIP3    H230231   1.625   6.656   5.627
10092TIP3   OH230232   2.310   5.188   2.998
10092TIP3    H130233   2.304   5.101   2.960
10092TIP3    H230234   2.392   5.188   3.047
10093TIP3   OH230235   4.878   1.147   4.624
10093TIP3    H130236   4.789   1.115   4.642
10093TIP3    H230237   4.870   1.194   4.540
10094TIP3   OH230238   2.246   2.492   2.580
10094TIP3    H130239   2.204   2.493   2.666
10094TIP3    H230240   2.300   2.571   2.578
10095TIP3   OH230241   1.643   4.691   2.666
10095TIP3    H130242   1.693   4.771   2.680
10095TIP3    H230243   1.624   4.659   2.754
10096TIP3   OH230244   3.271   4.768   1.388
10096TIP3    H130245   3.255   4.735   1.476
10096TIP3    H230246   3.296   4.860   1.400
10097TIP3   OH230247   4.992   0.797   3.052
10097TIP3    H130248   5.040   0.716   3.034
10097TIP3    H230249   5.052   0.867   3.025
10098TIP3   OH230250   4.421   1.561   5.212
10098TIP3    H130251   4.374   1.515   5.143
10098TIP3    H230252   4.456   1.640   5.169
10099TIP3   OH230253   2.395   2.551   4.609
10099TIP3    H130254   2.431   2.462   4.609
10099TIP3    H230255   2.435   2.593   4.533
10100TIP3   OH230256   6.848   6.925   1.285
10100TIP3    H130257   6.820   6.981   1.213
10100TIP3    H230258   6.768   6.910   1.336
10101TIP3   OH230259   1.157   5.251   3.592
10101TIP3    H130260   1.170   5.201   3.673
10101TIP3    H230261   1.233   5.231   3.538
10102TIP3   OH230262   4.820   6.519   6.456
10102TIP3    H130263   4.899   6.500   6.506
10102TIP3    H230264   4.750   6.474   6.502
10103TIP3   OH230265   3.042   3.103   5.622
10103TIP3    H130266   3.030   3.162   5.696
10103TIP3    H230267   3.133   3.117   5.595
10104TIP3   OH230268   2.149   7.461   1.670
10104TIP3    H130269   2.229   7.410   1.685
10104TIP3    H230270   2.169   7.548   1.705
10105TIP3   OH230271   1.257   0.238   1.068
10105TIP3    H130272   1.292   0.171   1.010
10105TIP3    H230273   1.256   0.318   1.014
10106TIP3   OH230274   0.800   2.577   5.363
10106TIP3    H130275   0.781   2.483   5.362
10106TIP3    H230276   0.894   2.582   5.375
10107TIP3   OH230277   4.092   0.625   1.135
10107TIP3    H130278   4.014   0.644   1.084
10107TIP3    H230279   4.138   0.558   1.086
10108TIP3   OH230280   6.334   2.573   3.097
10108TIP3    H130281   6.364   2.537   3.014
10108TIP3    H230282   6.320   2.496   3.153
10109TIP3   OH230283   6.506   7.095   3.581
10109TIP3    H130284   6.527   7.056   3.666
10109TIP3    H230285   6.471   7.182   3.603
10110TIP3   OH230286   4.085   4.304   5.733
10110TIP3    H130287   4.144   4.256   5.675
10110TIP3    H230288   4.001   4.303   5.688
10111TIP3   OH230289   4.909   3.795   1.253
10111TIP3    H130290   4.888   3.883   1.286
10111TIP3    H230291   4.915   3.742   1.332
10112TIP3   OH230292   1.572   6.672   6.153
10112TIP3    H130293   1.609   6.648   6.068
10112TIP3    H230294   1.597   6.763   6.166
10113TIP3   OH230295   7.996   0.067   2.604
10113TIP3    H130296   8.037   0.095   2.523
10113TIP3    H230297   8.011   0.139   2.666
10114TIP3   OH230298   4.561   2.805   1.163
10114TIP3    H130299   4.499   2.745   1.205
10114TIP3    H230300   4.608   2.750   1.101
10115TIP3   OH230301   7.635   6.814   3.432
10115TIP3    H130302   7.633   6.856   3.518
10115TIP3    H230303   7.579   6.869   3.377
10116TIP3   OH230304   2.589   5.628   6.214
10116TIP3    H130305   2.514   5.569   6.211
10116TIP3    H230306   2.550   5.715   6.229
10117TIP3   OH230307   2.115   4.659   6.161
10117TIP3    H130308   2.099   4.684   6.070
10117TIP3    H230309   2.062   4.581   6.174
10118TIP3   OH230310   1.462   4.969   4.730
10118TIP3    H130311   1.390   5.008   4.681
10118TIP3    H230312   1.538   4.980   4.673
10119TIP3   OH230313   5.792   7.284   0.734
10119TIP3    H130314   5.760   7.363   0.777
10119TIP3    H230315   5.825   7.229   0.806
10120TIP3   OH230316   5.207   4.178   1.995
10120TIP3    H130317   5.181   4.199   2.085
10120TIP3    H230318   5.149   4.107   1.969
10121TIP3   OH230319   5.553   2.925   5.092
10121TIP3    H130320   5.643   2.954   5.100
10121TIP3    H230321   5.502   2.990   5.141
10122TIP3   OH230322   4.502   0.072   3.074
10122TIP3    H130323   4.498   0.006   3.143
10122TIP3    H230324   4.471   0.028   2.996
10123TIP3   OH230325   1.993   7.436   5.383
10123TIP3    H130326   1.951   7.522   5.388
10123TIP3    H230327   2.087   7.456   5.380
10124TIP3   OH230328   7.570   5.211   5.972
10124TIP3    H130329   7.639   5.162   5.927
10124TIP3    H230330   7.615   5.254   6.044
10125TIP3   OH230331   0.726   1.517   5.921
10125TIP3    H130332   0.732   1.587   5.986
10125TIP3    H230333   0.814   1.511   5.885
10126TIP3   OH230334   5.002   1.446   2.882
10126TIP3    H130335   5.004   1.365   2.932
10126TIP3    H230336   4.918   1.486   2.904
10127TIP3   OH230337   3.409   2.080   1.967
10127TIP3    H130338   3.488   2.038   1.999
10127TIP3    H230339   3.385   2.142   2.036
10128TIP3   OH230340   1.573   6.508   3.021
10128TIP3    H130341   1.573   6.451   3.098
10128TIP3    H230342   1.482   6.536   3.013
10129TIP3   OH230343   6.490   6.247   2.001
10129TIP3    H130344   6.483   6.214   2.091
10129TIP3    H230345   6.400   6.258   1.972
10130TIP3   OH230346   2.569   1.653   1.696
10130TIP3    H130347   2.631   1.591   1.656
10130TIP3    H230348   2.498   1.660   1.633
10131TIP3   OH230349  -0.003   6.297   6.077
10131TIP3    H130350  -0.028   6.287   5.985
10131TIP3    H230351   0.071   6.358   6.075
10132TIP3   OH230352   4.771   1.959   0.465
10132TIP3    H130353   4.744   2.008   0.387
10132TIP3    H230354   4.863   1.936   0.450
10133TIP3   OH230355   7.565   2.735   1.566
10133TIP3    H130356   7.626   2.748   1.493
10133TIP3    H230357   7.488   2.787   1.543
10134TIP3   OH230358   1.642   2.502   2.747
10134TIP3    H130359   1.690   2.431   2.704
10134TIP3    H230360   1.675   2.582   2.705
10135TIP3   OH230361   5.626   3.659   4.105
10135TIP3    H130362   5.651   3.567   4.115
10135TIP3    H230363   5.533   3.661   4.127
10136TIP3   OH230364   7.369   1.447   2.225
10136TIP3    H130365   7.391   1.395   2.302
10136TIP3    H230366   7.404   1.398   2.151
10137TIP3   OH230367   6.261   4.396   5.229
10137TIP3    H130368   6.170   4.389   5.200
10137TIP3    H230369   6.261   4.357   5.317
10138TIP3   OH230370   4.776   2.761   3.354
10138TIP3    H130371   4.701   2.715   3.316
10138TIP3    H230372   4.785   2.724   3.442
10139TIP3   OH230373   1.712   1.709   1.092
10139TIP3    H130374   1.765   1.656   1.152
10139TIP3    H230375   1.677   1.779   1.147
10140TIP3   OH230376   1.537   1.470   5.180
10140TIP3    H130377   1.450   1.436   5.157
10140TIP3    H230378   1.571   1.505   5.098
10141TIP3   OH230379   3.821   0.056   4.572
10141TIP3    H130380   3.888  -0.012   4.576
10141TIP3    H230381   3.851   0.116   4.504
10142TIP3   OH230382   8.068   0.163   5.808
10142TIP3    H130383   8.032   0.094   5.753
10142TIP3    H230384   8.074   0.124   5.895
10143TIP3   OH230385   2.342   3.348   6.706
10143TIP3    H130386   2.379   3.414   6.647
10143TIP3    H230387   2.327   3.272   6.650
10144TIP3   OH230388   5.872   5.972   4.091
10144TIP3    H130389   5.839   5.983   4.002
10144TIP3    H230390   5.850   6.054   4.135
10145TIP3   OH230391   4.407   3.146   2.994
10145TIP3    H130392   4.399   3.052   2.984
10145TIP3    H230393   4.335   3.182   2.943
10146TIP3   OH230394   5.563   4.178   4.905
10146TIP3    H130395   5.515   4.108   4.950
10146TIP3    H230396   5.597   4.137   4.825
10147TIP3   OH230397   2.302   4.011   2.731
10147TIP3    H130398   2.260   3.925   2.728
10147TIP3    H230399   2.310   4.031   2.824
10148TIP3   OH230400   7.692   1.170   5.143
10148TIP3    H130401   7.744   1.238   5.100
10148TIP3    H230402   7.687   1.197   5.234
10149TIP3   OH230403   1.346   4.099   1.576
10149TIP3    H130404   1.347   4.184   1.621
10149TIP3    H230405   1.435   4.064   1.588
10150TIP3   OH230406   7.686   2.768   5.974
10150TIP3    H130407   7.746   2.806   5.910
10150TIP3    H230408   7.659   2.842   6.028
10151TIP3   OH230409   2.424   3.583   2.137
10151TIP3    H130410   2.426   3.673   2.103
10151TIP3    H230411   2.516   3.560   2.146
10152TIP3   OH230412   1.091   6.452   1.612
10152TIP3    H130413   1.078   6.364   1.648
10152TIP3    H230414   1.009   6.498   1.631
10153TIP3   OH230415   1.958   6.475   5.144
10153TIP3    H130416   2.017   6.535   5.098
10153TIP3    H230417   1.967   6.392   5.097
10154TIP3   OH230418   4.990   6.646   3.238
10154TIP3    H130419   5.014   6.580   3.173
10154TIP3    H230420   4.895   6.656   3.227
10155TIP3   OH230421   3.246   1.861   1.577
10155TIP3    H130422   3.219   1.903   1.495
10155TIP3    H230423   3.309   1.793   1.550
10156TIP3   OH230424   4.689   6.739   3.249
10156TIP3    H130425   4.669   6.665   3.308
10156TIP3    H230426   4.646   6.716   3.167
10157TIP3   OH230427   4.268   0.480   6.081
10157TIP3    H130428   4.197   0.503   6.142
10157TIP3    H230429   4.341   0.535   6.108
10158TIP3   OH230430   3.346   3.452   1.205
10158TIP3    H130431   3.385   3.378   1.252
10158TIP3    H230432   3.256   3.424   1.187
10159TIP3   OH230433   6.300   7.282   2.529
10159TIP3    H130434   6.247   7.323   2.460
10159TIP3    H230435   6.239   7.230   2.579
10160TIP3   OH230436   3.830   2.935   5.673
10160TIP3    H130437   3.908   2.925   5.729
10160TIP3    H230438   3.811   3.029   5.674
10161TIP3   OH230439   6.605   5.661   3.842
10161TIP3    H130440   6.625   5.683   3.933
10161TIP3    H230441   6.691   5.654   3.801
10162TIP3   OH230442   2.007   6.792   1.185
10162TIP3    H130443   2.080   6.774   1.244
10162TIP3    H230444   2.018   6.884   1.160
10163TIP3   OH230445   0.361   5.017   1.045
10163TIP3    H130446   0.304   5.062   0.984
10163TIP3    H230447   0.362   4.926   1.016
10164TIP3   OH230448   2.881   2.324   1.937
10164TIP3    H130449   2.966   2.331   1.981
10164TIP3    H230450   2.867   2.230   1.926
10165TIP3   OH230451   1.220   4.053   1.324
10165TIP3    H130452   1.169   4.133   1.334
10165TIP3    H230453   1.242   4.027   1.413
10166TIP3   OH230454   7.738   2.357   3.489
10166TIP3    H130455   7.801   2.286   3.500
10166TIP3    H230456   7.708   2.376   3.578
10167TIP3   OH230457   7.117   6.219   2.428
10167TIP3    H130458   7.202   6.246   2.392
10167TIP3    H230459   7.112   6.264   2.512
10168TIP3   OH230460   3.860   2.668   4.784
10168TIP3    H130461   3.933   2.728   4.800
10168TIP3    H230462   3.901   2.589   4.750
10169TIP3   OH230463   7.228   4.000   2.695
10169TIP3    H130464   7.297   4.007   2.629
10169TIP3    H230465   7.167   4.071   2.675
10170TIP3   OH230466   8.120   2.546   3.432
10170TIP3    H130467   8.068   2.501   3.365
10170TIP3    H230468   8.210   2.516   3.417
10171TIP3   OH230469   3.458   2.047   2.949
10171TIP3    H130470   3.373   2.091   2.946
10171TIP3    H230471   3.514   2.099   2.892
10172TIP3   OH230472   6.819   4.985   2.364
10172TIP3    H130473   6.913   4.997   2.348
10172TIP3    H230474   6.810   4.891   2.381
10173TIP3   OH230475   2.277   6.470   4.724
10173TIP3    H130476   2.363   6.512   4.719
10173TIP3    H230477   2.257   6.446   4.634
10174TIP3   OH230478   0.691   7.118   6.449
10174TIP3    H130479   0.605   7.079   6.462
10174TIP3    H230480   0.696   7.188   6.514
10175TIP3   OH230481   7.175   3.934   6.377
10175TIP3    H130482   7.125   4.000   6.330
10175TIP3    H230483   7.147   3.941   6.468
10176TIP3   OH230484   3.998   4.311   2.415
10176TIP3    H130485   3.946   4.332   2.493
10176TIP3    H230486   3.937   4.318   2.342
10177TIP3   OH230487   5.137   1.836   6.400
10177TIP3    H130488   5.113   1.798   6.485
10177TIP3    H230489   5.090   1.919   6.397
10178TIP3   OH230490   0.703   1.152   2.492
10178TIP3    H130491   0.754   1.170   2.572
10178TIP3    H230492   0.671   1.238   2.465
10179TIP3   OH230493   5.448   0.502   0.854
10179TIP3    H130494   5.364   0.513   0.808
10179TIP3    H230495   5.483   0.591   0.860
10180TIP3   OH230496   3.074   4.333   1.981
10180TIP3    H130497   3.032   4.283   2.051
10180TIP3    H230498   3.096   4.417   2.021
10181TIP3   OH230499   3.414   3.759   5.811
10181TIP3    H130500   3.444   3.713   5.732
10181TIP3    H230501   3.462   3.717   5.883
10182TIP3   OH230502   3.427   4.451   1.698
10182TIP3    H130503   3.345   4.427   1.656
10182TIP3    H230504   3.402   4.508   1.770
10183TIP3   OH230505   1.442   2.309   2.646
10183TIP3    H130506   1.478   2.315   2.735
10183TIP3    H230507   1.430   2.401   2.620
10184TIP3   OH230508   6.190   3.567   0.779
10184TIP3    H130509   6.225   3.480   0.796
10184TIP3    H230510   6.126   3.582   0.849
10185TIP3   OH230511   5.194   0.788   2.507
10185TIP3    H130512   5.165   0.876   2.485
10185TIP3    H230513   5.155   0.731   2.440
10186TIP3   OH230514   3.176   7.517   5.740
10186TIP3    H130515   3.220   7.433   5.723
10186TIP3    H230516   3.098   7.514   5.685
10187TIP3   OH230517   3.782   6.302   6.372
10187TIP3    H130518   3.754   6.239   6.438
10187TIP3    H230519   3.711   6.301   6.307
10188TIP3   OH230520   2.878   1.279   2.801
10188TIP3    H130521   2.919   1.205   2.847
10188TIP3    H230522   2.949   1.318   2.751
10189TIP3   OH230523   6.985   0.806   1.031
10189TIP3    H130524   7.012   0.732   1.085
10189TIP3    H230525   7.030   0.881   1.069
10190TIP3   OH230526   2.010   6.144   1.693
10190TIP3    H130527   2.004   6.212   1.626
10190TIP3    H230528   1.957   6.072   1.658
10191TIP3   OH230529   2.564   1.355   4.854
10191TIP3    H130530   2.493   1.418   4.866
10191TIP3    H230531   2.577   1.317   4.941
10192TIP3   OH230532   0.079   1.286   4.622
10192TIP3    H130533   0.139   1.241   4.562
10192TIP3    H230534   0.041   1.356   4.569
10193TIP3   OH230535   5.834   6.237   5.906
10193TIP3    H130536   5.829   6.158   5.852
10193TIP3    H230537   5.777   6.219   5.981
10194TIP3   OH230538   1.470   4.099   3.227
10194TIP3    H130539   1.554   4.081   3.269
10194TIP3    H230540   1.460   4.194   3.235
10195TIP3   OH230541   2.953   5.047   6.741
10195TIP3    H130542   2.945   5.090   6.826
10195TIP3    H230543   2.973   5.118   6.680
10196TIP3   OH230544   7.732   5.294   3.237
10196TIP3    H130545   7.794   5.355   3.276
10196TIP3    H230546   7.673   5.269   3.308
10197TIP3   OH230547   1.857   2.075   0.085
10197TIP3    H130548   1.879   2.015   0.013
10197TIP3    H230549   1.923   2.144   0.080
10198TIP3   OH230550   0.112   7.455   0.793
10198TIP3    H130551   0.158   7.527   0.749
10198TIP3    H230552   0.145   7.458   0.883
10199TIP3   OH230553   1.538   5.098   3.134
10199TIP3    H130554   1.616   5.139   3.097
10199TIP3    H230555   1.547   5.006   3.111
10200TIP3   OH230556   0.191   4.225   5.864
10200TIP3    H130557   0.174   4.155   5.927
10200TIP3    H230558   0.175   4.186   5.778
10201TIP3   OH230559   3.239   6.190   1.078
10201TIP3    H130560   3.240   6.269   1.132
10201TIP3    H230561   3.202   6.218   0.995
10202TIP3   OH230562   3.973   4.717   1.431
10202TIP3    H130563   3.959   4.791   1.372
10202TIP3    H230564   3.903   4.655   1.408
10203TIP3   OH230565   6.574   5.518   6.061
10203TIP3    H130566   6.527   5.558   6.134
10203TIP3    H230567   6.533   5.432   6.051
10204TIP3   OH230568   2.619   0.899   2.965
10204TIP3    H130569   2.657   0.818   2.998
10204TIP3    H230570   2.631   0.894   2.870
10205TIP3   OH230571   1.981   2.082   2.525
10205TIP3    H130572   1.914   2.029   2.569
10205TIP3    H230573   1.986   2.045   2.436
10206TIP3   OH230574   8.134   1.576   4.200
10206TIP3    H130575   8.154   1.631   4.276
10206TIP3    H230576   8.057   1.616   4.161
10207TIP3   OH230577   4.580   0.816   4.553
10207TIP3    H130578   4.660   0.821   4.606
10207TIP3    H230579   4.578   0.898   4.505
10208TIP3   OH230580   6.043   2.966   1.831
10208TIP3    H130581   6.041   3.033   1.762
10208TIP3    H230582   6.029   3.016   1.912
10209TIP3   OH230583   7.692   7.704   2.866
10209TIP3    H130584   7.778   7.663   2.853
10209TIP3    H230585   7.708   7.798   2.853
10210TIP3   OH230586   1.195   2.471   4.889
10210TIP3    H130587   1.250   2.430   4.956
10210TIP3    H230588   1.109   2.479   4.930
10211TIP3   OH230589   5.753   2.009   1.176
10211TIP3    H130590   5.727   2.059   1.098
10211TIP3    H230591   5.784   2.075   1.238
10212TIP3   OH230592   2.723   2.337   5.698
10212TIP3    H130593   2.714   2.284   5.778
10212TIP3    H230594   2.696   2.278   5.628
10213TIP3   OH230595   8.124   1.959   0.001
10213TIP3    H130596   8.194   1.993   0.056
10213TIP3    H230597   8.044   1.986   0.045
10214TIP3   OH230598   2.795   3.772   6.020
10214TIP3    H130599   2.803   3.745   5.929
10214TIP3    H230600   2.883   3.799   6.045
10215TIP3   OH230601   7.447   4.436   1.846
10215TIP3    H130602   7.535   4.442   1.810
10215TIP3    H230603   7.434   4.342   1.861
10216TIP3   OH230604   2.473   7.081   1.717
10216TIP3    H130605   2.459   7.001   1.768
10216TIP3    H230606   2.501   7.051   1.631
10217TIP3   OH230607   3.917   0.279   0.555
10217TIP3    H130608   3.902   0.189   0.526
10217TIP3    H230609   3.955   0.323   0.479
10218TIP3   OH230610   7.933   5.032   3.835
10218TIP3    H130611   7.951   4.996   3.748
10218TIP3    H230612   8.018   5.064   3.866
10219TIP3   OH230613   4.727   1.189   0.272
10219TIP3    H130614   4.795   1.236   0.223
10219TIP3    H230615   4.708   1.245   0.347
10220TIP3   OH230616   6.894   3.975   2.677
10220TIP3    H130617   6.950   4.050   2.658
10220TIP3    H230618   6.907   3.958   2.771
10221TIP3   OH230619   6.732   5.936   2.748
10221TIP3    H130620   6.710   6.025   2.720
10221TIP3    H230621   6.823   5.942   2.777
10222TIP3   OH230622   7.924   7.631   4.050
10222TIP3    H130623   7.911   7.663   3.961
10222TIP3    H230624   7.836   7.622   4.086
10223TIP3   OH230625   1.084   0.696   1.603
10223TIP3    H130626   1.140   0.754   1.551
10223TIP3    H230627   1.096   0.610   1.563
10224TIP3   OH230628   5.037   7.480   1.563
10224TIP3    H130629   5.129   7.454   1.555
10224TIP3    H230630   5.007   7.492   1.473
10225TIP3   OH230631   7.615   2.055   1.502
10225TIP3    H130632   7.569   2.138   1.515
10225TIP3    H230633   7.703   2.081   1.476
10226TIP3   OH230634   1.321   6.118   4.562
10226TIP3    H130635   1.348   6.210   4.564
10226TIP3    H230636   1.285   6.101   4.649
10227TIP3   OH230637   5.349   1.163   3.380
10227TIP3    H130638   5.359   1.197   3.469
10227TIP3    H230639   5.421   1.100   3.370
10228TIP3   OH230640   7.455   3.774   1.272
10228TIP3    H130641   7.509   3.736   1.341
10228TIP3    H230642   7.516   3.800   1.204
10229TIP3   OH230643   7.040   4.193   2.643
10229TIP3    H130644   7.060   4.274   2.690
10229TIP3    H230645   7.038   4.218   2.551
10230TIP3   OH230646   8.047   4.017   6.701
10230TIP3    H130647   8.033   3.989   6.792
10230TIP3    H230648   8.062   4.111   6.707
10231TIP3   OH230649   5.625   7.293   0.151
10231TIP3    H130650   5.717   7.308   0.170
10231TIP3    H230651   5.625   7.223   0.086
10232TIP3   OH230652   5.011   7.663   3.733
10232TIP3    H130653   4.928   7.625   3.762
10232TIP3    H230654   5.077   7.619   3.788
10233TIP3   OH230655   1.484   4.822   3.476
10233TIP3    H130656   1.514   4.796   3.563
10233TIP3    H230657   1.564   4.840   3.427
10234TIP3   OH230658   0.770   7.078   3.089
10234TIP3    H130659   0.724   7.000   3.056
10234TIP3    H230660   0.708   7.120   3.148
10235TIP3   OH230661   6.313   6.734   0.470
10235TIP3    H130662   6.273   6.649   0.487
10235TIP3    H230663   6.302   6.782   0.552
10236TIP3   OH230664   7.619   2.730   4.589
10236TIP3    H130665   7.652   2.792   4.525
10236TIP3    H230666   7.532   2.706   4.557
10237TIP3   OH230667   3.355   1.217   0.059
10237TIP3    H130668   3.264   1.245   0.054
10237TIP3    H230669   3.371   1.202   0.152
10238TIP3   OH230670   0.585   1.169   3.834
10238TIP3    H130671   0.509   1.112   3.819
10238TIP3    H230672   0.633   1.167   3.751
10239TIP3   OH230673   2.784   5.769   6.551
10239TIP3    H130674   2.858   5.765   6.611
10239TIP3    H230675   2.807   5.707   6.481
10240TIP3   OH230676   3.385   2.071   1.066
10240TIP3    H130677   3.356   2.160   1.089
10240TIP3    H230678   3.305   2.026   1.038
10241TIP3   OH230679   5.709   0.015   0.155
10241TIP3    H130680   5.789   0.028   0.104
10241TIP3    H230681   5.650   0.084   0.125
10242TIP3   OH230682   4.653   5.536   0.559
10242TIP3    H130683   4.665   5.620   0.515
10242TIP3    H230684   4.654   5.471   0.488
10243TIP3   OH230685   4.923   6.150   6.017
10243TIP3    H130686   4.866   6.176   5.944
10243TIP3    H230687   5.011   6.150   5.979
10244TIP3   OH230688   5.422   5.867   1.521
10244TIP3    H130689   5.454   5.791   1.472
10244TIP3    H230690   5.380   5.829   1.598
10245TIP3   OH230691   7.292   2.670   4.021
10245TIP3    H130692   7.225   2.620   3.975
10245TIP3    H230693   7.253   2.691   4.106
10246TIP3   OH230694   2.144   5.322   1.309
10246TIP3    H130695   2.141   5.263   1.384
10246TIP3    H230696   2.218   5.290   1.257
10247TIP3   OH230697   3.123   4.704   6.754
10247TIP3    H130698   3.107   4.751   6.672
10247TIP3    H230699   3.217   4.712   6.769
10248TIP3   OH230700   4.468   2.356   5.814
10248TIP3    H130701   4.501   2.294   5.879
10248TIP3    H230702   4.470   2.307   5.732
10249TIP3   OH230703   4.613   3.657   3.585
10249TIP3    H130704   4.569   3.575   3.607
10249TIP3    H230705   4.699   3.630   3.552
10250TIP3   OH230706   0.703   6.590   0.840
10250TIP3    H130707   0.797   6.593   0.819
10250TIP3    H230708   0.663   6.548   0.764
10251TIP3   OH230709   5.587   3.022   5.505
10251TIP3    H130710   5.539   2.992   5.428
10251TIP3    H230711   5.561   3.114   5.515
10252TIP3   OH230712   3.081   2.254   2.498
10252TIP3    H130713   3.116   2.164   2.501
10252TIP3    H230714   3.007   2.249   2.438
10253TIP3   OH230715   2.995   6.395   5.108
10253TIP3    H130716   3.065   6.333   5.128
10253TIP3    H230717   2.925   6.342   5.072
10254TIP3   OH230718   3.051   6.200   5.806
10254TIP3    H130719   2.960   6.223   5.824
10254TIP3    H230720   3.095   6.283   5.793
10255TIP3   OH230721   6.137   0.179   4.158
10255TIP3    H130722   6.167   0.269   4.159
10255TIP3    H230723   6.041   0.185   4.156
10256TIP3   OH230724   6.146   6.704   6.045
10256TIP3    H130725   6.177   6.623   6.005
10256TIP3    H230726   6.224   6.758   6.055
10257TIP3   OH230727   6.328   4.697   6.612
10257TIP3    H130728   6.324   4.770   6.674
10257TIP3    H230729   6.421   4.675   6.608
10258TIP3   OH230730   1.593   5.623   5.157
10258TIP3    H130731   1.588   5.571   5.237
10258TIP3    H230732   1.529   5.693   5.170
10259TIP3   OH230733   7.031   7.190   3.701
10259TIP3    H130734   6.980   7.123   3.746
10259TIP3    H230735   7.066   7.245   3.770
10260TIP3   OH230736   1.856   5.717   6.232
10260TIP3    H130737   1.786   5.658   6.261
10260TIP3    H230738   1.937   5.673   6.258
10261TIP3   OH230739   3.198   5.865   4.840
10261TIP3    H130740   3.142   5.921   4.893
10261TIP3    H230741   3.199   5.781   4.886
10262TIP3   OH230742   1.244   6.388   1.946
10262TIP3    H130743   1.226   6.307   1.898
10262TIP3    H230744   1.305   6.436   1.890
10263TIP3   OH230745   1.560   7.165   4.708
10263TIP3    H130746   1.644   7.209   4.692
10263TIP3    H230747   1.542   7.182   4.800
10264TIP3   OH230748   7.179   4.779   3.601
10264TIP3    H130749   7.204   4.741   3.516
10264TIP3    H230750   7.195   4.710   3.664
10265TIP3   OH230751   5.407   1.156   4.036
10265TIP3    H130752   5.475   1.136   3.971
10265TIP3    H230753   5.428   1.245   4.066
10266TIP3   OH230754   4.903   6.731   3.662
10266TIP3    H130755   4.923   6.787   3.587
10266TIP3    H230756   4.921   6.642   3.631
10267TIP3   OH230757   1.640   2.515   3.022
10267TIP3    H130758   1.649   2.507   2.927
10267TIP3    H230759   1.554   2.554   3.035
10268TIP3   OH230760   5.379   1.623   1.398
10268TIP3    H130761   5.391   1.675   1.319
10268TIP3    H230762   5.450   1.558   1.396
10269TIP3   OH230763   4.427   2.962   0.768
10269TIP3    H130764   4.366   3.011   0.712
10269TIP3    H230765   4.511   2.967   0.722
10270TIP3   OH230766   0.333   1.086   1.033
10270TIP3    H130767   0.368   1.082   0.944
10270TIP3    H230768   0.408   1.112   1.087
10271TIP3   OH230769   4.069   5.290   3.596
10271TIP3    H130770   4.039   5.363   3.543
10271TIP3    H230771   4.070   5.323   3.685
10272TIP3   OH230772   1.408   6.272   4.963
10272TIP3    H130773   1.346   6.320   4.907
10272TIP3    H230774   1.461   6.221   4.902
10273TIP3   OH230775   0.460   5.286   2.613
10273TIP3    H130776   0.510   5.313   2.536
10273TIP3    H230777   0.516   5.309   2.688
10274TIP3   OH230778   5.083   5.110   5.778
10274TIP3    H130779   5.121   5.114   5.690
10274TIP3    H230780   5.133   5.041   5.822
10275TIP3   OH230781   5.826   1.675   5.808
10275TIP3    H130782   5.766   1.720   5.749
10275TIP3    H230783   5.911   1.717   5.792
10276TIP3   OH230784   5.768   3.860   2.100
10276TIP3    H130785   5.818   3.808   2.037
10276TIP3    H230786   5.831   3.881   2.169
10277TIP3   OH230787   1.266   1.259   1.247
10277TIP3    H130788   1.189   1.313   1.267
10277TIP3    H230789   1.247   1.221   1.162
10278TIP3   OH230790   5.681   2.392   0.291
10278TIP3    H130791   5.617   2.357   0.353
10278TIP3    H230792   5.649   2.481   0.271
10279TIP3   OH230793   2.585   7.210   4.830
10279TIP3    H130794   2.584   7.254   4.915
10279TIP3    H230795   2.499   7.168   4.823
10280TIP3   OH230796   8.071   7.466   5.750
10280TIP3    H130797   8.162   7.493   5.736
10280TIP3    H230798   8.019   7.530   5.701
10281TIP3   OH230799   3.868   3.066   1.464
10281TIP3    H130800   3.940   3.102   1.517
10281TIP3    H230801   3.799   3.047   1.528
10282TIP3   OH230802   3.317   1.420   4.032
10282TIP3    H130803   3.323   1.466   3.948
10282TIP3    H230804   3.406   1.390   4.049
10283TIP3   OH230805   4.558   2.661   6.142
10283TIP3    H130806   4.605   2.692   6.219
10283TIP3    H230807   4.467   2.654   6.170
10284TIP3   OH230808   8.286   1.995   5.881
10284TIP3    H130809   8.322   1.959   5.799
10284TIP3    H230810   8.231   2.068   5.852
10285TIP3   OH230811   7.732   6.112   2.459
10285TIP3    H130812   7.739   6.017   2.468
10285TIP3    H230813   7.668   6.125   2.389
10286TIP3   OH230814   3.902   0.423   2.751
10286TIP3    H130815   3.875   0.345   2.800
10286TIP3    H230816   3.996   0.429   2.767
10287TIP3   OH230817   5.584   7.468   1.966
10287TIP3    H130818   5.492   7.447   1.955
10287TIP3    H230819   5.604   7.531   1.897
10288TIP3   OH230820   5.130   5.517   5.168
10288TIP3    H130821   5.050   5.532   5.118
10288TIP3    H230822   5.161   5.431   5.140
10289TIP3   OH230823   1.679   0.325   6.646
10289TIP3    H130824   1.600   0.305   6.596
10289TIP3    H230825   1.730   0.383   6.589
10290TIP3   OH230826   4.324   6.628   2.302
10290TIP3    H130827   4.347   6.721   2.297
10290TIP3    H230828   4.402   6.587   2.340
10291TIP3   OH230829   3.913   4.878   3.080
10291TIP3    H130830   3.944   4.788   3.072
10291TIP3    H230831   3.944   4.907   3.165
10292TIP3   OH230832   3.789   4.727   5.023
10292TIP3    H130833   3.877   4.716   4.987
10292TIP3    H230834   3.737   4.761   4.950
10293TIP3   OH230835   0.435   4.893   4.556
10293TIP3    H130836   0.527   4.895   4.531
10293TIP3    H230837   0.393   4.840   4.487
10294TIP3   OH230838   1.776   7.162   5.953
10294TIP3    H130839   1.852   7.122   5.994
10294TIP3    H230840   1.721   7.088   5.925
10295TIP3   OH230841   8.278   3.667   3.873
10295TIP3    H130842   8.190   3.646   3.902
10295TIP3    H230843   8.331   3.669   3.953
10296TIP3   OH230844   7.211   6.776   1.681
10296TIP3    H130845   7.160   6.764   1.760
10296TIP3    H230846   7.149   6.809   1.616
10297TIP3   OH230847   3.802   0.530   1.552
10297TIP3    H130848   3.742   0.604   1.546
10297TIP3    H230849   3.747   0.453   1.537
10298TIP3   OH230850   1.295   5.187   4.323
10298TIP3    H130851   1.367   5.135   4.287
10298TIP3    H230852   1.324   5.278   4.315
10299TIP3   OH230853   3.667   6.618   3.171
10299TIP3    H130854   3.740   6.569   3.209
10299TIP3    H230855   3.621   6.555   3.116
10300TIP3   OH230856   5.455   7.134   4.397
10300TIP3    H130857   5.470   7.045   4.366
10300TIP3    H230858   5.438   7.125   4.491
10301TIP3   OH230859   3.037   2.038   3.206
10301TIP3    H130860   3.018   1.965   3.264
10301TIP3    H230861   3.132   2.046   3.207
10302TIP3   OH230862   1.341   4.089   1.919
10302TIP3    H130863   1.296   4.034   1.984
10302TIP3    H230864   1.426   4.108   1.959
10303TIP3   OH230865   3.254   2.527   1.837
10303TIP3    H130866   3.193   2.484   1.898
10303TIP3    H230867   3.208   2.606   1.809
10304TIP3   OH230868   2.910   4.833   4.084
10304TIP3    H130869   2.995   4.849   4.042
10304TIP3    H230870   2.861   4.782   4.020
10305TIP3   OH230871   0.979   0.312   5.926
10305TIP3    H130872   0.892   0.290   5.893
10305TIP3    H230873   0.999   0.397   5.886
10306TIP3   OH230874   5.189   0.991   2.163
10306TIP3    H130875   5.213   0.911   2.211
10306TIP3    H230876   5.246   1.059   2.200
10307TIP3   OH230877   1.787   1.643   4.520
10307TIP3    H130878   1.698   1.678   4.528
10307TIP3    H230879   1.820   1.680   4.438
10308TIP3   OH230880   4.514   3.465   2.481
10308TIP3    H130881   4.468   3.458   2.397
10308TIP3    H230882   4.447   3.445   2.546
10309TIP3   OH230883   3.434   7.365   5.476
10309TIP3    H130884   3.504   7.411   5.522
10309TIP3    H230885   3.370   7.346   5.545
10310TIP3   OH230886   2.016   3.047   6.371
10310TIP3    H130887   2.025   3.142   6.380
10310TIP3    H230888   2.106   3.014   6.367
10311TIP3   OH230889   1.990   6.252   4.309
10311TIP3    H130890   2.005   6.163   4.339
10311TIP3    H230891   1.953   6.242   4.221
10312TIP3   OH230892   6.182   1.178   3.391
10312TIP3    H130893   6.197   1.273   3.385
10312TIP3    H230894   6.093   1.166   3.358
10313TIP3   OH230895   1.397   6.794   5.792
10313TIP3    H130896   1.318   6.805   5.738
10313TIP3    H230897   1.467   6.778   5.729
10314TIP3   OH230898   8.110   7.757   3.726
10314TIP3    H130899   8.090   7.790   3.814
10314TIP3    H230900   8.048   7.802   3.669
10315TIP3   OH230901   5.853   0.575   4.544
10315TIP3    H130902   5.876   0.665   4.518
10315TIP3    H230903   5.931   0.524   4.526
10316TIP3   OH230904   4.681   4.682   3.321
10316TIP3    H130905   4.639   4.687   3.235
10316TIP3    H230906   4.758   4.737   3.314
10317TIP3   OH230907   0.268   5.689   2.687
10317TIP3    H130908   0.321   5.762   2.658
10317TIP3    H230909   0.293   5.675   2.778
10318TIP3   OH230910   2.159   5.113   0.496
10318TIP3    H130911   2.241   5.130   0.541
10318TIP3    H230912   2.114   5.048   0.551
10319TIP3   OH230913   5.902   6.228   5.240
10319TIP3    H130914   5.962   6.227   5.165
10319TIP3    H230915   5.956   6.256   5.313
10320TIP3   OH230916   4.800   6.626   2.045
10320TIP3    H130917   4.747   6.700   2.075
10320TIP3    H230918   4.739   6.553   2.042
10321TIP3   OH230919   7.145   6.070   3.768
10321TIP3    H130920   7.180   6.118   3.844
10321TIP3    H230921   7.116   6.138   3.708
10322TIP3   OH230922   7.808   3.488   4.509
10322TIP3    H130923   7.723   3.450   4.531
10322TIP3    H230924   7.833   3.446   4.427
10323TIP3   OH230925   3.115   6.634   3.227
10323TIP3    H130926   3.043   6.671   3.177
10323TIP3    H230927   3.074   6.595   3.304
10324TIP3   OH230928   7.783   2.823   4.353
10324TIP3    H130929   7.784   2.897   4.292
10324TIP3    H230930   7.797   2.747   4.298
10325TIP3   OH230931   4.271   6.425   3.354
10325TIP3    H130932   4.309   6.338   3.339
10325TIP3    H230933   4.283   6.440   3.448
10326TIP3   OH230934   7.911   2.377   0.927
10326TIP3    H130935   7.962   2.340   0.999
10326TIP3    H230936   7.821   2.375   0.957
10327TIP3   OH230937   7.078   0.741   3.256
10327TIP3    H130938   6.990   0.736   3.293
10327TIP3    H230939   7.111   0.826   3.283
10328TIP3   OH230940   3.465   6.127   6.184
10328TIP3    H130941   3.410   6.095   6.112
10328TIP3    H230942   3.414   6.107   6.263
10329TIP3   OH230943   0.626   7.345   5.207
10329TIP3    H130944   0.619   7.251   5.222
10329TIP3    H230945   0.720   7.361   5.195
10330TIP3   OH230946   5.567   6.499   5.884
10330TIP3    H130947   5.548   6.580   5.838
10330TIP3    H230948   5.525   6.431   5.832
10331TIP3   OH230949   6.331   4.839   6.341
10331TIP3    H130950   6.348   4.873   6.429
10331TIP3    H230951   6.258   4.892   6.309
10332TIP3   OH230952   4.043   4.249   3.600
10332TIP3    H130953   4.086   4.334   3.611
10332TIP3    H230954   4.087   4.210   3.525
10333TIP3   OH230955   0.450   7.736   1.568
10333TIP3    H130956   0.392   7.713   1.496
10333TIP3    H230957   0.526   7.679   1.556
10334TIP3   OH230958   4.234   7.164   4.459
10334TIP3    H130959   4.273   7.206   4.536
10334TIP3    H230960   4.309   7.144   4.403
10335TIP3   OH230961   1.391   1.379   1.569
10335TIP3    H130962   1.464   1.334   1.613
10335TIP3    H230963   1.431   1.418   1.491
10336TIP3   OH230964   5.745   6.716   5.523
10336TIP3    H130965   5.822   6.680   5.567
10336TIP3    H230966   5.745   6.676   5.437
10337TIP3   OH230967   3.757   0.070   4.160
10337TIP3    H130968   3.796  -0.017   4.166
10337TIP3    H230969   3.699   0.077   4.236
10338TIP3   OH230970   1.001   0.685   0.145
10338TIP3    H130971   0.941   0.611   0.151
10338TIP3    H230972   0.983   0.725   0.060
10339TIP3   OH230973   1.784   1.705   0.705
10339TIP3    H130974   1.750   1.647   0.773
10339TIP3    H230975   1.737   1.788   0.718
10340TIP3   OH230976   8.036   0.653   4.603
10340TIP3    H130977   8.076   0.694   4.680
10340TIP3    H230978   7.962   0.603   4.638
10341TIP3   OH230979   2.455   1.896   4.307
10341TIP3    H130980   2.512   1.943   4.247
10341TIP3    H230981   2.375   1.949   4.311
10342TIP3   OH230982   3.221   3.402   3.427
10342TIP3    H130983   3.197   3.458   3.354
10342TIP3    H230984   3.286   3.342   3.391
10343TIP3   OH230985   4.422   5.753   0.963
10343TIP3    H130986   4.491   5.803   1.008
10343TIP3    H230987   4.467   5.675   0.929
10344TIP3   OH230988   0.236   6.223   0.962
10344TIP3    H130989   0.267   6.183   1.044
10344TIP3    H230990   0.311   6.217   0.903
10345TIP3   OH230991   4.355   5.579   4.181
10345TIP3    H130992   4.346   5.483   4.185
10345TIP3    H230993   4.272   5.610   4.146
10346TIP3   OH230994   0.090   1.791   5.281
10346TIP3    H130995   0.021   1.831   5.334
10346TIP3    H230996   0.044   1.733   5.221
10347TIP3   OH230997   5.563   5.231   2.369
10347TIP3    H130998   5.546   5.188   2.285
10347TIP3    H230999   5.609   5.166   2.421
10348TIP3   OH231000   5.347   0.266   3.659
10348TIP3    H131001   5.262   0.239   3.624
10348TIP3    H231002   5.410   0.212   3.611
10349TIP3   OH231003   2.306   3.016   4.950
10349TIP3    H131004   2.337   3.024   4.860
10349TIP3    H231005   2.383   3.035   5.004
10350TIP3   OH231006   3.973   5.275   0.644
10350TIP3    H131007   4.031   5.270   0.720
10350TIP3    H231008   4.030   5.295   0.571
10351TIP3   OH231009   6.617   1.446   3.154
10351TIP3    H131010   6.696   1.480   3.196
10351TIP3    H231011   6.646   1.421   3.066
10352TIP3   OH231012   8.171   1.114   0.485
10352TIP3    H131013   8.099   1.102   0.423
10352TIP3    H231014   8.131   1.099   0.571
10353TIP3   OH231015   6.327   2.975   5.122
10353TIP3    H131016   6.279   3.005   5.045
10353TIP3    H231017   6.417   3.002   5.106
10354TIP3   OH231018   4.096   1.350   4.769
10354TIP3    H131019   4.006   1.316   4.773
10354TIP3    H231020   4.095   1.411   4.695
10355TIP3   OH231021   7.343   0.405   2.513
10355TIP3    H131022   7.334   0.337   2.446
10355TIP3    H231023   7.419   0.456   2.486
10356TIP3   OH231024   6.598   7.266   3.256
10356TIP3    H131025   6.672   7.326   3.251
10356TIP3    H231026   6.637   7.179   3.245
10357TIP3   OH231027   3.138   7.173   0.460
10357TIP3    H131028   3.095   7.235   0.519
10357TIP3    H231029   3.217   7.218   0.431
10358TIP3   OH231030   1.574   1.995   2.224
10358TIP3    H131031   1.613   1.923   2.273
10358TIP3    H231032   1.480   1.991   2.245
10359TIP3   OH231033   4.786   5.906   4.751
10359TIP3    H131034   4.757   5.839   4.688
10359TIP3    H231035   4.734   5.983   4.729
10360TIP3   OH231036   0.256   7.115   2.603
10360TIP3    H131037   0.242   7.208   2.618
10360TIP3    H231038   0.290   7.110   2.513
10361TIP3   OH231039   7.782   3.832   1.887
10361TIP3    H131040   7.836   3.910   1.873
10361TIP3    H231041   7.693   3.866   1.896
10362TIP3   OH231042   1.248   7.610   3.307
10362TIP3    H131043   1.293   7.644   3.385
10362TIP3    H231044   1.201   7.532   3.339
10363TIP3   OH231045   1.556   5.562   0.638
10363TIP3    H131046   1.538   5.643   0.590
10363TIP3    H231047   1.542   5.493   0.574
10364TIP3   OH231048   0.664   5.858   6.539
10364TIP3    H131049   0.715   5.798   6.594
10364TIP3    H231050   0.709   5.858   6.455
10365TIP3   OH231051   0.250   4.746   0.367
10365TIP3    H131052   0.183   4.728   0.432
10365TIP3    H231053   0.332   4.753   0.417
10366TIP3   OH231054   2.119   6.591   2.286
10366TIP3    H131055   2.072   6.658   2.335
10366TIP3    H231056   2.126   6.517   2.346
10367TIP3   OH231057   3.335   5.567   6.179
10367TIP3    H131058   3.361   5.648   6.135
10367TIP3    H231059   3.368   5.497   6.123
10368TIP3   OH231060   3.172   4.221   1.748
10368TIP3    H131061   3.147   4.266   1.829
10368TIP3    H231062   3.229   4.150   1.776
10369TIP3   OH231063   4.254   2.358   3.261
10369TIP3    H131064   4.162   2.359   3.235
10369TIP3    H231065   4.280   2.450   3.263
10370TIP3   OH231066   5.173   0.961   2.955
10370TIP3    H131067   5.226   0.892   2.914
10370TIP3    H231068   5.210   1.042   2.921
10371TIP3   OH231069   2.028   3.477   1.845
10371TIP3    H131070   2.113   3.485   1.890
10371TIP3    H231071   2.005   3.385   1.853
10372TIP3   OH231072   3.638   0.363   6.686
10372TIP3    H131073   3.548   0.363   6.718
10372TIP3    H231074   3.630   0.362   6.591
10373TIP3   OH231075   1.358   1.040   6.773
10373TIP3    H131076   1.367   1.110   6.708
10373TIP3    H231077   1.268   1.048   6.804
10374TIP3   OH231078   4.370   0.807   3.743
10374TIP3    H131079   4.414   0.763   3.670
10374TIP3    H231080   4.439   0.827   3.805
10375TIP3   OH231081   6.842   3.042   5.537
10375TIP3    H131082   6.747   3.041   5.541
10375TIP3    H231083   6.863   2.997   5.454
10376TIP3   OH231084   6.190   1.845   4.615
10376TIP3    H131085   6.223   1.933   4.595
10376TIP3    H231086   6.240   1.817   4.692
10377TIP3   OH231087   3.481   1.626   2.433
10377TIP3    H131088   3.558   1.622   2.378
10377TIP3    H231089   3.504   1.577   2.512
10378TIP3   OH231090   1.844   1.678   5.247
10378TIP3    H131091   1.893   1.603   5.279
10378TIP3    H231092   1.848   1.742   5.319
10379TIP3   OH231093   8.230   2.246   1.020
10379TIP3    H131094   8.314   2.236   1.064
10379TIP3    H231095   8.186   2.317   1.068
10380TIP3   OH231096   5.781   1.549   1.945
10380TIP3    H131097   5.850   1.583   1.887
10380TIP3    H231098   5.716   1.619   1.948
10381TIP3   OH231099   2.003   0.170   4.339
10381TIP3    H131100   2.057   0.135   4.268
10381TIP3    H231101   1.979   0.258   4.311
10382TIP3   OH231102   6.992   4.337   5.224
10382TIP3    H131103   6.907   4.360   5.261
10382TIP3    H231104   6.973   4.309   5.134
10383TIP3   OH231105   1.985   7.467   3.952
10383TIP3    H131106   2.078   7.449   3.942
10383TIP3    H231107   1.949   7.388   3.991
10384TIP3   OH231108   6.305   1.426   0.359
10384TIP3    H131109   6.324   1.464   0.446
10384TIP3    H231110   6.210   1.426   0.354
10385TIP3   OH231111   7.724   5.660   1.405
10385TIP3    H131112   7.640   5.617   1.420
10385TIP3    H231113   7.783   5.589   1.381
10386TIP3   OH231114   5.892   1.996   4.682
10386TIP3    H131115   5.844   1.969   4.604
10386TIP3    H231116   5.937   1.916   4.712
10387TIP3   OH231117   3.915   6.264   1.589
10387TIP3    H131118   3.920   6.259   1.494
10387TIP3    H231119   3.936   6.176   1.620
10388TIP3   OH231120   7.505   0.185   6.319
10388TIP3    H131121   7.568   0.237   6.269
10388TIP3    H231122   7.518   0.095   6.289
10389TIP3   OH231123   0.012   2.405   2.980
10389TIP3    H131124   0.046   2.485   3.020
10389TIP3    H231125   0.081   2.375   2.921
10390TIP3   OH231126   2.115   2.916   1.754
10390TIP3    H131127   2.186   2.876   1.705
10390TIP3    H231128   2.076   2.844   1.803
10391TIP3   OH231129   3.726   4.655   0.839
10391TIP3    H131130   3.813   4.616   0.851
10391TIP3    H231131   3.733   4.741   0.880
10392TIP3   OH231132   2.804   0.563   3.667
10392TIP3    H131133   2.889   0.578   3.709
10392TIP3    H231134   2.755   0.513   3.732
10393TIP3   OH231135   4.256   5.078   4.426
10393TIP3    H131136   4.205   5.016   4.478
10393TIP3    H231137   4.284   5.027   4.349
10394TIP3   OH231138   7.021   0.745   2.393
10394TIP3    H131139   7.061   0.817   2.344
10394TIP3    H231140   6.945   0.783   2.436
10395TIP3   OH231141   6.619   6.650   3.091
10395TIP3    H131142   6.641   6.639   2.998
10395TIP3    H231143   6.576   6.735   3.095
10396TIP3   OH231144   0.130   0.763   5.875
10396TIP3    H131145   0.222   0.774   5.850
10396TIP3    H231146   0.102   0.850   5.904
10397TIP3   OH231147   1.931   3.774   5.393
10397TIP3    H131148   1.931   3.709   5.463
10397TIP3    H231149   1.946   3.857   5.438
10398TIP3   OH231150   2.960   3.185   0.190
10398TIP3    H131151   2.958   3.112   0.252
10398TIP3    H231152   2.982   3.261   0.244
10399TIP3   OH231153   0.496   7.831   0.334
10399TIP3    H131154   0.530   7.742   0.320
10399TIP3    H231155   0.547   7.864   0.408
10400TIP3   OH231156   8.162   2.262   1.827
10400TIP3    H131157   8.221   2.285   1.898
10400TIP3    H231158   8.104   2.196   1.865
10401TIP3   OH231159   2.266   2.798   1.534
10401TIP3    H131160   2.353   2.783   1.496
10401TIP3    H231161   2.205   2.786   1.462
10402TIP3   OH231162   5.595   0.282   1.514
10402TIP3    H131163   5.636   0.200   1.486
10402TIP3    H231164   5.533   0.255   1.582
10403TIP3   OH231165   6.522   5.563   4.521
10403TIP3    H131166   6.473   5.566   4.603
10403TIP3    H231167   6.579   5.487   4.529
10404TIP3   OH231168   5.804   3.207   6.013
10404TIP3    H131169   5.773   3.274   6.075
10404TIP3    H231170   5.725   3.181   5.965
10405TIP3   OH231171   6.821   5.868   0.871
10405TIP3    H131172   6.737   5.830   0.895
10405TIP3    H231173   6.869   5.796   0.829
10406TIP3   OH231174   5.015   2.731   6.444
10406TIP3    H131175   5.103   2.731   6.405
10406TIP3    H231176   4.991   2.824   6.448
10407TIP3   OH231177   7.607   0.667   4.785
10407TIP3    H131178   7.577   0.758   4.786
10407TIP3    H231179   7.553   0.623   4.850
10408TIP3   OH231180   0.117   7.547   2.254
10408TIP3    H131181   0.134   7.586   2.169
10408TIP3    H231182   0.056   7.475   2.236
10409TIP3   OH231183   8.146   4.709   4.113
10409TIP3    H131184   8.062   4.751   4.091
10409TIP3    H231185   8.162   4.736   4.203
10410TIP3   OH231186   2.181   0.822   0.631
10410TIP3    H131187   2.225   0.907   0.639
10410TIP3    H231188   2.093   0.842   0.601
10411TIP3   OH231189   1.678   4.160   4.669
10411TIP3    H131190   1.772   4.165   4.657
10411TIP3    H231191   1.644   4.243   4.635
10412TIP3   OH231192   7.866   1.900   4.777
10412TIP3    H131193   7.781   1.859   4.764
10412TIP3    H231194   7.848   1.975   4.834
10413TIP3   OH231195   0.594   2.174   6.542
10413TIP3    H131196   0.608   2.268   6.555
10413TIP3    H231197   0.510   2.156   6.583
10414TIP3   OH231198   1.524   5.284   1.197
10414TIP3    H131199   1.488   5.197   1.181
10414TIP3    H231200   1.498   5.336   1.121
10415TIP3   OH231201   2.209   0.061   0.645
10415TIP3    H131202   2.184   0.118   0.572
10415TIP3    H231203   2.164   0.099   0.721
10416TIP3   OH231204   7.228   5.494   3.776
10416TIP3    H131205   7.164   5.426   3.757
10416TIP3    H231206   7.191   5.574   3.738
10417TIP3   OH231207   4.187   6.594   0.332
10417TIP3    H131208   4.098   6.629   0.338
10417TIP3    H231209   4.238   6.648   0.393
10418TIP3   OH231210   1.737   3.748   5.181
10418TIP3    H131211   1.768   3.670   5.136
10418TIP3    H231212   1.765   3.735   5.272
10419TIP3   OH231213   3.264   2.279   1.218
10419TIP3    H131214   3.172   2.306   1.206
10419TIP3    H231215   3.308   2.359   1.248
10420TIP3   OH231216   5.060   6.054   0.266
10420TIP3    H131217   5.107   6.099   0.335
10420TIP3    H231218   5.077   5.961   0.281
10421TIP3   OH231219   3.348   4.200   1.025
10421TIP3    H131220   3.283   4.138   0.991
10421TIP3    H231221   3.327   4.208   1.118
10422TIP3   OH231222   7.012   7.399   4.420
10422TIP3    H131223   7.094   7.357   4.395
10422TIP3    H231224   6.944   7.335   4.399
10423TIP3   OH231225   6.751   3.678   0.175
10423TIP3    H131226   6.785   3.694   0.263
10423TIP3    H231227   6.656   3.692   0.183
10424TIP3   OH231228   4.910   4.311   3.969
10424TIP3    H131229   4.991   4.304   3.919
10424TIP3    H231230   4.861   4.231   3.948
10425TIP3   OH231231   7.997   5.219   2.149
10425TIP3    H131232   8.047   5.296   2.176
10425TIP3    H231233   7.910   5.232   2.186
10426TIP3   OH231234   0.132   7.307   0.218
10426TIP3    H131235   0.139   7.218   0.252
10426TIP3    H231236   0.049   7.308   0.170
10427TIP3   OH231237   4.746   0.852   1.729
10427TIP3    H131238   4.732   0.803   1.648
10427TIP3    H231239   4.819   0.807   1.772
10428TIP3   OH231240   6.476   3.366   4.985
10428TIP3    H131241   6.479   3.275   4.956
10428TIP3    H231242   6.420   3.364   5.063
10429TIP3   OH231243   3.449   6.822   3.953
10429TIP3    H131244   3.512   6.779   3.895
10429TIP3    H231245   3.365   6.779   3.933
10430TIP3   OH231246   4.955   6.475   2.245
10430TIP3    H131247   5.002   6.423   2.180
10430TIP3    H231248   4.892   6.526   2.193
10431TIP3   OH231249   7.777   3.608   2.206
10431TIP3    H131250   7.822   3.558   2.138
10431TIP3    H231251   7.848   3.653   2.253
10432TIP3   OH231252   2.733   2.940   1.159
10432TIP3    H131253   2.826   2.917   1.160
10432TIP3    H231254   2.687   2.856   1.162
10433TIP3   OH231255   4.946   2.564   5.448
10433TIP3    H131256   4.964   2.613   5.528
10433TIP3    H231257   4.908   2.481   5.478
10434TIP3   OH231258   1.447   4.057   6.695
10434TIP3    H131259   1.505   4.122   6.734
10434TIP3    H231260   1.359   4.081   6.725
10435TIP3   OH231261   6.151   1.520   3.367
10435TIP3    H131262   6.246   1.510   3.368
10435TIP3    H231263   6.135   1.583   3.297
10436TIP3   OH231264   4.169   2.815   5.502
10436TIP3    H131265   4.162   2.799   5.596
10436TIP3    H231266   4.081   2.799   5.469
10437TIP3   OH231267   1.176   1.997   2.652
10437TIP3    H131268   1.106   2.058   2.678
10437TIP3    H231269   1.158   1.979   2.560
10438TIP3   OH231270   7.426   4.419   6.711
10438TIP3    H131271   7.451   4.502   6.669
10438TIP3    H231272   7.396   4.445   6.798
10439TIP3   OH231273   1.522   5.508   3.353
10439TIP3    H131274   1.543   5.547   3.268
10439TIP3    H231275   1.428   5.492   3.350
10440TIP3   OH231276   6.617   5.123   5.059
10440TIP3    H131277   6.588   5.188   5.123
10440TIP3    H231278   6.564   5.140   4.981
10441TIP3   OH231279   6.570   4.485   4.753
10441TIP3    H131280   6.645   4.427   4.759
10441TIP3    H231281   6.559   4.520   4.841
10442TIP3   OH231282   0.903   7.086   4.314
10442TIP3    H131283   0.862   7.006   4.280
10442TIP3    H231284   0.993   7.060   4.332
10443TIP3   OH231285   0.425   3.211   6.631
10443TIP3    H131286   0.441   3.179   6.719
10443TIP3    H231287   0.455   3.140   6.574
10444TIP3   OH231288   2.271   1.409   5.706
10444TIP3    H131289   2.198   1.357   5.674
10444TIP3    H231290   2.335   1.345   5.737
10445TIP3   OH231291   2.424   6.020   3.485
10445TIP3    H131292   2.498   5.967   3.515
10445TIP3    H231293   2.347   5.979   3.525
10446TIP3   OH231294   6.783   2.040   4.815
10446TIP3    H131295   6.867   2.079   4.792
10446TIP3    H231296   6.761   2.077   4.900
10447TIP3   OH231297   1.148   1.720   3.633
10447TIP3    H131298   1.129   1.627   3.630
10447TIP3    H231299   1.066   1.762   3.604
10448TIP3   OH231300   5.167   3.117   0.274
10448TIP3    H131301   5.078   3.090   0.295
10448TIP3    H231302   5.160   3.155   0.186
10449TIP3   OH231303   5.656   0.404   4.622
10449TIP3    H131304   5.694   0.490   4.607
10449TIP3    H231305   5.710   0.344   4.569
10450TIP3   OH231306   3.881   2.362   4.412
10450TIP3    H131307   3.787   2.350   4.428
10450TIP3    H231308   3.906   2.286   4.360
10451TIP3   OH231309   2.502   4.787   3.812
10451TIP3    H131310   2.438   4.746   3.754
10451TIP3    H231311   2.470   4.876   3.823
10452TIP3   OH231312   4.162   4.379   1.187
10452TIP3    H131313   4.228   4.383   1.118
10452TIP3    H231314   4.191   4.442   1.253
10453TIP3   OH231315   4.481   7.052   3.014
10453TIP3    H131316   4.448   7.010   2.935
10453TIP3    H231317   4.415   7.033   3.081
10454TIP3   OH231318   1.081   0.769   1.294
10454TIP3    H131319   1.137   0.694   1.276
10454TIP3    H231320   1.013   0.766   1.227
10455TIP3   OH231321   6.195   1.293   1.803
10455TIP3    H131322   6.169   1.261   1.889
10455TIP3    H231323   6.130   1.257   1.743
10456TIP3   OH231324   0.198   6.913   6.691
10456TIP3    H131325   0.235   6.832   6.725
10456TIP3    H231326   0.104   6.895   6.685
10457TIP3   OH231327   1.009   1.390   1.846
10457TIP3    H131328   1.048   1.414   1.930
10457TIP3    H231329   0.929   1.342   1.869
10458TIP3   OH231330   2.284   2.550   3.476
10458TIP3    H131331   2.337   2.624   3.446
10458TIP3    H231332   2.275   2.564   3.571
10459TIP3   OH231333   5.415   3.132   5.809
10459TIP3    H131334   5.366   3.057   5.774
10459TIP3    H231335   5.460   3.097   5.886
10460TIP3   OH231336   8.073   1.870   2.974
10460TIP3    H131337   8.132   1.917   2.914
10460TIP3    H231338   8.097   1.778   2.964
10461TIP3   OH231339   1.048   5.694   6.551
10461TIP3    H131340   1.029   5.727   6.463
10461TIP3    H231341   1.113   5.625   6.537
10462TIP3   OH231342   2.077   7.715   4.037
10462TIP3    H131343   2.149   7.681   4.091
10462TIP3    H231344   2.033   7.637   4.004
10463TIP3   OH231345   4.562   7.661   5.705
10463TIP3    H131346   4.482   7.609   5.701
10463TIP3    H231347   4.631   7.603   5.673
10464TIP3   OH231348   7.057   7.101   5.704
10464TIP3    H131349   7.126   7.069   5.762
10464TIP3    H231350   7.099   7.172   5.655
10465TIP3   OH231351   4.196   1.762   5.689
10465TIP3    H131352   4.194   1.726   5.600
10465TIP3    H231353   4.104   1.768   5.714
10466TIP3   OH231354   0.769   4.965   0.855
10466TIP3    H131355   0.815   4.983   0.937
10466TIP3    H231356   0.797   5.035   0.796
10467TIP3   OH231357   3.479   1.974   2.531
10467TIP3    H131358   3.495   1.913   2.603
10467TIP3    H231359   3.523   2.055   2.558
10468TIP3   OH231360   4.756   6.235   0.385
10468TIP3    H131361   4.721   6.289   0.456
10468TIP3    H231362   4.812   6.295   0.335
10469TIP3   OH231363   0.361   2.919   5.534
10469TIP3    H131364   0.321   3.006   5.534
10469TIP3    H231365   0.289   2.859   5.553
10470TIP3   OH231366   7.337   2.904   1.523
10470TIP3    H131367   7.277   2.958   1.471
10470TIP3    H231368   7.344   2.951   1.606
10471TIP3   OH231369   0.758   5.735   5.163
10471TIP3    H131370   0.755   5.757   5.070
10471TIP3    H231371   0.692   5.792   5.203
10472TIP3   OH231372   3.172   7.647   3.670
10472TIP3    H131373   3.131   7.595   3.739
10472TIP3    H231374   3.254   7.601   3.651
10473TIP3   OH231375   7.287   0.282   6.148
10473TIP3    H131376   7.340   0.357   6.176
10473TIP3    H231377   7.289   0.222   6.222
10474TIP3   OH231378   4.680   3.161   3.342
10474TIP3    H131379   4.618   3.099   3.378
10474TIP3    H231380   4.629   3.213   3.280
10475TIP3   OH231381   1.656   6.190   6.300
10475TIP3    H131382   1.698   6.258   6.248
10475TIP3    H231383   1.656   6.113   6.242
10476TIP3   OH231384   4.251   4.759   2.304
10476TIP3    H131385   4.174   4.703   2.294
10476TIP3    H231386   4.260   4.771   2.399
10477TIP3   OH231387   1.186   5.731   2.524
10477TIP3    H131388   1.176   5.665   2.592
10477TIP3    H231389   1.246   5.692   2.461
10478TIP3   OH231390   5.372   7.491   3.943
10478TIP3    H131391   5.363   7.436   3.866
10478TIP3    H231392   5.387   7.430   4.015
10479TIP3   OH231393   2.596   7.058   3.128
10479TIP3    H131394   2.578   7.010   3.047
10479TIP3    H231395   2.676   7.109   3.109
10480TIP3   OH231396   5.485   6.737   4.688
10480TIP3    H131397   5.570   6.702   4.660
10480TIP3    H231398   5.438   6.755   4.606
10481TIP3   OH231399   0.711   4.332   5.931
10481TIP3    H131400   0.700   4.422   5.900
10481TIP3    H231401   0.622   4.299   5.943
10482TIP3   OH231402   3.757   7.593   6.425
10482TIP3    H131403   3.841   7.549   6.439
10482TIP3    H231404   3.704   7.569   6.501
10483TIP3   OH231405   6.180   1.547   6.146
10483TIP3    H131406   6.178   1.597   6.065
10483TIP3    H231407   6.262   1.498   6.142
10484TIP3   OH231408   4.014   0.701   1.564
10484TIP3    H131409   3.975   0.722   1.649
10484TIP3    H231410   3.982   0.614   1.544
10485TIP3   OH231411   7.224   4.598   3.826
10485TIP3    H131412   7.150   4.565   3.876
10485TIP3    H231413   7.247   4.528   3.766
10486TIP3   OH231414   6.117   6.508   4.640
10486TIP3    H131415   6.180   6.498   4.712
10486TIP3    H231416   6.153   6.581   4.588
10487TIP3   OH231417   6.082   4.943   3.228
10487TIP3    H131418   6.137   4.869   3.201
10487TIP3    H231419   6.006   4.903   3.270
10488TIP3   OH231420   7.302   7.362   3.793
10488TIP3    H131421   7.385   7.402   3.819
10488TIP3    H231422   7.310   7.351   3.698
10489TIP3   OH231423   8.141   2.610   6.109
10489TIP3    H131424   8.117   2.535   6.053
10489TIP3    H231425   8.057   2.647   6.136
10490TIP3   OH231426   1.513   5.218   2.113
10490TIP3    H131427   1.587   5.243   2.169
10490TIP3    H231428   1.554   5.194   2.030
10491TIP3   OH231429   5.502   4.679   1.232
10491TIP3    H131430   5.589   4.715   1.217
10491TIP3    H231431   5.451   4.704   1.155
10492TIP3   OH231432   1.204   7.222   4.080
10492TIP3    H131433   1.120   7.265   4.068
10492TIP3    H231434   1.224   7.184   3.995
10493TIP3   OH231435   3.269   7.725   5.223
10493TIP3    H131436   3.178   7.744   5.201
10493TIP3    H231437   3.275   7.741   5.317
10494TIP3   OH231438   4.041   3.241   0.167
10494TIP3    H131439   4.045   3.216   0.259
10494TIP3    H231440   4.110   3.190   0.125
10495TIP3   OH231441   2.683   2.488   6.187
10495TIP3    H131442   2.682   2.520   6.097
10495TIP3    H231443   2.712   2.563   6.239
10496TIP3   OH231444   0.199   5.921   0.256
10496TIP3    H131445   0.113   5.955   0.280
10496TIP3    H231446   0.234   5.885   0.337
10497TIP3   OH231447   0.338   4.581   4.979
10497TIP3    H131448   0.263   4.573   5.037
10497TIP3    H231449   0.332   4.669   4.943
10498TIP3   OH231450   5.149   6.550   0.871
10498TIP3    H131451   5.146   6.603   0.790
10498TIP3    H231452   5.058   6.547   0.900
10499TIP3   OH231453   3.793   4.104   1.728
10499TIP3    H131454   3.780   4.197   1.745
10499TIP3    H231455   3.871   4.100   1.672
10500TIP3   OH231456   4.785   1.053   6.149
10500TIP3    H131457   4.733   1.001   6.088
10500TIP3    H231458   4.780   1.005   6.232
10501TIP3   OH231459   5.597   4.004   6.582
10501TIP3    H131460   5.634   4.082   6.623
10501TIP3    H231461   5.655   3.987   6.508
10502TIP3   OH231462   5.696   0.432   6.499
10502TIP3    H131463   5.717   0.347   6.459
10502TIP3    H231464   5.759   0.441   6.571
10503TIP3   OH231465   6.768   5.764   6.008
10503TIP3    H131466   6.844   5.735   6.058
10503TIP3    H231467   6.696   5.710   6.041
10504TIP3   OH231468   0.182   0.055   0.691
10504TIP3    H131469   0.238   0.094   0.758
10504TIP3    H231470   0.128   0.127   0.660
10505TIP3   OH231471   0.249   5.829   5.344
10505TIP3    H131472   0.186   5.778   5.395
10505TIP3    H231473   0.334   5.791   5.367
10506TIP3   OH231474   6.848   0.387   1.927
10506TIP3    H131475   6.801   0.463   1.962
10506TIP3    H231476   6.782   0.339   1.877
10507TIP3   OH231477   0.452   2.913   3.853
10507TIP3    H131478   0.369   2.913   3.899
10507TIP3    H231479   0.437   2.859   3.775
10508TIP3   OH231480   0.287   6.649   6.128
10508TIP3    H131481   0.296   6.704   6.050
10508TIP3    H231482   0.267   6.562   6.093
10509TIP3   OH231483   2.806   6.316   6.525
10509TIP3    H131484   2.722   6.316   6.571
10509TIP3    H231485   2.866   6.271   6.585
10510TIP3   OH231486   4.496   5.239   5.302
10510TIP3    H131487   4.490   5.332   5.282
10510TIP3    H231488   4.556   5.203   5.236
10511TIP3   OH231489   6.038   1.310   2.542
10511TIP3    H131490   5.967   1.364   2.508
10511TIP3    H231491   5.995   1.245   2.598
10512TIP3   OH231492   7.151   0.604   0.904
10512TIP3    H131493   7.174   0.605   0.997
10512TIP3    H231494   7.084   0.671   0.894
10513TIP3   OH231495   3.432   1.526   0.951
10513TIP3    H131496   3.391   1.444   0.923
10513TIP3    H231497   3.511   1.533   0.898
10514TIP3   OH231498   1.810   5.543   5.979
10514TIP3    H131499   1.767   5.606   5.921
10514TIP3    H231500   1.740   5.482   6.003
10515TIP3   OH231501   5.969   4.316   0.347
10515TIP3    H131502   6.049   4.366   0.329
10515TIP3    H231503   5.972   4.243   0.285
10516TIP3   OH231504   7.522   4.705   1.487
10516TIP3    H131505   7.438   4.706   1.441
10516TIP3    H231506   7.587   4.697   1.417
10517TIP3   OH231507   0.875   5.129   0.682
10517TIP3    H131508   0.873   5.179   0.600
10517TIP3    H231509   0.913   5.188   0.746
10518TIP3   OH231510   6.390   4.415   6.721
10518TIP3    H131511   6.308   4.431   6.768
10518TIP3    H231512   6.448   4.485   6.750
10519TIP3   OH231513   8.046   0.313   3.150
10519TIP3    H131514   7.999   0.352   3.077
10519TIP3    H231515   8.071   0.226   3.119
10520TIP3   OH231516   1.979   2.278   0.305
10520TIP3    H131517   1.906   2.239   0.353
10520TIP3    H231518   1.997   2.361   0.351
10521TIP3   OH231519   0.296   0.418   3.576
10521TIP3    H131520   0.331   0.506   3.581
10521TIP3    H231521   0.364   0.367   3.532
10522TIP3   OH231522   7.116   2.271   0.481
10522TIP3    H131523   7.028   2.292   0.514
10522TIP3    H231524   7.161   2.355   0.480
10523TIP3   OH231525   6.623   1.853   6.468
10523TIP3    H131526   6.676   1.925   6.502
10523TIP3    H231527   6.686   1.786   6.442
10524TIP3   OH231528   5.579   1.651   2.466
10524TIP3    H131529   5.656   1.678   2.416
10524TIP3    H231530   5.591   1.557   2.479
10525TIP3   OH231531   4.602   1.967   6.465
10525TIP3    H131532   4.656   2.010   6.531
10525TIP3    H231533   4.512   1.983   6.493
10526TIP3   OH231534   3.045   4.797   1.906
10526TIP3    H131535   3.100   4.719   1.899
10526TIP3    H231536   2.976   4.772   1.968
10527TIP3   OH231537   4.622   6.626   2.702
10527TIP3    H131538   4.615   6.659   2.792
10527TIP3    H231539   4.651   6.535   2.713
10528TIP3   OH231540   7.119   0.448   1.977
10528TIP3    H131541   7.032   0.407   1.975
10528TIP3    H231542   7.121   0.504   1.900
10529TIP3   OH231543   7.500   5.939   4.249
10529TIP3    H131544   7.431   5.920   4.312
10529TIP3    H231545   7.457   5.990   4.180
10530TIP3   OH231546   4.218   6.921   0.229
10530TIP3    H131547   4.295   6.977   0.223
10530TIP3    H231548   4.228   6.858   0.158
10531TIP3   OH231549   6.734   5.222   6.654
10531TIP3    H131550   6.760   5.294   6.711
10531TIP3    H231551   6.709   5.152   6.714
10532TIP3   OH231552   2.052   4.721   3.686
10532TIP3    H131553   2.004   4.794   3.725
10532TIP3    H231554   2.124   4.763   3.639
10533TIP3   OH231555   7.537   5.776   6.579
10533TIP3    H131556   7.617   5.779   6.527
10533TIP3    H231557   7.511   5.684   6.577
10534TIP3   OH231558   2.127   0.722   5.755
10534TIP3    H131559   2.143   0.702   5.663
10534TIP3    H231560   2.199   0.680   5.802
10535TIP3   OH231561   3.652   3.015   4.388
10535TIP3    H131562   3.746   3.029   4.377
10535TIP3    H231563   3.645   2.943   4.450
10536TIP3   OH231564   8.238   5.647   3.054
10536TIP3    H131565   8.258   5.648   2.960
10536TIP3    H231566   8.202   5.735   3.071
10537TIP3   OH231567   2.815   0.943   4.740
10537TIP3    H131568   2.849   0.904   4.659
10537TIP3    H231569   2.893   0.957   4.794
10538TIP3   OH231570   4.251   7.300   0.415
10538TIP3    H131571   4.293   7.383   0.438
10538TIP3    H231572   4.273   7.241   0.487
10539TIP3   OH231573   1.269   1.614   6.264
10539TIP3    H131574   1.227   1.561   6.332
10539TIP3    H231575   1.341   1.659   6.309
10540TIP3   OH231576   6.830   0.716   6.397
10540TIP3    H131577   6.739   0.710   6.371
10540TIP3    H231578   6.843   0.643   6.457
10541TIP3   OH231579   1.162   2.466   2.832
10541TIP3    H131580   1.077   2.511   2.840
10541TIP3    H231581   1.227   2.533   2.852
10542TIP3   OH231582   1.746   5.253   1.057
10542TIP3    H131583   1.701   5.290   0.981
10542TIP3    H231584   1.677   5.236   1.121
10543TIP3   OH231585   2.776   1.471   0.138
10543TIP3    H131586   2.731   1.436   0.061
10543TIP3    H231587   2.713   1.531   0.177
10544TIP3   OH231588   2.488   1.115   1.915
10544TIP3    H131589   2.555   1.055   1.880
10544TIP3    H231590   2.517   1.133   2.005
10545TIP3   OH231591   7.601   5.007   6.253
10545TIP3    H131592   7.563   4.920   6.245
10545TIP3    H231593   7.536   5.066   6.215
10546TIP3   OH231594   7.195   4.691   5.767
10546TIP3    H131595   7.220   4.613   5.718
10546TIP3    H231596   7.269   4.751   5.757
10547TIP3   OH231597   4.764   7.700   3.287
10547TIP3    H131598   4.733   7.719   3.376
10547TIP3    H231599   4.699   7.740   3.230
10548TIP3   OH231600   1.167   5.525   3.748
10548TIP3    H131601   1.095   5.547   3.808
10548TIP3    H231602   1.147   5.437   3.717
10549TIP3   OH231603   6.643   0.186   4.175
10549TIP3    H131604   6.572   0.145   4.224
10549TIP3    H231605   6.635   0.149   4.087
10550TIP3   OH231606   5.567   7.551   4.950
10550TIP3    H131607   5.558   7.588   4.863
10550TIP3    H231608   5.488   7.578   4.997
10551TIP3   OH231609   2.515   3.905   3.462
10551TIP3    H131610   2.450   3.962   3.504
10551TIP3    H231611   2.481   3.892   3.373
10552TIP3   OH231612   6.383   4.110   2.845
10552TIP3    H131613   6.367   4.170   2.918
10552TIP3    H231614   6.471   4.078   2.859
10553TIP3   OH231615   7.386   4.977   4.820
10553TIP3    H131616   7.405   5.071   4.820
10553TIP3    H231617   7.447   4.940   4.756
10554TIP3   OH231618   5.728   4.926   6.029
10554TIP3    H131619   5.687   4.948   5.946
10554TIP3    H231620   5.739   4.831   6.027
10555TIP3   OH231621   2.535   2.223   1.980
10555TIP3    H131622   2.557   2.298   2.036
10555TIP3    H231623   2.463   2.180   2.024
10556TIP3   OH231624   0.643   6.660   4.659
10556TIP3    H131625   0.662   6.699   4.574
10556TIP3    H231626   0.648   6.566   4.644
10557TIP3   OH231627   4.119   7.536   1.858
10557TIP3    H131628   4.195   7.566   1.908
10557TIP3    H231629   4.079   7.469   1.912
10558TIP3   OH231630   7.569   3.434   3.698
10558TIP3    H131631   7.653   3.462   3.734
10558TIP3    H231632   7.504   3.485   3.746
10559TIP3   OH231633   5.482   6.840   0.629
10559TIP3    H131634   5.524   6.881   0.553
10559TIP3    H231635   5.421   6.906   0.661
10560TIP3   OH231636   6.985   2.901   6.085
10560TIP3    H131637   6.945   2.925   6.001
10560TIP3    H231638   6.914   2.858   6.134
10561TIP3   OH231639   7.736   0.072   5.892
10561TIP3    H131640   7.789  -0.006   5.911
10561TIP3    H231641   7.677   0.043   5.822
10562TIP3   OH231642   1.424   4.079   4.880
10562TIP3    H131643   1.439   4.151   4.942
10562TIP3    H231644   1.474   4.104   4.802
10563TIP3   OH231645   4.256   3.101   4.568
10563TIP3    H131646   4.299   3.117   4.485
10563TIP3    H231647   4.224   3.011   4.562
10564TIP3   OH231648   4.719   1.884   2.112
10564TIP3    H131649   4.810   1.908   2.133
10564TIP3    H231650   4.712   1.897   2.017
10565TIP3   OH231651   1.122   7.282   5.940
10565TIP3    H131652   1.217   7.280   5.933
10565TIP3    H231653   1.102   7.368   5.975
10566TIP3   OH231654   4.687   5.583   0.151
10566TIP3    H131655   4.703   5.490   0.138
10566TIP3    H231656   4.613   5.587   0.212
10567TIP3   OH231657   0.989   3.463   4.959
10567TIP3    H131658   0.983   3.462   5.055
10567TIP3    H231659   0.991   3.370   4.934
10568TIP3   OH231660   5.436   0.809   3.726
10568TIP3    H131661   5.374   0.738   3.742
10568TIP3    H231662   5.495   0.774   3.659
10569TIP3   OH231663   2.206   1.021   2.568
10569TIP3    H131664   2.187   0.980   2.652
10569TIP3    H231665   2.206   1.115   2.587
10570TIP3   OH231666   1.599   4.520   1.538
10570TIP3    H131667   1.568   4.541   1.626
10570TIP3    H231668   1.519   4.505   1.488
10571TIP3   OH231669   6.256   3.978   6.716
10571TIP3    H131670   6.286   3.958   6.627
10571TIP3    H231671   6.335   4.006   6.762
10572TIP3   OH231672   2.084   0.550   3.248
10572TIP3    H131673   2.066   0.464   3.210
10572TIP3    H231674   2.047   0.546   3.336
10573TIP3   OH231675  -0.017   7.741   1.084
10573TIP3    H131676   0.016   7.752   0.995
10573TIP3    H231677   0.056   7.703   1.132
10574TIP3   OH231678   2.369   1.765   0.201
10574TIP3    H131679   2.372   1.766   0.106
10574TIP3    H231680   2.423   1.839   0.228
10575TIP3   OH231681   4.866   0.474   4.405
10575TIP3    H131682   4.926   0.548   4.395
10575TIP3    H231683   4.911   0.401   4.364
10576TIP3   OH231684   5.472   5.247   4.477
10576TIP3    H131685   5.440   5.159   4.461
10576TIP3    H231686   5.429   5.273   4.559
10577TIP3   OH231687   4.245   0.600   1.992
10577TIP3    H131688   4.332   0.564   1.972
10577TIP3    H231689   4.184   0.538   1.952
10578TIP3   OH231690   6.971   2.112   5.338
10578TIP3    H131691   7.048   2.156   5.373
10578TIP3    H231692   7.006   2.048   5.277
10579TIP3   OH231693   7.471   6.555   5.036
10579TIP3    H131694   7.462   6.602   5.119
10579TIP3    H231695   7.407   6.484   5.041
10580TIP3   OH231696   7.023   6.138   4.961
10580TIP3    H131697   6.930   6.157   4.960
10580TIP3    H231698   7.039   6.088   4.880
10581TIP3   OH231699   7.087   2.619   5.879
10581TIP3    H131700   7.139   2.561   5.935
10581TIP3    H231701   7.007   2.636   5.928
10582TIP3   OH231702   7.520   5.519   5.003
10582TIP3    H131703   7.489   5.450   4.944
10582TIP3    H231704   7.449   5.583   5.004
10583TIP3   OH231705   3.640   4.197   1.980
10583TIP3    H131706   3.627   4.291   1.992
10583TIP3    H231707   3.582   4.175   1.907
10584TIP3   OH231708   6.790   4.190   5.086
10584TIP3    H131709   6.877   4.161   5.057
10584TIP3    H231710   6.773   4.139   5.164
10585TIP3   OH231711   5.768   5.743   4.765
10585TIP3    H131712   5.677   5.717   4.751
10585TIP3    H231713   5.763   5.837   4.783
10586TIP3   OH231714   0.833   0.609   3.948
10586TIP3    H131715   0.866   0.615   4.038
10586TIP3    H231716   0.802   0.698   3.929
10587TIP3   OH231717   5.791   1.288   1.379
10587TIP3    H131718   5.746   1.351   1.435
10587TIP3    H231719   5.789   1.206   1.429
10588TIP3   OH231720   1.593   3.067   4.323
10588TIP3    H131721   1.608   3.119   4.244
10588TIP3    H231722   1.497   3.065   4.332
10589TIP3   OH231723   4.453   2.704   3.486
10589TIP3    H131724   4.437   2.659   3.570
10589TIP3    H231725   4.488   2.789   3.511
10590TIP3   OH231726   0.583   0.372   6.077
10590TIP3    H131727   0.540   0.292   6.049
10590TIP3    H231728   0.660   0.343   6.124
10591TIP3   OH231729   1.275   2.958   3.195
10591TIP3    H131730   1.267   3.038   3.246
10591TIP3    H231731   1.341   2.978   3.128
10592TIP3   OH231732   6.197   0.676   4.850
10592TIP3    H131733   6.115   0.706   4.810
10592TIP3    H231734   6.228   0.607   4.792
10593TIP3   OH231735   1.241   5.588   5.248
10593TIP3    H131736   1.163   5.627   5.287
10593TIP3    H231737   1.208   5.515   5.196
10594TIP3   OH231738   7.701   1.102   2.511
10594TIP3    H131739   7.796   1.107   2.525
10594TIP3    H231740   7.676   1.189   2.482
10595TIP3   OH231741   4.625   5.343   3.680
10595TIP3    H131742   4.536   5.329   3.712
10595TIP3    H231743   4.661   5.409   3.740
10596TIP3   OH231744   1.234   7.565   4.539
10596TIP3    H131745   1.305   7.591   4.597
10596TIP3    H231746   1.248   7.472   4.523
10597TIP3   OH231747   2.252   0.192   4.816
10597TIP3    H131748   2.186   0.233   4.760
10597TIP3    H231749   2.314   0.263   4.835
10598TIP3   OH231750   2.902   1.032   2.098
10598TIP3    H131751   2.938   0.944   2.109
10598TIP3    H231752   2.950   1.067   2.022
10599TIP3   OH231753   0.394   1.308   0.341
10599TIP3    H131754   0.355   1.277   0.423
10599TIP3    H231755   0.468   1.248   0.325
10600TIP3   OH231756   1.629   3.964   5.548
10600TIP3    H131757   1.680   4.037   5.511
10600TIP3    H231758   1.678   3.938   5.626
10601TIP3   OH231759   2.937   3.163   1.539
10601TIP3    H131760   2.882   3.142   1.464
10601TIP3    H231761   2.874   3.182   1.609
10602TIP3   OH231762   0.023   4.752   2.693
10602TIP3    H131763  -0.008   4.662   2.700
10602TIP3    H231764   0.066   4.770   2.777
10603TIP3   OH231765   6.555   3.063   4.946
10603TIP3    H131766   6.470   3.063   4.902
10603TIP3    H231767   6.605   2.993   4.904
10604TIP3   OH231768   6.106   6.669   1.399
10604TIP3    H131769   6.067   6.727   1.465
10604TIP3    H231770   6.035   6.609   1.376
10605TIP3   OH231771   3.556   7.785   0.001
10605TIP3    H131772   3.534   7.816   0.089
10605TIP3    H231773   3.646   7.815  -0.013
10606TIP3   OH231774   2.205   3.608   4.134
10606TIP3    H131775   2.280   3.550   4.126
10606TIP3    H231776   2.233   3.676   4.195
10607TIP3   OH231777   3.070   2.741   5.273
10607TIP3    H131778   3.159   2.706   5.269
10607TIP3    H231779   3.082   2.836   5.268
10608TIP3   OH231780   5.694   2.150   0.935
10608TIP3    H131781   5.620   2.209   0.950
10608TIP3    H231782   5.712   2.159   0.841
10609TIP3   OH231783   4.677   2.976   0.672
10609TIP3    H131784   4.728   2.951   0.749
10609TIP3    H231785   4.743   2.986   0.603
10610TIP3   OH231786   4.802   3.392   3.702
10610TIP3    H131787   4.782   3.472   3.749
10610TIP3    H231788   4.869   3.417   3.638
10611TIP3   OH231789   5.906   6.408   6.253
10611TIP3    H131790   5.880   6.457   6.175
10611TIP3    H231791   5.986   6.450   6.283
10612TIP3   OH231792   3.914   2.046   3.443
10612TIP3    H131793   4.006   2.026   3.422
10612TIP3    H231794   3.873   2.060   3.358
10613TIP3   OH231795   5.506   5.169   1.243
10613TIP3    H131796   5.596   5.173   1.210
10613TIP3    H231797   5.512   5.195   1.335
10614TIP3   OH231798   0.524   4.126   6.548
10614TIP3    H131799   0.585   4.196   6.522
10614TIP3    H231800   0.438   4.159   6.521
10615TIP3   OH231801   6.521   1.058   3.070
10615TIP3    H131802   6.486   0.981   3.025
10615TIP3    H231803   6.613   1.037   3.085
10616TIP3   OH231804   6.109   2.292   2.740
10616TIP3    H131805   6.065   2.364   2.693
10616TIP3    H231806   6.039   2.251   2.792
10617TIP3   OH231807   4.290   4.230   4.578
10617TIP3    H131808   4.374   4.188   4.561
10617TIP3    H231809   4.227   4.180   4.526
10618TIP3   OH231810   3.873   3.856   2.695
10618TIP3    H131811   3.866   3.837   2.602
10618TIP3    H231812   3.968   3.862   2.711
10619TIP3   OH231813   1.081   1.855   5.643
10619TIP3    H131814   1.044   1.943   5.648
10619TIP3    H231815   1.175   1.868   5.654
10620TIP3   OH231816   6.035   7.115   1.777
10620TIP3    H131817   6.009   7.067   1.699
10620TIP3    H231818   6.125   7.086   1.794
10621TIP3   OH231819   0.903   6.541   5.086
10621TIP3    H131820   0.821   6.531   5.135
10621TIP3    H231821   0.893   6.481   5.012
10622TIP3   OH231822   4.697   6.180   5.865
10622TIP3    H131823   4.650   6.157   5.784
10622TIP3    H231824   4.686   6.275   5.872
10623TIP3   OH231825   4.887   1.642   4.002
10623TIP3    H131826   4.972   1.661   3.964
10623TIP3    H231827   4.827   1.638   3.927
10624TIP3   OH231828   4.080   0.905   5.150
10624TIP3    H131829   4.157   0.862   5.113
10624TIP3    H231830   4.006   0.855   5.116
10625TIP3   OH231831   6.324   0.387   0.120
10625TIP3    H131832   6.303   0.444   0.194
10625TIP3    H231833   6.419   0.387   0.115
10626TIP3   OH231834   2.402   7.387   1.829
10626TIP3    H131835   2.411   7.297   1.799
10626TIP3    H231836   2.450   7.439   1.765
10627TIP3   OH231837   3.008   5.042   5.912
10627TIP3    H131838   2.998   4.998   5.827
10627TIP3    H231839   3.013   5.135   5.889
10628TIP3   OH231840   7.736   2.307   6.531
10628TIP3    H131841   7.781   2.308   6.616
10628TIP3    H231842   7.805   2.321   6.467
10629TIP3   OH231843   4.099   4.825   6.211
10629TIP3    H131844   4.122   4.899   6.154
10629TIP3    H231845   4.075   4.865   6.294
10630TIP3   OH231846   5.856   0.558   0.906
10630TIP3    H131847   5.922   0.622   0.881
10630TIP3    H231848   5.889   0.520   0.988
10631TIP3   OH231849   6.972   2.064   5.763
10631TIP3    H131850   6.931   2.079   5.848
10631TIP3    H231851   6.952   1.972   5.743
10632TIP3   OH231852   4.474   5.182   1.822
10632TIP3    H131853   4.443   5.138   1.743
10632TIP3    H231854   4.551   5.231   1.794
10633TIP3   OH231855   1.897   7.188   4.345
10633TIP3    H131856   1.915   7.159   4.434
10633TIP3    H231857   1.981   7.221   4.313
10634TIP3   OH231858   6.431   3.173   4.382
10634TIP3    H131859   6.452   3.109   4.314
10634TIP3    H231860   6.463   3.256   4.346
10635TIP3   OH231861   1.896   6.702   3.343
10635TIP3    H131862   1.876   6.764   3.273
10635TIP3    H231863   1.990   6.684   3.332
10636TIP3   OH231864   6.362   5.359   5.015
10636TIP3    H131865   6.371   5.312   4.932
10636TIP3    H231866   6.267   5.359   5.032
10637TIP3   OH231867   5.272   1.489   3.493
10637TIP3    H131868   5.282   1.538   3.412
10637TIP3    H231869   5.360   1.487   3.531
10638TIP3   OH231870   5.370   4.418   6.527
10638TIP3    H131871   5.459   4.394   6.504
10638TIP3    H231872   5.315   4.371   6.463
10639TIP3   OH231873   7.734   6.763   1.313
10639TIP3    H131874   7.823   6.765   1.349
10639TIP3    H231875   7.684   6.711   1.376
10640TIP3   OH231876   7.276   1.664   0.270
10640TIP3    H131877   7.305   1.706   0.350
10640TIP3    H231878   7.285   1.732   0.203
10641TIP3   OH231879   2.247   6.828   3.284
10641TIP3    H131880   2.342   6.836   3.276
10641TIP3    H231881   2.214   6.845   3.195
10642TIP3   OH231882   4.343   5.862   4.731
10642TIP3    H131883   4.249   5.867   4.717
10642TIP3    H231884   4.355   5.790   4.793
10643TIP3   OH231885   6.293   5.822   0.666
10643TIP3    H131886   6.224   5.887   0.656
10643TIP3    H231887   6.367   5.871   0.703
10644TIP3   OH231888   4.155   0.158   5.381
10644TIP3    H131889   4.075   0.109   5.401
10644TIP3    H231890   4.162   0.156   5.286
10645TIP3   OH231891   7.695   5.596   1.130
10645TIP3    H131892   7.734   5.683   1.125
10645TIP3    H231893   7.633   5.593   1.057
10646TIP3   OH231894   0.609   2.544   3.744
10646TIP3    H131895   0.609   2.452   3.715
10646TIP3    H231896   0.544   2.586   3.687
10647TIP3   OH231897   7.575   0.960   3.791
10647TIP3    H131898   7.495   1.006   3.817
10647TIP3    H231899   7.580   0.971   3.696
10648TIP3   OH231900   7.615   2.226   1.013
10648TIP3    H131901   7.538   2.282   1.017
10648TIP3    H231902   7.586   2.150   0.962
10649TIP3   OH231903   6.056   0.264   6.101
10649TIP3    H131904   6.033   0.172   6.109
10649TIP3    H231905   6.093   0.272   6.013
10650TIP3   OH231906   2.583   7.444   0.408
10650TIP3    H131907   2.577   7.496   0.328
10650TIP3    H231908   2.649   7.377   0.388
10651TIP3   OH231909   5.774   3.649   5.780
10651TIP3    H131910   5.824   3.702   5.718
10651TIP3    H231911   5.683   3.662   5.754
10652TIP3   OH231912   7.826   4.263   5.480
10652TIP3    H131913   7.807   4.330   5.415
10652TIP3    H231914   7.920   4.246   5.472
10653TIP3   OH231915   5.401   4.142   0.597
10653TIP3    H131916   5.434   4.200   0.528
10653TIP3    H231917   5.356   4.200   0.658
10654TIP3   OH231918   5.642   4.316   5.491
10654TIP3    H131919   5.692   4.335   5.412
10654TIP3    H231920   5.677   4.378   5.556
10655TIP3   OH231921   3.475   5.827   3.368
10655TIP3    H131922   3.417   5.903   3.362
10655TIP3    H231923   3.531   5.832   3.291
10656TIP3   OH231924   5.371   4.987   4.425
10656TIP3    H131925   5.417   4.920   4.475
10656TIP3    H231926   5.281   4.955   4.419
10657TIP3   OH231927   6.901   5.377   3.252
10657TIP3    H131928   6.896   5.473   3.246
10657TIP3    H231929   6.809   5.349   3.253
10658TIP3   OH231930   3.641   6.767   5.380
10658TIP3    H131931   3.588   6.736   5.454
10658TIP3    H231932   3.660   6.688   5.329
10659TIP3   OH231933   5.700   1.116   2.327
10659TIP3    H131934   5.766   1.087   2.264
10659TIP3    H231935   5.656   1.035   2.354
10660TIP3   OH231936   4.799   2.668   4.976
10660TIP3    H131937   4.881   2.620   4.978
10660TIP3    H231938   4.789   2.703   5.065
10661TIP3   OH231939   7.769   6.437   6.792
10661TIP3    H131940   7.698   6.417   6.730
10661TIP3    H231941   7.789   6.529   6.776
10662TIP3   OH231942   2.869   3.552   2.328
10662TIP3    H131943   2.942   3.555   2.390
10662TIP3    H231944   2.794   3.586   2.377
10663TIP3   OH231945   7.271   2.295   5.755
10663TIP3    H131946   7.252   2.367   5.695
10663TIP3    H231947   7.354   2.259   5.723
10664TIP3   OH231948   2.292   1.260   2.673
10664TIP3    H131949   2.364   1.287   2.617
10664TIP3    H231950   2.321   1.284   2.761
10665TIP3   OH231951   3.161   2.992   3.241
10665TIP3    H131952   3.126   3.081   3.251
10665TIP3    H231953   3.097   2.936   3.284
10666TIP3   OH231954   6.024   4.366   2.375
10666TIP3    H131955   5.943   4.367   2.426
10666TIP3    H231956   5.998   4.332   2.289
10667TIP3   OH231957   0.785   0.246   5.423
10667TIP3    H131958   0.739   0.276   5.501
10667TIP3    H231959   0.785   0.151   5.430
10668TIP3   OH231960   2.820   1.873   4.987
10668TIP3    H131961   2.814   1.844   4.896
10668TIP3    H231962   2.755   1.821   5.033
10669TIP3   OH231963   3.292   4.022   5.550
10669TIP3    H131964   3.328   4.103   5.514
10669TIP3    H231965   3.252   3.978   5.475
10670TIP3   OH231966   2.957   1.143   1.855
10670TIP3    H131967   2.938   1.191   1.774
10670TIP3    H231968   3.009   1.067   1.826
10671TIP3   OH231969   0.463   3.244   5.189
10671TIP3    H131970   0.434   3.319   5.242
10671TIP3    H231971   0.485   3.283   5.104
10672TIP3   OH231972   2.091   6.090   6.044
10672TIP3    H131973   2.054   6.159   6.098
10672TIP3    H231974   2.067   6.114   5.955
10673TIP3   OH231975   4.024   6.174   6.644
10673TIP3    H131976   3.991   6.085   6.630
10673TIP3    H231977   3.953   6.230   6.613
10674TIP3   OH231978   4.693   7.248   0.354
10674TIP3    H131979   4.681   7.175   0.294
10674TIP3    H231980   4.773   7.292   0.325
10675TIP3   OH231981   2.402   0.390   0.795
10675TIP3    H131982   2.320   0.437   0.782
10675TIP3    H231983   2.457   0.451   0.844
10676TIP3   OH231984   6.158   2.064   6.357
10676TIP3    H131985   6.241   2.021   6.339
10676TIP3    H231986   6.180   2.134   6.419
10677TIP3   OH231987   0.499   4.739   2.007
10677TIP3    H131988   0.491   4.772   2.096
10677TIP3    H231989   0.516   4.816   1.953
10678TIP3   OH231990   5.751   0.875   4.094
10678TIP3    H131991   5.814   0.892   4.023
10678TIP3    H231992   5.677   0.834   4.050
10679TIP3   OH231993   3.815   2.508   6.548
10679TIP3    H131994   3.876   2.459   6.604
10679TIP3    H231995   3.778   2.442   6.491
10680TIP3   OH231996   0.923   7.457   0.013
10680TIP3    H131997   0.864   7.435  -0.059
10680TIP3    H231998   0.867   7.455   0.091
10681TIP3   OH231999   3.135   6.845   5.854
10681TIP3    H132000   3.162   6.804   5.772
10681TIP3    H232001   3.120   6.937   5.830
10682TIP3   OH232002   2.673   5.595   5.420
10682TIP3    H132003   2.663   5.689   5.433
10682TIP3    H232004   2.608   5.556   5.479
10683TIP3   OH232005   0.531   7.014   4.142
10683TIP3    H132006   0.551   7.108   4.148
10683TIP3    H232007   0.437   7.011   4.122
10684TIP3   OH232008   0.699   6.099   2.578
10684TIP3    H132009   0.636   6.064   2.641
10684TIP3    H232010   0.773   6.039   2.581
10685TIP3   OH232011   1.094   5.319   5.351
10685TIP3    H132012   1.144   5.238   5.348
10685TIP3    H232013   1.085   5.338   5.445
10686TIP3   OH232014   0.414   1.474   2.952
10686TIP3    H132015   0.471   1.512   3.018
10686TIP3    H232016   0.334   1.452   2.998
10687TIP3   OH232017   5.822   4.650   3.533
10687TIP3    H132018   5.741   4.690   3.502
10687TIP3    H232019   5.891   4.692   3.482
10688TIP3   OH232020   7.445   4.669   5.607
10688TIP3    H132021   7.427   4.701   5.519
10688TIP3    H232022   7.467   4.577   5.595
10689TIP3   OH232023   4.427   3.452   3.647
10689TIP3    H132024   4.356   3.438   3.583
10689TIP3    H232025   4.382   3.454   3.731
10690TIP3   OH232026   3.072   3.966   2.575
10690TIP3    H132027   3.044   4.057   2.582
10690TIP3    H232028   3.020   3.930   2.503
10691TIP3   OH232029   5.853   6.332   6.675
10691TIP3    H132030   5.774   6.347   6.623
10691TIP3    H232031   5.907   6.409   6.658
10692TIP3   OH232032   6.103   0.249   1.695
10692TIP3    H132033   6.107   0.303   1.616
10692TIP3    H232034   6.054   0.172   1.670
10693TIP3   OH232035   6.601   5.135   5.434
10693TIP3    H132036   6.540   5.190   5.386
10693TIP3    H232037   6.665   5.197   5.470
10694TIP3   OH232038   1.020   7.382   6.468
10694TIP3    H132039   0.937   7.427   6.480
10694TIP3    H232040   1.077   7.418   6.536
10695TIP3   OH232041   5.051   1.290   3.264
10695TIP3    H132042   5.056   1.361   3.328
10695TIP3    H232043   5.044   1.210   3.317
10696TIP3   OH232044   2.262   0.459   6.027
10696TIP3    H132045   2.333   0.497   5.976
10696TIP3    H232046   2.286   0.477   6.118
10697TIP3   OH232047   6.368   6.257   5.118
10697TIP3    H132048   6.320   6.336   5.144
10697TIP3    H232049   6.341   6.190   5.181
10698TIP3   OH232050   4.613   4.247   5.138
10698TIP3    H132051   4.551   4.317   5.159
10698TIP3    H232052   4.568   4.167   5.166
10699TIP3   OH232053   4.548   5.233   5.582
10699TIP3    H132054   4.553   5.256   5.489
10699TIP3    H232055   4.636   5.200   5.603
10700TIP3   OH232056   6.712   4.752   0.181
10700TIP3    H132057   6.706   4.824   0.118
10700TIP3    H232058   6.621   4.731   0.201
10701TIP3   OH232059   3.114   4.245   4.433
10701TIP3    H132060   3.205   4.229   4.406
10701TIP3    H232061   3.117   4.330   4.477
10702TIP3   OH232062   1.831   3.055   5.971
10702TIP3    H132063   1.887   3.098   6.036
10702TIP3    H232064   1.770   3.002   6.024
10703TIP3   OH232065   7.167   6.338   0.606
10703TIP3    H132066   7.075   6.324   0.627
10703TIP3    H232067   7.209   6.253   0.620
10704TIP3   OH232068   4.305   4.494   5.713
10704TIP3    H132069   4.254   4.417   5.734
10704TIP3    H232070   4.274   4.520   5.626
10705TIP3   OH232071   4.585   3.286   5.029
10705TIP3    H132072   4.545   3.269   5.115
10705TIP3    H232073   4.582   3.381   5.019
10706TIP3   OH232074   1.791   2.139   0.423
10706TIP3    H132075   1.840   2.145   0.505
10706TIP3    H232076   1.714   2.086   0.445
10707TIP3   OH232077   7.325   0.998   1.238
10707TIP3    H132078   7.252   1.012   1.177
10707TIP3    H232079   7.343   0.904   1.232
10708TIP3   OH232080   3.678   5.613   1.355
10708TIP3    H132081   3.660   5.623   1.448
10708TIP3    H232082   3.594   5.588   1.317
10709TIP3   OH232083   2.294   2.467   0.129
10709TIP3    H132084   2.320   2.446   0.039
10709TIP3    H232085   2.273   2.560   0.127
10710TIP3   OH232086   1.107   7.764   6.469
10710TIP3    H132087   1.134   7.848   6.432
10710TIP3    H232088   1.072   7.787   6.555
10711TIP3   OH232089   4.047   4.172   4.351
10711TIP3    H132090   3.990   4.119   4.295
10711TIP3    H232091   4.132   4.172   4.307
10712TIP3   OH232092   5.541   1.159   2.655
10712TIP3    H132093   5.605   1.134   2.722
10712TIP3    H232094   5.502   1.076   2.627
10713TIP3   OH232095   5.982   4.483   4.125
10713TIP3    H132096   5.892   4.512   4.112
10713TIP3    H232097   5.984   4.448   4.214
10714TIP3   OH232098   3.330   7.277   5.733
10714TIP3    H132099   3.272   7.222   5.785
10714TIP3    H232100   3.414   7.232   5.735
10715TIP3   OH232101   7.564   5.520   3.194
10715TIP3    H132102   7.655   5.490   3.192
10715TIP3    H232103   7.564   5.595   3.253
10716TIP3   OH232104   1.415   7.624   2.002
10716TIP3    H132105   1.387   7.692   1.942
10716TIP3    H232106   1.388   7.542   1.959
10717TIP3   OH232107   3.368   2.624   6.733
10717TIP3    H132108   3.424   2.673   6.673
10717TIP3    H232109   3.406   2.640   6.819
10718TIP3   OH232110   7.353   7.147   5.615
10718TIP3    H132111   7.391   7.108   5.694
10718TIP3    H232112   7.422   7.139   5.549
10719TIP3   OH232113   1.442   1.668   4.752
10719TIP3    H132114   1.422   1.729   4.680
10719TIP3    H232115   1.418   1.582   4.718
10720TIP3   OH232116   0.256   5.675   4.459
10720TIP3    H132117   0.264   5.642   4.370
10720TIP3    H232118   0.168   5.714   4.462
10721TIP3   OH232119   6.436   5.334   1.915
10721TIP3    H132120   6.531   5.333   1.927
10721TIP3    H232121   6.407   5.411   1.964
10722TIP3   OH232122   0.958   7.594   5.542
10722TIP3    H132123   1.006   7.513   5.559
10722TIP3    H232124   0.911   7.612   5.623
10723TIP3   OH232125   1.637   3.368   1.784
10723TIP3    H132126   1.668   3.336   1.699
10723TIP3    H232127   1.543   3.385   1.771
10724TIP3   OH232128   6.865   7.582   1.318
10724TIP3    H132129   6.778   7.570   1.280
10724TIP3    H232130   6.922   7.602   1.244
10725TIP3   OH232131   5.949   7.534   6.498
10725TIP3    H132132   6.042   7.558   6.492
10725TIP3    H232133   5.923   7.515   6.408
10726TIP3   OH232134   4.677   5.059   3.410
10726TIP3    H132135   4.733   4.988   3.377
10726TIP3    H232136   4.628   5.020   3.483
10727TIP3   OH232137   5.666   7.460   4.125
10727TIP3    H132138   5.663   7.392   4.193
10727TIP3    H232139   5.657   7.413   4.043
10728TIP3   OH232140   3.673   6.990   5.204
10728TIP3    H132141   3.648   6.928   5.273
10728TIP3    H232142   3.628   7.071   5.226
10729TIP3   OH232143   7.447   2.062   0.309
10729TIP3    H132144   7.357   2.049   0.340
10729TIP3    H232145   7.489   2.116   0.376
10730TIP3   OH232146   1.683   2.215   3.890
10730TIP3    H132147   1.609   2.266   3.923
10730TIP3    H232148   1.643   2.148   3.834
10731TIP3   OH232149   6.972   5.638   6.142
10731TIP3    H132150   7.061   5.609   6.124
10731TIP3    H232151   6.919   5.558   6.138
10732TIP3   OH232152   0.096   0.666   4.748
10732TIP3    H132153   0.009   0.700   4.772
10732TIP3    H232154   0.081   0.615   4.669
10733TIP3   OH232155   1.838   0.857   2.842
10733TIP3    H132156   1.923   0.873   2.801
10733TIP3    H232157   1.808   0.944   2.870
10734TIP3   OH232158   3.226   2.216   2.968
10734TIP3    H132159   3.150   2.176   2.926
10734TIP3    H232160   3.189   2.280   3.028
10735TIP3   OH232161   2.948   5.577   5.348
10735TIP3    H132162   2.885   5.551   5.281
10735TIP3    H232163   2.895   5.596   5.425
10736TIP3   OH232164   1.771   6.582   6.605
10736TIP3    H132165   1.771   6.520   6.532
10736TIP3    H232166   1.766   6.527   6.683
10737TIP3   OH232167   3.695   5.058   3.960
10737TIP3    H132168   3.718   4.965   3.968
10737TIP3    H232169   3.727   5.083   3.873
10738TIP3   OH232170   2.628   1.380   2.650
10738TIP3    H132171   2.536   1.401   2.635
10738TIP3    H232172   2.638   1.291   2.616
10739TIP3   OH232173   0.086   1.766   0.133
10739TIP3    H132174   0.129   1.681   0.132
10739TIP3    H232175   0.133   1.817   0.067
10740TIP3   OH232176   5.234   6.158   4.815
10740TIP3    H132177   5.226   6.253   4.799
10740TIP3    H232178   5.147   6.123   4.796
10741TIP3   OH232179   3.205   7.463   1.772
10741TIP3    H132180   3.111   7.477   1.783
10741TIP3    H232181   3.222   7.479   1.680
10742TIP3   OH232182   6.419   5.588   1.077
10742TIP3    H132183   6.366   5.511   1.057
10742TIP3    H232184   6.507   5.553   1.092
10743TIP3   OH232185   4.995   3.856   6.771
10743TIP3    H132186   5.081   3.853   6.729
10743TIP3    H232187   4.987   3.945   6.805
10744TIP3   OH232188   5.360   7.281   0.698
10744TIP3    H132189   5.388   7.368   0.724
10744TIP3    H232190   5.320   7.244   0.777
10745TIP3   OH232191   1.458   1.243   6.354
10745TIP3    H132192   1.376   1.264   6.398
10745TIP3    H232193   1.441   1.261   6.261
10746TIP3   OH232194   2.185   7.371   0.462
10746TIP3    H132195   2.094   7.363   0.432
10746TIP3    H232196   2.217   7.452   0.421
10747TIP3   OH232197   0.507   3.787   2.850
10747TIP3    H132198   0.583   3.782   2.907
10747TIP3    H232199   0.526   3.858   2.789
10748TIP3   OH232200   1.469   2.503   6.135
10748TIP3    H132201   1.381   2.469   6.151
10748TIP3    H232202   1.508   2.510   6.222
10749TIP3   OH232203   1.632   5.681   2.030
10749TIP3    H132204   1.566   5.697   2.098
10749TIP3    H232205   1.677   5.765   2.021
10750TIP3   OH232206   1.975   5.541   2.004
10750TIP3    H132207   1.965   5.605   2.074
10750TIP3    H232208   1.976   5.456   2.048
10751TIP3   OH232209   4.259   2.655   3.289
10751TIP3    H132210   4.169   2.662   3.324
10751TIP3    H232211   4.314   2.691   3.359
10752TIP3   OH232212   4.146   7.025   0.786
10752TIP3    H132213   4.094   6.953   0.822
10752TIP3    H232214   4.163   6.999   0.695
10753TIP3   OH232215   4.360   0.600   2.472
10753TIP3    H132216   4.306   0.656   2.416
10753TIP3    H232217   4.366   0.517   2.425
10754TIP3   OH232218   6.001   6.086   2.749
10754TIP3    H132219   6.003   6.163   2.693
10754TIP3    H232220   6.092   6.056   2.751
10755TIP3   OH232221   7.003   3.346   6.068
10755TIP3    H132222   6.926   3.306   6.027
10755TIP3    H232223   7.066   3.274   6.075
10756TIP3   OH232224   5.794   3.148   4.339
10756TIP3    H132225   5.755   3.163   4.425
10756TIP3    H232226   5.879   3.107   4.358
10757TIP3   OH232227   3.986   3.639   6.760
10757TIP3    H132228   3.928   3.682   6.823
10757TIP3    H232229   3.963   3.679   6.676
10758TIP3   OH232230   6.022   5.197   0.654
10758TIP3    H132231   5.976   5.187   0.737
10758TIP3    H232232   6.047   5.289   0.651
10759TIP3   OH232233   4.351   0.246   2.038
10759TIP3    H132234   4.330   0.295   1.958
10759TIP3    H232235   4.266   0.223   2.075
10760TIP3   OH232236   7.617   5.587   6.308
10760TIP3    H132237   7.605   5.492   6.308
10760TIP3    H232238   7.532   5.621   6.337
10761TIP3   OH232239   1.296   6.302   5.209
10761TIP3    H132240   1.323   6.275   5.121
10761TIP3    H232241   1.272   6.394   5.200
10762TIP3   OH232242   1.454   2.795   4.356
10762TIP3    H132243   1.378   2.744   4.386
10762TIP3    H232244   1.420   2.847   4.283
10763TIP3   OH232245   1.761   5.332   0.089
10763TIP3    H132246   1.814   5.407   0.117
10763TIP3    H232247   1.720   5.300   0.170
10764TIP3   OH232248   1.442   3.711   1.874
10764TIP3    H132249   1.358   3.752   1.898
10764TIP3    H232250   1.485   3.693   1.958
10765TIP3   OH232251   4.919   4.074   1.373
10765TIP3    H132252   5.004   4.095   1.333
10765TIP3    H232253   4.928   4.103   1.464
10766TIP3   OH232254   8.135   3.381   1.103
10766TIP3    H132255   8.191   3.406   1.176
10766TIP3    H232256   8.181   3.308   1.062
10767TIP3   OH232257   0.622   2.435   6.655
10767TIP3    H132258   0.550   2.495   6.642
10767TIP3    H232259   0.656   2.457   6.742
10768TIP3   OH232260   4.115   5.750   1.547
10768TIP3    H132261   4.105   5.721   1.638
10768TIP3    H232262   4.111   5.669   1.497
10769TIP3   OH232263   2.452   2.743   0.306
10769TIP3    H132264   2.389   2.714   0.372
10769TIP3    H232265   2.399   2.762   0.229
10770TIP3   OH232266   8.167   6.628   3.732
10770TIP3    H132267   8.141   6.615   3.824
10770TIP3    H232268   8.253   6.670   3.737
10771TIP3   OH232269   7.252   7.675   5.719
10771TIP3    H132270   7.201   7.737   5.771
10771TIP3    H232271   7.197   7.655   5.644
10772TIP3   OH232272   8.269   4.384   3.555
10772TIP3    H132273   8.228   4.330   3.623
10772TIP3    H232274   8.214   4.370   3.478
10773TIP3   OH232275   0.959   7.716   6.232
10773TIP3    H132276   1.022   7.713   6.304
10773TIP3    H232277   0.880   7.753   6.272
10774TIP3   OH232278   6.625   4.535   2.269
10774TIP3    H132279   6.647   4.607   2.210
10774TIP3    H232280   6.546   4.495   2.230
10775TIP3   OH232281   4.495   0.764   5.354
10775TIP3    H132282   4.532   0.844   5.315
10775TIP3    H232283   4.401   0.771   5.339
10776TIP3   OH232284   0.803   7.242   2.680
10776TIP3    H132285   0.794   7.163   2.628
10776TIP3    H232286   0.811   7.313   2.615
10777TIP3   OH232287   0.327   4.059   3.200
10777TIP3    H132288   0.284   4.119   3.261
10777TIP3    H232289   0.411   4.101   3.181
10778TIP3   OH232290   7.082   3.667   0.040
10778TIP3    H132291   7.121   3.599  -0.015
10778TIP3    H232292   6.999   3.629   0.069
10779TIP3   OH232293   4.281   0.173   6.596
10779TIP3    H132294   4.345   0.182   6.666
10779TIP3    H232295   4.226   0.100   6.622
10780TIP3   OH232296   3.233   4.766   2.983
10780TIP3    H132297   3.254   4.749   3.074
10780TIP3    H232298   3.297   4.832   2.956
10781TIP3   OH232299   0.914   7.625   0.565
10781TIP3    H132300   0.958   7.621   0.650
10781TIP3    H232301   0.831   7.668   0.583
10782TIP3   OH232302   7.979   3.293   6.064
10782TIP3    H132303   8.025   3.231   6.121
10782TIP3    H232304   7.898   3.248   6.040
10783TIP3   OH232305   6.497   7.611   3.568
10783TIP3    H132306   6.559   7.539   3.557
10783TIP3    H232307   6.545   7.689   3.540
10784TIP3   OH232308   5.278   4.914   6.519
10784TIP3    H132309   5.290   4.838   6.461
10784TIP3    H232310   5.206   4.963   6.480
10785TIP3   OH232311   4.572   4.109   4.812
10785TIP3    H132312   4.502   4.073   4.867
10785TIP3    H232313   4.591   4.195   4.850
10786TIP3   OH232314   3.173   3.547   6.020
10786TIP3    H132315   3.098   3.503   6.058
10786TIP3    H232316   3.213   3.482   5.962
10787TIP3   OH232317   4.537   1.224   1.901
10787TIP3    H132318   4.618   1.197   1.859
10787TIP3    H232319   4.553   1.211   1.995
10788TIP3   OH232320   4.189   4.293   2.601
10788TIP3    H132321   4.143   4.291   2.518
10788TIP3    H232322   4.196   4.201   2.626
10789TIP3   OH232323   7.297   5.383   0.837
10789TIP3    H132324   7.322   5.292   0.819
10789TIP3    H232325   7.205   5.388   0.813
10790TIP3   OH232326   5.591   3.635   1.668
10790TIP3    H132327   5.612   3.723   1.638
10790TIP3    H232328   5.495   3.629   1.662
10791TIP3   OH232329   1.317   2.800   3.688
10791TIP3    H132330   1.395   2.849   3.665
10791TIP3    H232331   1.255   2.817   3.617
10792TIP3   OH232332   7.032   7.657   5.524
10792TIP3    H132333   7.035   7.713   5.446
10792TIP3    H232334   6.992   7.575   5.494
10793TIP3   OH232335   8.083   6.408   4.526
10793TIP3    H132336   8.009   6.469   4.515
10793TIP3    H232337   8.056   6.351   4.599
10794TIP3   OH232338   5.141   2.665   3.884
10794TIP3    H132339   5.082   2.606   3.930
10794TIP3    H232340   5.085   2.737   3.855
10795TIP3   OH232341   2.156   7.796   1.483
10795TIP3    H132342   2.174   7.841   1.566
10795TIP3    H232343   2.243   7.781   1.445
10796TIP3   OH232344   6.057   5.705   5.654
10796TIP3    H132345   5.984   5.749   5.611
10796TIP3    H232346   6.028   5.689   5.743
10797TIP3   OH232347   2.590   0.600   3.983
10797TIP3    H132348   2.636   0.527   3.941
10797TIP3    H232349   2.616   0.677   3.933
10798TIP3   OH232350   0.489   1.229   3.460
10798TIP3    H132351   0.520   1.150   3.417
10798TIP3    H232352   0.565   1.264   3.505
10799TIP3   OH232353   4.415   2.881   4.210
10799TIP3    H132354   4.452   2.837   4.287
10799TIP3    H232355   4.370   2.957   4.246
10800TIP3   OH232356   3.083   2.383   0.193
10800TIP3    H132357   3.047   2.297   0.214
10800TIP3    H232358   3.083   2.387   0.097
10801TIP3   OH232359   8.225   0.484   6.165
10801TIP3    H132360   8.260   0.567   6.198
10801TIP3    H232361   8.153   0.509   6.108
10802TIP3   OH232362   2.759   7.145   5.289
10802TIP3    H132363   2.755   7.050   5.280
10802TIP3    H232364   2.792   7.160   5.377
10803TIP3   OH232365   4.085   6.463   3.701
10803TIP3    H132366   4.172   6.474   3.738
10803TIP3    H232367   4.036   6.416   3.769
10804TIP3   OH232368   2.407   1.663   3.412
10804TIP3    H132369   2.331   1.645   3.467
10804TIP3    H232370   2.481   1.664   3.474
10805TIP3   OH232371   3.649   3.255   3.174
10805TIP3    H132372   3.665   3.284   3.264
10805TIP3    H232373   3.592   3.179   3.184
10806TIP3   OH232374   0.121   5.003   3.631
10806TIP3    H132375   0.114   4.908   3.644
10806TIP3    H232376   0.114   5.015   3.536
10807TIP3   OH232377   4.490   2.581   2.987
10807TIP3    H132378   4.408   2.532   2.998
10807TIP3    H232379   4.488   2.610   2.895
10808TIP3   OH232380   5.958   5.558   5.885
10808TIP3    H132381   5.959   5.484   5.826
10808TIP3    H232382   6.043   5.554   5.930
10809TIP3   OH232383   0.141   3.605   3.221
10809TIP3    H132384   0.175   3.694   3.211
10809TIP3    H232385   0.147   3.567   3.133
10810TIP3   OH232386   4.099   0.168   1.182
10810TIP3    H132387   4.150   0.158   1.102
10810TIP3    H232388   4.075   0.261   1.184
10811TIP3   OH232389   8.098   6.473   0.829
10811TIP3    H132390   8.081   6.431   0.744
10811TIP3    H232391   8.115   6.401   0.889
10812TIP3   OH232392   8.076   4.829   1.995
10812TIP3    H132393   7.990   4.804   2.028
10812TIP3    H232394   8.137   4.797   2.062
10813TIP3   OH232395   0.140   2.328   0.539
10813TIP3    H132396   0.225   2.358   0.569
10813TIP3    H232397   0.089   2.313   0.619
10814TIP3   OH232398   7.894   2.582   6.635
10814TIP3    H132399   7.839   2.651   6.672
10814TIP3    H232400   7.873   2.505   6.687
10815TIP3   OH232401   5.094   1.309   0.597
10815TIP3    H132402   5.022   1.325   0.659
10815TIP3    H232403   5.148   1.388   0.603
10816TIP3   OH232404   6.128   1.120   5.541
10816TIP3    H132405   6.109   1.139   5.450
10816TIP3    H232406   6.148   1.026   5.542
10817TIP3   OH232407   4.137   0.365   1.521
10817TIP3    H132408   4.082   0.399   1.450
10817TIP3    H232409   4.075   0.343   1.590
10818TIP3   OH232410   5.899   0.092   0.413
10818TIP3    H132411   5.959   0.053   0.349
10818TIP3    H232412   5.839   0.145   0.361
10819TIP3   OH232413   6.491   0.479   4.699
10819TIP3    H132414   6.518   0.449   4.613
10819TIP3    H232415   6.397   0.460   4.703
10820TIP3   OH232416   4.957   2.858   3.871
10820TIP3    H132417   4.935   2.946   3.842
10820TIP3    H232418   4.910   2.847   3.953
10821TIP3   OH232419   5.999   2.307   4.895
10821TIP3    H132420   6.061   2.297   4.967
10821TIP3    H232421   5.989   2.402   4.884
10822TIP3   OH232422   0.633   5.756   0.970
10822TIP3    H132423   0.671   5.668   0.972
10822TIP3    H232424   0.546   5.744   0.932
10823TIP3   OH232425   0.861   0.419   1.951
10823TIP3    H132426   0.928   0.357   1.979
10823TIP3    H232427   0.910   0.494   1.916
10824TIP3   OH232428   3.787   5.605   3.579
10824TIP3    H132429   3.841   5.528   3.561
10824TIP3    H232430   3.736   5.581   3.656
10825TIP3   OH232431   3.740   6.896   6.742
10825TIP3    H132432   3.703   6.984   6.749
10825TIP3    H232433   3.686   6.842   6.799
10826TIP3   OH232434   2.915   6.110   4.262
10826TIP3    H132435   2.948   6.025   4.230
10826TIP3    H232436   2.972   6.131   4.335
10827TIP3   OH232437   3.161   2.975   6.442
10827TIP3    H132438   3.136   2.899   6.389
10827TIP3    H232439   3.158   3.048   6.380
10828TIP3   OH232440   1.042   5.889   1.302
10828TIP3    H132441   1.132   5.868   1.325
10828TIP3    H232442   1.009   5.812   1.257
10829TIP3   OH232443   5.170   6.999   5.496
10829TIP3    H132444   5.221   7.079   5.512
10829TIP3    H232445   5.134   6.976   5.581
10830TIP3   OH232446   6.804   0.706   5.540
10830TIP3    H132447   6.813   0.623   5.493
10830TIP3    H232448   6.788   0.680   5.631
10831TIP3   OH232449   2.699   5.756   0.901
10831TIP3    H132450   2.728   5.759   0.810
10831TIP3    H232451   2.746   5.828   0.944
10832TIP3   OH232452   6.143   2.071   2.032
10832TIP3    H132453   6.064   2.020   2.049
10832TIP3    H232454   6.163   2.055   1.939
10833TIP3   OH232455   7.364   6.869   3.024
10833TIP3    H132456   7.388   6.778   3.008
10833TIP3    H232457   7.285   6.884   2.972
10834TIP3   OH232458   6.273   7.568   4.240
10834TIP3    H132459   6.369   7.564   4.245
10834TIP3    H232460   6.244   7.489   4.285
10835TIP3   OH232461   3.672   1.246   1.072
10835TIP3    H132462   3.697   1.323   1.123
10835TIP3    H232463   3.712   1.261   0.986
10836TIP3   OH232464   0.497   1.399   6.384
10836TIP3    H132465   0.583   1.357   6.394
10836TIP3    H232466   0.455   1.387   6.470
10837TIP3   OH232467   6.130   2.125   2.467
10837TIP3    H132468   6.067   2.175   2.415
10837TIP3    H232469   6.148   2.181   2.542
10838TIP3   OH232470   7.074   0.899   2.891
10838TIP3    H132471   7.088   0.992   2.872
10838TIP3    H232472   7.064   0.858   2.805
10839TIP3   OH232473   2.621   3.276   5.567
10839TIP3    H132474   2.594   3.194   5.608
10839TIP3    H232475   2.558   3.289   5.496
10840TIP3   OH232476   2.784   5.914   1.512
10840TIP3    H132477   2.756   5.998   1.475
10840TIP3    H232478   2.703   5.867   1.531
10841TIP3   OH232479   3.816   2.250   5.729
10841TIP3    H132480   3.775   2.169   5.761
10841TIP3    H232481   3.762   2.276   5.654
10842TIP3   OH232482   6.148   3.138   3.991
10842TIP3    H132483   6.155   3.064   4.052
10842TIP3    H232484   6.184   3.104   3.909
10843TIP3   OH232485   7.880   2.003   3.721
10843TIP3    H132486   7.866   2.066   3.650
10843TIP3    H232487   7.794   1.996   3.764
10844TIP3   OH232488   3.009   3.516   3.560
10844TIP3    H132489   2.973   3.579   3.497
10844TIP3    H232490   3.073   3.465   3.509
10845TIP3   OH232491   5.997   3.166   3.323
10845TIP3    H132492   6.058   3.111   3.275
10845TIP3    H232493   5.956   3.221   3.256
10846TIP3   OH232494   5.372   3.696   2.186
10846TIP3    H132495   5.356   3.764   2.120
10846TIP3    H232496   5.330   3.730   2.265
10847TIP3   OH232497   0.146   5.727   0.068
10847TIP3    H132498   0.172   5.780   0.143
10847TIP3    H232499   0.101   5.788   0.010
10848TIP3   OH232500   3.001   5.460   2.874
10848TIP3    H132501   2.952   5.496   2.948
10848TIP3    H232502   2.987   5.522   2.803
10849TIP3   OH232503   8.191   5.261   5.110
10849TIP3    H132504   8.268   5.280   5.164
10849TIP3    H232505   8.162   5.347   5.080
10850TIP3   OH232506   3.235   5.800   3.996
10850TIP3    H132507   3.284   5.726   4.032
10850TIP3    H232508   3.149   5.764   3.974
10851TIP3   OH232509   0.903   4.190   2.905
10851TIP3    H132510   0.895   4.113   2.961
10851TIP3    H232511   0.820   4.195   2.858
10852TIP3   OH232512   4.577   3.196   6.447
10852TIP3    H132513   4.581   3.280   6.493
10852TIP3    H232514   4.487   3.191   6.414
10853TIP3   OH232515   7.306   5.148   5.909
10853TIP3    H132516   7.354   5.183   5.834
10853TIP3    H232517   7.371   5.142   5.979
10854TIP3   OH232518   1.753   7.774   4.942
10854TIP3    H132519   1.819   7.708   4.963
10854TIP3    H232520   1.672   7.725   4.935
10855TIP3   OH232521   5.932   3.998   2.385
10855TIP3    H132522   5.846   4.023   2.420
10855TIP3    H232523   5.980   3.964   2.460
10856TIP3   OH232524   2.250   0.385   0.395
10856TIP3    H132525   2.336   0.405   0.358
10856TIP3    H232526   2.248   0.432   0.478
10857TIP3   OH232527   0.598   4.386   5.158
10857TIP3    H132528   0.607   4.479   5.136
10857TIP3    H232529   0.541   4.351   5.089
10858TIP3   OH232530   5.263   1.977   1.468
10858TIP3    H132531   5.288   1.898   1.516
10858TIP3    H232532   5.320   2.045   1.504
10859TIP3   OH232533   5.199   3.902   5.180
10859TIP3    H132534   5.248   3.981   5.203
10859TIP3    H232535   5.265   3.844   5.141
10860TIP3   OH232536   1.439   2.920   5.881
10860TIP3    H132537   1.391   2.854   5.933
10860TIP3    H232538   1.477   2.870   5.809
10861TIP3   OH232539   0.884   5.473   2.899
10861TIP3    H132540   0.920   5.450   2.985
10861TIP3    H232541   0.830   5.550   2.915
10862TIP3   OH232542   1.003   2.910   6.431
10862TIP3    H132543   1.067   2.943   6.367
10862TIP3    H232544   1.036   2.823   6.454
10863TIP3   OH232545   4.867   4.644   2.744
10863TIP3    H132546   4.915   4.561   2.744
10863TIP3    H232547   4.801   4.633   2.675
10864TIP3   OH232548   3.628   0.992   6.663
10864TIP3    H132549   3.564   0.924   6.687
10864TIP3    H232550   3.712   0.958   6.694
10865TIP3   OH232551   2.667   5.749   5.969
10865TIP3    H132552   2.648   5.698   6.047
10865TIP3    H232553   2.636   5.695   5.896
10866TIP3   OH232554   1.718   0.444   5.319
10866TIP3    H132555   1.681   0.367   5.362
10866TIP3    H232556   1.733   0.416   5.229
10867TIP3   OH232557   0.310   6.082   6.070
10867TIP3    H132558   0.290   6.126   6.152
10867TIP3    H232559   0.228   6.040   6.045
10868TIP3   OH232560   5.698   5.084   1.051
10868TIP3    H132561   5.652   5.041   0.980
10868TIP3    H232562   5.688   5.178   1.033
10869TIP3   OH232563   7.286   7.441   1.869
10869TIP3    H132564   7.347   7.451   1.796
10869TIP3    H232565   7.329   7.379   1.928
10870TIP3   OH232566   8.120   6.945   2.449
10870TIP3    H132567   8.115   7.004   2.524
10870TIP3    H232568   8.081   6.994   2.376
10871TIP3   OH232569   4.409   1.414   2.508
10871TIP3    H132570   4.328   1.369   2.530
10871TIP3    H232571   4.414   1.411   2.413
10872TIP3   OH232572   6.574   0.579   3.083
10872TIP3    H132573   6.517   0.638   3.132
10872TIP3    H232574   6.528   0.565   3.000
10873TIP3   OH232575   2.632   5.442   1.574
10873TIP3    H132576   2.541   5.414   1.579
10873TIP3    H232577   2.678   5.387   1.637
10874TIP3   OH232578   4.419   6.493   6.369
10874TIP3    H132579   4.334   6.501   6.412
10874TIP3    H232580   4.400   6.501   6.276
10875TIP3   OH232581   3.996   0.914   3.942
10875TIP3    H132582   4.013   0.821   3.960
10875TIP3    H232583   3.917   0.934   3.992
10876TIP3   OH232584   2.519   4.587   2.979
10876TIP3    H132585   2.508   4.682   2.976
10876TIP3    H232586   2.614   4.574   2.969
10877TIP3   OH232587   4.800   2.254   5.259
10877TIP3    H132588   4.864   2.318   5.228
10877TIP3    H232589   4.849   2.171   5.264
10878TIP3   OH232590   6.046   4.155   4.778
10878TIP3    H132591   6.123   4.200   4.812
10878TIP3    H232592   6.008   4.111   4.854
10879TIP3   OH232593   7.313   5.418   3.016
10879TIP3    H132594   7.326   5.483   3.085
10879TIP3    H232595   7.394   5.422   2.964
10880TIP3   OH232596   1.349   5.494   4.841
10880TIP3    H132597   1.385   5.478   4.928
10880TIP3    H232598   1.278   5.556   4.856
10881TIP3   OH232599   2.478   7.058   4.202
10881TIP3    H132600   2.407   7.107   4.159
10881TIP3    H232601   2.558   7.094   4.164
10882TIP3   OH232602   7.009   7.379   1.811
10882TIP3    H132603   6.993   7.444   1.742
10882TIP3    H232604   7.099   7.396   1.839
10883TIP3   OH232605   6.508   1.835   1.653
10883TIP3    H132606   6.452   1.859   1.579
10883TIP3    H232607   6.592   1.878   1.635
10884TIP3   OH232608   0.238   6.799   6.367
10884TIP3    H132609   0.143   6.808   6.367
10884TIP3    H232610   0.256   6.749   6.287
10885TIP3   OH232611   2.029   3.330   0.895
10885TIP3    H132612   2.109   3.351   0.848
10885TIP3    H232613   1.970   3.403   0.874
10886TIP3   OH232614   6.495   2.417   3.947
10886TIP3    H132615   6.472   2.356   4.017
10886TIP3    H232616   6.536   2.362   3.880
10887TIP3   OH232617   7.310   4.390   3.644
10887TIP3    H132618   7.368   4.314   3.651
10887TIP3    H232619   7.310   4.411   3.550
10888TIP3   OH232620   7.362   4.175   3.201
10888TIP3    H132621   7.347   4.194   3.109
10888TIP3    H232622   7.293   4.113   3.225
10889TIP3   OH232623   2.489   4.076   5.278
10889TIP3    H132624   2.413   4.059   5.335
10889TIP3    H232625   2.561   4.089   5.339
10890TIP3   OH232626   6.520   3.143   0.577
10890TIP3    H132627   6.481   3.077   0.520
10890TIP3    H232628   6.494   3.116   0.666
10891TIP3   OH232629   4.692   2.073   2.715
10891TIP3    H132630   4.602   2.062   2.747
10891TIP3    H232631   4.690   2.154   2.664
10892TIP3   OH232632   2.478   1.166   3.983
10892TIP3    H132633   2.523   1.246   3.955
10892TIP3    H232634   2.541   1.096   3.967
10893TIP3   OH232635   0.718   1.468   3.306
10893TIP3    H132636   0.811   1.479   3.287
10893TIP3    H232637   0.712   1.470   3.402
10894TIP3   OH232638   5.502   1.380   4.141
10894TIP3    H132639   5.476   1.470   4.122
10894TIP3    H232640   5.510   1.376   4.236
10895TIP3   OH232641   7.939   4.406   1.020
10895TIP3    H132642   7.916   4.441   1.106
10895TIP3    H232643   7.990   4.327   1.039
10896TIP3   OH232644   1.048   4.155   0.872
10896TIP3    H132645   1.048   4.147   0.777
10896TIP3    H232646   1.070   4.247   0.889
10897TIP3   OH232647   5.703   5.549   4.288
10897TIP3    H132648   5.776   5.603   4.258
10897TIP3    H232649   5.653   5.530   4.209
10898TIP3   OH232650   2.762   7.734   5.591
10898TIP3    H132651   2.773   7.758   5.499
10898TIP3    H232652   2.668   7.722   5.601
10899TIP3   OH232653   1.595   3.721   2.095
10899TIP3    H132654   1.632   3.792   2.148
10899TIP3    H232655   1.669   3.662   2.079
10900TIP3   OH232656   4.046   7.493   3.354
10900TIP3    H132657   3.995   7.412   3.359
10900TIP3    H232658   4.137   7.464   3.348
10901TIP3   OH232659   6.850   1.915   3.240
10901TIP3    H132660   6.763   1.929   3.277
10901TIP3    H232661   6.834   1.890   3.149
10902TIP3   OH232662   3.136   4.291   5.355
10902TIP3    H132663   3.051   4.305   5.315
10902TIP3    H232664   3.120   4.298   5.449
10903TIP3   OH232665   1.214   0.551   2.909
10903TIP3    H132666   1.126   0.590   2.913
10903TIP3    H232667   1.225   0.528   2.817
10904TIP3   OH232668   3.569   1.294   1.822
10904TIP3    H132669   3.640   1.230   1.826
10904TIP3    H232670   3.502   1.259   1.880
10905TIP3   OH232671   7.950   1.627   1.286
10905TIP3    H132672   7.999   1.549   1.315
10905TIP3    H232673   8.013   1.676   1.233
10906TIP3   OH232674   5.029   5.097   3.210
10906TIP3    H132675   5.113   5.135   3.237
10906TIP3    H232676   5.039   5.080   3.117
10907TIP3   OH232677   5.502   2.253   4.161
10907TIP3    H132678   5.500   2.349   4.161
10907TIP3    H232679   5.594   2.232   4.176
10908TIP3   OH232680   0.728   1.879   2.840
10908TIP3    H132681   0.686   1.805   2.883
10908TIP3    H232682   0.710   1.865   2.747
10909TIP3   OH232683   2.814   1.689   2.028
10909TIP3    H132684   2.816   1.666   2.121
10909TIP3    H232685   2.896   1.735   2.013
10910TIP3   OH232686   0.889   3.959   6.004
10910TIP3    H132687   0.911   3.941   5.913
10910TIP3    H232688   0.959   4.017   6.035
10911TIP3   OH232689   3.417   0.871   0.148
10911TIP3    H132690   3.329   0.905   0.164
10911TIP3    H232691   3.449   0.922   0.074
10912TIP3   OH232692   0.383   4.946   6.590
10912TIP3    H132693   0.382   4.953   6.494
10912TIP3    H232694   0.461   4.996   6.616
10913TIP3   OH232695   6.898   0.886   0.000
10913TIP3    H132696   6.860   0.802  -0.028
10913TIP3    H232697   6.864   0.899   0.088
10914TIP3   OH232698   1.471   2.766   5.601
10914TIP3    H132699   1.522   2.815   5.537
10914TIP3    H232700   1.387   2.812   5.606
10915TIP3   OH232701   7.147   4.912   5.995
10915TIP3    H132702   7.193   4.835   5.962
10915TIP3    H232703   7.202   4.986   5.969
10916TIP3   OH232704   4.114   6.161   1.355
10916TIP3    H132705   4.042   6.157   1.291
10916TIP3    H232706   4.087   6.103   1.426
10917TIP3   OH232707   2.888   5.602   6.298
10917TIP3    H132708   2.925   5.523   6.259
10917TIP3    H232709   2.810   5.621   6.245
10918TIP3   OH232710   7.451   1.553   3.878
10918TIP3    H132711   7.406   1.469   3.893
10918TIP3    H232712   7.464   1.589   3.965
10919TIP3   OH232713   0.970   2.937   3.355
10919TIP3    H132714   0.895   2.975   3.402
10919TIP3    H232715   0.932   2.895   3.278
10920TIP3   OH232716   1.780   1.082   2.973
10920TIP3    H132717   1.853   1.144   2.978
10920TIP3    H232718   1.778   1.040   3.059
10921TIP3   OH232719   2.737   6.756   1.622
10921TIP3    H132720   2.809   6.718   1.571
10921TIP3    H232721   2.780   6.791   1.700
10922TIP3   OH232722   1.272   0.309   1.631
10922TIP3    H132723   1.278   0.227   1.680
10922TIP3    H232724   1.300   0.286   1.542
10923TIP3   OH232725   7.462   3.538   6.545
10923TIP3    H132726   7.427   3.593   6.475
10923TIP3    H232727   7.481   3.599   6.616
10924TIP3   OH232728   4.315   3.109   1.269
10924TIP3    H132729   4.239   3.150   1.311
10924TIP3    H232730   4.391   3.152   1.308
10925TIP3   OH232731   4.383   4.958   5.349
10925TIP3    H132732   4.476   4.977   5.335
10925TIP3    H232733   4.345   4.961   5.261
10926TIP3   OH232734   4.760   2.767   1.663
10926TIP3    H132735   4.825   2.791   1.730
10926TIP3    H232736   4.749   2.846   1.611
10927TIP3   OH232737   6.061   5.992   0.192
10927TIP3    H132738   6.000   5.959   0.126
10927TIP3    H232739   6.147   5.961   0.163
10928TIP3   OH232740   0.005   3.076   5.820
10928TIP3    H132741   0.099   3.073   5.802
10928TIP3    H232742  -0.012   3.166   5.846
10929TIP3   OH232743   4.090   7.321   1.650
10929TIP3    H132744   4.141   7.384   1.599
10929TIP3    H232745   4.130   7.323   1.737
10930TIP3   OH232746   0.592   7.595   1.815
10930TIP3    H132747   0.610   7.660   1.747
10930TIP3    H232748   0.519   7.545   1.781
10931TIP3   OH232749   0.644   2.235   3.568
10931TIP3    H132750   0.641   2.154   3.518
10931TIP3    H232751   0.573   2.226   3.632
10932TIP3   OH232752   6.288   6.106   4.052
10932TIP3    H132753   6.374   6.149   4.051
10932TIP3    H232754   6.271   6.088   4.145
10933TIP3   OH232755   3.413   0.882   4.596
10933TIP3    H132756   3.364   0.930   4.530
10933TIP3    H232757   3.360   0.805   4.615
10934TIP3   OH232758   6.004   1.954   1.497
10934TIP3    H132759   6.012   1.976   1.590
10934TIP3    H232760   6.086   1.908   1.476
10935TIP3   OH232761   8.017   6.073   2.448
10935TIP3    H132762   7.989   6.114   2.367
10935TIP3    H232763   7.943   6.084   2.508
10936TIP3   OH232764   8.252   2.782   3.002
10936TIP3    H132765   8.294   2.709   3.047
10936TIP3    H232766   8.250   2.852   3.068
10937TIP3   OH232767   4.469   7.669   6.287
10937TIP3    H132768   4.525   7.604   6.244
10937TIP3    H232769   4.435   7.723   6.216
10938TIP3   OH232770   2.885   3.193   5.148
10938TIP3    H132771   2.870   3.147   5.230
10938TIP3    H232772   2.827   3.150   5.085
10939TIP3   OH232773   0.536   2.731   3.403
10939TIP3    H132774   0.490   2.742   3.486
10939TIP3    H232775   0.501   2.799   3.346
10940TIP3   OH232776   4.245   0.037   1.405
10940TIP3    H132777   4.179   0.017   1.471
10940TIP3    H232778   4.199   0.092   1.342
10941TIP3   OH232779   8.171   6.408   2.583
10941TIP3    H132780   8.207   6.491   2.552
10941TIP3    H232781   8.077   6.426   2.595
10942TIP3   OH232782   7.572   6.134   6.755
10942TIP3    H132783   7.577   6.212   6.810
10942TIP3    H232784   7.643   6.145   6.692
10943TIP3   OH232785   1.473   0.858   3.017
10943TIP3    H132786   1.476   0.950   2.992
10943TIP3    H232787   1.459   0.859   3.111
10944TIP3   OH232788   5.307   0.233   6.339
10944TIP3    H132789   5.315   0.319   6.382
10944TIP3    H232790   5.328   0.250   6.247
10945TIP3   OH232791   4.583   3.893   2.007
10945TIP3    H132792   4.644   3.958   2.041
10945TIP3    H232793   4.600   3.814   2.059
10946TIP3   OH232794   5.571   0.574   4.263
10946TIP3    H132795   5.590   0.488   4.227
10946TIP3    H232796   5.475   0.581   4.262
10947TIP3   OH232797   7.721   6.585   3.898
10947TIP3    H132798   7.653   6.544   3.845
10947TIP3    H232799   7.702   6.679   3.894
10948TIP3   OH232800   0.639   6.184   2.120
10948TIP3    H132801   0.583   6.257   2.149
10948TIP3    H232802   0.643   6.127   2.196
10949TIP3   OH232803   1.198   2.856   5.683
10949TIP3    H132804   1.218   2.915   5.756
10949TIP3    H232805   1.112   2.884   5.652
10950TIP3   OH232806   7.824   4.949   0.896
10950TIP3    H132807   7.879   4.911   0.965
10950TIP3    H232808   7.881   5.012   0.852
10951TIP3   OH232809   4.955   7.363   4.582
10951TIP3    H132810   4.930   7.436   4.526
10951TIP3    H232811   4.996   7.403   4.658
10952TIP3   OH232812   5.527   2.512   6.575
10952TIP3    H132813   5.561   2.424   6.592
10952TIP3    H232814   5.513   2.550   6.662
10953TIP3   OH232815   5.688   3.143   0.537
10953TIP3    H132816   5.744   3.221   0.538
10953TIP3    H232817   5.655   3.137   0.627
10954TIP3   OH232818   5.933   7.705   1.628
10954TIP3    H132819   5.961   7.737   1.713
10954TIP3    H232820   6.010   7.714   1.572
10955TIP3   OH232821   4.227   2.573   3.035
10955TIP3    H132822   4.137   2.541   3.025
10955TIP3    H232823   4.229   2.610   3.124
10956TIP3   OH232824   0.361   4.973   3.991
10956TIP3    H132825   0.365   4.943   3.900
10956TIP3    H232826   0.409   4.906   4.040
10957TIP3   OH232827   3.871   1.976   0.767
10957TIP3    H132828   3.792   1.928   0.745
10957TIP3    H232829   3.913   1.924   0.836
10958TIP3   OH232830   4.576   6.531   0.847
10958TIP3    H132831   4.558   6.472   0.774
10958TIP3    H232832   4.646   6.488   0.896
10959TIP3   OH232833   0.533   1.212   5.556
10959TIP3    H132834   0.501   1.274   5.622
10959TIP3    H232835   0.629   1.219   5.562
10960TIP3   OH232836   5.771   0.921   3.788
10960TIP3    H132837   5.766   0.826   3.798
10960TIP3    H232838   5.865   0.939   3.782
10961TIP3   OH232839   7.727   2.527   3.707
10961TIP3    H132840   7.822   2.529   3.719
10961TIP3    H232841   7.692   2.494   3.790
10962TIP3   OH232842   1.598   1.910   3.186
10962TIP3    H132843   1.589   1.826   3.232
10962TIP3    H232844   1.600   1.886   3.093
10963TIP3   OH232845   2.719   2.447   1.539
10963TIP3    H132846   2.803   2.426   1.580
10963TIP3    H232847   2.741   2.509   1.469
10964TIP3   OH232848   4.240   7.589   5.242
10964TIP3    H132849   4.147   7.596   5.218
10964TIP3    H232850   4.280   7.667   5.205
10965TIP3   OH232851   5.001   4.073   5.399
10965TIP3    H132852   5.043   3.989   5.416
10965TIP3    H232853   4.971   4.068   5.308
10966TIP3   OH232854   2.886   4.757   3.067
10966TIP3    H132855   2.921   4.805   3.142
10966TIP3    H232856   2.853   4.825   3.008
10967TIP3   OH232857   7.052   4.555   2.808
10967TIP3    H132858   7.046   4.603   2.890
10967TIP3    H232859   7.058   4.622   2.740
10968TIP3   OH232860   4.198   6.600   0.934
10968TIP3    H132861   4.213   6.633   1.023
10968TIP3    H232862   4.188   6.505   0.945
10969TIP3   OH232863   6.466   5.417   0.472
10969TIP3    H132864   6.373   5.440   0.476
10969TIP3    H232865   6.508   5.491   0.429
10970TIP3   OH232866   7.870   1.353   5.268
10970TIP3    H132867   7.889   1.299   5.345
10970TIP3    H232868   7.931   1.322   5.202
10971TIP3   OH232869   2.431   6.898   3.936
10971TIP3    H132870   2.378   6.962   3.888
10971TIP3    H232871   2.487   6.951   3.993
10972TIP3   OH232872   8.106   0.980   5.238
10972TIP3    H132873   8.055   0.932   5.304
10972TIP3    H232874   8.174   1.025   5.289
10973TIP3   OH232875   5.233   3.410   3.192
10973TIP3    H132876   5.146   3.449   3.200
10973TIP3    H232877   5.222   3.321   3.225
10974TIP3   OH232878   8.000   2.306   1.183
10974TIP3    H132879   8.068   2.319   1.249
10974TIP3    H232880   7.923   2.280   1.233
10975TIP3   OH232881   3.663   4.701   4.417
10975TIP3    H132882   3.724   4.651   4.472
10975TIP3    H232883   3.708   4.784   4.401
10976TIP3   OH232884   1.323   5.830   1.362
10976TIP3    H132885   1.376   5.754   1.383
10976TIP3    H232886   1.385   5.903   1.360
10977TIP3   OH232887   7.796   6.024   3.653
10977TIP3    H132888   7.738   6.099   3.652
10977TIP3    H232889   7.857   6.041   3.726
10978TIP3   OH232890   5.521   3.456   0.346
10978TIP3    H132891   5.591   3.508   0.386
10978TIP3    H232892   5.448   3.463   0.407
10979TIP3   OH232893   6.031   0.383   3.231
10979TIP3    H132894   6.051   0.465   3.185
10979TIP3    H232895   6.072   0.394   3.317
10980TIP3   OH232896   5.239   1.465   4.584
10980TIP3    H132897   5.231   1.480   4.678
10980TIP3    H232898   5.152   1.485   4.549
10981TIP3   OH232899   0.794   5.807   0.149
10981TIP3    H132900   0.823   5.857   0.226
10981TIP3    H232901   0.701   5.825   0.142
10982TIP3   OH232902   5.831   2.909   6.109
10982TIP3    H132903   5.814   2.824   6.150
10982TIP3    H232904   5.758   2.964   6.138
10983TIP3   OH232905   7.090   1.056   3.714
10983TIP3    H132906   7.105   0.988   3.649
10983TIP3    H232907   7.087   1.010   3.798
10984TIP3   OH232908   3.533   1.231   5.329
10984TIP3    H132909   3.541   1.304   5.268
10984TIP3    H232910   3.475   1.169   5.286
10985TIP3   OH232911   5.202   3.780   6.548
10985TIP3    H132912   5.257   3.796   6.472
10985TIP3    H232913   5.261   3.789   6.623
10986TIP3   OH232914   2.691   7.728   6.131
10986TIP3    H132915   2.774   7.756   6.093
10986TIP3    H232916   2.694   7.759   6.221
10987TIP3   OH232917   0.212   2.593   0.094
10987TIP3    H132918   0.184   2.503   0.080
10987TIP3    H232919   0.183   2.640   0.015
10988TIP3   OH232920   3.731   7.671   1.479
10988TIP3    H132921   3.805   7.708   1.529
10988TIP3    H232922   3.718   7.733   1.407
10989TIP3   OH232923   5.714   4.847   4.623
10989TIP3    H132924   5.628   4.807   4.632
10989TIP3    H232925   5.772   4.773   4.603
10990TIP3   OH232926   2.762   7.139   5.569
10990TIP3    H132927   2.742   7.177   5.655
10990TIP3    H232928   2.847   7.097   5.580
10991TIP3   OH232929   2.522   0.257   0.578
10991TIP3    H132930   2.504   0.322   0.646
10991TIP3    H232931   2.455   0.190   0.591
10992TIP3   OH232932   5.173   3.080   1.833
10992TIP3    H132933   5.146   2.993   1.805
10992TIP3    H232934   5.239   3.107   1.770
10993TIP3   OH232935   4.295   7.452  -0.003
10993TIP3    H132936   4.390   7.440  -0.008
10993TIP3    H232937   4.278   7.463   0.091
10994TIP3   OH232938   6.212   3.633   5.177
10994TIP3    H132939   6.284   3.659   5.120
10994TIP3    H232940   6.215   3.696   5.249
10995TIP3   OH232941   6.022   7.402   2.623
10995TIP3    H132942   5.936   7.427   2.657
10995TIP3    H232943   6.040   7.467   2.555
10996TIP3   OH232944   6.912   2.570   4.255
10996TIP3    H132945   6.906   2.475   4.267
10996TIP3    H232946   6.825   2.603   4.278
10997TIP3   OH232947   4.047   4.885   5.422
10997TIP3    H132948   3.969   4.876   5.476
10997TIP3    H232949   4.099   4.953   5.466
10998TIP3   OH232950   0.491   4.996   4.995
10998TIP3    H132951   0.464   4.917   4.948
10998TIP3    H232952   0.523   4.965   5.080
10999TIP3   OH232953   6.898   0.797   6.050
10999TIP3    H132954   6.896   0.701   6.060
10999TIP3    H232955   6.991   0.818   6.041
11000TIP3   OH232956   1.806   2.548   0.044
11000TIP3    H132957   1.867   2.481   0.013
11000TIP3    H232958   1.859   2.604   0.100
11001TIP3   OH232959   1.462   4.189   4.092
11001TIP3    H132960   1.381   4.201   4.141
11001TIP3    H232961   1.504   4.114   4.135
11002TIP3   OH232962   4.508   6.288   0.738
11002TIP3    H132963   4.484   6.196   0.729
11002TIP3    H232964   4.435   6.336   0.699
11003TIP3   OH232965   7.466   0.870   0.061
11003TIP3    H132966   7.372   0.855   0.059
11003TIP3    H232967   7.502   0.790   0.100
11004TIP3   OH232968   6.666   4.325   2.751
11004TIP3    H132969   6.638   4.351   2.838
11004TIP3    H232970   6.632   4.394   2.693
11005TIP3   OH232971   0.948   7.271   4.137
11005TIP3    H132972   0.946   7.216   4.215
11005TIP3    H232973   0.877   7.237   4.082
11006TIP3   OH232974   0.150   2.961   3.666
11006TIP3    H132975   0.095   3.014   3.608
11006TIP3    H232976   0.110   2.972   3.753
11007TIP3   OH232977   2.886   0.234   6.697
11007TIP3    H132978   2.960   0.293   6.711
11007TIP3    H232979   2.843   0.230   6.782
11008TIP3   OH232980   5.209   5.635   6.457
11008TIP3    H132981   5.287   5.633   6.514
11008TIP3    H232982   5.244   5.630   6.368
11009TIP3   OH232983   3.312   1.685   5.539
11009TIP3    H132984   3.310   1.767   5.489
11009TIP3    H232985   3.335   1.712   5.628
11010TIP3   OH232986   5.873   5.150   1.386
11010TIP3    H132987   5.911   5.063   1.377
11010TIP3    H232988   5.783   5.134   1.415
11011TIP3   OH232989   6.703   4.725   4.612
11011TIP3    H132990   6.647   4.651   4.634
11011TIP3    H232991   6.759   4.736   4.690
11012TIP3   OH232992   4.329   7.799   5.092
11012TIP3    H132993   4.391   7.741   5.047
11012TIP3    H232994   4.286   7.847   5.021
11013TIP3   OH232995   5.795   0.361   4.889
11013TIP3    H132996   5.738   0.382   4.816
11013TIP3    H232997   5.806   0.444   4.936
11014TIP3   OH232998   2.210   7.077   0.938
11014TIP3    H132999   2.151   7.104   0.868
11014TIP3    H233000   2.248   7.158   0.971
11015TIP3   OH233001   0.379   4.696   3.042
11015TIP3    H133002   0.453   4.638   3.026
11015TIP3    H233003   0.405   4.748   3.118
11016TIP3   OH233004   6.119   2.424   6.156
11016TIP3    H133005   6.047   2.367   6.182
11016TIP3    H233006   6.090   2.512   6.180
11017TIP3   OH233007   3.373   2.887   1.890
11017TIP3    H133008   3.357   2.981   1.886
11017TIP3    H233009   3.300   2.848   1.841
11018TIP3   OH233010   0.579   6.245   4.785
11018TIP3    H133011   0.524   6.168   4.797
11018TIP3    H233012   0.539   6.313   4.839
11019TIP3   OH233013   1.812   3.679   1.118
11019TIP3    H133014   1.864   3.723   1.185
11019TIP3    H233015   1.741   3.740   1.099
11020TIP3   OH233016   0.438   2.836   1.214
11020TIP3    H133017   0.530   2.812   1.228
11020TIP3    H233018   0.395   2.752   1.200
11021TIP3   OH233019   7.112   6.686   6.175
11021TIP3    H133020   7.176   6.731   6.232
11021TIP3    H233021   7.155   6.604   6.152
11022TIP3   OH233022   6.978   1.568   1.164
11022TIP3    H133023   6.996   1.660   1.183
11022TIP3    H233024   7.062   1.523   1.178
11023TIP3   OH233025   6.423   5.277   6.095
11023TIP3    H133026   6.477   5.211   6.051
11023TIP3    H233027   6.411   5.243   6.183
11024TIP3   OH233028   8.281   5.244   2.891
11024TIP3    H133029   8.346   5.244   2.822
11024TIP3    H233030   8.197   5.251   2.845
11025TIP3   OH233031   1.993   4.405   0.828
11025TIP3    H133032   2.075   4.453   0.835
11025TIP3    H233033   1.957   4.431   0.744
11026TIP3   OH233034   3.769   5.823   1.182
11026TIP3    H133035   3.746   5.780   1.264
11026TIP3    H233036   3.861   5.846   1.191
11027TIP3   OH233037   1.105   6.448   5.607
11027TIP3    H133038   1.119   6.455   5.702
11027TIP3    H233039   1.065   6.362   5.595
11028TIP3   OH233040   7.200   7.652   0.162
11028TIP3    H133041   7.233   7.734   0.125
11028TIP3    H233042   7.190   7.594   0.087
11029TIP3   OH233043   6.022   1.165   2.304
11029TIP3    H133044   5.994   1.074   2.316
11029TIP3    H233045   6.031   1.199   2.393
11030TIP3   OH233046   5.168   2.161   0.782
11030TIP3    H133047   5.122   2.233   0.827
11030TIP3    H233048   5.100   2.120   0.728
11031TIP3   OH233049   8.096   6.560   5.935
11031TIP3    H133050   8.183   6.596   5.953
11031TIP3    H233051   8.074   6.592   5.848
11032TIP3   OH233052   6.557   4.958   1.813
11032TIP3    H133053   6.478   5.009   1.828
11032TIP3    H233054   6.525   4.873   1.781
11033TIP3   OH233055   1.715   1.829   5.934
11033TIP3    H133056   1.807   1.805   5.936
11033TIP3    H233057   1.668   1.746   5.938
11034TIP3   OH233058   5.905   1.616   1.302
11034TIP3    H133059   5.894   1.550   1.233
11034TIP3    H233060   5.990   1.595   1.341
11035TIP3   OH233061   8.227   1.589   5.751
11035TIP3    H133062   8.299   1.528   5.768
11035TIP3    H233063   8.170   1.581   5.828
11036TIP3   OH233064   2.603   6.200   4.160
11036TIP3    H133065   2.690   6.188   4.122
11036TIP3    H233066   2.598   6.294   4.178
11037TIP3   OH233067   4.295   0.980   3.430
11037TIP3    H133068   4.219   0.935   3.467
11037TIP3    H233069   4.266   1.009   3.343
11038TIP3   OH233070   6.491   1.626   1.826
11038TIP3    H133071   6.514   1.696   1.765
11038TIP3    H233072   6.471   1.551   1.770
11039TIP3   OH233073   8.181   0.681   4.165
11039TIP3    H133074   8.194   0.624   4.089
11039TIP3    H233075   8.098   0.654   4.203
11040TIP3   OH233076   1.529   3.383   0.657
11040TIP3    H133077   1.435   3.404   0.655
11040TIP3    H233078   1.532   3.294   0.692
11041TIP3   OH233079   2.367   0.526   1.402
11041TIP3    H133080   2.381   0.610   1.447
11041TIP3    H233081   2.333   0.468   1.470
11042TIP3   OH233082   7.599   2.325   5.140
11042TIP3    H133083   7.544   2.369   5.205
11042TIP3    H233084   7.667   2.282   5.193
11043TIP3   OH233085   1.795   0.531   1.230
11043TIP3    H133086   1.786   0.547   1.136
11043TIP3    H233087   1.805   0.436   1.237
11044TIP3   OH233088   5.229   2.364   3.663
11044TIP3    H133089   5.300   2.366   3.727
11044TIP3    H233090   5.150   2.371   3.715
11045TIP3   OH233091   8.097   3.181   3.947
11045TIP3    H133092   8.036   3.219   3.884
11045TIP3    H233093   8.046   3.114   3.993
11046TIP3   OH233094   2.155   1.184   5.211
11046TIP3    H133095   2.164   1.101   5.257
11046TIP3    H233096   2.198   1.248   5.267
11047TIP3   OH233097   5.001   5.605   4.021
11047TIP3    H133098   4.963   5.684   3.985
11047TIP3    H233099   4.943   5.535   3.991
11048TIP3   OH233100   7.237   7.052   3.554
11048TIP3    H133101   7.149   7.076   3.582
11048TIP3    H233102   7.274   7.132   3.519
11049TIP3   OH233103   5.702   4.908   5.144
11049TIP3    H133104   5.729   4.857   5.068
11049TIP3    H233105   5.612   4.935   5.124
11050TIP3   OH233106   0.883   4.655   5.629
11050TIP3    H133107   0.889   4.560   5.626
11050TIP3    H233108   0.938   4.685   5.556
11051TIP3   OH233109   7.401   1.772   2.919
11051TIP3    H133110   7.320   1.760   2.969
11051TIP3    H233111   7.415   1.688   2.876
11052TIP3   OH233112   1.743   4.287   0.893
11052TIP3    H133113   1.723   4.258   0.804
11052TIP3    H233114   1.832   4.324   0.887
11053TIP3   OH233115   3.852   2.994   4.092
11053TIP3    H133116   3.812   3.024   4.174
11053TIP3    H233117   3.879   3.075   4.048
11054TIP3   OH233118   0.968   0.567   6.714
11054TIP3    H133119   0.935   0.521   6.791
11054TIP3    H233120   1.058   0.591   6.736
11055TIP3   OH233121   3.585   3.030   1.431
11055TIP3    H133122   3.538   2.993   1.506
11055TIP3    H233123   3.641   2.959   1.400
11056TIP3   OH233124   4.226   4.697   5.868
11056TIP3    H133125   4.245   4.618   5.818
11056TIP3    H233126   4.136   4.686   5.899
11057TIP3   OH233127   6.087   1.661   1.703
11057TIP3    H133128   6.141   1.636   1.778
11057TIP3    H233129   6.015   1.712   1.742
11058TIP3   OH233130   1.349   6.591   3.966
11058TIP3    H133131   1.340   6.654   4.038
11058TIP3    H233132   1.271   6.607   3.912
11059TIP3   OH233133   3.737   6.303   0.219
11059TIP3    H133134   3.747   6.396   0.201
11059TIP3    H233135   3.693   6.268   0.141
11060TIP3   OH233136   6.618   1.211   5.083
11060TIP3    H133137   6.630   1.169   4.998
11060TIP3    H233138   6.681   1.283   5.083
11061TIP3   OH233139   2.308   1.412   0.550
11061TIP3    H133140   2.275   1.485   0.497
11061TIP3    H233141   2.391   1.444   0.585
11062TIP3   OH233142   7.512   6.633   0.896
11062TIP3    H133143   7.574   6.657   0.964
11062TIP3    H233144   7.462   6.560   0.933
11063TIP3   OH233145   6.941   5.732   6.542
11063TIP3    H133146   6.921   5.761   6.453
11063TIP3    H233147   7.036   5.743   6.550
11064TIP3   OH233148   3.823   4.101   2.166
11064TIP3    H133149   3.754   4.081   2.104
11064TIP3    H233150   3.810   4.194   2.187
11065TIP3   OH233151   6.616   4.880   0.998
11065TIP3    H133152   6.666   4.824   0.938
11065TIP3    H233153   6.678   4.901   1.068
11066TIP3   OH233154   2.194   2.996   1.280
11066TIP3    H133155   2.133   3.047   1.227
11066TIP3    H233156   2.186   3.034   1.368
11067TIP3   OH233157   6.406   3.167   3.646
11067TIP3    H133158   6.448   3.195   3.727
11067TIP3    H233159   6.330   3.117   3.674
11068TIP3   OH233160   0.071   6.634   5.078
11068TIP3    H133161   0.013   6.624   5.002
11068TIP3    H233162   0.023   6.691   5.138
11069TIP3   OH233163   5.541   3.362   5.735
11069TIP3    H133164   5.544   3.439   5.791
11069TIP3    H233165   5.499   3.295   5.789
11070TIP3   OH233166   7.086   4.479   0.291
11070TIP3    H133167   7.032   4.476   0.212
11070TIP3    H233168   7.056   4.404   0.343
11071TIP3   OH233169   0.700   2.503   1.480
11071TIP3    H133170   0.664   2.592   1.484
11071TIP3    H233171   0.686   2.467   1.567
11072TIP3   OH233172   7.518   0.456   6.166
11072TIP3    H133173   7.488   0.487   6.080
11072TIP3    H233174   7.579   0.385   6.147
11073TIP3   OH233175   2.361   0.975   3.596
11073TIP3    H133176   2.268   0.963   3.575
11073TIP3    H233177   2.407   0.945   3.518
11074TIP3   OH233178   5.419   1.512   6.421
11074TIP3    H133179   5.410   1.534   6.514
11074TIP3    H233180   5.349   1.450   6.404
11075TIP3   OH233181   1.825   0.655   1.466
11075TIP3    H133182   1.909   0.701   1.468
11075TIP3    H233183   1.807   0.644   1.372
11076TIP3   OH233184   2.947   5.784   4.541
11076TIP3    H133185   2.870   5.817   4.587
11076TIP3    H233186   2.927   5.692   4.524
11077TIP3   OH233187   5.538   4.731   3.073
11077TIP3    H133188   5.469   4.790   3.103
11077TIP3    H233189   5.580   4.777   3.000
11078TIP3   OH233190   4.495   3.726   0.820
11078TIP3    H133191   4.530   3.665   0.755
11078TIP3    H233192   4.512   3.683   0.904
11079TIP3   OH233193   1.903   4.661   3.463
11079TIP3    H133194   1.977   4.675   3.404
11079TIP3    H233195   1.941   4.668   3.551
11080TIP3   OH233196   2.072   3.310   3.993
11080TIP3    H133197   2.132   3.272   4.058
11080TIP3    H233198   2.007   3.356   4.045
11081TIP3   OH233199   7.538   5.141   1.007
11081TIP3    H133200   7.578   5.199   1.071
11081TIP3    H233201   7.593   5.150   0.929
11082TIP3   OH233202   5.293   1.805   3.638
11082TIP3    H133203   5.336   1.743   3.580
11082TIP3    H233204   5.292   1.887   3.589
11083TIP3   OH233205   3.185   5.568   6.383
11083TIP3    H133206   3.233   5.556   6.302
11083TIP3    H233207   3.128   5.492   6.389
11084TIP3   OH233208   0.928   2.795   1.586
11084TIP3    H133209   0.956   2.732   1.652
11084TIP3    H233210   0.928   2.746   1.504
11085TIP3   OH233211   6.341   5.951   1.406
11085TIP3    H133212   6.423   5.920   1.443
11085TIP3    H233213   6.273   5.904   1.454
11086TIP3   OH233214   0.094   2.748   1.992
11086TIP3    H133215   0.048   2.795   1.923
11086TIP3    H233216   0.025   2.713   2.048
11087TIP3   OH233217   4.140   7.037   6.680
11087TIP3    H133218   4.082   6.962   6.673
11087TIP3    H233219   4.194   7.019   6.757
11088TIP3   OH233220   0.814   3.758   2.904
11088TIP3    H133221   0.896   3.726   2.941
11088TIP3    H233222   0.785   3.827   2.964
11089TIP3   OH233223   0.331   0.692   2.242
11089TIP3    H133224   0.304   0.748   2.315
11089TIP3    H233225   0.427   0.702   2.239
11090TIP3   OH233226   4.614   0.906   1.954
11090TIP3    H133227   4.519   0.900   1.944
11090TIP3    H233228   4.647   0.911   1.865
11091TIP3   OH233229   6.257   4.092   4.022
11091TIP3    H133230   6.228   4.156   3.957
11091TIP3    H233231   6.207   4.113   4.101
11092TIP3   OH233232   2.439   1.115   6.276
11092TIP3    H133233   2.405   1.160   6.354
11092TIP3    H233234   2.371   1.128   6.210
11093TIP3   OH233235   7.009   2.457   1.206
11093TIP3    H133236   6.991   2.545   1.239
11093TIP3    H233237   6.952   2.400   1.257
11094TIP3   OH233238   5.698   4.545   5.643
11094TIP3    H133239   5.724   4.518   5.731
11094TIP3    H233240   5.775   4.589   5.608
11095TIP3   OH233241   2.920   4.581   5.292
11095TIP3    H133242   3.000   4.551   5.249
11095TIP3    H233243   2.941   4.669   5.324
11096TIP3   OH233244   0.524   0.225   3.065
11096TIP3    H133245   0.598   0.247   3.009
11096TIP3    H233246   0.502   0.307   3.110
11097TIP3   OH233247   1.356   1.654   2.484
11097TIP3    H133248   1.378   1.744   2.462
11097TIP3    H233249   1.382   1.603   2.407
11098TIP3   OH233250   7.038   3.980   5.965
11098TIP3    H133251   7.130   3.998   5.981
11098TIP3    H233252   6.995   3.993   6.050
11099TIP3   OH233253   0.296   2.231   0.207
11099TIP3    H133254   0.370   2.219   0.147
11099TIP3    H233255   0.318   2.311   0.255
11100TIP3   OH233256   4.621   0.047   1.723
11100TIP3    H133257   4.681   0.119   1.704
11100TIP3    H233258   4.650  -0.025   1.667
11101TIP3   OH233259   0.127   1.368   3.703
11101TIP3    H133260   0.161   1.420   3.631
11101TIP3    H233261   0.053   1.419   3.737
11102TIP3   OH233262   8.026   1.443   5.868
11102TIP3    H133263   7.976   1.378   5.819
11102TIP3    H233264   8.020   1.414   5.959
11103TIP3   OH233265   4.301   1.909   4.178
11103TIP3    H133266   4.336   1.895   4.090
11103TIP3    H233267   4.292   1.821   4.215
11104TIP3   OH233268   3.240   7.429   5.287
11104TIP3    H133269   3.274   7.516   5.264
11104TIP3    H233270   3.266   7.417   5.379
11105TIP3   OH233271   7.038   7.716   2.331
11105TIP3    H133272   6.990   7.683   2.407
11105TIP3    H233273   6.970   7.738   2.267
11106TIP3   OH233274   1.007   6.865   0.267
11106TIP3    H133275   0.934   6.837   0.323
11106TIP3    H233276   1.079   6.808   0.291
11107TIP3   OH233277   4.480   3.852   4.447
11107TIP3    H133278   4.565   3.879   4.480
11107TIP3    H233279   4.440   3.933   4.416
11108TIP3   OH233280   6.607   1.908   4.527
11108TIP3    H133281   6.644   1.821   4.541
11108TIP3    H233282   6.680   1.968   4.537
11109TIP3   OH233283   3.040   0.020   6.141
11109TIP3    H133284   2.982   0.010   6.216
11109TIP3    H233285   3.051   0.115   6.131
11110TIP3   OH233286   6.194   4.905   2.596
11110TIP3    H133287   6.198   4.956   2.515
11110TIP3    H233288   6.255   4.834   2.583
11111TIP3   OH233289   0.790   2.530   4.296
11111TIP3    H133290   0.756   2.445   4.322
11111TIP3    H233291   0.883   2.528   4.320
11112TIP3   OH233292   1.411   2.127   3.761
11112TIP3    H133293   1.395   2.148   3.669
11112TIP3    H233294   1.363   2.045   3.775
11113TIP3   OH233295   4.635   4.744   6.261
11113TIP3    H133296   4.658   4.776   6.349
11113TIP3    H233297   4.539   4.742   6.261
11114TIP3   OH233298   3.136   7.503   2.127
11114TIP3    H133299   3.197   7.432   2.107
11114TIP3    H233300   3.188   7.583   2.117
11115TIP3   OH233301   3.085   6.364   6.465
11115TIP3    H133302   2.989   6.359   6.470
11115TIP3    H233303   3.110   6.283   6.420
11116TIP3   OH233304   4.569   6.732   2.981
11116TIP3    H133305   4.506   6.674   3.024
11116TIP3    H233306   4.515   6.795   2.933
11117TIP3   OH233307   0.156   0.992   6.623
11117TIP3    H133308   0.060   0.992   6.629
11117TIP3    H233309   0.185   1.016   6.711
11118TIP3   OH233310   0.321   1.207   4.781
11118TIP3    H133311   0.250   1.252   4.735
11118TIP3    H233312   0.292   1.203   4.872
11119TIP3   OH233313   0.044   1.899   1.330
11119TIP3    H133314  -0.004   1.830   1.375
11119TIP3    H233315  -0.016   1.927   1.260
11120TIP3   OH233316   3.066   2.497   4.542
11120TIP3    H133317   3.003   2.569   4.544
11120TIP3    H233318   3.052   2.450   4.624
11121TIP3   OH233319   5.572   0.549   5.648
11121TIP3    H133320   5.487   0.536   5.690
11121TIP3    H233321   5.587   0.643   5.654
11122TIP3   OH233322   3.493   4.704   5.061
11122TIP3    H133323   3.564   4.746   5.013
11122TIP3    H233324   3.502   4.735   5.151
11123TIP3   OH233325   5.475   2.408   2.314
11123TIP3    H133326   5.451   2.487   2.265
11123TIP3    H233327   5.568   2.397   2.298
11124TIP3   OH233328   3.213   7.839   6.129
11124TIP3    H133329   3.123   7.820   6.102
11124TIP3    H233330   3.267   7.778   6.077
11125TIP3   OH233331   6.903   1.122   6.667
11125TIP3    H133332   6.914   1.133   6.573
11125TIP3    H233333   6.877   1.030   6.678
11126TIP3   OH233334   1.515   3.746   2.508
11126TIP3    H133335   1.497   3.839   2.494
11126TIP3    H233336   1.502   3.734   2.603
11127TIP3   OH233337   5.209   1.367   1.352
11127TIP3    H133338   5.281   1.330   1.301
11127TIP3    H233339   5.225   1.461   1.351
11128TIP3   OH233340   0.167   4.356   6.155
11128TIP3    H133341   0.164   4.349   6.059
11128TIP3    H233342   0.077   4.374   6.180
11129TIP3   OH233343   4.033   7.242   3.559
11129TIP3    H133344   3.977   7.317   3.582
11129TIP3    H233345   4.122   7.277   3.564
11130TIP3   OH233346   3.025   1.239   1.273
11130TIP3    H133347   3.036   1.270   1.183
11130TIP3    H233348   3.114   1.220   1.302
11131TIP3   OH233349   5.414   1.336   1.057
11131TIP3    H133350   5.430   1.256   1.107
11131TIP3    H233351   5.492   1.389   1.072
11132TIP3   OH233352   7.723   4.602   0.642
11132TIP3    H133353   7.680   4.660   0.704
11132TIP3    H233354   7.655   4.540   0.616
11133TIP3   OH233355   0.025   1.008   5.956
11133TIP3    H133356   0.070   1.084   5.993
11133TIP3    H233357  -0.052   0.997   6.012
11134TIP3   OH233358   1.435   3.336   2.655
11134TIP3    H133359   1.513   3.391   2.647
11134TIP3    H233360   1.423   3.299   2.568
11135TIP3   OH233361   2.046   4.979   5.876
11135TIP3    H133362   2.139   4.968   5.895
11135TIP3    H233363   2.040   4.967   5.781
11136TIP3   OH233364   3.553   3.455   1.434
11136TIP3    H133365   3.603   3.502   1.367
11136TIP3    H233366   3.525   3.374   1.391
11137TIP3   OH233367   1.213   5.001   2.711
11137TIP3    H133368   1.265   4.937   2.662
11137TIP3    H233369   1.172   4.950   2.781
11138TIP3   OH233370   1.185   1.318   4.225
11138TIP3    H133371   1.115   1.275   4.274
11138TIP3    H233372   1.213   1.252   4.161
11139TIP3   OH233373   7.015   3.445   3.254
11139TIP3    H133374   6.933   3.414   3.292
11139TIP3    H233375   7.076   3.446   3.328
11140TIP3   OH233376   2.195   4.041   4.450
11140TIP3    H133377   2.113   4.007   4.486
11140TIP3    H233378   2.237   4.085   4.524
11141TIP3   OH233379   3.273   5.248   0.389
11141TIP3    H133380   3.217   5.175   0.415
11141TIP3    H233381   3.214   5.324   0.390
11142TIP3   OH233382   5.034   1.867   2.189
11142TIP3    H133383   5.047   1.875   2.284
11142TIP3    H233384   5.034   1.957   2.157
11143TIP3   OH233385   8.024   3.594   5.579
11143TIP3    H133386   8.077   3.529   5.534
11143TIP3    H233387   8.023   3.565   5.670
11144TIP3   OH233388   0.449   6.188   1.168
11144TIP3    H133389   0.462   6.215   1.258
11144TIP3    H233390   0.462   6.093   1.169
11145TIP3   OH233391   0.867   1.598   0.477
11145TIP3    H133392   0.925   1.606   0.402
11145TIP3    H233393   0.869   1.505   0.500
11146TIP3   OH233394   6.395   1.691   3.517
11146TIP3    H133395   6.430   1.604   3.499
11146TIP3    H233396   6.417   1.742   3.439
11147TIP3   OH233397   3.566   6.846   4.975
11147TIP3    H133398   3.582   6.865   5.068
11147TIP3    H233399   3.538   6.930   4.938
11148TIP3   OH233400   8.104   0.249   3.421
11148TIP3    H133401   8.083   0.280   3.332
11148TIP3    H233402   8.199   0.258   3.427
11149TIP3   OH233403   3.797   1.419   3.896
11149TIP3    H133404   3.789   1.508   3.862
11149TIP3    H233405   3.855   1.375   3.834
11150TIP3   OH233406   2.669   6.884   5.256
11150TIP3    H133407   2.587   6.883   5.306
11150TIP3    H233408   2.661   6.809   5.197
11151TIP3   OH233409   4.860   3.650   3.771
11151TIP3    H133410   4.803   3.725   3.752
11151TIP3    H233411   4.857   3.642   3.866
11152TIP3   OH233412   3.709   4.140   6.735
11152TIP3    H133413   3.687   4.065   6.791
11152TIP3    H233414   3.747   4.100   6.656
11153TIP3   OH233415   1.506   1.990   6.053
11153TIP3    H133416   1.430   1.932   6.058
11153TIP3    H233417   1.574   1.935   6.014
11154TIP3   OH233418   4.964   4.841   6.404
11154TIP3    H133419   4.985   4.932   6.383
11154TIP3    H233420   4.900   4.847   6.475
11155TIP3   OH233421   5.924   6.116   4.629
11155TIP3    H133422   5.845   6.156   4.593
11155TIP3    H233423   5.963   6.070   4.555
11156TIP3   OH233424   7.289   0.510   2.224
11156TIP3    H133425   7.274   0.482   2.134
11156TIP3    H233426   7.214   0.474   2.273
11157TIP3   OH233427   0.205   6.336   1.927
11157TIP3    H133428   0.273   6.396   1.960
11157TIP3    H233429   0.246   6.249   1.930
11158TIP3   OH233430   4.466   4.042   2.374
11158TIP3    H133431   4.435   3.955   2.350
11158TIP3    H233432   4.413   4.102   2.322
11159TIP3   OH233433   7.945   0.584   6.366
11159TIP3    H133434   7.985   0.588   6.280
11159TIP3    H233435   8.018   0.573   6.427
11160TIP3   OH233436   0.126   4.820   0.130
11160TIP3    H133437   0.143   4.786   0.218
11160TIP3    H233438   0.162   4.753   0.071
11161TIP3   OH233439   8.257   6.068   2.823
11161TIP3    H133440   8.270   6.162   2.833
11161TIP3    H233441   8.172   6.051   2.865
11162TIP3   OH233442   8.166   1.895   5.454
11162TIP3    H133443   8.101   1.958   5.422
11162TIP3    H233444   8.114   1.821   5.485
11163TIP3   OH233445   2.681   3.046   1.412
11163TIP3    H133446   2.683   3.007   1.325
11163TIP3    H233447   2.670   3.139   1.397
11164TIP3   OH233448   2.470   4.364   1.980
11164TIP3    H133449   2.500   4.274   1.973
11164TIP3    H233450   2.380   4.362   1.946
11165TIP3   OH233451   7.827   7.224   3.018
11165TIP3    H133452   7.759   7.233   2.951
11165TIP3    H233453   7.793   7.272   3.094
11166TIP3   OH233454   1.956   3.851   6.434
11166TIP3    H133455   2.013   3.784   6.397
11166TIP3    H233456   1.960   3.923   6.371
11167TIP3   OH233457   6.710   1.450   2.894
11167TIP3    H133458   6.668   1.400   2.824
11167TIP3    H233459   6.678   1.539   2.882
11168TIP3   OH233460   2.794   7.414   6.710
11168TIP3    H133461   2.864   7.475   6.690
11168TIP3    H233462   2.811   7.386   6.800
11169TIP3   OH233463   4.142   6.999   2.340
11169TIP3    H133464   4.079   7.012   2.269
11169TIP3    H233465   4.228   7.006   2.298
11170TIP3   OH233466   5.094   5.435   2.849
11170TIP3    H133467   5.029   5.428   2.918
11170TIP3    H233468   5.178   5.435   2.895
11171TIP3   OH233469   3.466   7.311   2.067
11171TIP3    H133470   3.505   7.328   2.152
11171TIP3    H233471   3.414   7.232   2.079
11172TIP3   OH233472   8.135   3.977   5.342
11172TIP3    H133473   8.173   4.059   5.310
11172TIP3    H233474   8.042   3.995   5.350
11173TIP3   OH233475   6.131   5.724   5.011
11173TIP3    H133476   6.055   5.684   4.968
11173TIP3    H233477   6.206   5.697   4.958
11174TIP3   OH233478   1.964   6.148   2.103
11174TIP3    H133479   1.965   6.176   2.195
11174TIP3    H233480   1.996   6.225   2.055
11175TIP3   OH233481   1.862   6.452   1.809
11175TIP3    H133482   1.837   6.423   1.721
11175TIP3    H233483   1.958   6.448   1.809
11176TIP3   OH233484   3.609   2.588   3.315
11176TIP3    H133485   3.557   2.620   3.389
11176TIP3    H233486   3.621   2.494   3.333
11177TIP3   OH233487   6.379   6.548   5.780
11177TIP3    H133488   6.315   6.486   5.743
11177TIP3    H233489   6.377   6.531   5.874
11178TIP3   OH233490   4.112   3.541   0.151
11178TIP3    H133491   4.187   3.484   0.164
11178TIP3    H233492   4.036   3.483   0.156
11179TIP3   OH233493   7.752   0.115   4.458
11179TIP3    H133494   7.669   0.084   4.494
11179TIP3    H233495   7.810   0.039   4.460
11180TIP3   OH233496   0.039   5.984   6.049
11180TIP3    H133497  -0.037   5.932   6.022
11180TIP3    H233498   0.002   6.069   6.073
11181TIP3   OH233499   3.059   3.122   1.224
11181TIP3    H133500   3.113   3.073   1.286
11181TIP3    H233501   3.044   3.060   1.151
11182TIP3   OH233502   1.872   4.251   3.547
11182TIP3    H133503   1.797   4.232   3.491
11182TIP3    H233504   1.948   4.246   3.489
11183TIP3   OH233505   6.209   3.609   5.599
11183TIP3    H133506   6.158   3.624   5.678
11183TIP3    H233507   6.298   3.590   5.629
11184TIP3   OH233508   0.943   1.802   3.494
11184TIP3    H133509   0.889   1.741   3.444
11184TIP3    H233510   0.883   1.870   3.524
11185TIP3   OH233511   3.849   5.476   1.747
11185TIP3    H133512   3.828   5.546   1.686
11185TIP3    H233513   3.920   5.428   1.705
11186TIP3   OH233514   0.259   6.584   4.725
11186TIP3    H133515   0.173   6.543   4.732
11186TIP3    H233516   0.275   6.621   4.812
11187TIP3   OH233517   3.508   7.738   5.581
11187TIP3    H133518   3.523   7.782   5.497
11187TIP3    H233519   3.414   7.722   5.583
11188TIP3   OH233520   1.016   0.099   5.272
11188TIP3    H133521   0.941   0.078   5.328
11188TIP3    H233522   1.055   0.176   5.312
11189TIP3   OH233523   0.107   5.515   6.033
11189TIP3    H133524   0.184   5.565   6.059
11189TIP3    H233525   0.142   5.434   5.996
11190TIP3   OH233526   0.603   7.307   4.147
11190TIP3    H133527   0.631   7.331   4.235
11190TIP3    H233528   0.576   7.389   4.107
11191TIP3   OH233529   7.718   3.835   1.523
11191TIP3    H133530   7.645   3.774   1.528
11191TIP3    H233531   7.735   3.860   1.614
11192TIP3   OH233532   3.450   3.455   2.389
11192TIP3    H133533   3.449   3.513   2.465
11192TIP3    H233534   3.542   3.431   2.378
11193TIP3   OH233535   4.002   2.911   5.955
11193TIP3    H133536   4.072   2.931   6.018
11193TIP3    H233537   3.923   2.910   6.008
11194TIP3   OH233538   4.352   1.976   5.594
11194TIP3    H133539   4.439   1.940   5.609
11194TIP3    H233540   4.292   1.909   5.627
11195TIP3   OH233541   1.127   2.024   0.324
11195TIP3    H133542   1.155   2.105   0.282
11195TIP3    H233543   1.037   2.040   0.351
11196TIP3   OH233544   5.179   5.169  -0.018
11196TIP3    H133545   5.248   5.136   0.040
11196TIP3    H233546   5.186   5.264  -0.011
11197TIP3   OH233547   2.825   1.665   2.313
11197TIP3    H133548   2.819   1.760   2.319
11197TIP3    H233549   2.848   1.637   2.402
11198TIP3   OH233550   2.009   3.299   2.967
11198TIP3    H133551   2.016   3.364   3.037
11198TIP3    H233552   1.994   3.350   2.888
11199TIP3   OH233553   7.109   0.575   4.484
11199TIP3    H133554   7.071   0.561   4.397
11199TIP3    H233555   7.035   0.571   4.544
11200TIP3   OH233556   5.498   2.707   2.892
11200TIP3    H133557   5.498   2.772   2.962
11200TIP3    H233558   5.590   2.701   2.866
11201TIP3   OH233559   7.834   6.647   4.542
11201TIP3    H133560   7.788   6.730   4.532
11201TIP3    H233561   7.915   6.669   4.588
11202TIP3   OH233562   8.234   4.526   5.013
11202TIP3    H133563   8.289   4.533   5.091
11202TIP3    H233564   8.147   4.551   5.043
11203TIP3   OH233565   6.733   2.903   4.793
11203TIP3    H133566   6.678   2.851   4.734
11203TIP3    H233567   6.771   2.971   4.737
11204TIP3   OH233568   5.307   0.289   5.522
11204TIP3    H133569   5.290   0.230   5.448
11204TIP3    H233570   5.377   0.347   5.490
11205TIP3   OH233571   3.495   1.026   1.915
11205TIP3    H133572   3.432   1.045   1.985
11205TIP3    H233573   3.580   1.030   1.957
11206TIP3   OH233574   1.172   2.825   2.617
11206TIP3    H133575   1.164   2.853   2.526
11206TIP3    H233576   1.210   2.737   2.612
11207TIP3   OH233577   3.640   3.394   0.230
11207TIP3    H133578   3.553   3.360   0.249
11207TIP3    H233579   3.631   3.489   0.235
11208TIP3   OH233580   7.079   7.666   5.980
11208TIP3    H133581   7.005   7.666   6.039
11208TIP3    H233582   7.092   7.758   5.958
11209TIP3   OH233583   6.738   1.749   4.910
11209TIP3    H133584   6.757   1.814   4.843
11209TIP3    H233585   6.809   1.759   4.974
11210TIP3   OH233586   6.129   0.697   3.629
11210TIP3    H133587   6.064   0.748   3.677
11210TIP3    H233588   6.157   0.755   3.557
11211TIP3   OH233589   5.230   6.617   5.303
11211TIP3    H133590   5.255   6.708   5.286
11211TIP3    H233591   5.299   6.583   5.359
11212TIP3   OH233592   1.098   1.211   2.513
11212TIP3    H133593   1.172   1.265   2.483
11212TIP3    H233594   1.029   1.229   2.449
11213TIP3   OH233595   4.859   2.009   1.008
11213TIP3    H133596   4.854   2.105   1.003
11213TIP3    H233597   4.814   1.978   0.929
11214TIP3   OH233598   3.689   2.309   1.408
11214TIP3    H133599   3.680   2.302   1.313
11214TIP3    H233600   3.639   2.234   1.441
11215TIP3   OH233601   4.041   5.821   4.486
11215TIP3    H133602   4.085   5.740   4.462
11215TIP3    H233603   4.040   5.873   4.405
11216TIP3   OH233604   1.541   2.893   6.474
11216TIP3    H133605   1.632   2.867   6.461
11216TIP3    H233606   1.504   2.824   6.530
11217TIP3   OH233607   1.601   2.371   0.480
11217TIP3    H133608   1.606   2.294   0.536
11217TIP3    H233609   1.690   2.407   0.481
11218TIP3   OH233610   5.355   4.983   2.733
11218TIP3    H133611   5.442   5.001   2.698
11218TIP3    H233612   5.356   4.889   2.753
11219TIP3   OH233613   6.222   6.737   4.526
11219TIP3    H133614   6.296   6.795   4.511
11219TIP3    H233615   6.154   6.794   4.562
11220TIP3   OH233616   4.660   6.495   0.494
11220TIP3    H133617   4.585   6.463   0.443
11220TIP3    H233618   4.663   6.589   0.475
11221TIP3   OH233619   3.594   2.702   6.579
11221TIP3    H133620   3.650   2.761   6.528
11221TIP3    H233621   3.647   2.623   6.591
11222TIP3   OH233622   6.106   2.581   1.932
11222TIP3    H133623   6.145   2.494   1.939
11222TIP3    H233624   6.013   2.564   1.914
11223TIP3   OH233625   6.243   3.786   3.049
11223TIP3    H133626   6.311   3.784   2.981
11223TIP3    H233627   6.291   3.799   3.131
11224TIP3   OH233628   5.640   3.702   6.246
11224TIP3    H133629   5.551   3.679   6.273
11224TIP3    H233630   5.638   3.699   6.151
11225TIP3   OH233631   2.132   1.361   4.394
11225TIP3    H133632   2.163   1.286   4.445
11225TIP3    H233633   2.200   1.428   4.407
11226TIP3   OH233634   6.811   4.892   6.385
11226TIP3    H133635   6.901   4.877   6.355
11226TIP3    H233636   6.760   4.904   6.305
11227TIP3   OH233637   1.532   3.115   0.711
11227TIP3    H133638   1.453   3.063   0.722
11227TIP3    H233639   1.604   3.052   0.717
11228TIP3   OH233640   8.065   4.798   1.719
11228TIP3    H133641   8.041   4.848   1.797
11228TIP3    H233642   8.071   4.708   1.750
11229TIP3   OH233643   0.327   1.258   5.340
11229TIP3    H133644   0.387   1.219   5.403
11229TIP3    H233645   0.304   1.343   5.378
11230TIP3   OH233646   0.220   5.353   1.058
11230TIP3    H133647   0.192   5.444   1.063
11230TIP3    H233648   0.177   5.310   1.132
11231TIP3   OH233649   3.691   6.212   2.603
11231TIP3    H133650   3.733   6.127   2.619
11231TIP3    H233651   3.647   6.201   2.518
11232TIP3   OH233652   5.182   4.174   1.042
11232TIP3    H133653   5.226   4.246   1.088
11232TIP3    H233654   5.202   4.097   1.095
11233TIP3   OH233655   4.125   6.962   3.474
11233TIP3    H133656   4.178   6.909   3.533
11233TIP3    H233657   4.081   7.025   3.532
11234TIP3   OH233658   5.190   3.584   2.884
11234TIP3    H133659   5.179   3.491   2.905
11234TIP3    H233660   5.222   3.585   2.793
11235TIP3   OH233661   2.834   2.351   2.606
11235TIP3    H133662   2.875   2.371   2.691
11235TIP3    H233663   2.899   2.376   2.541
11236TIP3   OH233664   7.634   0.070   5.512
11236TIP3    H133665   7.594   0.067   5.598
11236TIP3    H233666   7.573   0.119   5.458
11237TIP3   OH233667   0.767   5.005   5.482
11237TIP3    H133668   0.800   4.926   5.441
11237TIP3    H233669   0.783   4.992   5.576
11238TIP3   OH233670   2.584   5.889   3.234
11238TIP3    H133671   2.587   5.886   3.138
11238TIP3    H233672   2.524   5.962   3.253
11239TIP3   OH233673   7.555   2.121   0.043
11239TIP3    H133674   7.527   2.107   0.134
11239TIP3    H233675   7.477   2.155  -0.001
11240TIP3   OH233676   2.247   0.619   0.836
11240TIP3    H133677   2.217   0.677   0.766
11240TIP3    H233678   2.228   0.668   0.917
11241TIP3   OH233679   0.536   7.556   3.975
11241TIP3    H133680   0.579   7.618   3.915
11241TIP3    H233681   0.554   7.592   4.062
11242TIP3   OH233682   7.785   1.354   4.633
11242TIP3    H133683   7.763   1.341   4.541
11242TIP3    H233684   7.798   1.266   4.668
11243TIP3   OH233685   5.219   1.266   4.218
11243TIP3    H133686   5.280   1.229   4.153
11243TIP3    H233687   5.149   1.304   4.165
11244TIP3   OH233688   2.070   5.188   0.247
11244TIP3    H133689   2.000   5.252   0.262
11244TIP3    H233690   2.090   5.153   0.334
11245TIP3   OH233691   6.054   2.670   3.142
11245TIP3    H133692   6.142   2.632   3.131
11245TIP3    H233693   6.029   2.647   3.231
11246TIP3   OH233694   6.962   6.757   0.038
11246TIP3    H133695   7.037   6.714   0.079
11246TIP3    H233696   6.980   6.751  -0.056
11247TIP3   OH233697   5.916   1.217   0.334
11247TIP3    H133698   5.826   1.211   0.366
11247TIP3    H233699   5.926   1.141   0.276
11248TIP3   OH233700   5.631   2.358   0.649
11248TIP3    H133701   5.602   2.269   0.629
11248TIP3    H233702   5.725   2.350   0.665
11249TIP3   OH233703   3.687   4.935   2.700
11249TIP3    H133704   3.695   4.918   2.606
11249TIP3    H233705   3.661   5.027   2.706
11250TIP3   OH233706   3.273   2.901   0.284
11250TIP3    H133707   3.347   2.854   0.246
11250TIP3    H233708   3.200   2.882   0.225
11251TIP3   OH233709   1.948   3.138   2.708
11251TIP3    H133710   1.879   3.133   2.775
11251TIP3    H233711   1.924   3.072   2.644
11252TIP3   OH233712   4.433   6.668   3.606
11252TIP3    H133713   4.416   6.735   3.540
11252TIP3    H233714   4.437   6.717   3.689
11253TIP3   OH233715   6.885   2.765   2.277
11253TIP3    H133716   6.963   2.820   2.269
11253TIP3    H233717   6.815   2.818   2.239
11254TIP3   OH233718   2.179   5.958   6.574
11254TIP3    H133719   2.229   6.039   6.564
11254TIP3    H233720   2.123   5.973   6.650
11255TIP3   OH233721   6.332   1.783   4.829
11255TIP3    H133722   6.387   1.858   4.854
11255TIP3    H233723   6.298   1.750   4.912
11256TIP3   OH233724   2.314   1.127   4.225
11256TIP3    H133725   2.363   1.138   4.143
11256TIP3    H233726   2.241   1.189   4.217
11257TIP3   OH233727   1.562   5.152   5.996
11257TIP3    H133728   1.566   5.245   5.978
11257TIP3    H233729   1.572   5.110   5.911
11258TIP3   OH233730   3.744   3.384   2.451
11258TIP3    H133731   3.774   3.329   2.523
11258TIP3    H233732   3.739   3.325   2.375
11259TIP3   OH233733   2.649   2.710   2.667
11259TIP3    H133734   2.618   2.676   2.751
11259TIP3    H233735   2.590   2.783   2.647
11260TIP3   OH233736   0.052   5.570   6.302
11260TIP3    H133737   0.106   5.649   6.308
11260TIP3    H233738   0.044   5.553   6.208
11261TIP3   OH233739   3.403   5.742   1.615
11261TIP3    H133740   3.483   5.793   1.604
11261TIP3    H233741   3.352   5.759   1.536
11262TIP3   OH233742   2.663   0.762   6.448
11262TIP3    H133743   2.615   0.694   6.496
11262TIP3    H233744   2.605   0.786   6.376
11263TIP3   OH233745   0.476   1.698   5.864
11263TIP3    H133746   0.570   1.681   5.872
11263TIP3    H233747   0.445   1.630   5.805
11264TIP3   OH233748   5.240   7.389   0.929
11264TIP3    H133749   5.154   7.423   0.953
11264TIP3    H233750   5.299   7.465   0.935
11265TIP3   OH233751   6.649   0.419   2.388
11265TIP3    H133752   6.628   0.429   2.295
11265TIP3    H233753   6.604   0.339   2.414
11266TIP3   OH233754   2.665   0.719   1.170
11266TIP3    H133755   2.600   0.788   1.156
11266TIP3    H233756   2.629   0.642   1.125
11267TIP3   OH233757   1.145   0.918   1.855
11267TIP3    H133758   1.098   0.961   1.783
11267TIP3    H233759   1.221   0.974   1.870
11268TIP3   OH233760   3.776   2.011   6.468
11268TIP3    H133761   3.704   1.987   6.409
11268TIP3    H233762   3.836   1.937   6.464
11269TIP3   OH233763   3.655   4.816   6.419
11269TIP3    H133764   3.578   4.817   6.363
11269TIP3    H233765   3.705   4.893   6.392
11270TIP3   OH233766   2.566   4.359   5.365
11270TIP3    H133767   2.595   4.448   5.385
11270TIP3    H233768   2.486   4.371   5.313
11271TIP3   OH233769   3.360   2.233   4.637
11271TIP3    H133770   3.307   2.159   4.608
11271TIP3    H233771   3.369   2.288   4.559
11272TIP3   OH233772   4.160   3.241   1.450
11272TIP3    H133773   4.076   3.264   1.491
11272TIP3    H233774   4.221   3.234   1.523
11273TIP3   OH233775   7.650   3.320   3.209
11273TIP3    H133776   7.602   3.378   3.149
11273TIP3    H233777   7.621   3.346   3.296
11274TIP3   OH233778   7.892   6.365   3.906
11274TIP3    H133779   7.820   6.428   3.898
11274TIP3    H233780   7.971   6.419   3.911
11275TIP3   OH233781   7.548   4.276   6.147
11275TIP3    H133782   7.453   4.281   6.150
11275TIP3    H233783   7.572   4.321   6.066
11276TIP3   OH233784   4.620   4.445   0.819
11276TIP3    H133785   4.709   4.478   0.833
11276TIP3    H233786   4.608   4.447   0.725
11277TIP3   OH233787   6.360   7.429   1.955
11277TIP3    H133788   6.282   7.440   1.900
11277TIP3    H233789   6.427   7.398   1.894
11278TIP3   OH233790   6.000   5.662   1.450
11278TIP3    H133791   5.926   5.612   1.415
11278TIP3    H233792   6.002   5.640   1.543
11279TIP3   OH233793   1.225   5.110   0.369
11279TIP3    H133794   1.161   5.181   0.361
11279TIP3    H233795   1.307   5.147   0.335
11280TIP3   OH233796   5.673   5.534   5.944
11280TIP3    H133797   5.619   5.584   5.882
11280TIP3    H233798   5.761   5.571   5.934
11281TIP3   OH233799   8.307   5.487   4.161
11281TIP3    H133800   8.244   5.555   4.188
11281TIP3    H233801   8.267   5.447   4.084
11282TIP3   OH233802   2.746   4.649   5.051
11282TIP3    H133803   2.777   4.606   5.130
11282TIP3    H233804   2.659   4.682   5.073
11283TIP3   OH233805   5.461   7.252   4.673
11283TIP3    H133806   5.527   7.271   4.606
11283TIP3    H233807   5.507   7.267   4.756
11284TIP3   OH233808   5.509   2.940   3.820
11284TIP3    H133809   5.592   2.913   3.780
11284TIP3    H233810   5.474   3.006   3.761
11285TIP3   OH233811   5.672   0.522   1.303
11285TIP3    H133812   5.597   0.567   1.342
11285TIP3    H233813   5.685   0.444   1.358
11286TIP3   OH233814   3.016   5.234   0.249
11286TIP3    H133815   3.017   5.329   0.235
11286TIP3    H233816   2.952   5.222   0.319
11287TIP3   OH233817   1.522   2.566   3.680
11287TIP3    H133818   1.608   2.589   3.643
11287TIP3    H233819   1.477   2.650   3.688
11288TIP3   OH233820   5.424   1.999   4.674
11288TIP3    H133821   5.444   2.089   4.699
11288TIP3    H233822   5.398   2.004   4.582
11289TIP3   OH233823   3.198   7.760   6.448
11289TIP3    H133824   3.212   7.836   6.391
11289TIP3    H233825   3.114   7.723   6.419
11290TIP3   OH233826   7.101   7.021   1.821
11290TIP3    H133827   7.122   6.996   1.911
11290TIP3    H233828   7.160   6.969   1.767
11291TIP3   OH233829   3.339   6.094   3.102
11291TIP3    H133830   3.335   6.164   3.037
11291TIP3    H233831   3.251   6.057   3.103
11292TIP3   OH233832   3.665   3.751   5.211
11292TIP3    H133833   3.647   3.806   5.287
11292TIP3    H233834   3.760   3.741   5.211
11293TIP3   OH233835   8.018   1.991   6.788
11293TIP3    H133836   8.084   2.060   6.786
11293TIP3    H233837   8.048   1.927   6.723
11294TIP3   OH233838   3.297   7.394   2.979
11294TIP3    H133839   3.352   7.324   3.016
11294TIP3    H233840   3.357   7.448   2.929
11295TIP3   OH233841   5.391   1.983   6.341
11295TIP3    H133842   5.365   2.067   6.304
11295TIP3    H233843   5.309   1.942   6.368
11296TIP3   OH233844   7.157   7.487   1.040
11296TIP3    H133845   7.073   7.531   1.049
11296TIP3    H233846   7.156   7.421   1.109
11297TIP3   OH233847   6.791   3.280   3.278
11297TIP3    H133848   6.709   3.240   3.249
11297TIP3    H233849   6.814   3.231   3.357
11298TIP3   OH233850   4.331   3.157   1.643
11298TIP3    H133851   4.388   3.104   1.699
11298TIP3    H233852   4.384   3.176   1.565
11299TIP3   OH233853   4.455   1.264   2.768
11299TIP3    H133854   4.405   1.183   2.756
11299TIP3    H233855   4.419   1.324   2.702
11300TIP3   OH233856   7.370   7.081   1.068
11300TIP3    H133857   7.458   7.049   1.087
11300TIP3    H233858   7.377   7.177   1.075
11301TIP3   OH233859   2.237   5.611   5.827
11301TIP3    H133860   2.217   5.682   5.765
11301TIP3    H233861   2.210   5.645   5.912
11302TIP3   OH233862   7.824   1.189   1.587
11302TIP3    H133863   7.855   1.137   1.512
11302TIP3    H233864   7.854   1.278   1.567
11303TIP3   OH233865   1.616   4.605   0.643
11303TIP3    H133866   1.699   4.618   0.690
11303TIP3    H233867   1.629   4.522   0.595
11304TIP3   OH233868   1.708   4.249   1.506
11304TIP3    H133869   1.693   4.338   1.537
11304TIP3    H233870   1.801   4.247   1.483
11305TIP3   OH233871   1.654   7.438   6.574
11305TIP3    H133872   1.730   7.422   6.518
11305TIP3    H233873   1.582   7.453   6.512
11306TIP3   OH233874   0.740   2.291   4.965
11306TIP3    H133875   0.652   2.273   4.932
11306TIP3    H233876   0.794   2.218   4.932
11307TIP3   OH233877   0.712   1.945   3.480
11307TIP3    H133878   0.699   1.912   3.391
11307TIP3    H233879   0.636   1.912   3.529
11308TIP3   OH233880   4.705   0.784   0.554
11308TIP3    H133881   4.669   0.825   0.475
11308TIP3    H233882   4.681   0.692   0.546
11309TIP3   OH233883   5.801   0.845   6.303
11309TIP3    H133884   5.892   0.831   6.329
11309TIP3    H233885   5.763   0.757   6.298
11310TIP3   OH233886   2.703   5.396   6.061
11310TIP3    H133887   2.627   5.436   6.102
11310TIP3    H233888   2.711   5.441   5.977
11311TIP3   OH233889   4.001   0.757   0.473
11311TIP3    H133890   4.091   0.787   0.477
11311TIP3    H233891   3.949   0.833   0.499
11312TIP3   OH233892   5.647   7.796   0.372
11312TIP3    H133893   5.672   7.769   0.460
11312TIP3    H233894   5.650   7.715   0.320
11313TIP3   OH233895   0.711   3.580   3.605
11313TIP3    H133896   0.671   3.652   3.653
11313TIP3    H233897   0.783   3.550   3.662
11314TIP3   OH233898   1.917   6.088   3.764
11314TIP3    H133899   1.919   6.166   3.709
11314TIP3    H233900   1.828   6.055   3.757
11315TIP3   OH233901   0.692   5.528   6.198
11315TIP3    H133902   0.738   5.447   6.221
11315TIP3    H233903   0.690   5.529   6.103
11316TIP3   OH233904   0.130   7.568   2.986
11316TIP3    H133905   0.164   7.610   2.907
11316TIP3    H233906   0.035   7.580   2.980
11317TIP3   OH233907   6.058   2.959   5.779
11317TIP3    H133908   6.117   3.030   5.803
11317TIP3    H233909   6.087   2.884   5.830
11318TIP3   OH233910   6.667   1.947   5.904
11318TIP3    H133911   6.695   1.953   5.995
11318TIP3    H233912   6.633   2.034   5.883
11319TIP3   OH233913   6.437   7.535   5.496
11319TIP3    H133914   6.404   7.452   5.530
11319TIP3    H233915   6.430   7.596   5.570
11320TIP3   OH233916   3.690   7.050   1.632
11320TIP3    H133917   3.732   7.127   1.671
11320TIP3    H233918   3.599   7.056   1.660
11321TIP3   OH233919   1.751   3.615   1.489
11321TIP3    H133920   1.795   3.692   1.451
11321TIP3    H233921   1.813   3.583   1.554
11322TIP3   OH233922   3.612   1.750   6.306
11322TIP3    H133923   3.606   1.700   6.225
11322TIP3    H233924   3.657   1.692   6.367
11323TIP3   OH233925   8.157   1.361   5.588
11323TIP3    H133926   8.158   1.273   5.624
11323TIP3    H233927   8.159   1.419   5.664
11324TIP3   OH233928   4.503   0.916   6.432
11324TIP3    H133929   4.468   1.001   6.405
11324TIP3    H233930   4.426   0.865   6.456
11325TIP3   OH233931   0.135   4.730   3.611
11325TIP3    H133932   0.060   4.678   3.639
11325TIP3    H233933   0.166   4.687   3.531
11326TIP3   OH233934   6.864   7.549   0.976
11326TIP3    H133935   6.812   7.472   0.997
11326TIP3    H233936   6.821   7.588   0.900
11327TIP3   OH233937   4.113   5.057   6.038
11327TIP3    H133938   4.201   5.031   6.009
11327TIP3    H233939   4.127   5.099   6.123
11328TIP3   OH233940   0.406   4.531   6.387
11328TIP3    H133941   0.496   4.524   6.419
11328TIP3    H233942   0.410   4.600   6.320
11329TIP3   OH233943   4.654   4.559   1.977
11329TIP3    H133944   4.590   4.605   2.032
11329TIP3    H233945   4.602   4.500   1.924
11330TIP3   OH233946   1.241   1.991   3.015
11330TIP3    H133947   1.316   1.977   2.957
11330TIP3    H233948   1.231   2.087   3.018
11331TIP3   OH233949   7.435   1.862   1.562
11331TIP3    H133950   7.391   1.853   1.478
11331TIP3    H233951   7.491   1.939   1.551
11332TIP3   OH233952   6.689   0.454   1.192
11332TIP3    H133953   6.686   0.549   1.209
11332TIP3    H233954   6.782   0.436   1.178
11333TIP3   OH233955   0.540   0.498   2.802
11333TIP3    H133956   0.609   0.473   2.740
11333TIP3    H233957   0.576   0.476   2.888
11334TIP3   OH233958   2.472   1.317   5.523
11334TIP3    H133959   2.514   1.378   5.584
11334TIP3    H233960   2.390   1.360   5.499
11335TIP3   OH233961   3.997   2.393   6.279
11335TIP3    H133962   3.965   2.356   6.361
11335TIP3    H233963   4.077   2.344   6.260
11336TIP3   OH233964   2.919   4.060   0.250
11336TIP3    H133965   2.987   4.075   0.185
11336TIP3    H233966   2.967   4.044   0.331
11337TIP3   OH233967   2.037   0.093   6.659
11337TIP3    H133968   2.017   0.162   6.722
11337TIP3    H233969   2.122   0.060   6.688
11338TIP3   OH233970   4.078   6.628   6.173
11338TIP3    H133971   3.989   6.652   6.198
11338TIP3    H233972   4.133   6.663   6.243
11339TIP3   OH233973   7.058   0.115   6.195
11339TIP3    H133974   6.985   0.172   6.219
11339TIP3    H233975   7.117   0.170   6.143
11340TIP3   OH233976   0.734   0.970   0.723
11340TIP3    H133977   0.706   0.882   0.700
11340TIP3    H233978   0.827   0.961   0.747
11341TIP3   OH233979   4.703   3.437   3.029
11341TIP3    H133980   4.741   3.499   2.968
11341TIP3    H233981   4.613   3.468   3.042
11342TIP3   OH233982   1.217   4.317   5.555
11342TIP3    H133983   1.288   4.259   5.526
11342TIP3    H233984   1.261   4.384   5.606
11343TIP3   OH233985   1.843   0.012   3.672
11343TIP3    H133986   1.808   0.102   3.674
11343TIP3    H233987   1.775  -0.039   3.627
11344TIP3   OH233988   5.863   2.378   6.464
11344TIP3    H133989   5.834   2.337   6.546
11344TIP3    H233990   5.858   2.472   6.480
11345TIP3   OH233991   7.556   0.994   4.104
11345TIP3    H133992   7.550   0.900   4.122
11345TIP3    H233993   7.469   1.017   4.072
11346TIP3   OH233994   7.718   3.882   6.392
11346TIP3    H133995   7.633   3.874   6.348
11346TIP3    H233996   7.701   3.941   6.466
11347TIP3   OH233997   4.591   4.504   0.475
11347TIP3    H133998   4.555   4.421   0.505
11347TIP3    H233999   4.541   4.525   0.395
11348TIP3   OH234000   6.379   5.504   1.380
11348TIP3    H134001   6.420   5.454   1.452
11348TIP3    H234002   6.451   5.555   1.343
11349TIP3   OH234003   4.357   0.622   1.013
11349TIP3    H134004   4.375   0.629   0.919
11349TIP3    H234005   4.324   0.708   1.038
11350TIP3   OH234006   8.005   2.221   2.136
11350TIP3    H134007   8.024   2.194   2.226
11350TIP3    H234008   7.968   2.309   2.145
11351TIP3   OH234009   4.558   1.558   3.980
11351TIP3    H134010   4.463   1.553   3.970
11351TIP3    H234011   4.587   1.612   3.907
11352TIP3   OH234012   0.219   1.259   3.400
11352TIP3    H134013   0.312   1.240   3.405
11352TIP3    H234014   0.200   1.266   3.307
11353TIP3   OH234015   5.118   3.977   2.652
11353TIP3    H134016   5.191   3.984   2.714
11353TIP3    H234017   5.116   4.062   2.608
11354TIP3   OH234018   3.338   4.616   2.691
11354TIP3    H134019   3.243   4.615   2.688
11354TIP3    H234020   3.359   4.671   2.767
11355TIP3   OH234021   6.722   0.601   1.721
11355TIP3    H134022   6.701   0.524   1.669
11355TIP3    H234023   6.715   0.572   1.812
11356TIP3   OH234024   0.588   1.405   2.412
11356TIP3    H134025   0.502   1.444   2.423
11356TIP3    H234026   0.644   1.476   2.381
11357TIP3   OH234027   7.199   4.448   1.705
11357TIP3    H134028   7.210   4.477   1.615
11357TIP3    H234029   7.288   4.433   1.737
11358TIP3   OH234030   2.286   4.598   6.377
11358TIP3    H134031   2.227   4.628   6.446
11358TIP3    H234032   2.242   4.622   6.295
11359TIP3   OH234033   6.483   0.696   4.872
11359TIP3    H134034   6.420   0.738   4.814
11359TIP3    H234035   6.508   0.616   4.826
11360TIP3   OH234036   2.054   6.540   0.224
11360TIP3    H134037   2.020   6.629   0.226
11360TIP3    H234038   2.073   6.519   0.315
11361TIP3   OH234039   4.835   7.837   3.590
11361TIP3    H134040   4.898   7.785   3.641
11361TIP3    H234041   4.751   7.794   3.604
11362TIP3   OH234042   0.408   2.726   5.332
11362TIP3    H134043   0.405   2.786   5.407
11362TIP3    H234044   0.359   2.771   5.263
11363TIP3   OH234045   7.732   5.552   0.279
11363TIP3    H134046   7.725   5.456   0.279
11363TIP3    H234047   7.822   5.570   0.253
11364TIP3   OH234048   8.249   6.811   6.624
11364TIP3    H134049   8.311   6.806   6.552
11364TIP3    H234050   8.195   6.887   6.604
11365TIP3   OH234051   6.619   6.970   3.204
11365TIP3    H134052   6.593   6.950   3.114
11365TIP3    H234053   6.553   6.927   3.259
11366TIP3   OH234054   1.769   3.205   3.731
11366TIP3    H134055   1.854   3.211   3.774
11366TIP3    H234056   1.763   3.114   3.702
11367TIP3   OH234057   7.017   6.985   3.241
11367TIP3    H134058   7.056   6.921   3.301
11367TIP3    H234059   6.948   7.027   3.292
11368TIP3   OH234060   3.284   0.384   5.055
11368TIP3    H134061   3.191   0.367   5.071
11368TIP3    H234062   3.287   0.475   5.026
11369TIP3   OH234063   4.303   2.617   1.230
11369TIP3    H134064   4.215   2.639   1.198
11369TIP3    H234065   4.321   2.682   1.297
11370TIP3   OH234066   7.912   4.455   3.503
11370TIP3    H134067   7.829   4.432   3.463
11370TIP3    H234068   7.931   4.382   3.562
11371TIP3   OH234069   1.879   0.739   6.430
11371TIP3    H134070   1.857   0.692   6.349
11371TIP3    H234071   1.794   0.764   6.466
11372TIP3   OH234072   4.965   4.519   3.505
11372TIP3    H134073   5.023   4.587   3.539
11372TIP3    H234074   4.972   4.526   3.410
11373TIP3   OH234075   7.488   1.795   3.627
11373TIP3    H134076   7.498   1.829   3.716
11373TIP3    H234077   7.540   1.853   3.572
11374TIP3   OH234078   7.231   5.528   1.056
11374TIP3    H134079   7.255   5.489   0.972
11374TIP3    H234080   7.247   5.622   1.044
11375TIP3   OH234081   8.261   3.121   0.288
11375TIP3    H134082   8.206   3.185   0.333
11375TIP3    H234083   8.274   3.051   0.351
11376TIP3   OH234084   1.534   0.554   4.029
11376TIP3    H134085   1.479   0.560   3.950
11376TIP3    H234086   1.560   0.462   4.032
11377TIP3   OH234087   2.798   6.006   2.597
11377TIP3    H134088   2.843   5.966   2.672
11377TIP3    H234089   2.849   6.084   2.577
11378TIP3   OH234090   1.335   7.712   0.530
11378TIP3    H134091   1.262   7.773   0.516
11378TIP3    H234092   1.316   7.672   0.615
11379TIP3   OH234093   6.987   0.237   1.101
11379TIP3    H134094   6.936   0.293   1.044
11379TIP3    H234095   7.068   0.220   1.053
11380TIP3   OH234096   5.901   6.224   1.746
11380TIP3    H134097   5.889   6.238   1.840
11380TIP3    H234098   5.877   6.308   1.706
11381TIP3   OH234099   6.797   3.957   5.275
11381TIP3    H134100   6.865   3.892   5.261
11381TIP3    H234101   6.789   3.964   5.370
11382TIP3   OH234102   1.766   3.411   1.212
11382TIP3    H134103   1.764   3.503   1.188
11382TIP3    H234104   1.846   3.401   1.264
11383TIP3   OH234105   2.155   0.657   5.490
11383TIP3    H134106   2.132   0.682   5.400
11383TIP3    H234107   2.169   0.563   5.485
11384TIP3   OH234108   2.767   6.068   3.602
11384TIP3    H134109   2.853   6.035   3.577
11384TIP3    H234110   2.720   5.991   3.634
11385TIP3   OH234111   4.348   7.558   3.115
11385TIP3    H134112   4.347   7.516   3.201
11385TIP3    H234113   4.351   7.486   3.053
11386TIP3   OH234114   3.231   1.051   2.049
11386TIP3    H134115   3.229   0.989   2.122
11386TIP3    H234116   3.178   1.009   1.980
11387TIP3   OH234117   6.755   1.940   6.164
11387TIP3    H134118   6.804   1.865   6.197
11387TIP3    H234119   6.710   1.976   6.241
11388TIP3   OH234120   0.627   6.598   3.512
11388TIP3    H134121   0.632   6.599   3.608
11388TIP3    H234122   0.684   6.526   3.486
11389TIP3   OH234123   8.037   3.689   0.737
11389TIP3    H134124   8.035   3.618   0.803
11389TIP3    H234125   7.985   3.655   0.665
11390TIP3   OH234126   6.657   2.785   6.742
11390TIP3    H134127   6.725   2.827   6.794
11390TIP3    H234128   6.636   2.849   6.674
11391TIP3   OH234129   2.178   1.573   4.678
11391TIP3    H134130   2.173   1.659   4.721
11391TIP3    H234131   2.244   1.585   4.609
11392TIP3   OH234132   4.566   1.543   1.939
11392TIP3    H134133   4.509   1.617   1.960
11392TIP3    H234134   4.596   1.560   1.850
11393TIP3   OH234135   1.630   4.364   5.337
11393TIP3    H134136   1.574   4.346   5.412
11393TIP3    H234137   1.692   4.430   5.369
11394TIP3   OH234138   0.475   5.237   4.016
11394TIP3    H134139   0.441   5.153   3.985
11394TIP3    H234140   0.399   5.281   4.055
11395TIP3   OH234141   5.680   0.359   0.791
11395TIP3    H134142   5.750   0.414   0.825
11395TIP3    H234143   5.602   0.385   0.839
11396TIP3   OH234144   6.029   3.398   1.466
11396TIP3    H134145   5.974   3.461   1.514
11396TIP3    H234146   6.054   3.444   1.386
11397TIP3   OH234147   1.630   5.030   1.912
11397TIP3    H134148   1.641   4.944   1.872
11397TIP3    H234149   1.587   5.083   1.846
11398TIP3   OH234150   7.066   0.889   4.508
11398TIP3    H134151   7.125   0.858   4.576
11398TIP3    H234152   6.982   0.848   4.529
11399TIP3   OH234153   1.367   2.870   0.397
11399TIP3    H134154   1.457   2.858   0.370
11399TIP3    H234155   1.370   2.868   0.493
11400TIP3   OH234156   2.884   5.812   4.111
11400TIP3    H134157   2.970   5.840   4.144
11400TIP3    H234158   2.894   5.719   4.094
11401TIP3   OH234159   2.903   3.819   6.747
11401TIP3    H134160   2.859   3.898   6.715
11401TIP3    H234161   2.966   3.797   6.678
11402TIP3   OH234162   4.375   3.877   3.064
11402TIP3    H134163   4.382   3.956   3.010
11402TIP3    H234164   4.430   3.895   3.140
11403TIP3   OH234165   6.197   5.174   0.320
11403TIP3    H134166   6.286   5.166   0.286
11403TIP3    H234167   6.205   5.154   0.413
11404TIP3   OH234168   1.486   3.389   6.104
11404TIP3    H134169   1.524   3.301   6.114
11404TIP3    H234170   1.513   3.417   6.016
11405TIP3   OH234171   3.407   0.393   0.616
11405TIP3    H134172   3.430   0.443   0.538
11405TIP3    H234173   3.487   0.345   0.638
11406TIP3   OH234174   4.096   5.227   2.041
11406TIP3    H134175   4.179   5.208   2.084
11406TIP3    H234176   4.067   5.143   2.007
11407TIP3   OH234177   7.388   2.343   3.612
11407TIP3    H134178   7.297   2.312   3.605
11407TIP3    H234179   7.418   2.349   3.522
11408TIP3   OH234180   7.132   1.974   2.357
11408TIP3    H134181   7.098   1.915   2.290
11408TIP3    H234182   7.190   1.920   2.410
11409TIP3   OH234183   3.725   5.085   6.316
11409TIP3    H134184   3.805   5.091   6.369
11409TIP3    H234185   3.658   5.127   6.369
11410TIP3   OH234186   7.708   7.030   4.305
11410TIP3    H134187   7.798   7.047   4.331
11410TIP3    H234188   7.655   7.079   4.369
11411TIP3   OH234189   4.909   5.634   0.667
11411TIP3    H134190   4.897   5.727   0.648
11411TIP3    H234191   4.820   5.600   0.677
11412TIP3   OH234192   6.374   5.805   4.596
11412TIP3    H134193   6.384   5.743   4.668
11412TIP3    H234194   6.395   5.754   4.517
11413TIP3   OH234195   4.135   0.615   2.671
11413TIP3    H134196   4.155   0.565   2.750
11413TIP3    H234197   4.190   0.577   2.603
11414TIP3   OH234198   0.155   7.196   4.531
11414TIP3    H134199   0.243   7.191   4.493
11414TIP3    H234200   0.111   7.117   4.499
11415TIP3   OH234201   3.385   1.176   6.480
11415TIP3    H134202   3.325   1.110   6.513
11415TIP3    H234203   3.438   1.202   6.556
11416TIP3   OH234204   0.188   1.543   4.454
11416TIP3    H134205   0.212   1.632   4.429
11416TIP3    H234206   0.245   1.523   4.528
11417TIP3   OH234207   2.970   6.181   2.465
11417TIP3    H134208   3.053   6.135   2.475
11417TIP3    H234209   2.975   6.222   2.379
11418TIP3   OH234210   5.850   1.566   0.629
11418TIP3    H134211   5.856   1.593   0.537
11418TIP3    H234212   5.939   1.579   0.663
11419TIP3   OH234213   6.780   7.164   2.250
11419TIP3    H134214   6.733   7.110   2.313
11419TIP3    H234215   6.859   7.192   2.298
11420TIP3   OH234216   4.292   7.593   2.553
11420TIP3    H134217   4.268   7.677   2.513
11420TIP3    H234218   4.244   7.592   2.636
11421TIP3   OH234219   2.834   5.728   4.869
11421TIP3    H134220   2.835   5.786   4.793
11421TIP3    H234221   2.767   5.663   4.848
11422TIP3   OH234222   2.621   6.780   4.532
11422TIP3    H134223   2.591   6.862   4.492
11422TIP3    H234224   2.671   6.807   4.608
11423TIP3   OH234225   1.407   7.050   6.345
11423TIP3    H134226   1.398   6.964   6.385
11423TIP3    H234227   1.325   7.064   6.299
11424TIP3   OH234228   4.956   0.100   1.920
11424TIP3    H134229   4.952   0.143   2.005
11424TIP3    H234230   4.921   0.164   1.858
11425TIP3   OH234231   7.123   2.075   1.286
11425TIP3    H134232   7.126   2.095   1.192
11425TIP3    H234233   7.214   2.074   1.313
11426TIP3   OH234234   7.179   5.189   1.823
11426TIP3    H134235   7.176   5.159   1.732
11426TIP3    H234236   7.137   5.119   1.873
11427TIP3   OH234237   1.520   3.994   1.324
11427TIP3    H134238   1.456   4.036   1.382
11427TIP3    H234239   1.572   4.066   1.289
11428TIP3   OH234240   4.380   1.600   3.090
11428TIP3    H134241   4.426   1.647   3.020
11428TIP3    H234242   4.381   1.509   3.062
11429TIP3   OH234243   1.241   5.876   4.932
11429TIP3    H134244   1.179   5.803   4.930
11429TIP3    H234245   1.284   5.867   5.017
11430TIP3   OH234246   5.373   1.665   0.115
11430TIP3    H134247   5.413   1.748   0.087
11430TIP3    H234248   5.377   1.668   0.211
11431TIP3   OH234249   7.964   5.209   0.845
11431TIP3    H134250   7.974   5.295   0.886
11431TIP3    H234251   7.885   5.216   0.793
11432TIP3   OH234252   2.440   5.215   1.989
11432TIP3    H134253   2.488   5.204   2.071
11432TIP3    H234254   2.467   5.300   1.956
11433TIP3   OH234255   4.914   2.986   6.576
11433TIP3    H134256   4.907   3.055   6.511
11433TIP3    H234257   4.985   3.014   6.633
11434TIP3   OH234258   5.417   3.612   5.180
11434TIP3    H134259   5.392   3.568   5.099
11434TIP3    H234260   5.482   3.677   5.153
11435TIP3   OH234261   7.958   1.281   6.571
11435TIP3    H134262   7.987   1.271   6.662
11435TIP3    H234263   7.862   1.280   6.577
11436TIP3   OH234264   4.849   6.418   0.682
11436TIP3    H134265   4.817   6.448   0.767
11436TIP3    H234266   4.781   6.446   0.620
11437TIP3   OH234267   1.989   5.159   4.793
11437TIP3    H134268   2.025   5.248   4.795
11437TIP3    H234269   2.004   5.130   4.703
11438TIP3   OH234270   7.705   4.898   3.055
11438TIP3    H134271   7.738   4.918   3.142
11438TIP3    H234272   7.783   4.886   3.001
11439TIP3   OH234273   1.144   2.400   2.465
11439TIP3    H134274   1.114   2.477   2.416
11439TIP3    H234275   1.174   2.436   2.549
11440TIP3   OH234276   7.773   0.159   2.240
11440TIP3    H134277   7.770   0.211   2.160
11440TIP3    H234278   7.838   0.203   2.294
11441TIP3   OH234279   2.516   3.673   1.093
11441TIP3    H134280   2.502   3.585   1.059
11441TIP3    H234281   2.428   3.705   1.113
11442TIP3   OH234282   8.021   2.047   6.029
11442TIP3    H134283   8.109   2.064   6.063
11442TIP3    H234284   7.971   2.015   6.104
11443TIP3   OH234285   4.153   6.582   2.517
11443TIP3    H134286   4.066   6.622   2.519
11443TIP3    H234287   4.195   6.621   2.440
11444TIP3   OH234288   7.103   5.591   0.033
11444TIP3    H134289   7.049   5.657  -0.011
11444TIP3    H234290   7.109   5.623   0.124
11445TIP3   OH234291   6.917   4.887   1.980
11445TIP3    H134292   7.012   4.900   1.981
11445TIP3    H234293   6.901   4.829   1.906
11446TIP3   OH234294   4.239   3.521   6.683
11446TIP3    H134295   4.280   3.477   6.758
11446TIP3    H234296   4.158   3.556   6.718
11447TIP3   OH234297   5.638   5.798   2.313
11447TIP3    H134298   5.699   5.806   2.386
11447TIP3    H234299   5.608   5.707   2.317
11448TIP3   OH234300   7.500   4.429   0.557
11448TIP3    H134301   7.508   4.342   0.596
11448TIP3    H234302   7.410   4.455   0.575
11449TIP3   OH234303   2.271   1.292   6.137
11449TIP3    H134304   2.249   1.316   6.047
11449TIP3    H234305   2.188   1.266   6.176
11450TIP3   OH234306   4.748   6.141   0.876
11450TIP3    H134307   4.709   6.215   0.829
11450TIP3    H234308   4.831   6.175   0.909
11451TIP3   OH234309   6.093   2.769   5.954
11451TIP3    H134310   6.020   2.827   5.976
11451TIP3    H234311   6.117   2.727   6.037
11452TIP3   OH234312   1.190   7.600   3.849
11452TIP3    H134313   1.185   7.695   3.859
11452TIP3    H234314   1.105   7.569   3.880
11453TIP3   OH234315   6.692   5.823   5.755
11453TIP3    H134316   6.752   5.880   5.707
11453TIP3    H234317   6.724   5.825   5.845
11454TIP3   OH234318   6.983   1.574   0.205
11454TIP3    H134319   7.043   1.611   0.270
11454TIP3    H234320   7.011   1.614   0.122
11455TIP3   OH234321   1.728   2.271   5.046
11455TIP3    H134322   1.729   2.178   5.068
11455TIP3    H234323   1.799   2.309   5.098
11456TIP3   OH234324   7.004   5.363   3.703
11456TIP3    H134325   6.978   5.305   3.774
11456TIP3    H234326   7.027   5.304   3.631
11457TIP3   OH234327   7.801   2.921   4.933
11457TIP3    H134328   7.872   2.984   4.925
11457TIP3    H234329   7.819   2.876   5.016
11458TIP3   OH234330   3.074   2.356   4.205
11458TIP3    H134331   3.032   2.440   4.219
11458TIP3    H234332   3.107   2.330   4.291
11459TIP3   OH234333   7.120   6.117   4.686
11459TIP3    H134334   7.209   6.122   4.721
11459TIP3    H234335   7.128   6.151   4.597
11460TIP3   OH234336   1.871   2.381   2.977
11460TIP3    H134337   1.904   2.322   3.044
11460TIP3    H234338   1.808   2.437   3.022
11461TIP3   OH234339   3.409   4.932   5.780
11461TIP3    H134340   3.378   4.847   5.812
11461TIP3    H234341   3.504   4.929   5.792
11462TIP3   OH234342   1.941   2.367   1.869
11462TIP3    H134343   2.005   2.297   1.875
11462TIP3    H234344   1.904   2.374   1.958
11463TIP3   OH234345   4.569   0.897   0.777
11463TIP3    H134346   4.595   0.980   0.819
11463TIP3    H234347   4.600   0.905   0.687
11464TIP3   OH234348   0.382   5.602   0.891
11464TIP3    H134349   0.360   5.538   0.824
11464TIP3    H234350   0.433   5.553   0.956
11465TIP3   OH234351   3.486   7.649   2.435
11465TIP3    H134352   3.571   7.681   2.404
11465TIP3    H234353   3.478   7.685   2.524
11466TIP3   OH234354   4.374   3.513   2.726
11466TIP3    H134355   4.447   3.562   2.764
11466TIP3    H234356   4.307   3.511   2.795
11467TIP3   OH234357   5.686   2.145   1.694
11467TIP3    H134358   5.610   2.203   1.697
11467TIP3    H234359   5.650   2.058   1.679
11468TIP3   OH234360   0.917   2.925   5.578
11468TIP3    H134361   0.928   2.832   5.560
11468TIP3    H234362   0.867   2.958   5.503
11469TIP3   OH234363   4.210   3.561   1.350
11469TIP3    H134364   4.145   3.613   1.303
11469TIP3    H234365   4.167   3.540   1.433
11470TIP3   OH234366   1.029   3.638   0.997
11470TIP3    H134367   1.016   3.591   1.080
11470TIP3    H234368   1.117   3.674   1.004
11471TIP3   OH234369   0.196   1.458   3.166
11471TIP3    H134370   0.269   1.513   3.194
11471TIP3    H234371   0.122   1.490   3.217
11472TIP3   OH234372   0.383   0.467   1.492
11472TIP3    H134373   0.294   0.483   1.523
11472TIP3    H234374   0.423   0.412   1.561
11473TIP3   OH234375   7.084   2.808   1.615
11473TIP3    H134376   7.148   2.763   1.559
11473TIP3    H234377   7.001   2.764   1.598
11474TIP3   OH234378   4.201   0.489   5.164
11474TIP3    H134379   4.186   0.524   5.252
11474TIP3    H234380   4.176   0.397   5.170
11475TIP3   OH234381   8.221   1.311   0.230
11475TIP3    H134382   8.130   1.295   0.252
11475TIP3    H234383   8.218   1.368   0.154
11476TIP3   OH234384   2.070   2.005   0.580
11476TIP3    H134385   2.154   2.028   0.620
11476TIP3    H234386   2.009   2.071   0.611
11477TIP3   OH234387   2.111   6.985   1.686
11477TIP3    H134388   2.031   7.038   1.690
11477TIP3    H234389   2.154   6.999   1.770
11478TIP3   OH234390   7.078   1.455   4.132
11478TIP3    H134391   7.133   1.445   4.210
11478TIP3    H234392   7.021   1.379   4.133
11479TIP3   OH234393   6.700   0.183   5.107
11479TIP3    H134394   6.751   0.263   5.108
11479TIP3    H234395   6.610   0.212   5.095
11480TIP3   OH234396   7.983   0.553   0.557
11480TIP3    H134397   7.888   0.564   0.562
11480TIP3    H234398   7.997   0.459   0.571
11481TIP3   OH234399   2.975   3.734   1.718
11481TIP3    H134400   3.034   3.658   1.723
11481TIP3    H234401   2.975   3.759   1.626
11482TIP3   OH234402   4.534   6.547   2.435
11482TIP3    H134403   4.521   6.599   2.514
11482TIP3    H234404   4.598   6.480   2.460
11483TIP3   OH234405   2.652   1.144   0.576
11483TIP3    H134406   2.623   1.065   0.623
11483TIP3    H234407   2.741   1.159   0.608
11484TIP3   OH234408   2.464   7.097   2.537
11484TIP3    H134409   2.399   7.039   2.496
11484TIP3    H234410   2.523   7.121   2.466
11485TIP3   OH234411   3.769   2.485   0.844
11485TIP3    H134412   3.747   2.570   0.882
11485TIP3    H234413   3.697   2.466   0.784
11486TIP3   OH234414   5.251   4.362   2.283
11486TIP3    H134415   5.328   4.325   2.326
11486TIP3    H234416   5.179   4.348   2.344
11487TIP3   OH234417   6.293   6.117   2.677
11487TIP3    H134418   6.351   6.116   2.753
11487TIP3    H234419   6.255   6.205   2.677
11488TIP3   OH234420   6.487   4.292   3.412
11488TIP3    H134421   6.451   4.216   3.458
11488TIP3    H234422   6.441   4.294   3.328
11489TIP3   OH234423   0.326   7.386   4.064
11489TIP3    H134424   0.397   7.418   4.009
11489TIP3    H234425   0.250   7.437   4.037
11490TIP3   OH234426   1.125   1.153   5.397
11490TIP3    H134427   1.117   1.201   5.479
11490TIP3    H234428   1.041   1.165   5.354
11491TIP3   OH234429   1.440   3.038   6.240
11491TIP3    H134430   1.512   3.006   6.295
11491TIP3    H234431   1.484   3.083   6.168
11492TIP3   OH234432   4.031   3.010   3.376
11492TIP3    H134433   3.953   3.056   3.406
11492TIP3    H234434   4.054   3.055   3.294
11493TIP3   OH234435   5.657   3.523   1.963
11493TIP3    H134436   5.706   3.442   1.979
11493TIP3    H234437   5.720   3.582   1.921
11494TIP3   OH234438   5.019   1.368   3.995
11494TIP3    H134439   4.999   1.461   3.981
11494TIP3    H234440   5.072   1.343   3.919
11495TIP3   OH234441   1.577   1.260   2.538
11495TIP3    H134442   1.633   1.218   2.473
11495TIP3    H234443   1.638   1.289   2.606
11496TIP3   OH234444   3.197   3.745   4.606
11496TIP3    H134445   3.167   3.827   4.567
11496TIP3    H234446   3.116   3.696   4.621
11497TIP3   OH234447   4.106   6.698   2.954
11497TIP3    H134448   4.014   6.693   2.928
11497TIP3    H234449   4.108   6.667   3.044
11498TIP3   OH234450   7.020   6.459   1.601
11498TIP3    H134451   6.949   6.411   1.643
11498TIP3    H234452   6.992   6.551   1.606
11499TIP3   OH234453   4.838   5.430   4.762
11499TIP3    H134454   4.788   5.349   4.771
11499TIP3    H234455   4.771   5.499   4.758
11500TIP3   OH234456   3.525   5.418   0.882
11500TIP3    H134457   3.548   5.488   0.943
11500TIP3    H234458   3.606   5.399   0.835
11501TIP3   OH234459   7.654   4.858   5.933
11501TIP3    H134460   7.696   4.914   5.998
11501TIP3    H234461   7.708   4.867   5.854
11502TIP3   OH234462   4.434   3.263   5.272
11502TIP3    H134463   4.372   3.336   5.267
11502TIP3    H234464   4.473   3.270   5.359
11503TIP3   OH234465   6.292   3.613   1.301
11503TIP3    H134466   6.365   3.570   1.256
11503TIP3    H234467   6.214   3.578   1.258
11504TIP3   OH234468   2.797   3.131   3.219
11504TIP3    H134469   2.822   3.165   3.305
11504TIP3    H234470   2.862   3.168   3.159
11505TIP3   OH234471   3.216   3.435   3.167
11505TIP3    H134472   3.303   3.401   3.145
11505TIP3    H234473   3.212   3.520   3.123
11506TIP3   OH234474   6.161   2.940   6.458
11506TIP3    H134475   6.197   3.026   6.480
11506TIP3    H234476   6.072   2.940   6.494
11507TIP3   OH234477   1.201   3.181   0.474
11507TIP3    H134478   1.207   3.121   0.400
11507TIP3    H234479   1.107   3.182   0.496
11508TIP3   OH234480   0.415   1.921   2.733
11508TIP3    H134481   0.342   1.880   2.687
11508TIP3    H234482   0.398   2.015   2.729
11509TIP3   OH234483   5.975   4.891   5.661
11509TIP3    H134484   6.019   4.963   5.704
11509TIP3    H234485   6.046   4.839   5.623
11510TIP3   OH234486   6.577   7.784   1.977
11510TIP3    H134487   6.580   7.772   2.072
11510TIP3    H234488   6.651   7.734   1.943
11511TIP3   OH234489   3.526   5.721   4.623
11511TIP3    H134490   3.484   5.740   4.707
11511TIP3    H234491   3.582   5.797   4.606
11512TIP3   OH234492   4.785   5.156   5.508
11512TIP3    H134493   4.820   5.072   5.478
11512TIP3    H234494   4.798   5.215   5.434
11513TIP3   OH234495   3.110   0.077   5.545
11513TIP3    H134496   3.104   0.081   5.449
11513TIP3    H234497   3.185   0.131   5.567
11514TIP3   OH234498   5.141   4.550   5.428
11514TIP3    H134499   5.198   4.547   5.505
11514TIP3    H234500   5.080   4.477   5.441
11515TIP3   OH234501   3.253   2.618   3.335
11515TIP3    H134502   3.213   2.575   3.411
11515TIP3    H234503   3.185   2.615   3.267
11516TIP3   OH234504   4.883   3.632   0.750
11516TIP3    H134505   4.856   3.597   0.835
11516TIP3    H234506   4.847   3.571   0.686
11517TIP3   OH234507   4.336   5.619   5.540
11517TIP3    H134508   4.423   5.587   5.518
11517TIP3    H234509   4.279   5.543   5.529
11518TIP3   OH234510   8.198   4.347   4.639
11518TIP3    H134511   8.211   4.274   4.578
11518TIP3    H234512   8.105   4.347   4.658
11519TIP3   OH234513   6.003   1.640   3.913
11519TIP3    H134514   6.039   1.551   3.911
11519TIP3    H234515   6.044   1.684   3.839
11520TIP3   OH234516   5.222   1.029   1.690
11520TIP3    H134517   5.168   0.989   1.757
11520TIP3    H234518   5.193   1.120   1.686
11521TIP3   OH234519   1.188   6.264   6.490
11521TIP3    H134520   1.199   6.242   6.582
11521TIP3    H234521   1.120   6.331   6.489
11522TIP3   OH234522   3.699   6.685   0.666
11522TIP3    H134523   3.630   6.619   0.663
11522TIP3    H234524   3.770   6.644   0.715
11523TIP3   OH234525   7.429   5.147   3.340
11523TIP3    H134526   7.496   5.188   3.394
11523TIP3    H234527   7.411   5.064   3.385
11524TIP3   OH234528   7.122   5.405   4.742
11524TIP3    H134529   7.072   5.355   4.807
11524TIP3    H234530   7.212   5.374   4.753
11525TIP3   OH234531   5.145   4.300   3.785
11525TIP3    H134532   5.073   4.309   3.722
11525TIP3    H234533   5.186   4.387   3.787
11526TIP3   OH234534   5.537   2.227   4.792
11526TIP3    H134535   5.627   2.205   4.814
11526TIP3    H234536   5.531   2.322   4.805
11527TIP3   OH234537   2.459   0.041   1.708
11527TIP3    H134538   2.389   0.031   1.772
11527TIP3    H234539   2.501   0.124   1.730
11528TIP3   OH234540   0.476   7.465   1.275
11528TIP3    H134541   0.570   7.485   1.268
11528TIP3    H234542   0.433   7.545   1.244
11529TIP3   OH234543   5.216   1.633   2.863
11529TIP3    H134544   5.292   1.576   2.850
11529TIP3    H234545   5.142   1.573   2.868
11530TIP3   OH234546   6.695   3.055   4.487
11530TIP3    H134547   6.712   3.031   4.396
11530TIP3    H234548   6.623   3.117   4.483
11531TIP3   OH234549   1.776   6.055   6.649
11531TIP3    H134550   1.771   6.009   6.565
11531TIP3    H234551   1.700   6.113   6.648
11532TIP3   OH234552   1.556   6.899   2.877
11532TIP3    H134553   1.555   6.928   2.786
11532TIP3    H234554   1.560   6.980   2.928
11533TIP3   OH234555   4.357   6.122   4.842
11533TIP3    H134556   4.282   6.082   4.798
11533TIP3    H234557   4.401   6.048   4.886
11534TIP3   OH234558   3.528   3.477   3.838
11534TIP3    H134559   3.441   3.459   3.802
11534TIP3    H234560   3.589   3.446   3.771
11535TIP3   OH234561   0.238   0.429   6.460
11535TIP3    H134562   0.220   0.511   6.505
11535TIP3    H234563   0.315   0.448   6.406
11536TIP3   OH234564   1.466   7.701   0.982
11536TIP3    H134565   1.381   7.726   1.020
11536TIP3    H234566   1.443   7.647   0.907
11537TIP3   OH234567   7.436   1.483   3.108
11537TIP3    H134568   7.454   1.573   3.134
11537TIP3    H234569   7.348   1.485   3.070
11538TIP3   OH234570   5.143   0.419   2.459
11538TIP3    H134571   5.067   0.361   2.464
11538TIP3    H234572   5.119   0.485   2.395
11539TIP3   OH234573   3.331   2.895   1.091
11539TIP3    H134574   3.400   2.833   1.116
11539TIP3    H234575   3.304   2.935   1.173
11540TIP3   OH234576   8.174   3.361   4.174
11540TIP3    H134577   8.091   3.402   4.152
11540TIP3    H234578   8.186   3.293   4.108
11541TIP3   OH234579   0.698   2.897   0.808
11541TIP3    H134580   0.766   2.960   0.784
11541TIP3    H234581   0.616   2.942   0.787
11542TIP3   OH234582   2.171   3.763   2.654
11542TIP3    H134583   2.194   3.680   2.613
11542TIP3    H234584   2.099   3.797   2.601
11543TIP3   OH234585   3.434   7.653   0.603
11543TIP3    H134586   3.416   7.744   0.579
11543TIP3    H234587   3.481   7.617   0.528
11544TIP3   OH234588   5.443   7.167   1.668
11544TIP3    H134589   5.394   7.177   1.586
11544TIP3    H234590   5.409   7.237   1.724
11545TIP3   OH234591   7.314   2.283   2.835
11545TIP3    H134592   7.245   2.349   2.831
11545TIP3    H234593   7.390   2.325   2.795
11546TIP3   OH234594   3.380   0.395   6.748
11546TIP3    H134595   3.344   0.324   6.802
11546TIP3    H234596   3.304   0.431   6.703
11547TIP3   OH234597   8.166   5.882   0.614
11547TIP3    H134598   8.183   5.940   0.540
11547TIP3    H234599   8.072   5.863   0.608
11548TIP3   OH234600   8.156   2.279   6.399
11548TIP3    H134601   8.079   2.270   6.343
11548TIP3    H234602   8.135   2.352   6.457
11549TIP3   OH234603   1.470   7.036   4.158
11549TIP3    H134604   1.527   7.029   4.234
11549TIP3    H234605   1.454   7.130   4.149
11550TIP3   OH234606   2.179   2.084   4.657
11550TIP3    H134607   2.116   2.119   4.595
11550TIP3    H234608   2.132   2.016   4.704
11551TIP3   OH234609   3.756   4.236   4.854
11551TIP3    H134610   3.836   4.265   4.811
11551TIP3    H234611   3.690   4.301   4.830
11552TIP3   OH234612   0.181   5.012   2.673
11552TIP3    H134613   0.088   5.001   2.655
11552TIP3    H234614   0.208   5.084   2.616
11553TIP3   OH234615   2.773   1.934   3.243
11553TIP3    H134616   2.712   1.908   3.175
11553TIP3    H234617   2.829   2.000   3.203
11554TIP3   OH234618   5.077   1.895   2.449
11554TIP3    H134619   5.112   1.812   2.481
11554TIP3    H234620   5.133   1.961   2.489
11555TIP3   OH234621   1.230   4.841   0.219
11555TIP3    H134622   1.218   4.930   0.253
11555TIP3    H234623   1.248   4.853   0.126
11556TIP3   OH234624   5.600   5.551   2.969
11556TIP3    H134625   5.621   5.584   2.882
11556TIP3    H234626   5.607   5.628   3.026
11557TIP3   OH234627   4.921   0.270   0.534
11557TIP3    H134628   4.868   0.256   0.455
11557TIP3    H234629   4.999   0.315   0.502
11558TIP3   OH234630   7.416   1.351   0.844
11558TIP3    H134631   7.328   1.314   0.845
11558TIP3    H234632   7.416   1.416   0.915
11559TIP3   OH234633   7.487   1.272   0.215
11559TIP3    H134634   7.468   1.363   0.193
11559TIP3    H234635   7.489   1.271   0.311
11560TIP3   OH234636   2.872   2.265   2.317
11560TIP3    H134637   2.786   2.278   2.358
11560TIP3    H234638   2.862   2.183   2.269
11561TIP3   OH234639   6.327   3.937   2.172
11561TIP3    H134640   6.277   3.859   2.195
11561TIP3    H234641   6.297   3.960   2.084
11562TIP3   OH234642   0.133   7.048   1.974
11562TIP3    H134643   0.152   7.034   2.067
11562TIP3    H234644   0.184   7.126   1.951
11563TIP3   OH234645   5.802   0.765   1.334
11563TIP3    H134646   5.882   0.713   1.339
11563TIP3    H234647   5.735   0.703   1.304
11564TIP3   OH234648   1.674   6.553   3.931
11564TIP3    H134649   1.675   6.644   3.957
11564TIP3    H234650   1.767   6.529   3.923
11565TIP3   OH234651   0.122   7.300   6.738
11565TIP3    H134652   0.083   7.372   6.689
11565TIP3    H234653   0.049   7.241   6.756
11566TIP3   OH234654   1.093   1.131   6.438
11566TIP3    H134655   1.074   1.043   6.469
11566TIP3    H234656   1.079   1.126   6.343
11567TIP3   OH234657   4.458   4.074   5.341
11567TIP3    H134658   4.468   4.156   5.389
11567TIP3    H234659   4.383   4.031   5.382
11568TIP3   OH234660   1.286   2.150   6.098
11568TIP3    H134661   1.373   2.118   6.126
11568TIP3    H234662   1.240   2.166   6.180
11569TIP3   OH234663   5.790   6.378   4.257
11569TIP3    H134664   5.699   6.398   4.280
11569TIP3    H234665   5.788   6.363   4.162
11570TIP3   OH234666   4.215   1.577   2.811
11570TIP3    H134667   4.204   1.635   2.886
11570TIP3    H234668   4.180   1.493   2.842
11571TIP3   OH234669   1.100   2.786   1.857
11571TIP3    H134670   1.186   2.819   1.884
11571TIP3    H234671   1.117   2.734   1.778
11572TIP3   OH234672   6.112   4.223   3.806
11572TIP3    H134673   6.121   4.319   3.809
11572TIP3    H234674   6.031   4.205   3.853
11573TIP3   OH234675   6.770   4.112   3.354
11573TIP3    H134676   6.767   4.114   3.259
11573TIP3    H234677   6.687   4.072   3.380
11574TIP3   OH234678   4.887   3.108   0.337
11574TIP3    H134679   4.800   3.145   0.352
11574TIP3    H234680   4.883   3.071   0.249
11575TIP3   OH234681   5.196   5.765   5.574
11575TIP3    H134682   5.113   5.766   5.527
11575TIP3    H234683   5.189   5.691   5.634
11576TIP3   OH234684   5.672   5.623   1.060
11576TIP3    H134685   5.587   5.647   1.097
11576TIP3    H234686   5.736   5.669   1.114
11577TIP3   OH234687   0.862   4.445   4.329
11577TIP3    H134688   0.830   4.401   4.408
11577TIP3    H234689   0.810   4.525   4.324
11578TIP3   OH234690   0.751   4.358   1.876
11578TIP3    H134691   0.688   4.378   1.945
11578TIP3    H234692   0.819   4.307   1.920
11579TIP3   OH234693   6.404   6.965   0.810
11579TIP3    H134694   6.330   6.947   0.752
11579TIP3    H234695   6.391   6.905   0.884
11580TIP3   OH234696   2.388   4.384   5.560
11580TIP3    H134697   2.387   4.308   5.618
11580TIP3    H234698   2.472   4.378   5.515
11581TIP3   OH234699   5.093   7.535   6.223
11581TIP3    H134700   5.184   7.565   6.226
11581TIP3    H234701   5.083   7.482   6.302
11582TIP3   OH234702   7.801   6.037   0.330
11582TIP3    H134703   7.790   6.129   0.308
11582TIP3    H234704   7.820   6.036   0.424
11583TIP3   OH234705   5.148   6.870   3.160
11583TIP3    H134706   5.095   6.794   3.186
11583TIP3    H234707   5.214   6.877   3.229
11584TIP3   OH234708   1.163   2.534   3.562
11584TIP3    H134709   1.148   2.602   3.496
11584TIP3    H234710   1.195   2.459   3.512
11585TIP3   OH234711   3.840   2.228   0.924
11585TIP3    H134712   3.834   2.165   0.852
11585TIP3    H234713   3.823   2.313   0.882
11586TIP3   OH234714   2.221   0.066   1.853
11586TIP3    H134715   2.174   0.137   1.809
11586TIP3    H234716   2.153   0.015   1.896
11587TIP3   OH234717   8.093   6.922   1.056
11587TIP3    H134718   8.037   6.856   1.016
11587TIP3    H234719   8.182   6.887   1.046
11588TIP3   OH234720   7.801   4.134   2.996
11588TIP3    H134721   7.871   4.183   3.039
11588TIP3    H234722   7.754   4.092   3.069
11589TIP3   OH234723   7.340   6.997   2.389
11589TIP3    H134724   7.309   6.981   2.300
11589TIP3    H234725   7.264   7.034   2.434
11590TIP3   OH234726   3.593   5.063   5.602
11590TIP3    H134727   3.613   4.974   5.630
11590TIP3    H234728   3.620   5.119   5.675
11591TIP3   OH234729   3.353   1.039   5.208
11591TIP3    H134730   3.380   0.970   5.270
11591TIP3    H234731   3.408   1.025   5.131
11592TIP3   OH234732   2.976   4.468   1.756
11592TIP3    H134733   2.883   4.446   1.755
11592TIP3    H234734   3.005   4.444   1.844
11593TIP3   OH234735   5.301   2.522   2.499
11593TIP3    H134736   5.252   2.593   2.457
11593TIP3    H234737   5.357   2.487   2.431
11594TIP3   OH234738   0.778   7.440   4.868
11594TIP3    H134739   0.865   7.479   4.861
11594TIP3    H234740   0.734   7.492   4.935
11595TIP3   OH234741   2.170   4.337   4.405
11595TIP3    H134742   2.117   4.296   4.473
11595TIP3    H234743   2.258   4.301   4.418
11596TIP3   OH234744   5.094   1.647   2.598
11596TIP3    H134745   5.006   1.682   2.610
11596TIP3    H234746   5.121   1.619   2.685
11597TIP3   OH234747   1.643   2.013   5.644
11597TIP3    H134748   1.569   2.046   5.695
11597TIP3    H234749   1.718   2.065   5.675
11598TIP3   OH234750   2.726   2.876   5.809
11598TIP3    H134751   2.786   2.866   5.883
11598TIP3    H234752   2.780   2.860   5.732
11599TIP3   OH234753   4.500   7.176   6.181
11599TIP3    H134754   4.450   7.182   6.263
11599TIP3    H234755   4.482   7.088   6.149
11600TIP3   OH234756   5.071   0.626  -0.027
11600TIP3    H134757   5.042   0.601   0.061
11600TIP3    H234758   5.107   0.714  -0.016
11601TIP3   OH234759   1.424   5.930   5.823
11601TIP3    H134760   1.426   5.954   5.730
11601TIP3    H234761   1.430   6.014   5.869
11602TIP3   OH234762   7.004   0.809   1.759
11602TIP3    H134763   6.938   0.797   1.827
11602TIP3    H234764   6.990   0.898   1.726
11603TIP3   OH234765   5.149   6.638   6.600
11603TIP3    H134766   5.149   6.587   6.519
11603TIP3    H234767   5.182   6.724   6.575
11604TIP3   OH234768   7.858   5.783   3.323
11604TIP3    H134769   7.838   5.759   3.413
11604TIP3    H234770   7.952   5.764   3.313
11605TIP3   OH234771   7.643   5.429   4.480
11605TIP3    H134772   7.663   5.383   4.562
11605TIP3    H234773   7.666   5.366   4.411
11606TIP3   OH234774   5.037   4.107   0.825
11606TIP3    H134775   4.976   4.048   0.869
11606TIP3    H234776   5.099   4.133   0.893
11607TIP3   OH234777   4.518   1.724   2.900
11607TIP3    H134778   4.487   1.692   2.815
11607TIP3    H234779   4.613   1.724   2.892
11608TIP3   OH234780   2.844   4.633   0.169
11608TIP3    H134781   2.805   4.592   0.246
11608TIP3    H234782   2.850   4.563   0.104
11609TIP3   OH234783   5.525   4.267   0.212
11609TIP3    H134784   5.435   4.299   0.210
11609TIP3    H234785   5.573   4.328   0.156
11610TIP3   OH234786   0.549   3.832   5.620
11610TIP3    H134787   0.644   3.831   5.606
11610TIP3    H234788   0.538   3.870   5.707
11611TIP3   OH234789   4.094   1.336   0.728
11611TIP3    H134790   4.131   1.322   0.640
11611TIP3    H234791   4.088   1.431   0.736
11612TIP3   OH234792   7.758   5.798   3.080
11612TIP3    H134793   7.702   5.875   3.067
11612TIP3    H234794   7.806   5.816   3.160
11613TIP3   OH234795   1.632   7.320   0.387
11613TIP3    H134796   1.605   7.240   0.341
11613TIP3    H234797   1.624   7.389   0.322
11614TIP3   OH234798   1.347   6.641   1.766
11614TIP3    H134799   1.267   6.650   1.818
11614TIP3    H234800   1.340   6.709   1.700
11615TIP3   OH234801   4.746   5.799   0.427
11615TIP3    H134802   4.669   5.837   0.469
11615TIP3    H234803   4.768   5.860   0.357
11616TIP3   OH234804   4.153   2.335   2.608
11616TIP3    H134805   4.202   2.405   2.651
11616TIP3    H234806   4.215   2.299   2.544
11617TIP3   OH234807   3.418   6.053   4.979
11617TIP3    H134808   3.374   6.138   4.976
11617TIP3    H234809   3.360   5.994   4.932
11618TIP3   OH234810   7.371   3.831   2.943
11618TIP3    H134811   7.376   3.926   2.932
11618TIP3    H234812   7.440   3.796   2.887
11619TIP3   OH234813   0.854   4.055   1.429
11619TIP3    H134814   0.804   4.050   1.510
11619TIP3    H234815   0.924   3.990   1.439
11620TIP3   OH234816   2.849   7.647   0.553
11620TIP3    H134817   2.934   7.667   0.593
11620TIP3    H234818   2.785   7.684   0.614
11621TIP3   OH234819   5.142   2.719   5.074
11621TIP3    H134820   5.095   2.783   5.126
11621TIP3    H234821   5.211   2.686   5.131
11622TIP3   OH234822   0.050   0.453   1.864
11622TIP3    H134823   0.056   0.472   1.958
11622TIP3    H234824   0.126   0.495   1.826
11623TIP3   OH234825   3.587   5.598   6.051
11623TIP3    H134826   3.611   5.626   5.963
11623TIP3    H234827   3.549   5.511   6.039
11624TIP3   OH234828   5.704   4.253   1.888
11624TIP3    H134829   5.635   4.299   1.935
11624TIP3    H234830   5.676   4.162   1.886
11625TIP3   OH234831   1.286   3.710   1.037
11625TIP3    H134832   1.279   3.801   1.008
11625TIP3    H234833   1.271   3.713   1.131
11626TIP3   OH234834   0.455   0.418   0.529
11626TIP3    H134835   0.503   0.394   0.608
11626TIP3    H234836   0.466   0.343   0.471
11627TIP3   OH234837   4.003   3.730   0.328
11627TIP3    H134838   3.912   3.741   0.299
11627TIP3    H234839   4.045   3.681   0.257
11628TIP3   OH234840   0.895   3.305   2.450
11628TIP3    H134841   0.822   3.365   2.435
11628TIP3    H234842   0.962   3.359   2.492
11629TIP3   OH234843   5.072   0.439   3.867
11629TIP3    H134844   5.058   0.470   3.956
11629TIP3    H234845   5.031   0.353   3.865
11630TIP3   OH234846   0.935   6.592   6.048
11630TIP3    H134847   0.886   6.558   5.973
11630TIP3    H234848   0.980   6.515   6.083
11631TIP3   OH234849   1.598   3.217   1.290
11631TIP3    H134850   1.514   3.263   1.290
11631TIP3    H234851   1.660   3.280   1.252
11632TIP3   OH234852   0.178   4.812   0.739
11632TIP3    H134853   0.209   4.901   0.723
11632TIP3    H234854   0.226   4.784   0.817
11633TIP3   OH234855   5.939   6.893   0.556
11633TIP3    H134856   5.900   6.864   0.638
11633TIP3    H234857   5.872   6.950   0.517
11634TIP3   OH234858   0.371   4.489   0.252
11634TIP3    H134859   0.392   4.430   0.325
11634TIP3    H234860   0.327   4.564   0.293
11635TIP3   OH234861   1.621   7.356   5.823
11635TIP3    H134862   1.675   7.285   5.857
11635TIP3    H234863   1.665   7.384   5.743
11636TIP3   OH234864   3.917   0.698   2.278
11636TIP3    H134865   3.879   0.660   2.358
11636TIP3    H234866   3.849   0.688   2.212
11637TIP3   OH234867   2.294   1.824   2.173
11637TIP3    H134868   2.386   1.833   2.201
11637TIP3    H234869   2.266   1.741   2.212
11638TIP3   OH234870   3.013   0.747   4.292
11638TIP3    H134871   2.976   0.762   4.205
11638TIP3    H234872   3.036   0.653   4.292
11639TIP3   OH234873   4.527   7.687   0.862
11639TIP3    H134874   4.571   7.694   0.777
11639TIP3    H234875   4.551   7.600   0.895
11640TIP3   OH234876   5.018   6.239   1.365
11640TIP3    H134877   5.102   6.259   1.322
11640TIP3    H234878   5.014   6.300   1.438
11641TIP3   OH234879   6.493   2.906   6.271
11641TIP3    H134880   6.428   2.938   6.333
11641TIP3    H234881   6.446   2.903   6.187
11642TIP3   OH234882   7.401   6.049   5.127
11642TIP3    H134883   7.477   5.992   5.122
11642TIP3    H234884   7.433   6.134   5.095
11643TIP3   OH234885   6.212   2.836   3.392
11643TIP3    H134886   6.181   2.904   3.333
11643TIP3    H234887   6.304   2.824   3.370
11644TIP3   OH234888   7.459   1.966   4.451
11644TIP3    H134889   7.477   1.892   4.509
11644TIP3    H234890   7.545   1.990   4.416
11645TIP3   OH234891   8.153   0.137   1.011
11645TIP3    H134892   8.184   0.227   1.019
11645TIP3    H234893   8.224   0.083   1.046
11646TIP3   OH234894   4.751   0.160   6.520
11646TIP3    H134895   4.768   0.207   6.438
11646TIP3    H234896   4.785   0.219   6.588
11647TIP3   OH234897   4.917   5.142   4.163
11647TIP3    H134898   4.919   5.126   4.257
11647TIP3    H234899   5.008   5.135   4.136
11648TIP3   OH234900   6.576   4.560   3.233
11648TIP3    H134901   6.631   4.626   3.274
11648TIP3    H234902   6.505   4.544   3.296
11649TIP3   OH234903   1.140   3.423   3.704
11649TIP3    H134904   1.160   3.333   3.677
11649TIP3    H234905   1.151   3.475   3.625
11650TIP3   OH234906   2.107   5.663   0.360
11650TIP3    H134907   2.175   5.603   0.331
11650TIP3    H234908   2.098   5.725   0.288
11651TIP3   OH234909   0.200   2.468   5.999
11651TIP3    H134910   0.268   2.521   6.040
11651TIP3    H234911   0.133   2.531   5.972
11652TIP3   OH234912   5.307   7.781   0.777
11652TIP3    H134913   5.238   7.838   0.742
11652TIP3    H234914   5.339   7.828   0.854
11653TIP3   OH234915   4.846   5.222   2.613
11653TIP3    H134916   4.930   5.221   2.568
11653TIP3    H234917   4.818   5.130   2.613
11654TIP3   OH234918   6.895   7.464   6.214
11654TIP3    H134919   6.863   7.516   6.141
11654TIP3    H234920   6.941   7.391   6.173
11655TIP3   OH234921   7.061   4.256   3.684
11655TIP3    H134922   7.156   4.262   3.672
11655TIP3    H234923   7.026   4.327   3.631
11656TIP3   OH234924   5.210   0.253   2.981
11656TIP3    H134925   5.201   0.304   2.901
11656TIP3    H234926   5.297   0.276   3.015
11657TIP3   OH234927   5.785   2.883   3.368
11657TIP3    H134928   5.751   2.830   3.440
11657TIP3    H234929   5.791   2.972   3.404
11658TIP3   OH234930   4.095   7.002   2.947
11658TIP3    H134931   4.122   6.919   2.985
11658TIP3    H234932   4.053   6.979   2.865
11659TIP3   OH234933   7.977   5.203   1.881
11659TIP3    H134934   8.008   5.207   1.972
11659TIP3    H234935   7.910   5.271   1.876
11660TIP3   OH234936   3.464   7.534   0.077
11660TIP3    H134937   3.498   7.607   0.026
11660TIP3    H234938   3.388   7.503   0.026
11661TIP3   OH234939   5.739   3.073   1.788
11661TIP3    H134940   5.781   3.037   1.866
11661TIP3    H234941   5.673   3.134   1.822
11662TIP3   OH234942   8.159   1.114   5.738
11662TIP3    H134943   8.079   1.061   5.735
11662TIP3    H234944   8.183   1.116   5.830
11663TIP3   OH234945   6.753   7.272   5.093
11663TIP3    H134946   6.681   7.324   5.129
11663TIP3    H234947   6.831   7.306   5.137
11664TIP3   OH234948   2.594   7.628   4.526
11664TIP3    H134949   2.654   7.660   4.595
11664TIP3    H234950   2.562   7.544   4.560
11665TIP3   OH234951   7.907   6.632   0.605
11665TIP3    H134952   7.992   6.658   0.571
11665TIP3    H234953   7.918   6.629   0.700
11666TIP3   OH234954   4.608   5.330   6.062
11666TIP3    H134955   4.622   5.392   6.134
11666TIP3    H234956   4.674   5.262   6.075
11667TIP3   OH234957   4.732   2.399   3.725
11667TIP3    H134958   4.734   2.306   3.702
11667TIP3    H234959   4.824   2.422   3.741
11668TIP3   OH234960   8.252   4.295   1.468
11668TIP3    H134961   8.173   4.347   1.485
11668TIP3    H234962   8.301   4.345   1.404
11669TIP3   OH234963   1.760   0.214   3.074
11669TIP3    H134964   1.742   0.237   3.165
11669TIP3    H234965   1.708   0.276   3.023
11670TIP3   OH234966   4.059   0.160   3.660
11670TIP3    H134967   4.035   0.251   3.676
11670TIP3    H234968   4.155   0.159   3.665
11671TIP3   OH234969   7.357   5.163   1.213
11671TIP3    H134970   7.264   5.165   1.191
11671TIP3    H234971   7.402   5.149   1.129
11672TIP3   OH234972   3.446   1.357   3.289
11672TIP3    H134973   3.500   1.307   3.228
11672TIP3    H234974   3.433   1.442   3.246
11673TIP3   OH234975   6.344   0.919   5.166
11673TIP3    H134976   6.300   0.997   5.132
11673TIP3    H234977   6.351   0.861   5.090
11674TIP3   OH234978   3.145   3.133   6.669
11674TIP3    H134979   3.187   3.214   6.642
11674TIP3    H234980   3.139   3.081   6.589
11675TIP3   OH234981   1.038   4.613   2.734
11675TIP3    H134982   1.034   4.647   2.645
11675TIP3    H234983   1.131   4.595   2.749
11676TIP3   OH234984   4.541   2.570   5.494
11676TIP3    H134985   4.477   2.633   5.461
11676TIP3    H234986   4.488   2.496   5.524
11677TIP3   OH234987   0.666   2.464   2.637
11677TIP3    H134988   0.730   2.502   2.576
11677TIP3    H234989   0.592   2.438   2.582
11678TIP3   OH234990   1.352   3.167   2.072
11678TIP3    H134991   1.348   3.174   2.168
11678TIP3    H234992   1.429   3.114   2.055
11679TIP3   OH234993   0.382   4.675   5.723
11679TIP3    H134994   0.320   4.745   5.704
11679TIP3    H234995   0.449   4.716   5.778
11680TIP3   OH234996   6.512   4.615   5.519
11680TIP3    H134997   6.431   4.579   5.554
11680TIP3    H234998   6.486   4.694   5.473
11681TIP3   OH234999   1.131   4.738   4.282
11681TIP3    H135000   1.082   4.699   4.209
11681TIP3    H235001   1.064   4.760   4.347
11682TIP3   OH235002   0.762   3.822   1.723
11682TIP3    H135003   0.695   3.880   1.687
11682TIP3    H235004   0.777   3.758   1.653
11683TIP3   OH235005   3.436   7.347   0.707
11683TIP3    H135006   3.520   7.377   0.674
11683TIP3    H235007   3.458   7.287   0.779
11684TIP3   OH235008   8.057   4.876   2.490
11684TIP3    H135009   8.088   4.927   2.415
11684TIP3    H235010   8.057   4.785   2.458
11685TIP3   OH235011   4.485   6.697   5.882
11685TIP3    H135012   4.497   6.641   5.958
11685TIP3    H235013   4.420   6.652   5.829
11686TIP3   OH235014   0.263   2.813   4.038
11686TIP3    H135015   0.176   2.788   4.006
11686TIP3    H235016   0.245   2.866   4.116
11687TIP3   OH235017   3.927   2.285   6.011
11687TIP3    H135018   3.965   2.349   6.071
11687TIP3    H235019   3.907   2.336   5.932
11688TIP3   OH235020   1.066   2.626   2.301
11688TIP3    H135021   1.091   2.611   2.210
11688TIP3    H235022   1.054   2.720   2.308
11689TIP3   OH235023   4.130   7.581   0.224
11689TIP3    H135024   4.093   7.655   0.273
11689TIP3    H235025   4.222   7.579   0.249
11690TIP3   OH235026   6.679   0.574   5.739
11690TIP3    H135027   6.664   0.545   5.829
11690TIP3    H235028   6.621   0.518   5.686
11691TIP3   OH235029   7.190   6.791   2.841
11691TIP3    H135030   7.126   6.851   2.880
11691TIP3    H235031   7.191   6.815   2.748
11692TIP3   OH235032   7.242   6.584   4.788
11692TIP3    H135033   7.229   6.501   4.835
11692TIP3    H235034   7.218   6.651   4.851
11693TIP3   OH235035   8.239   2.665   0.937
11693TIP3    H135036   8.145   2.680   0.925
11693TIP3    H235037   8.259   2.595   0.875
11694TIP3   OH235038   6.099   7.764   0.032
11694TIP3    H135039   6.153   7.685   0.022
11694TIP3    H235040   6.015   7.731   0.064
11695TIP3   OH235041   7.642   6.147   1.996
11695TIP3    H135042   7.662   6.057   2.025
11695TIP3    H235043   7.546   6.151   1.997
11696TIP3   OH235044   0.469   3.328   0.133
11696TIP3    H135045   0.478   3.349   0.226
11696TIP3    H235046   0.386   3.282   0.127
11697TIP3   OH235047   7.308   6.442   6.242
11697TIP3    H135048   7.336   6.352   6.228
11697TIP3    H235049   7.224   6.435   6.288
11698TIP3   OH235050   3.727   1.204   3.251
11698TIP3    H135051   3.695   1.267   3.186
11698TIP3    H235052   3.796   1.156   3.206
11699TIP3   OH235053   1.219   0.537   6.111
11699TIP3    H135054   1.165   0.614   6.129
11699TIP3    H235055   1.235   0.539   6.017
11700TIP3   OH235056   5.474   1.903   2.493
11700TIP3    H135057   5.517   1.819   2.475
11700TIP3    H235058   5.432   1.890   2.578
11701TIP3   OH235059   7.454   1.822   5.691
11701TIP3    H135060   7.545   1.803   5.667
11701TIP3    H235061   7.410   1.834   5.607
11702TIP3   OH235062   6.342   4.763   3.554
11702TIP3    H135063   6.296   4.840   3.586
11702TIP3    H235064   6.413   4.798   3.500
11703TIP3   OH235065   0.071   0.991   1.395
11703TIP3    H135066   0.082   0.913   1.450
11703TIP3    H235067   0.136   1.053   1.429
11704TIP3   OH235068   3.266   2.787   0.841
11704TIP3    H135069   3.293   2.851   0.907
11704TIP3    H235070   3.295   2.826   0.758
11705TIP3   OH235071   1.742   4.172   5.943
11705TIP3    H135072   1.668   4.119   5.974
11705TIP3    H235073   1.701   4.241   5.890
11706TIP3   OH235074   2.482   3.469   4.795
11706TIP3    H135075   2.453   3.511   4.714
11706TIP3    H235076   2.551   3.526   4.828
11707TIP3   OH235077   6.265   3.848   2.697
11707TIP3    H135078   6.295   3.919   2.753
11707TIP3    H235079   6.179   3.877   2.666
11708TIP3   OH235080   7.231   6.978   5.866
11708TIP3    H135081   7.178   6.899   5.870
11708TIP3    H235082   7.290   6.971   5.941
11709TIP3   OH235083   0.488   4.062   0.150
11709TIP3    H135084   0.466   4.077   0.059
11709TIP3    H235085   0.479   3.968   0.162
11710TIP3   OH235086   1.029   1.439   6.649
11710TIP3    H135087   0.951   1.487   6.620
11710TIP3    H235088   1.099   1.505   6.649
11711TIP3   OH235089   6.479   7.404   0.913
11711TIP3    H135090   6.399   7.373   0.871
11711TIP3    H235091   6.532   7.325   0.926
11712TIP3   OH235092   1.324   5.230   4.721
11712TIP3    H135093   1.308   5.318   4.755
11712TIP3    H235094   1.396   5.240   4.658
11713TIP3   OH235095   7.463   1.326   0.483
11713TIP3    H135096   7.503   1.412   0.499
11713TIP3    H235097   7.502   1.269   0.549
11714TIP3   OH235098   6.229   2.219   4.366
11714TIP3    H135099   6.135   2.204   4.372
11714TIP3    H235100   6.268   2.148   4.417
11715TIP3   OH235101   0.940   0.695   4.191
11715TIP3    H135102   0.999   0.627   4.223
11715TIP3    H235103   0.866   0.694   4.251
11716TIP3   OH235104   2.841   0.081   1.835
11716TIP3    H135105   2.777   0.135   1.881
11716TIP3    H235106   2.882   0.140   1.772
11717TIP3   OH235107   2.614  -0.002   5.835
11717TIP3    H135108   2.527  -0.035   5.859
11717TIP3    H235109   2.628   0.072   5.894
11718TIP3   OH235110   0.160   5.764   2.389
11718TIP3    H135111   0.154   5.669   2.399
11718TIP3    H235112   0.095   5.799   2.451
11719TIP3   OH235113   6.374   6.853   5.973
11719TIP3    H135114   6.374   6.939   6.015
11719TIP3    H235115   6.463   6.843   5.939
11720TIP3   OH235116   0.270   1.803   4.440
11720TIP3    H135117   0.188   1.840   4.471
11720TIP3    H235118   0.290   1.853   4.361
11721TIP3   OH235119   6.683   7.289   3.819
11721TIP3    H135120   6.608   7.231   3.834
11721TIP3    H235121   6.668   7.327   3.733
11722TIP3   OH235122   3.072   4.831   0.784
11722TIP3    H135123   3.074   4.885   0.705
11722TIP3    H235124   3.156   4.784   0.783
11723TIP3   OH235125   0.917   7.757   5.775
11723TIP3    H135126   1.012   7.754   5.787
11723TIP3    H235127   0.903   7.834   5.720
11724TIP3   OH235128   6.213   4.010   1.939
11724TIP3    H135129   6.228   3.935   1.882
11724TIP3    H235130   6.180   4.079   1.881
11725TIP3   OH235131   2.832   6.373   5.483
11725TIP3    H135132   2.869   6.458   5.460
11725TIP3    H235133   2.807   6.382   5.575
11726TIP3   OH235134   7.708   4.052   6.081
11726TIP3    H135135   7.627   4.103   6.088
11726TIP3    H235136   7.773   4.105   6.127
11727TIP3   OH235137   2.412   6.706   2.460
11727TIP3    H135138   2.346   6.679   2.524
11727TIP3    H235139   2.489   6.728   2.513
11728TIP3   OH235140   1.179   4.116   4.651
11728TIP3    H135141   1.102   4.099   4.705
11728TIP3    H235142   1.147   4.108   4.561
11729TIP3   OH235143   8.288   2.848   1.744
11729TIP3    H135144   8.319   2.932   1.711
11729TIP3    H235145   8.193   2.854   1.740
11730TIP3   OH235146   0.821   7.665   5.297
11730TIP3    H135147   0.876   7.655   5.375
11730TIP3    H235148   0.775   7.748   5.310
11731TIP3   OH235149   6.422   4.973   5.639
11731TIP3    H135150   6.457   5.055   5.672
11731TIP3    H235151   6.500   4.924   5.610
11732TIP3   OH235152   6.691   4.406   3.600
11732TIP3    H135153   6.628   4.355   3.548
11732TIP3    H235154   6.769   4.412   3.544
11733TIP3   OH235155   6.011   4.105   2.120
11733TIP3    H135156   6.004   4.044   2.193
11733TIP3    H235157   6.079   4.067   2.064
11734TIP3   OH235158   4.604   7.688   5.023
11734TIP3    H135159   4.653   7.608   5.042
11734TIP3    H235160   4.653   7.757   5.067
11735TIP3   OH235161   2.755   4.542   6.627
11735TIP3    H135162   2.701   4.534   6.706
11735TIP3    H235163   2.693   4.558   6.556
11736TIP3   OH235164   1.789   4.654   4.115
11736TIP3    H135165   1.707   4.703   4.101
11736TIP3    H235166   1.807   4.666   4.208
11737TIP3   OH235167   2.304   1.891   6.129
11737TIP3    H135168   2.297   1.905   6.224
11737TIP3    H235169   2.280   1.976   6.091
11738TIP3   OH235170   1.010   6.031   3.655
11738TIP3    H135171   0.932   6.014   3.602
11738TIP3    H235172   1.070   5.960   3.632
11739TIP3   OH235173   2.132   3.666   6.301
11739TIP3    H135174   2.218   3.707   6.314
11739TIP3    H235175   2.146   3.573   6.321
11740TIP3   OH235176   3.679   5.978   0.389
11740TIP3    H135177   3.696   5.971   0.483
11740TIP3    H235178   3.757   6.020   0.354
11741TIP3   OH235179   1.151   7.085   6.223
11741TIP3    H135180   1.073   7.107   6.275
11741TIP3    H235181   1.131   7.117   6.136
11742TIP3   OH235182   0.406   2.483   0.272
11742TIP3    H135183   0.458   2.553   0.311
11742TIP3    H235184   0.330   2.528   0.233
11743TIP3   OH235185   4.997   2.911   1.180
11743TIP3    H135186   5.076   2.932   1.229
11743TIP3    H235187   4.928   2.962   1.221
11744TIP3   OH235188   6.224   6.300   1.911
11744TIP3    H135189   6.188   6.324   1.826
11744TIP3    H235190   6.150   6.265   1.961
11745TIP3   OH235191   0.644   5.998   2.318
11745TIP3    H135192   0.558   5.961   2.340
11745TIP3    H235193   0.679   6.029   2.401
11746TIP3   OH235194   1.836   6.594   1.362
11746TIP3    H135195   1.889   6.663   1.403
11746TIP3    H235196   1.899   6.540   1.315
11747TIP3   OH235197   4.419   3.883   1.138
11747TIP3    H135198   4.404   3.938   1.216
11747TIP3    H235199   4.392   3.938   1.065
11748TIP3   OH235200   2.190   5.156   0.922
11748TIP3    H135201   2.253   5.224   0.948
11748TIP3    H235202   2.110   5.178   0.970
11749TIP3   OH235203   4.036   3.270   6.462
11749TIP3    H135204   4.123   3.256   6.499
11749TIP3    H235205   3.977   3.223   6.521
11750TIP3   OH235206   2.641   3.023   1.673
11750TIP3    H135207   2.694   2.948   1.699
11750TIP3    H235208   2.665   3.040   1.582
11751TIP3   OH235209   4.672   6.258   2.258
11751TIP3    H135210   4.591   6.207   2.267
11751TIP3    H235211   4.741   6.192   2.251
11752TIP3   OH235212   5.499   1.018   0.797
11752TIP3    H135213   5.525   0.934   0.760
11752TIP3    H235214   5.466   0.997   0.884
11753TIP3   OH235215   1.613   5.305   4.583
11753TIP3    H135216   1.613   5.210   4.597
11753TIP3    H235217   1.610   5.315   4.488
11754TIP3   OH235218   3.619   7.714   6.012
11754TIP3    H135219   3.643   7.628   5.978
11754TIP3    H235220   3.553   7.746   5.951
11755TIP3   OH235221   3.354   6.459   4.038
11755TIP3    H135222   3.394   6.410   3.967
11755TIP3    H235223   3.423   6.516   4.070
11756TIP3   OH235224   4.118   2.574  -0.008
11756TIP3    H135225   4.114   2.664  -0.040
11756TIP3    H235226   4.154   2.580   0.080
11757TIP3   OH235227   2.210   1.364   3.083
11757TIP3    H135228   2.278   1.371   3.150
11757TIP3    H235229   2.154   1.293   3.113
11758TIP3   OH235230   1.642   2.498   4.652
11758TIP3    H135231   1.661   2.417   4.605
11758TIP3    H235232   1.585   2.471   4.724
11759TIP3   OH235233   1.865   5.554   1.745
11759TIP3    H135234   1.804   5.501   1.796
11759TIP3    H235235   1.941   5.565   1.802
11760TIP3   OH235236   7.095   3.778   2.681
11760TIP3    H135237   7.142   3.721   2.619
11760TIP3    H235238   7.148   3.857   2.684
11761TIP3   OH235239   1.844   7.740   2.398
11761TIP3    H135240   1.922   7.730   2.343
11761TIP3    H235241   1.773   7.756   2.336
11762TIP3   OH235242   3.500   6.614   4.469
11762TIP3    H135243   3.548   6.680   4.519
11762TIP3    H235244   3.493   6.652   4.381
11763TIP3   OH235245   2.197   2.082   0.259
11763TIP3    H135246   2.247   2.061   0.338
11763TIP3    H235247   2.149   2.161   0.282
11764TIP3   OH235248   8.080   5.676   2.472
11764TIP3    H135249   8.081   5.693   2.378
11764TIP3    H235250   8.116   5.756   2.511
11765TIP3   OH235251   3.533   2.820   0.696
11765TIP3    H135252   3.517   2.911   0.669
11765TIP3    H235253   3.566   2.778   0.617
11766TIP3   OH235254   6.459   5.864   6.510
11766TIP3    H135255   6.488   5.773   6.524
11766TIP3    H235256   6.402   5.882   6.585
11767TIP3   OH235257   2.456   4.671   1.450
11767TIP3    H135258   2.474   4.580   1.475
11767TIP3    H235259   2.360   4.675   1.442
11768TIP3   OH235260   8.052   1.855   1.173
11768TIP3    H135261   7.965   1.837   1.136
11768TIP3    H235262   8.037   1.926   1.235
11769TIP3   OH235263   5.682   4.755   5.427
11769TIP3    H135264   5.601   4.721   5.464
11769TIP3    H235265   5.659   4.782   5.338
11770TIP3   OH235266   1.188   5.659   0.398
11770TIP3    H135267   1.163   5.645   0.489
11770TIP3    H235268   1.191   5.571   0.359
11771TIP3   OH235269   3.591   5.298   5.118
11771TIP3    H135270   3.621   5.255   5.198
11771TIP3    H235271   3.664   5.288   5.057
11772TIP3   OH235272   4.839   0.222   1.693
11772TIP3    H135273   4.925   0.254   1.666
11772TIP3    H235274   4.777   0.281   1.649
11773TIP3   OH235275   6.777   4.840   3.006
11773TIP3    H135276   6.693   4.872   3.040
11773TIP3    H235277   6.771   4.745   3.014
11774TIP3   OH235278   6.404   2.201   3.476
11774TIP3    H135279   6.328   2.142   3.476
11774TIP3    H235280   6.442   2.191   3.389
11775TIP3   OH235281   6.473   0.781   3.556
11775TIP3    H135282   6.402   0.845   3.560
11775TIP3    H235283   6.542   0.824   3.505
11776TIP3   OH235284   3.180   6.852   6.631
11776TIP3    H135285   3.161   6.805   6.550
11776TIP3    H235286   3.273   6.871   6.626
11777TIP3   OH235287   6.496   0.281   1.104
11777TIP3    H135288   6.512   0.261   1.012
11777TIP3    H235289   6.583   0.293   1.141
11778TIP3   OH235290   6.779   0.568   3.726
11778TIP3    H135291   6.778   0.496   3.789
11778TIP3    H235292   6.813   0.643   3.775
11779TIP3   OH235293   3.303   3.133   3.438
11779TIP3    H135294   3.288   3.066   3.371
11779TIP3    H235295   3.263   3.096   3.517
11780TIP3   OH235296   4.782   6.163   1.254
11780TIP3    H135297   4.759   6.255   1.266
11780TIP3    H235298   4.877   6.160   1.269
11781TIP3   OH235299   5.417   2.988   6.497
11781TIP3    H135300   5.362   3.061   6.523
11781TIP3    H235301   5.472   2.971   6.574
11782TIP3   OH235302   1.719   1.205   0.963
11782TIP3    H135303   1.632   1.208   0.923
11782TIP3    H235304   1.703   1.207   1.057
11783TIP3   OH235305   0.601   6.156   1.847
11783TIP3    H135306   0.614   6.176   1.940
11783TIP3    H235307   0.648   6.073   1.834
11784TIP3   OH235308   2.665   6.361   0.015
11784TIP3    H135309   2.590   6.327   0.063
11784TIP3    H235310   2.712   6.416   0.079
11785TIP3   OH235311   7.221   6.563   1.930
11785TIP3    H135312   7.310   6.544   1.900
11785TIP3    H235313   7.165   6.520   1.866
11786TIP3   OH235314   3.885   2.665   3.045
11786TIP3    H135315   3.866   2.756   3.067
11786TIP3    H235316   3.801   2.629   3.015
11787TIP3   OH235317   2.851   5.947   3.297
11787TIP3    H135318   2.911   5.873   3.280
11787TIP3    H235319   2.764   5.908   3.294
11788TIP3   OH235320   3.383   2.192   1.706
11788TIP3    H135321   3.388   2.143   1.788
11788TIP3    H235322   3.457   2.253   1.711
11789TIP3   OH235323   4.376   2.544   4.151
11789TIP3    H135324   4.338   2.463   4.186
11789TIP3    H235325   4.467   2.542   4.181
11790TIP3   OH235326   4.545   5.976   2.831
11790TIP3    H135327   4.478   6.044   2.845
11790TIP3    H235328   4.617   6.002   2.888
11791TIP3   OH235329   8.192   6.419   0.302
11791TIP3    H135330   8.276   6.374   0.303
11791TIP3    H235331   8.204   6.494   0.361
11792TIP3   OH235332   3.899   2.711   2.008
11792TIP3    H135333   3.933   2.764   1.935
11792TIP3    H235334   3.850   2.773   2.062
11793TIP3   OH235335   6.746   1.985   2.100
11793TIP3    H135336   6.806   2.032   2.157
11793TIP3    H235337   6.800   1.957   2.025
11794TIP3   OH235338   5.365   2.109   0.601
11794TIP3    H135339   5.314   2.153   0.532
11794TIP3    H235340   5.324   2.138   0.683
11795TIP3   OH235341   6.739   5.443   4.313
11795TIP3    H135342   6.736   5.526   4.361
11795TIP3    H235343   6.754   5.377   4.381
11796TIP3   OH235344   5.352   5.001   1.096
11796TIP3    H135345   5.350   5.050   1.014
11796TIP3    H235346   5.421   5.044   1.147
11797TIP3   OH235347   3.379   1.734   4.284
11797TIP3    H135348   3.357   1.733   4.377
11797TIP3    H235349   3.470   1.702   4.281
11798TIP3   OH235350   1.695   3.925   2.266
11798TIP3    H135351   1.667   3.966   2.348
11798TIP3    H235352   1.789   3.943   2.261
11799TIP3   OH235353   6.343   1.546   4.678
11799TIP3    H135354   6.339   1.630   4.722
11799TIP3    H235355   6.432   1.514   4.694
11800TIP3   OH235356   4.149   5.955   6.362
11800TIP3    H135357   4.205   5.883   6.333
11800TIP3    H235358   4.208   6.029   6.370
11801TIP3   OH235359   0.011   2.580   1.244
11801TIP3    H135360  -0.040   2.589   1.163
11801TIP3    H235361   0.101   2.602   1.219
11802TIP3   OH235362   0.118   7.670   4.576
11802TIP3    H135363   0.078   7.629   4.499
11802TIP3    H235364   0.045   7.717   4.618
11803TIP3   OH235365   6.024   1.854   6.092
11803TIP3    H135366   6.113   1.825   6.110
11803TIP3    H235367   6.024   1.947   6.113
11804TIP3   OH235368   7.104   4.156   5.562
11804TIP3    H135369   7.150   4.077   5.591
11804TIP3    H235370   7.146   4.179   5.479
11805TIP3   OH235371   6.975   3.219   0.970
11805TIP3    H135372   6.919   3.213   0.892
11805TIP3    H235373   6.953   3.305   1.008
11806TIP3   OH235374   1.528   1.985   1.604
11806TIP3    H135375   1.530   2.079   1.585
11806TIP3    H235376   1.576   1.976   1.686
11807TIP3   OH235377   6.336   3.064   2.711
11807TIP3    H135378   6.257   3.010   2.700
11807TIP3    H235379   6.339   3.118   2.632
11808TIP3   OH235380   0.802   0.034   3.275
11808TIP3    H135381   0.842   0.076   3.351
11808TIP3    H235382   0.819   0.094   3.203
11809TIP3   OH235383   3.929   4.905   5.920
11809TIP3    H135384   3.968   4.973   5.975
11809TIP3    H235385   3.965   4.823   5.954
11810TIP3   OH235386   6.655   5.212   1.104
11810TIP3    H135387   6.572   5.216   1.151
11810TIP3    H235388   6.654   5.287   1.045
11811TIP3   OH235389   2.145   0.556   0.573
11811TIP3    H135390   2.174   0.644   0.596
11811TIP3    H235391   2.056   0.550   0.607
11812TIP3   OH235392   5.021   6.733   6.154
11812TIP3    H135393   5.072   6.814   6.147
11812TIP3    H235394   4.975   6.727   6.071
11813TIP3   OH235395   3.738   7.215   2.317
11813TIP3    H135396   3.778   7.222   2.231
11813TIP3    H235397   3.675   7.287   2.321
11814TIP3   OH235398   7.194   0.992   3.333
11814TIP3    H135399   7.120   1.052   3.321
11814TIP3    H235400   7.259   1.043   3.380
11815TIP3   OH235401   0.098   4.430   2.703
11815TIP3    H135402   0.113   4.457   2.793
11815TIP3    H235403   0.169   4.370   2.683
11816TIP3   OH235404   5.610   0.494   2.242
11816TIP3    H135405   5.540   0.533   2.294
11816TIP3    H235406   5.686   0.492   2.301
11817TIP3   OH235407   1.424   7.460   3.803
11817TIP3    H135408   1.467   7.532   3.756
11817TIP3    H235409   1.345   7.499   3.840
11818TIP3   OH235410   5.734   4.964   5.570
11818TIP3    H135411   5.708   4.884   5.524
11818TIP3    H235412   5.810   4.938   5.623
11819TIP3   OH235413   6.913   0.132   4.940
11819TIP3    H135414   6.920   0.213   4.889
11819TIP3    H235415   6.827   0.137   4.981
11820TIP3   OH235416   2.575   0.295   1.737
11820TIP3    H135417   2.625   0.359   1.687
11820TIP3    H235418   2.624   0.285   1.819
11821TIP3   OH235419   6.974   1.147   3.265
11821TIP3    H135420   6.973   1.207   3.190
11821TIP3    H235421   6.899   1.175   3.318
11822TIP3   OH235422   5.805   5.944   2.146
11822TIP3    H135423   5.814   5.919   2.055
11822TIP3    H235424   5.753   5.874   2.186
11823TIP3   OH235425   1.168   6.029   0.364
11823TIP3    H135426   1.144   5.971   0.292
11823TIP3    H235427   1.238   5.983   0.410
11824TIP3   OH235428   2.670   2.052   4.186
11824TIP3    H135429   2.693   1.966   4.152
11824TIP3    H235430   2.703   2.114   4.120
11825TIP3   OH235431   4.253   7.189   2.802
11825TIP3    H135432   4.315   7.132   2.756
11825TIP3    H235433   4.202   7.129   2.857
11826TIP3   OH235434   6.637   3.071   1.064
11826TIP3    H135435   6.671   3.073   1.153
11826TIP3    H235436   6.676   3.148   1.022
11827TIP3   OH235437   5.645   6.746   1.303
11827TIP3    H135438   5.704   6.706   1.367
11827TIP3    H235439   5.558   6.740   1.343
11828TIP3   OH235440   8.263   1.525   3.365
11828TIP3    H135441   8.206   1.480   3.303
11828TIP3    H235442   8.216   1.607   3.385
11829TIP3   OH235443   6.003   2.620   0.625
11829TIP3    H135444   5.947   2.602   0.701
11829TIP3    H235445   6.092   2.621   0.661
11830TIP3   OH235446   6.613   6.808   5.851
11830TIP3    H135447   6.579   6.741   5.791
11830TIP3    H235448   6.661   6.868   5.794
11831TIP3   OH235449   4.606   2.154   0.607
11831TIP3    H135450   4.619   2.065   0.638
11831TIP3    H235451   4.589   2.205   0.686
11832TIP3   OH235452   4.587   3.921   3.602
11832TIP3    H135453   4.587   3.826   3.617
11832TIP3    H235454   4.668   3.938   3.554
11833TIP3   OH235455   7.852   5.050   6.578
11833TIP3    H135456   7.870   5.144   6.568
11833TIP3    H235457   7.762   5.040   6.547
11834TIP3   OH235458   7.977   1.750   6.054
11834TIP3    H135459   7.933   1.761   5.970
11834TIP3    H235460   8.048   1.815   6.053
11835TIP3   OH235461   7.544   6.093   2.277
11835TIP3    H135462   7.470   6.149   2.301
11835TIP3    H235463   7.563   6.116   2.186
11836TIP3   OH235464   2.188   5.262   6.738
11836TIP3    H135465   2.103   5.306   6.733
11836TIP3    H235466   2.168   5.178   6.780
11837TIP3   OH235467   5.620   2.318   2.068
11837TIP3    H135468   5.680   2.279   2.131
11837TIP3    H235469   5.533   2.302   2.106
11838TIP3   OH235470   5.389   2.897   1.686
11838TIP3    H135471   5.432   2.813   1.667
11838TIP3    H235472   5.322   2.875   1.751
11839TIP3   OH235473   5.831   1.476   2.573
11839TIP3    H135474   5.812   1.495   2.665
11839TIP3    H235475   5.747   1.453   2.535
11840TIP3   OH235476   4.303   4.243   6.390
11840TIP3    H135477   4.291   4.325   6.342
11840TIP3    H235478   4.286   4.175   6.326
11841TIP3   OH235479   3.686   4.980   2.981
11841TIP3    H135480   3.764   4.932   3.009
11841TIP3    H235481   3.669   4.949   2.892
11842TIP3   OH235482   5.410   6.650   6.333
11842TIP3    H135483   5.489   6.620   6.289
11842TIP3    H235484   5.339   6.634   6.271
11843TIP3   OH235485   2.000   6.433   5.925
11843TIP3    H135486   1.911   6.461   5.947
11843TIP3    H235487   2.037   6.404   6.009
11844TIP3   OH235488   3.625   3.037   2.425
11844TIP3    H135489   3.576   3.049   2.344
11844TIP3    H235490   3.591   3.105   2.483
11845TIP3   OH235491   3.301   2.450   3.748
11845TIP3    H135492   3.295   2.399   3.828
11845TIP3    H235493   3.345   2.531   3.774
11846TIP3   OH235494   0.610   7.288   6.630
11846TIP3    H135495   0.526   7.294   6.676
11846TIP3    H235496   0.612   7.364   6.572
11847TIP3   OH235497   1.038   4.951   3.540
11847TIP3    H135498   1.066   4.862   3.562
11847TIP3    H235499   1.120   4.998   3.524
11848TIP3   OH235500   6.888   4.693   6.566
11848TIP3    H135501   6.861   4.766   6.511
11848TIP3    H235502   6.881   4.616   6.509
11849TIP3   OH235503   7.717   4.591   4.184
11849TIP3    H135504   7.671   4.544   4.115
11849TIP3    H235505   7.773   4.654   4.138
11850TIP3   OH235506   4.516   1.102   6.675
11850TIP3    H135507   4.554   1.096   6.762
11850TIP3    H235508   4.588   1.080   6.615
11851TIP3   OH235509   5.657   4.374   2.880
11851TIP3    H135510   5.709   4.448   2.913
11851TIP3    H235511   5.710   4.339   2.808
11852TIP3   OH235512   2.792   0.700   3.115
11852TIP3    H135513   2.792   0.620   3.168
11852TIP3    H235514   2.799   0.669   3.025
11853TIP3   OH235515   0.533   1.634   1.881
11853TIP3    H135516   0.494   1.609   1.965
11853TIP3    H235517   0.581   1.556   1.852
11854TIP3   OH235518   7.173   0.924   1.457
11854TIP3    H135519   7.229   0.914   1.534
11854TIP3    H235520   7.232   0.949   1.387
11855TIP3   OH235521   1.964   1.667   6.568
11855TIP3    H135522   1.902   1.598   6.591
11855TIP3    H235523   2.048   1.638   6.605
11856TIP3   OH235524   0.593   0.034   5.655
11856TIP3    H135525   0.508   0.072   5.633
11856TIP3    H235526   0.574  -0.032   5.721
11857TIP3   OH235527   5.247   1.803   0.707
11857TIP3    H135528   5.240   1.899   0.709
11857TIP3    H235529   5.261   1.779   0.799
11858TIP3   OH235530   2.509   4.400   1.464
11858TIP3    H135531   2.425   4.360   1.486
11858TIP3    H235532   2.574   4.342   1.504
11859TIP3   OH235533   7.102   1.160   6.436
11859TIP3    H135534   7.163   1.180   6.507
11859TIP3    H235535   7.110   1.234   6.376
11860TIP3   OH235536   0.883   7.381   2.241
11860TIP3    H135537   0.957   7.339   2.285
11860TIP3    H235538   0.869   7.329   2.162
11861TIP3   OH235539   1.492   4.105   6.308
11861TIP3    H135540   1.568   4.047   6.314
11861TIP3    H235541   1.428   4.056   6.256
11862TIP3   OH235542   1.225   6.595   2.658
11862TIP3    H135543   1.290   6.525   2.658
11862TIP3    H235544   1.239   6.641   2.575
11863TIP3   OH235545   2.253   1.277   1.858
11863TIP3    H135546   2.278   1.278   1.766
11863TIP3    H235547   2.326   1.235   1.903
11864TIP3   OH235548   2.063   0.865   0.223
11864TIP3    H135549   2.121   0.934   0.189
11864TIP3    H235550   2.122   0.802   0.263
11865TIP3   OH235551   5.992   1.859   2.116
11865TIP3    H135552   5.913   1.862   2.169
11865TIP3    H235553   6.058   1.819   2.172
11866TIP3   OH235554   7.177   7.160   0.837
11866TIP3    H135555   7.166   7.160   0.932
11866TIP3    H235556   7.240   7.090   0.820
11867TIP3   OH235557   0.574   7.376   4.686
11867TIP3    H135558   0.505   7.443   4.682
11867TIP3    H235559   0.650   7.423   4.720
11868TIP3   OH235560   0.101   5.701   5.540
11868TIP3    H135561   0.056   5.768   5.590
11868TIP3    H235562   0.040   5.627   5.538
11869TIP3   OH235563   6.954   1.925   5.059
11869TIP3    H135564   7.034   1.912   5.008
11869TIP3    H235565   6.962   1.863   5.132
11870TIP3   OH235566   1.616   1.962   6.557
11870TIP3    H135567   1.597   1.988   6.647
11870TIP3    H235568   1.711   1.949   6.555
11871TIP3   OH235569   5.656   5.560   1.941
11871TIP3    H135570   5.676   5.502   1.868
11871TIP3    H235571   5.698   5.519   2.017
11872TIP3   OH235572   5.207   3.619   3.432
11872TIP3    H135573   5.154   3.598   3.355
11872TIP3    H235574   5.187   3.548   3.494
11873TIP3   OH235575   1.616   0.760   6.549
11873TIP3    H135576   1.563   0.829   6.509
11873TIP3    H235577   1.558   0.721   6.615
11874TIP3   OH235578   2.222   5.256   5.373
11874TIP3    H135579   2.158   5.199   5.332
11874TIP3    H235580   2.258   5.205   5.445
11875TIP3   OH235581   0.270   4.289   6.405
11875TIP3    H135582   0.251   4.296   6.312
11875TIP3    H235583   0.326   4.364   6.424
11876TIP3   OH235584   4.097   0.996   6.403
11876TIP3    H135585   4.004   1.011   6.417
11876TIP3    H235586   4.129   0.965   6.488
11877TIP3   OH235587   5.419   3.514   4.662
11877TIP3    H135588   5.431   3.475   4.575
11877TIP3    H235589   5.482   3.586   4.664
11878TIP3   OH235590   5.670   5.482   5.438
11878TIP3    H135591   5.647   5.390   5.452
11878TIP3    H235592   5.600   5.516   5.382
11879TIP3   OH235593   0.546   5.990   2.800
11879TIP3    H135594   0.592   5.938   2.866
11879TIP3    H235595   0.454   5.983   2.824
11880TIP3   OH235596   3.283   0.110   0.802
11880TIP3    H135597   3.373   0.132   0.779
11880TIP3    H235598   3.287   0.017   0.827
11881TIP3   OH235599   7.495   2.722   2.128
11881TIP3    H135600   7.456   2.740   2.214
11881TIP3    H235601   7.587   2.707   2.146
11882TIP3   OH235602   0.694   1.650   2.311
11882TIP3    H135603   0.750   1.621   2.239
11882TIP3    H235604   0.630   1.708   2.269
11883TIP3   OH235605   0.254   5.980   2.802
11883TIP3    H135606   0.163   5.997   2.824
11883TIP3    H235607   0.256   5.979   2.707
11884TIP3   OH235608   1.423   3.686   4.305
11884TIP3    H135609   1.476   3.614   4.270
11884TIP3    H235610   1.435   3.680   4.400
11885TIP3   OH235611   6.305   3.139   4.640
11885TIP3    H135612   6.304   3.234   4.647
11885TIP3    H235613   6.366   3.121   4.568
11886TIP3   OH235614   2.181   5.627   2.408
11886TIP3    H135615   2.099   5.646   2.361
11886TIP3    H235616   2.180   5.532   2.420
11887TIP3   OH235617   4.907   1.774   4.312
11887TIP3    H135618   4.910   1.868   4.328
11887TIP3    H235619   4.870   1.766   4.224
11888TIP3   OH235620   3.305   0.166   4.879
11888TIP3    H135621   3.301   0.106   4.954
11888TIP3    H235622   3.304   0.253   4.918
11889TIP3   OH235623   8.093   1.626   1.554
11889TIP3    H135624   8.120   1.609   1.463
11889TIP3    H235625   8.155   1.692   1.585
11890TIP3   OH235626   6.575   2.949   2.660
11890TIP3    H135627   6.562   2.857   2.637
11890TIP3    H235628   6.487   2.981   2.679
11891TIP3   OH235629   2.088   5.645   4.638
11891TIP3    H135630   2.009   5.616   4.592
11891TIP3    H235631   2.067   5.634   4.731
11892TIP3   OH235632   7.198   1.415   1.217
11892TIP3    H135633   7.258   1.448   1.149
11892TIP3    H235634   7.253   1.359   1.272
11893TIP3   OH235635   2.776   3.318   6.500
11893TIP3    H135636   2.816   3.274   6.574
11893TIP3    H235637   2.812   3.274   6.423
11894TIP3   OH235638   0.370   3.463   4.524
11894TIP3    H135639   0.408   3.449   4.438
11894TIP3    H235640   0.404   3.391   4.577
11895TIP3   OH235641   6.787   4.548   1.911
11895TIP3    H135642   6.753   4.463   1.940
11895TIP3    H235643   6.722   4.578   1.846
11896TIP3   OH235644   1.310   4.035   0.510
11896TIP3    H135645   1.253   3.961   0.532
11896TIP3    H235646   1.321   4.083   0.591
11897TIP3   OH235647   1.370   2.720   2.861
11897TIP3    H135648   1.396   2.721   2.953
11897TIP3    H235649   1.389   2.809   2.830
11898TIP3   OH235650   6.173   6.729   6.724
11898TIP3    H135651   6.195   6.800   6.784
11898TIP3    H235652   6.231   6.743   6.649
11899TIP3   OH235653   1.210   3.366   6.085
11899TIP3    H135654   1.209   3.348   5.991
11899TIP3    H235655   1.302   3.356   6.110
11900TIP3   OH235656   1.053   1.695   0.971
11900TIP3    H135657   0.978   1.651   0.929
11900TIP3    H235658   1.130   1.656   0.929
11901TIP3   OH235659   6.774   6.828   0.514
11901TIP3    H135660   6.859   6.788   0.534
11901TIP3    H235661   6.756   6.801   0.424
11902TIP3   OH235662   6.178   6.430   5.233
11902TIP3    H135663   6.113   6.435   5.304
11902TIP3    H235664   6.129   6.449   5.154
11903TIP3   OH235665   7.419   4.174   2.918
11903TIP3    H135666   7.343   4.181   2.860
11903TIP3    H235667   7.490   4.143   2.861
11904TIP3   OH235668   5.128   4.220   6.506
11904TIP3    H135669   5.198   4.166   6.543
11904TIP3    H235670   5.152   4.230   6.414
11905TIP3   OH235671   4.602   7.269   1.949
11905TIP3    H135672   4.540   7.303   2.013
11905TIP3    H235673   4.575   7.308   1.866
11906TIP3   OH235674   5.254   5.162   0.381
11906TIP3    H135675   5.310   5.142   0.305
11906TIP3    H235676   5.288   5.245   0.414
11907TIP3   OH235677   0.274   1.391   6.551
11907TIP3    H135678   0.191   1.427   6.584
11907TIP3    H235679   0.250   1.347   6.470
11908TIP3   OH235680   7.019   2.635   3.192
11908TIP3    H135681   7.043   2.711   3.138
11908TIP3    H235682   7.080   2.639   3.266
11909TIP3   OH235683   7.136   4.074   6.669
11909TIP3    H135684   7.192   4.006   6.706
11909TIP3    H235685   7.086   4.107   6.744
11910TIP3   OH235686   0.614   2.163   2.037
11910TIP3    H135687   0.525   2.190   2.057
11910TIP3    H235688   0.668   2.239   2.058
11911TIP3   OH235689   6.887   3.406   4.699
11911TIP3    H135690   6.830   3.397   4.776
11911TIP3    H235691   6.970   3.435   4.735
11912TIP3   OH235692   7.551   6.615   6.259
11912TIP3    H135693   7.615   6.572   6.202
11912TIP3    H235694   7.478   6.554   6.264
11913TIP3   OH235695   4.052   2.888   0.420
11913TIP3    H135696   4.071   2.891   0.513
11913TIP3    H235697   3.995   2.811   0.409
11914TIP3   OH235698   7.407   6.607   0.248
11914TIP3    H135699   7.345   6.593   0.178
11914TIP3    H235700   7.367   6.674   0.304
11915TIP3   OH235701   4.616   7.131   5.473
11915TIP3    H135702   4.652   7.114   5.387
11915TIP3    H235703   4.679   7.094   5.534
11916TIP3   OH235704   0.657   3.871   4.850
11916TIP3    H135705   0.566   3.866   4.820
11916TIP3    H235706   0.705   3.817   4.788
11917TIP3   OH235707   0.795   2.480   0.577
11917TIP3    H135708   0.704   2.509   0.579
11917TIP3    H235709   0.803   2.420   0.651
11918TIP3   OH235710   4.710   4.404   1.293
11918TIP3    H135711   4.707   4.494   1.261
11918TIP3    H235712   4.788   4.366   1.253
11919TIP3   OH235713   6.712   3.730   6.435
11919TIP3    H135714   6.645   3.729   6.367
11919TIP3    H235715   6.793   3.749   6.389
11920TIP3   OH235716   7.507   4.437   3.266
11920TIP3    H135717   7.523   4.526   3.235
11920TIP3    H235718   7.552   4.381   3.203
11921TIP3   OH235719   0.231   6.892   2.198
11921TIP3    H135720   0.274   6.811   2.224
11921TIP3    H235721   0.269   6.959   2.256
11922TIP3   OH235722   1.071   7.586   0.825
11922TIP3    H135723   1.105   7.670   0.856
11922TIP3    H235724   1.139   7.523   0.847
11923TIP3   OH235725   5.732   1.703   5.246
11923TIP3    H135726   5.815   1.666   5.217
11923TIP3    H235727   5.709   1.767   5.178
11924TIP3   OH235728   7.248   1.230   6.669
11924TIP3    H135729   7.233   1.307   6.725
11924TIP3    H235730   7.343   1.230   6.654
11925TIP3   OH235731   2.519   6.619   1.549
11925TIP3    H135732   2.536   6.539   1.598
11925TIP3    H235733   2.596   6.674   1.563
11926TIP3   OH235734   2.067   7.034   2.583
11926TIP3    H135735   2.152   7.031   2.539
11926TIP3    H235736   2.079   6.982   2.663
11927TIP3   OH235737   4.849   5.570   4.292
11927TIP3    H135738   4.912   5.589   4.224
11927TIP3    H235739   4.764   5.572   4.248
11928TIP3   OH235740   2.471   7.411   4.629
11928TIP3    H135741   2.517   7.328   4.621
11928TIP3    H235742   2.444   7.414   4.721
11929TIP3   OH235743   2.464   6.606   5.538
11929TIP3    H135744   2.548   6.641   5.508
11929TIP3    H235745   2.399   6.652   5.486
11930TIP3   OH235746   7.527   5.935   2.754
11930TIP3    H135747   7.497   5.929   2.664
11930TIP3    H235748   7.603   5.877   2.758
11931TIP3   OH235749   7.579   5.299   1.990
11931TIP3    H135750   7.617   5.306   2.078
11931TIP3    H235751   7.490   5.333   2.000
11932TIP3   OH235752   5.869   2.590   6.106
11932TIP3    H135753   5.848   2.499   6.084
11932TIP3    H235754   5.901   2.627   6.023
11933TIP3   OH235755   2.012   4.590   0.091
11933TIP3    H135756   1.996   4.531   0.164
11933TIP3    H235757   2.105   4.582   0.073
11934TIP3   OH235758   6.497   5.985   3.744
11934TIP3    H135759   6.559   5.946   3.682
11934TIP3    H235760   6.550   6.047   3.794
11935TIP3   OH235761   5.530   0.086   1.902
11935TIP3    H135762   5.592   0.028   1.946
11935TIP3    H235763   5.506   0.150   1.968
11936TIP3   OH235764   8.287   3.803   0.651
11936TIP3    H135765   8.207   3.756   0.673
11936TIP3    H235766   8.329   3.818   0.736
11937TIP3   OH235767   4.036   6.506   1.715
11937TIP3    H135768   3.971   6.557   1.763
11937TIP3    H235769   3.991   6.424   1.693
11938TIP3   OH235770   4.825   1.365   2.365
11938TIP3    H135771   4.834   1.379   2.459
11938TIP3    H235772   4.783   1.279   2.358
11939TIP3   OH235773   0.267   2.876   0.098
11939TIP3    H135774   0.224   2.792   0.079
11939TIP3    H235775   0.301   2.904   0.013
11940TIP3   OH235776   4.336   0.276   5.914
11940TIP3    H135777   4.312   0.321   5.994
11940TIP3    H235778   4.420   0.314   5.889
11941TIP3   OH235779   3.275   2.991   1.332
11941TIP3    H135780   3.252   3.057   1.397
11941TIP3    H235781   3.276   2.909   1.381
11942TIP3   OH235782   5.795   2.331   5.955
11942TIP3    H135783   5.861   2.297   5.895
11942TIP3    H235784   5.761   2.254   6.000
11943TIP3   OH235785   7.390   1.242   1.352
11943TIP3    H135786   7.478   1.264   1.323
11943TIP3    H235787   7.377   1.152   1.323
11944TIP3   OH235788   1.192   6.551   5.168
11944TIP3    H135789   1.105   6.513   5.171
11944TIP3    H235790   1.189   6.612   5.094
11945TIP3   OH235791   2.687   3.842   6.331
11945TIP3    H135792   2.634   3.862   6.254
11945TIP3    H235793   2.746   3.917   6.339
11946TIP3   OH235794   3.043   0.773   5.236
11946TIP3    H135795   3.051   0.840   5.303
11946TIP3    H235796   3.005   0.697   5.281
11947TIP3   OH235797   5.613   0.848   6.552
11947TIP3    H135798   5.658   0.785   6.608
11947TIP3    H235799   5.679   0.879   6.491
11948TIP3   OH235800   4.136   2.863   4.415
11948TIP3    H135801   4.139   2.817   4.331
11948TIP3    H235802   4.116   2.794   4.479
11949TIP3   OH235803   2.685   2.505   1.903
11949TIP3    H135804   2.758   2.448   1.927
11949TIP3    H235805   2.607   2.452   1.918
11950TIP3   OH235806   1.153   4.426   2.024
11950TIP3    H135807   1.212   4.491   2.060
11950TIP3    H235808   1.113   4.470   1.948
11951TIP3   OH235809   0.079   1.176   5.249
11951TIP3    H135810   0.150   1.235   5.275
11951TIP3    H235811   0.111   1.089   5.271
11952TIP3   OH235812   4.812   6.514   2.943
11952TIP3    H135813   4.796   6.476   2.856
11952TIP3    H235814   4.735   6.489   2.994
11953TIP3   OH235815   6.382   3.591   1.935
11953TIP3    H135816   6.328   3.562   1.861
11953TIP3    H235817   6.468   3.552   1.918
11954TIP3   OH235818   4.578   7.294   3.746
11954TIP3    H135819   4.644   7.256   3.803
11954TIP3    H235820   4.627   7.332   3.673
11955TIP3   OH235821   0.760   4.105   3.450
11955TIP3    H135822   0.763   4.186   3.501
11955TIP3    H235823   0.667   4.090   3.434
11956TIP3   OH235824   7.393   2.993   3.100
11956TIP3    H135825   7.421   2.903   3.118
11956TIP3    H235826   7.475   3.042   3.092
11957TIP3   OH235827   5.181   1.578   0.540
11957TIP3    H135828   5.191   1.642   0.611
11957TIP3    H235829   5.245   1.606   0.474
11958TIP3   OH235830   2.832   2.460   5.471
11958TIP3    H135831   2.815   2.552   5.452
11958TIP3    H235832   2.780   2.442   5.549
11959TIP3   OH235833   3.674   7.015   0.374
11959TIP3    H135834   3.618   7.028   0.450
11959TIP3    H235835   3.745   6.958   0.406
11960TIP3   OH235836   0.289   7.649   2.781
11960TIP3    H135837   0.281   7.702   2.702
11960TIP3    H235838   0.375   7.670   2.816
11961TIP3   OH235839   2.951   4.116   6.662
11961TIP3    H135840   2.952   4.174   6.738
11961TIP3    H235841   3.026   4.145   6.610
11962TIP3   OH235842   0.816   2.666   3.511
11962TIP3    H135843   0.807   2.724   3.587
11962TIP3    H235844   0.857   2.587   3.546
11963TIP3   OH235845   6.031   2.244   2.224
11963TIP3    H135846   6.106   2.210   2.175
11963TIP3    H235847   6.043   2.339   2.223
11964TIP3   OH235848   7.861   2.139   4.980
11964TIP3    H135849   7.827   2.191   4.908
11964TIP3    H235850   7.940   2.186   5.008
11965TIP3   OH235851   5.655   5.966   4.838
11965TIP3    H135852   5.586   5.943   4.900
11965TIP3    H235853   5.626   6.047   4.797
11966TIP3   OH235854   7.416   1.817   0.489
11966TIP3    H135855   7.356   1.891   0.481
11966TIP3    H235856   7.502   1.854   0.471
11967TIP3   OH235857   0.073   3.751   5.047
11967TIP3    H135858   0.081   3.845   5.027
11967TIP3    H235859   0.147   3.711   5.001
11968TIP3   OH235860   6.332   7.369   3.307
11968TIP3    H135861   6.421   7.336   3.301
11968TIP3    H235862   6.277   7.291   3.312
11969TIP3   OH235863   7.228   6.295   1.790
11969TIP3    H135864   7.133   6.281   1.795
11969TIP3    H235865   7.266   6.208   1.796
11970TIP3   OH235866   1.837   3.527   0.869
11970TIP3    H135867   1.797   3.573   0.943
11970TIP3    H235868   1.788   3.556   0.792
11971TIP3   OH235869   1.341   2.905   0.685
11971TIP3    H135870   1.260   2.854   0.686
11971TIP3    H235871   1.403   2.851   0.735
11972TIP3   OH235872   4.240   4.631   5.183
11972TIP3    H135873   4.219   4.724   5.187
11972TIP3    H235874   4.177   4.594   5.122
11973TIP3   OH235875   5.344   5.334   6.690
11973TIP3    H135876   5.371   5.255   6.643
11973TIP3    H235877   5.266   5.308   6.739
11974TIP3   OH235878   1.836   0.031   4.838
11974TIP3    H135879   1.843   0.124   4.814
11974TIP3    H235880   1.766  -0.003   4.784
11975TIP3   OH235881   8.205   6.739   3.167
11975TIP3    H135882   8.190   6.650   3.135
11975TIP3    H235883   8.147   6.747   3.243
11976TIP3   OH235884   4.953   0.561   0.656
11976TIP3    H135885   4.923   0.483   0.703
11976TIP3    H235886   4.884   0.578   0.591
11977TIP3   OH235887   3.950   0.790   6.659
11977TIP3    H135888   4.030   0.771   6.708
11977TIP3    H235889   3.891   0.718   6.681
11978TIP3   OH235890   3.923   1.741   0.909
11978TIP3    H135891   3.959   1.743   0.998
11978TIP3    H235892   3.831   1.719   0.922
11979TIP3   OH235893   3.228   4.741   5.966
11979TIP3    H135894   3.202   4.678   6.033
11979TIP3    H235895   3.187   4.823   5.993
11980TIP3   OH235896   7.892   6.367   3.607
11980TIP3    H135897   7.979   6.328   3.602
11980TIP3    H235898   7.867   6.382   3.516
11981TIP3   OH235899   0.367   3.723   3.749
11981TIP3    H135900   0.322   3.656   3.801
11981TIP3    H235901   0.459   3.717   3.778
11982TIP3   OH235902   0.407   0.435   3.205
11982TIP3    H135903   0.413   0.530   3.207
11982TIP3    H235904   0.317   0.416   3.179
11983TIP3   OH235905   1.067   4.861   2.893
11983TIP3    H135906   1.031   4.802   2.826
11983TIP3    H235907   1.086   4.804   2.967
11984TIP3   OH235908   6.447   4.514   5.035
11984TIP3    H135909   6.423   4.599   4.999
11984TIP3    H235910   6.373   4.491   5.091
11985TIP3   OH235911   4.755   0.057   4.872
11985TIP3    H135912   4.765  -0.004   4.944
11985TIP3    H235913   4.662   0.078   4.870
11986TIP3   OH235914   4.094   2.904   2.453
11986TIP3    H135915   4.012   2.864   2.482
11986TIP3    H235916   4.084   2.916   2.359
11987TIP3   OH235917   2.426   5.435   6.126
11987TIP3    H135918   2.334   5.430   6.101
11987TIP3    H235919   2.431   5.388   6.210
11988TIP3   OH235920   4.451   7.333   2.978
11988TIP3    H135921   4.500   7.255   3.002
11988TIP3    H235922   4.404   7.308   2.898
11989TIP3   OH235923   1.816   5.438   2.418
11989TIP3    H135924   1.824   5.359   2.472
11989TIP3    H235925   1.818   5.510   2.481
11990TIP3   OH235926   6.565   3.684   3.016
11990TIP3    H135927   6.585   3.645   2.931
11990TIP3    H235928   6.624   3.641   3.077
11991TIP3   OH235929   3.347   3.335   5.926
11991TIP3    H135930   3.368   3.322   6.018
11991TIP3    H235931   3.391   3.263   5.881
11992TIP3   OH235932   4.923   5.784   2.949
11992TIP3    H135933   4.953   5.781   2.858
11992TIP3    H235934   4.862   5.710   2.956
11993TIP3   OH235935   1.938   7.077   4.973
11993TIP3    H135936   2.030   7.054   4.970
11993TIP3    H235937   1.894   7.009   4.922
11994TIP3   OH235938   5.268   5.194   3.283
11994TIP3    H135939   5.324   5.271   3.280
11994TIP3    H235940   5.309   5.137   3.348
11995TIP3   OH235941   4.865   3.612   4.991
11995TIP3    H135942   4.859   3.650   4.903
11995TIP3    H235943   4.899   3.683   5.045
11996TIP3   OH235944   8.054   4.655   4.743
11996TIP3    H135945   7.993   4.677   4.814
11996TIP3    H235946   8.039   4.563   4.726
11997TIP3   OH235947   3.056   2.571   5.997
11997TIP3    H135948   3.148   2.547   5.990
11997TIP3    H235949   3.009   2.488   6.000
11998TIP3   OH235950   2.235   4.072   6.046
11998TIP3    H135951   2.237   4.001   5.982
11998TIP3    H235952   2.171   4.045   6.111
11999TIP3   OH235953   3.725   3.156   0.945
11999TIP3    H135954   3.745   3.207   0.866
11999TIP3    H235955   3.783   3.080   0.940
12000TIP3   OH235956   7.687   2.670   5.200
12000TIP3    H135957   7.610   2.657   5.256
12000TIP3    H235958   7.683   2.762   5.174
12001TIP3   OH235959   5.045   7.608   2.178
12001TIP3    H135960   5.091   7.666   2.238
12001TIP3    H235961   5.020   7.664   2.104
12002TIP3   OH235962   4.671   3.691   0.350
12002TIP3    H135963   4.619   3.640   0.287
12002TIP3    H235964   4.606   3.737   0.403
12003TIP3   OH235965   2.050   4.023   5.119
12003TIP3    H135966   2.050   3.927   5.128
12003TIP3    H235967   2.143   4.047   5.126
12004TIP3   OH235968   2.470   2.229   3.699
12004TIP3    H135969   2.420   2.191   3.627
12004TIP3    H235970   2.562   2.216   3.674
12005TIP3   OH235971   4.082   4.956   6.744
12005TIP3    H135972   4.003   4.903   6.755
12005TIP3    H235973   4.147   4.894   6.710
12006TIP3   OH235974   1.533   4.563   2.285
12006TIP3    H135975   1.620   4.553   2.324
12006TIP3    H235976   1.473   4.550   2.359
12007TIP3   OH235977   3.811   6.774   1.627
12007TIP3    H135978   3.847   6.862   1.631
12007TIP3    H235979   3.856   6.733   1.552
12008TIP3   OH235980   6.274   7.245   3.969
12008TIP3    H135981   6.189   7.258   4.010
12008TIP3    H235982   6.337   7.254   4.041
12009TIP3   OH235983   2.397   6.184   3.253
12009TIP3    H135984   2.398   6.130   3.332
12009TIP3    H235985   2.324   6.244   3.266
12010TIP3   OH235986   4.010   6.382   2.771
12010TIP3    H135987   4.073   6.329   2.721
12010TIP3    H235988   3.981   6.449   2.709
12011TIP3   OH235989   7.898   3.533   6.163
12011TIP3    H135990   7.953   3.460   6.134
12011TIP3    H235991   7.825   3.535   6.101
12012TIP3   OH235992   0.587   5.087   0.564
12012TIP3    H135993   0.669   5.075   0.515
12012TIP3    H235994   0.615   5.097   0.655
12013TIP3   OH235995   2.133   2.108   6.031
12013TIP3    H135996   2.047   2.104   6.073
12013TIP3    H235997   2.118   2.159   5.952
12014TIP3   OH235998   5.873   2.804   0.454
12014TIP3    H135999   5.937   2.809   0.383
12014TIP3    H236000   5.895   2.722   0.499
12015TIP3   OH236001   0.710   1.381   0.975
12015TIP3    H136002   0.621   1.393   0.941
12015TIP3    H236003   0.722   1.286   0.975
12016TIP3   OH236004   6.054   0.230   5.772
12016TIP3    H136005   6.010   0.247   5.689
12016TIP3    H236006   6.041   0.136   5.787
12017TIP3   OH236007   1.815   7.223   0.025
12017TIP3    H136008   1.856   7.307   0.046
12017TIP3    H236009   1.762   7.241  -0.052
12018TIP3   OH236010   0.366   7.487   3.176
12018TIP3    H136011   0.341   7.526   3.093
12018TIP3    H236012   0.412   7.556   3.223
12019TIP3   OH236013   8.020   4.204   3.636
12019TIP3    H136014   7.947   4.158   3.677
12019TIP3    H236015   8.037   4.155   3.555
12020TIP3   OH236016   0.763   3.655   5.357
12020TIP3    H136017   0.731   3.647   5.267
12020TIP3    H236018   0.780   3.749   5.368
12021TIP3   OH236019   4.788   4.005   4.375
12021TIP3    H136020   4.753   3.977   4.460
12021TIP3    H236021   4.876   3.968   4.372
12022TIP3   OH236022   0.776   6.191   5.132
12022TIP3    H136023   0.763   6.273   5.085
12022TIP3    H236024   0.688   6.159   5.151
12023TIP3   OH236025   3.684   4.480   2.018
12023TIP3    H136026   3.636   4.511   2.095
12023TIP3    H236027   3.694   4.558   1.963
12024TIP3   OH236028   7.676   0.834   1.812
12024TIP3    H136029   7.596   0.782   1.814
12024TIP3    H236030   7.646   0.924   1.804
12025TIP3   OH236031   2.488   2.674   1.776
12025TIP3    H136032   2.506   2.582   1.760
12025TIP3    H236033   2.504   2.717   1.691
12026TIP3   OH236034   3.435   7.087   4.879
12026TIP3    H136035   3.350   7.056   4.848
12026TIP3    H236036   3.415   7.167   4.928
12027TIP3   OH236037   7.776   1.636   0.832
12027TIP3    H136038   7.680   1.645   0.829
12027TIP3    H236039   7.808   1.715   0.789
12028TIP3   OH236040   2.776   5.663   0.031
12028TIP3    H136041   2.848   5.724   0.044
12028TIP3    H236042   2.793   5.624  -0.055
12029TIP3   OH236043   2.939   5.215   0.992
12029TIP3    H136044   2.925   5.299   0.949
12029TIP3    H236045   3.021   5.226   1.040
12030TIP3   OH236046   3.108   6.085   5.536
12030TIP3    H136047   3.091   6.127   5.621
12030TIP3    H236048   3.174   6.019   5.555
12031TIP3   OH236049   7.757   2.861   1.901
12031TIP3    H136050   7.669   2.897   1.893
12031TIP3    H236051   7.745   2.776   1.943
12032TIP3   OH236052   7.490   0.745   1.304
12032TIP3    H136053   7.525   0.813   1.362
12032TIP3    H236054   7.539   0.666   1.328
12033TIP3   OH236055   1.381   2.544   0.506
12033TIP3    H136056   1.298   2.497   0.504
12033TIP3    H236057   1.448   2.476   0.507
12034TIP3   OH236058   6.330   6.819   1.018
12034TIP3    H136059   6.368   6.772   1.092
12034TIP3    H236060   6.301   6.751   0.958
12035TIP3   OH236061   6.927   0.526   6.016
12035TIP3    H136062   6.937   0.453   6.078
12035TIP3    H236063   6.837   0.518   5.984
12036TIP3   OH236064   3.322   5.295   2.518
12036TIP3    H136065   3.241   5.328   2.557
12036TIP3    H236066   3.296   5.260   2.433
12037TIP3   OH236067   6.291   0.791   4.572
12037TIP3    H136068   6.244   0.843   4.507
12037TIP3    H236069   6.346   0.733   4.520
12038TIP3   OH236070   2.199   1.463   3.939
12038TIP3    H136071   2.173   1.535   3.881
12038TIP3    H236072   2.287   1.486   3.969
12039TIP3   OH236073   2.767   0.920   6.069
12039TIP3    H136074   2.784   0.863   5.994
12039TIP3    H236075   2.768   1.009   6.031
12040TIP3   OH236076   4.537   7.061   6.687
12040TIP3    H136077   4.617   7.055   6.739
12040TIP3    H236078   4.467   7.068   6.752
12041TIP3   OH236079   7.956   0.305   1.211
12041TIP3    H136080   8.023   0.278   1.147
12041TIP3    H236081   8.002   0.304   1.295
12042TIP3   OH236082   5.616   6.851   6.739
12042TIP3    H136083   5.664   6.822   6.817
12042TIP3    H236084   5.646   6.941   6.725
12043TIP3   OH236085   5.638   4.807   1.907
12043TIP3    H136086   5.605   4.871   1.844
12043TIP3    H236087   5.670   4.735   1.853
12044TIP3   OH236088   6.886   4.360   2.918
12044TIP3    H136089   6.833   4.338   2.842
12044TIP3    H236090   6.965   4.401   2.882
12045TIP3   OH236091   4.697   7.755   2.021
12045TIP3    H136092   4.625   7.791   2.072
12045TIP3    H236093   4.703   7.812   1.944
12046TIP3   OH236094   4.189   2.194   6.185
12046TIP3    H136095   4.169   2.173   6.093
12046TIP3    H236096   4.275   2.236   6.182
12047TIP3   OH236097   2.363   6.282   6.257
12047TIP3    H136098   2.397   6.233   6.182
12047TIP3    H236099   2.419   6.256   6.330
12048TIP3   OH236100   2.870   2.149   4.925
12048TIP3    H136101   2.957   2.115   4.946
12048TIP3    H236102   2.817   2.071   4.912
12049TIP3   OH236103   0.371   0.467   5.246
12049TIP3    H136104   0.380   0.546   5.193
12049TIP3    H236105   0.455   0.421   5.235
12050TIP3   OH236106   0.376   4.533   3.643
12050TIP3    H136107   0.466   4.512   3.618
12050TIP3    H236108   0.332   4.551   3.560
12051TIP3   OH236109   6.378   1.309   4.980
12051TIP3    H136110   6.415   1.397   4.972
12051TIP3    H236111   6.437   1.263   5.040
12052TIP3   OH236112   1.570   5.782   5.567
12052TIP3    H136113   1.577   5.690   5.543
12052TIP3    H236114   1.614   5.787   5.652
12053TIP3   OH236115   4.901   0.901   0.309
12053TIP3    H136116   4.987   0.939   0.328
12053TIP3    H236117   4.914   0.806   0.320
12054TIP3   OH236118   6.614   6.563   2.158
12054TIP3    H136119   6.699   6.593   2.127
12054TIP3    H236120   6.553   6.583   2.087
12055TIP3   OH236121   2.043   4.032   0.567
12055TIP3    H136122   2.005   4.076   0.643
12055TIP3    H236123   2.012   3.941   0.575
12056TIP3   OH236124   1.124   0.061   5.896
12056TIP3    H136125   1.075   0.143   5.907
12056TIP3    H236126   1.170   0.072   5.813
12057TIP3   OH236127   4.267   4.802   3.018
12057TIP3    H136128   4.358   4.829   3.028
12057TIP3    H236129   4.217   4.883   3.027
12058TIP3   OH236130   6.397   1.734   5.539
12058TIP3    H136131   6.406   1.638   5.535
12058TIP3    H236132   6.450   1.760   5.615
12059TIP3   OH236133   0.343   4.702   6.110
12059TIP3    H136134   0.340   4.615   6.069
12059TIP3    H236135   0.420   4.744   6.074
12060TIP3   OH236136   6.847   7.602   2.872
12060TIP3    H136137   6.754   7.597   2.896
12060TIP3    H236138   6.890   7.539   2.931
12061TIP3   OH236139   0.203   5.224   3.777
12061TIP3    H136140   0.157   5.140   3.767
12061TIP3    H236141   0.224   5.250   3.688
12062TIP3   OH236142   4.460   1.392   2.185
12062TIP3    H136143   4.523   1.320   2.188
12062TIP3    H236144   4.493   1.450   2.116
12063TIP3   OH236145   2.556   5.753   1.877
12063TIP3    H136146   2.633   5.760   1.932
12063TIP3    H236147   2.507   5.834   1.893
12064TIP3   OH236148   1.269   1.572   3.981
12064TIP3    H136149   1.177   1.546   3.973
12064TIP3    H236150   1.269   1.665   3.957
12065TIP3   OH236151   5.804   7.021   3.393
12065TIP3    H136152   5.770   6.939   3.358
12065TIP3    H236153   5.726   7.075   3.408
12066TIP3   OH236154   7.202   1.429   4.357
12066TIP3    H136155   7.108   1.427   4.375
12066TIP3    H236156   7.232   1.340   4.374
12067TIP3   OH236157   7.073   4.414   6.661
12067TIP3    H136158   7.101   4.505   6.668
12067TIP3    H236159   7.087   4.378   6.748
12068TIP3   OH236160   4.821   1.435   0.738
12068TIP3    H136161   4.779   1.496   0.799
12068TIP3    H236162   4.864   1.371   0.794
12069TIP3   OH236163   0.531   7.148   4.847
12069TIP3    H136164   0.598   7.096   4.802
12069TIP3    H236165   0.539   7.236   4.810
12070TIP3   OH236166   7.090   3.678   2.087
12070TIP3    H136167   7.094   3.761   2.136
12070TIP3    H236168   7.181   3.662   2.061
12071TIP3   OH236169   7.780   7.585   2.117
12071TIP3    H136170   7.812   7.667   2.154
12071TIP3    H236171   7.688   7.582   2.141
12072TIP3   OH236172   3.940   0.381   1.731
12072TIP3    H136173   3.895   0.421   1.657
12072TIP3    H236174   3.875   0.381   1.801
12073TIP3   OH236175   3.757   6.468   4.406
12073TIP3    H136176   3.667   6.492   4.384
12073TIP3    H236177   3.763   6.478   4.501
12074TIP3   OH236178   0.453   5.076   3.435
12074TIP3    H136179   0.537   5.101   3.475
12074TIP3    H236180   0.393   5.147   3.457
12075TIP3   OH236181   0.041   3.184   0.001
12075TIP3    H136182  -0.036   3.200   0.056
12075TIP3    H236183   0.108   3.153   0.061
12076TIP3   OH236184   6.213   5.077   0.027
12076TIP3    H136185   6.276   5.014  -0.006
12076TIP3    H236186   6.262   5.128   0.092
12077TIP3   OH236187   6.381   4.225   2.613
12077TIP3    H136188   6.446   4.180   2.559
12077TIP3    H236189   6.370   4.168   2.689
12078TIP3   OH236190   7.718   5.640   2.131
12078TIP3    H136191   7.812   5.622   2.118
12078TIP3    H236192   7.679   5.624   2.045
12079TIP3   OH236193   1.875   5.101   2.043
12079TIP3    H136194   1.779   5.100   2.037
12079TIP3    H236195   1.903   5.028   1.988
12080TIP3   OH236196   1.808   4.383   4.090
12080TIP3    H136197   1.902   4.368   4.079
12080TIP3    H236198   1.799   4.478   4.089
12081TIP3   OH236199   7.888   0.994   6.719
12081TIP3    H136200   7.847   1.079   6.707
12081TIP3    H236201   7.870   0.947   6.637
12082TIP3   OH236202   4.105   5.832   5.168
12082TIP3    H136203   4.017   5.821   5.206
12082TIP3    H236204   4.094   5.808   5.076
12083TIP3   OH236205   0.876   0.173   3.050
12083TIP3    H136206   0.825   0.198   2.973
12083TIP3    H236207   0.929   0.098   3.020
12084TIP3   OH236208   3.950   1.215   2.182
12084TIP3    H136209   3.962   1.120   2.175
12084TIP3    H236210   4.038   1.249   2.200
12085TIP3   OH236211   1.309   2.950   4.157
12085TIP3    H136212   1.283   3.039   4.133
12085TIP3    H236213   1.359   2.919   4.082
12086TIP3   OH236214   2.418   7.571   1.438
12086TIP3    H136215   2.378   7.497   1.392
12086TIP3    H236216   2.392   7.648   1.388
12087TIP3   OH236217   7.531   1.759   3.281
12087TIP3    H136218   7.440   1.738   3.301
12087TIP3    H236219   7.557   1.821   3.349
12088TIP3   OH236220   4.450   4.000   6.183
12088TIP3    H136221   4.458   3.908   6.209
12088TIP3    H236222   4.505   4.047   6.246
12089TIP3   OH236223   0.300   2.996   2.763
12089TIP3    H136224   0.357   2.966   2.692
12089TIP3    H236225   0.336   3.081   2.789
12090TIP3   OH236226   7.980   3.672   1.962
12090TIP3    H136227   7.923   3.597   1.977
12090TIP3    H236228   7.920   3.743   1.938
12091TIP3   OH236229   7.576   7.650   3.361
12091TIP3    H136230   7.501   7.697   3.396
12091TIP3    H236231   7.581   7.678   3.269
12092TIP3   OH236232   4.191   4.178   4.931
12092TIP3    H136233   4.224   4.257   4.975
12092TIP3    H236234   4.161   4.208   4.846
12093TIP3   OH236235   4.615   6.499   6.074
12093TIP3    H136236   4.646   6.560   6.140
12093TIP3    H236237   4.522   6.487   6.094
12094TIP3   OH236238   4.882   7.683   1.647
12094TIP3    H136239   4.919   7.597   1.625
12094TIP3    H236240   4.934   7.745   1.597
12095TIP3   OH236241   3.320   5.834   1.372
12095TIP3    H136242   3.354   5.864   1.288
12095TIP3    H236243   3.225   5.838   1.362
12096TIP3   OH236244   1.532   2.713   3.378
12096TIP3    H136245   1.522   2.802   3.411
12096TIP3    H236246   1.601   2.675   3.433
12097TIP3   OH236247   3.135   3.467   0.784
12097TIP3    H136248   3.122   3.411   0.707
12097TIP3    H236249   3.219   3.438   0.821
12098TIP3   OH236250   2.544   2.945   3.590
12098TIP3    H136251   2.625   2.946   3.639
12098TIP3    H236252   2.537   3.034   3.554
12099TIP3   OH236253   2.030   7.468   2.248
12099TIP3    H136254   2.059   7.407   2.181
12099TIP3    H236255   2.101   7.532   2.256
12100TIP3   OH236256   0.558   4.197   5.635
12100TIP3    H136257   0.565   4.292   5.644
12100TIP3    H236258   0.552   4.182   5.541
12101TIP3   OH236259   6.269  -0.010   4.559
12101TIP3    H136260   6.207  -0.021   4.487
12101TIP3    H236261   6.333   0.054   4.526
12102TIP3   OH236262   8.227   3.455   5.439
12102TIP3    H136263   8.309   3.489   5.402
12102TIP3    H236264   8.254   3.376   5.487
12103TIP3   OH236265   1.041   2.719   4.599
12103TIP3    H136266   1.050   2.642   4.542
12103TIP3    H236267   0.976   2.693   4.664
12104TIP3   OH236268   4.928   3.282   3.084
12104TIP3    H136269   4.855   3.339   3.060
12104TIP3    H236270   4.917   3.205   3.028
12105TIP3   OH236271   4.525   5.471   3.009
12105TIP3    H136272   4.485   5.522   2.939
12105TIP3    H236273   4.581   5.408   2.964
12106TIP3   OH236274   3.721   7.025   6.065
12106TIP3    H136275   3.762   6.939   6.051
12106TIP3    H236276   3.763   7.058   6.145
12107TIP3   OH236277   0.644   6.115   3.311
12107TIP3    H136278   0.627   6.022   3.296
12107TIP3    H236279   0.616   6.157   3.230
12108TIP3   OH236280   7.920   1.352   2.573
12108TIP3    H136281   7.887   1.362   2.484
12108TIP3    H236282   7.943   1.440   2.601
12109TIP3   OH236283   1.816   2.231   5.980
12109TIP3    H136284   1.732   2.268   5.954
12109TIP3    H236285   1.819   2.242   6.075
12110TIP3   OH236286   5.369   5.214   5.325
12110TIP3    H136287   5.305   5.279   5.353
12110TIP3    H236288   5.381   5.230   5.231
12111TIP3   OH236289   7.417   6.437   2.870
12111TIP3    H136290   7.469   6.512   2.896
12111TIP3    H236291   7.441   6.368   2.932
12112TIP3   OH236292   4.317   0.672   0.512
12112TIP3    H136293   4.284   0.757   0.541
12112TIP3    H236294   4.315   0.676   0.416
12113TIP3   OH236295   5.965   5.972   4.411
12113TIP3    H136296   5.949   5.892   4.460
12113TIP3    H236297   5.953   5.946   4.319
12114TIP3   OH236298   4.316   3.129   4.276
12114TIP3    H136299   4.261   3.156   4.202
12114TIP3    H236300   4.397   3.179   4.266
12115TIP3   OH236301   7.088   1.322   0.932
12115TIP3    H136302   7.073   1.370   0.850
12115TIP3    H236303   7.060   1.383   1.000
12116TIP3   OH236304   5.220   2.936   1.336
12116TIP3    H136305   5.294   2.876   1.332
12116TIP3    H236306   5.173   2.910   1.416
12117TIP3   OH236307   1.405   1.866   0.982
12117TIP3    H136308   1.432   1.829   0.898
12117TIP3    H236309   1.487   1.876   1.031
12118TIP3   OH236310   6.259   6.639   0.199
12118TIP3    H136311   6.259   6.700   0.272
12118TIP3    H236312   6.348   6.644   0.164
12119TIP3   OH236313   0.370   4.862   3.729
12119TIP3    H136314   0.305   4.796   3.706
12119TIP3    H236315   0.346   4.939   3.678
12120TIP3   OH236316   3.199   1.126   0.310
12120TIP3    H136317   3.231   1.069   0.380
12120TIP3    H236318   3.171   1.066   0.241
12121TIP3   OH236319   7.732   0.596   5.807
12121TIP3    H136320   7.824   0.580   5.789
12121TIP3    H236321   7.715   0.684   5.773
12122TIP3   OH236322   7.069   7.048   6.252
12122TIP3    H136323   7.089   7.137   6.222
12122TIP3    H236324   7.052   6.999   6.171
12123TIP3   OH236325   0.035   3.671   6.732
12123TIP3    H136326   0.000   3.686   6.644
12123TIP3    H236327   0.119   3.717   6.733
12124TIP3   OH236328   3.345   1.324   4.976
12124TIP3    H136329   3.285   1.269   5.027
12124TIP3    H236330   3.300   1.408   4.969
12125TIP3   OH236331   3.629   5.921   0.116
12125TIP3    H136332   3.656   5.930   0.207
12125TIP3    H236333   3.626   5.827   0.100
12126TIP3   OH236334   6.277   2.557   4.047
12126TIP3    H136335   6.212   2.488   4.047
12126TIP3    H236336   6.357   2.515   4.014
12127TIP3   OH236337   6.677   7.180   1.463
12127TIP3    H136338   6.678   7.111   1.396
12127TIP3    H236339   6.751   7.158   1.520
12128TIP3   OH236340   3.461   4.852   5.296
12128TIP3    H136341   3.483   4.857   5.389
12128TIP3    H236342   3.474   4.942   5.264
12129TIP3   OH236343   5.011   3.990   1.956
12129TIP3    H136344   4.970   3.904   1.952
12129TIP3    H236345   4.959   4.038   2.021
12130TIP3   OH236346   5.152   3.227   0.033
12130TIP3    H136347   5.117   3.202  -0.053
12130TIP3    H236348   5.126   3.318   0.044
12131TIP3   OH236349   2.984   0.418   2.412
12131TIP3    H136350   2.985   0.464   2.496
12131TIP3    H236351   3.075   0.396   2.396
12132TIP3   OH236352   0.772   5.254   6.142
12132TIP3    H136353   0.702   5.224   6.085
12132TIP3    H236354   0.751   5.216   6.228
12133TIP3   OH236355   5.918   1.594   4.740
12133TIP3    H136356   5.946   1.679   4.776
12133TIP3    H236357   5.924   1.605   4.645
12134TIP3   OH236358   3.276   3.663   3.669
12134TIP3    H136359   3.354   3.716   3.657
12134TIP3    H236360   3.212   3.701   3.609
12135TIP3   OH236361   5.727   6.781   6.450
12135TIP3    H136362   5.715   6.823   6.535
12135TIP3    H236363   5.665   6.708   6.450
12136TIP3   OH236364   5.814   0.441   1.591
12136TIP3    H136365   5.749   0.393   1.539
12136TIP3    H236366   5.813   0.398   1.676
12137TIP3   OH236367   2.778   1.841   4.059
12137TIP3    H136368   2.839   1.770   4.077
12137TIP3    H236369   2.814   1.885   3.982
12138TIP3   OH236370   5.897   1.696   0.188
12138TIP3    H136371   5.988   1.666   0.197
12138TIP3    H236372   5.894   1.740   0.104
12139TIP3   OH236373   1.167   0.689   5.813
12139TIP3    H136374   1.164   0.755   5.743
12139TIP3    H236375   1.186   0.739   5.892
12140TIP3   OH236376   5.480   1.472   2.809
12140TIP3    H136377   5.451   1.447   2.722
12140TIP3    H236378   5.572   1.446   2.812
12141TIP3   OH236379   2.456   1.348   3.661
12141TIP3    H136380   2.492   1.380   3.743
12141TIP3    H236381   2.374   1.304   3.686
12142TIP3   OH236382   6.354   2.355   1.857
12142TIP3    H136383   6.398   2.293   1.915
12142TIP3    H236384   6.425   2.409   1.822
12143TIP3   OH236385   7.954   2.369   3.294
12143TIP3    H136386   7.870   2.395   3.332
12143TIP3    H236387   7.931   2.306   3.226
12144TIP3   OH236388   6.515   0.791   0.115
12144TIP3    H136389   6.571   0.732   0.166
12144TIP3    H236390   6.453   0.826   0.178
12145TIP3   OH236391   7.164   6.928   5.461
12145TIP3    H136392   7.213   6.863   5.512
12145TIP3    H236393   7.134   6.992   5.526
12146TIP3   OH236394   4.957   5.347   1.691
12146TIP3    H136395   4.903   5.358   1.613
12146TIP3    H236396   4.896   5.314   1.757
12147TIP3   OH236397   3.753   7.500   3.150
12147TIP3    H136398   3.685   7.466   3.093
12147TIP3    H236399   3.712   7.576   3.193
12148TIP3   OH236400   5.351   4.918   3.134
12148TIP3    H136401   5.293   4.890   3.064
12148TIP3    H236402   5.360   5.012   3.122
12149TIP3   OH236403   4.681   0.511   1.910
12149TIP3    H136404   4.589   0.519   1.883
12149TIP3    H236405   4.728   0.496   1.828
12150TIP3   OH236406   2.255   0.953   6.052
12150TIP3    H136407   2.183   0.905   6.094
12150TIP3    H236408   2.324   0.887   6.041
12151TIP3   OH236409   7.017   7.509   4.138
12151TIP3    H136410   6.952   7.570   4.103
12151TIP3    H236411   6.966   7.434   4.168
12152TIP3   OH236412   3.420   1.551   3.498
12152TIP3    H136413   3.474   1.472   3.495
12152TIP3    H236414   3.414   1.579   3.407
12153TIP3   OH236415   0.132   7.506   0.416
12153TIP3    H136416   0.109   7.444   0.347
12153TIP3    H236417   0.226   7.491   0.431
12154TIP3   OH236418   0.231   5.777   6.319
12154TIP3    H136419   0.237   5.864   6.358
12154TIP3    H236420   0.313   5.734   6.343
12155TIP3   OH236421   2.313   3.134   0.261
12155TIP3    H136422   2.381   3.183   0.214
12155TIP3    H236423   2.346   3.128   0.351
12156TIP3   OH236424   3.849   2.928   6.636
12156TIP3    H136425   3.919   2.864   6.619
12156TIP3    H236426   3.804   2.896   6.714
12157TIP3   OH236427   0.605   3.819   5.987
12157TIP3    H136428   0.622   3.909   6.015
12157TIP3    H236429   0.522   3.823   5.940
12158TIP3   OH236430   4.525   1.229   0.055
12158TIP3    H136431   4.441   1.266   0.082
12158TIP3    H236432   4.555   1.180   0.131
12159TIP3   OH236433   5.831   6.551   3.412
12159TIP3    H136434   5.823   6.628   3.356
12159TIP3    H236435   5.746   6.543   3.455
12160TIP3   OH236436   0.785   4.158   1.697
12160TIP3    H136437   0.746   4.207   1.770
12160TIP3    H236438   0.879   4.165   1.711
12161TIP3   OH236439   7.986   3.952   5.986
12161TIP3    H136440   7.896   3.974   5.962
12161TIP3    H236441   7.978   3.901   6.067
12162TIP3   OH236442   5.993   4.926   5.317
12162TIP3    H136443   6.072   4.962   5.356
12162TIP3    H236444   5.926   4.994   5.332
12163TIP3   OH236445   5.428   2.410   5.321
12163TIP3    H136446   5.494   2.347   5.349
12163TIP3    H236447   5.384   2.436   5.401
12164TIP3   OH236448   0.122   0.266   3.138
12164TIP3    H136449   0.096   0.292   3.227
12164TIP3    H236450   0.163   0.180   3.150
12165TIP3   OH236451   6.471   6.041   5.816
12165TIP3    H136452   6.512   6.119   5.779
12165TIP3    H236453   6.521   6.022   5.895
12166TIP3   OH236454   0.552   6.032   4.568
12166TIP3    H136455   0.635   6.019   4.613
12166TIP3    H236456   0.572   6.015   4.476
12167TIP3   OH236457   6.544   1.776   3.086
12167TIP3    H136458   6.526   1.796   2.994
12167TIP3    H236459   6.554   1.681   3.088
12168TIP3   OH236460   2.832   3.527   0.598
12168TIP3    H136461   2.915   3.561   0.567
12168TIP3    H236462   2.833   3.434   0.573
12169TIP3   OH236463   3.069   2.751   3.529
12169TIP3    H136464   3.020   2.775   3.608
12169TIP3    H236465   3.019   2.791   3.457
12170TIP3   OH236466   3.586   0.397   5.743
12170TIP3    H136467   3.503   0.423   5.783
12170TIP3    H236468   3.624   0.334   5.804
12171TIP3   OH236469   5.723   2.902   4.858
12171TIP3    H136470   5.722   2.856   4.942
12171TIP3    H236471   5.735   2.994   4.880
12172TIP3   OH236472   0.364   5.806   1.659
12172TIP3    H136473   0.457   5.819   1.681
12172TIP3    H236474   0.365   5.777   1.568
12173TIP3   OH236475   5.019   2.515   0.580
12173TIP3    H136476   5.011   2.576   0.506
12173TIP3    H236477   5.002   2.568   0.657
12174TIP3   OH236478   2.346   3.388   4.427
12174TIP3    H136479   2.276   3.326   4.407
12174TIP3    H236480   2.422   3.333   4.448
12175TIP3   OH236481   6.825   6.026   2.134
12175TIP3    H136482   6.742   6.020   2.182
12175TIP3    H236483   6.831   6.118   2.109
12176TIP3   OH236484   1.168   3.412   1.141
12176TIP3    H136485   1.264   3.411   1.146
12176TIP3    H236486   1.139   3.378   1.226
12177TIP3   OH236487   7.407   3.118   1.912
12177TIP3    H136488   7.445   3.126   1.824
12177TIP3    H236489   7.349   3.042   1.905
12178TIP3   OH236490   4.369   5.350   3.811
12178TIP3    H136491   4.274   5.355   3.821
12178TIP3    H236492   4.401   5.434   3.844
12179TIP3   OH236493   5.219   2.730   3.383
12179TIP3    H136494   5.134   2.685   3.393
12179TIP3    H236495   5.217   2.765   3.295
12180TIP3   OH236496   6.385   2.566   3.670
12180TIP3    H136497   6.373   2.514   3.749
12180TIP3    H236498   6.480   2.564   3.654
12181TIP3   OH236499   2.004   0.373   4.757
12181TIP3    H136500   1.991   0.380   4.851
12181TIP3    H236501   2.001   0.464   4.726
12182TIP3   OH236502   7.920   7.265   1.073
12182TIP3    H136503   8.014   7.282   1.082
12182TIP3    H236504   7.880   7.308   1.149
12183TIP3   OH236505   0.933   0.185   3.447
12183TIP3    H136506   0.901   0.163   3.535
12183TIP3    H236507   0.979   0.268   3.458
12184TIP3   OH236508   2.307   4.904   5.987
12184TIP3    H136509   2.289   4.902   6.081
12184TIP3    H236510   2.401   4.922   5.981
12185TIP3   OH236511   4.816   2.233   6.155
12185TIP3    H136512   4.787   2.302   6.096
12185TIP3    H236513   4.786   2.260   6.242
12186TIP3   OH236514   0.631   6.627   6.724
12186TIP3    H136515   0.575   6.591   6.793
12186TIP3    H236516   0.572   6.640   6.650
12187TIP3   OH236517   3.045   7.456   3.458
12187TIP3    H136518   3.139   7.472   3.448
12187TIP3    H236519   3.039   7.390   3.527
12188TIP3   OH236520   2.026   3.299   4.376
12188TIP3    H136521   1.986   3.379   4.342
12188TIP3    H236522   1.955   3.255   4.424
12189TIP3   OH236523   1.271   7.206   0.403
12189TIP3    H136524   1.311   7.292   0.415
12189TIP3    H236525   1.181   7.218   0.433
12190TIP3   OH236526   5.961   0.567   1.882
12190TIP3    H136527   5.921   0.609   1.806
12190TIP3    H236528   6.045   0.535   1.850
12191TIP3   OH236529   5.148   1.963   6.050
12191TIP3    H136530   5.173   2.048   6.015
12191TIP3    H236531   5.228   1.911   6.048
12192TIP3   OH236532   4.589   4.576   2.747
12192TIP3    H136533   4.586   4.671   2.745
12192TIP3    H236534   4.501   4.549   2.773
12193TIP3   OH236535   7.928   1.321   1.273
12193TIP3    H136536   7.913   1.273   1.192
12193TIP3    H236537   8.023   1.313   1.289
12194TIP3   OH236538   4.481   1.830   4.507
12194TIP3    H136539   4.453   1.899   4.568
12194TIP3    H236540   4.565   1.801   4.541
12195TIP3   OH236541   5.822   3.381   5.097
12195TIP3    H136542   5.828   3.469   5.060
12195TIP3    H236543   5.754   3.387   5.164
12196TIP3   OH236544   6.720   2.047   4.230
12196TIP3    H136545   6.668   2.113   4.183
12196TIP3    H236546   6.674   1.964   4.213
12197TIP3   OH236547   1.884   5.814   2.192
12197TIP3    H136548   1.966   5.841   2.150
12197TIP3    H236549   1.817   5.864   2.145
12198TIP3   OH236550   6.195   4.469   0.369
12198TIP3    H136551   6.285   4.460   0.338
12198TIP3    H236552   6.166   4.555   0.338
12199TIP3   OH236553   3.110   6.474   2.402
12199TIP3    H136554   3.065   6.486   2.318
12199TIP3    H236555   3.067   6.537   2.461
12200TIP3   OH236556   2.704   2.680   1.086
12200TIP3    H136557   2.767   2.715   1.023
12200TIP3    H236558   2.677   2.596   1.050
12201TIP3   OH236559   2.597   5.132   5.671
12201TIP3    H136560   2.651   5.210   5.658
12201TIP3    H236561   2.606   5.083   5.589
12202TIP3   OH236562   6.357   5.440   5.368
12202TIP3    H136563   6.386   5.510   5.310
12202TIP3    H236564   6.268   5.466   5.393
12203TIP3   OH236565   1.593   6.597   1.494
12203TIP3    H136566   1.516   6.605   1.437
12203TIP3    H236567   1.667   6.598   1.434
12204TIP3   OH236568   0.620   3.819   0.447
12204TIP3    H136569   0.692   3.867   0.407
12204TIP3    H236570   0.553   3.885   0.464
12205TIP3   OH236571   7.837   5.080   6.117
12205TIP3    H136572   7.777   5.052   6.186
12205TIP3    H236573   7.923   5.046   6.143
12206TIP3   OH236574   7.278   3.761   3.246
12206TIP3    H136575   7.309   3.770   3.156
12206TIP3    H236576   7.269   3.666   3.258
12207TIP3   OH236577   4.336   2.206   2.450
12207TIP3    H136578   4.424   2.221   2.414
12207TIP3    H236579   4.340   2.117   2.486
12208TIP3   OH236580   8.014   0.224   6.522
12208TIP3    H136581   7.962   0.152   6.485
12208TIP3    H236582   8.075   0.248   6.453
12209TIP3   OH236583   1.946   6.829   2.393
12209TIP3    H136584   1.972   6.905   2.445
12209TIP3    H236585   1.878   6.786   2.446
12210TIP3   OH236586   8.061   7.388   2.773
12210TIP3    H136587   7.991   7.454   2.778
12210TIP3    H236588   8.135   7.427   2.819
12211TIP3   OH236589   2.270   2.047   1.537
12211TIP3    H136590   2.356   2.057   1.578
12211TIP3    H236591   2.244   2.136   1.515
12212TIP3   OH236592   1.564   2.334   5.900
12212TIP3    H136593   1.518   2.417   5.910
12212TIP3    H236594   1.513   2.286   5.834
12213TIP3   OH236595   1.704   7.174   1.886
12213TIP3    H136596   1.752   7.128   1.955
12213TIP3    H236597   1.746   7.144   1.805
12214TIP3   OH236598   6.802   2.589   3.050
12214TIP3    H136599   6.855   2.611   3.127
12214TIP3    H236600   6.805   2.667   2.995
12215TIP3   OH236601   3.441   4.684   4.607
12215TIP3    H136602   3.427   4.593   4.583
12215TIP3    H236603   3.509   4.715   4.546
12216TIP3   OH236604   3.258   5.488   0.635
12216TIP3    H136605   3.354   5.484   0.637
12216TIP3    H236606   3.238   5.581   0.624
12217TIP3   OH236607   7.790   1.064   3.954
12217TIP3    H136608   7.744   1.002   3.898
12217TIP3    H236609   7.732   1.077   4.029
12218TIP3   OH236610   2.378   0.437   4.054
12218TIP3    H136611   2.293   0.479   4.069
12218TIP3    H236612   2.439   0.510   4.043
12219TIP3   OH236613   5.192   3.306   5.752
12219TIP3    H136614   5.220   3.356   5.829
12219TIP3    H236615   5.238   3.222   5.760
12220TIP3   OH236616   3.932   4.553   3.007
12220TIP3    H136617   3.907   4.559   2.914
12220TIP3    H236618   3.853   4.519   3.050
12221TIP3   OH236619   5.436   5.654   0.397
12221TIP3    H136620   5.498   5.714   0.438
12221TIP3    H236621   5.360   5.708   0.376
12222TIP3   OH236622   8.061   6.605   6.237
12222TIP3    H136623   8.061   6.587   6.143
12222TIP3    H236624   8.130   6.549   6.273
12223TIP3   OH236625   2.233   7.221   3.465
12223TIP3    H136626   2.165   7.225   3.399
12223TIP3    H236627   2.312   7.196   3.416
12224TIP3   OH236628   7.741   1.419   2.032
12224TIP3    H136629   7.698   1.341   2.066
12224TIP3    H236630   7.828   1.419   2.072
12225TIP3   OH236631   5.476   2.415   3.841
12225TIP3    H136632   5.494   2.497   3.887
12225TIP3    H236633   5.529   2.420   3.761
12226TIP3   OH236634   3.062   0.415   0.844
12226TIP3    H136635   2.978   0.399   0.887
12226TIP3    H236636   3.128   0.398   0.911
12227TIP3   OH236637   3.977   7.139   4.592
12227TIP3    H136638   4.071   7.130   4.578
12227TIP3    H236639   3.939   7.138   4.505
12228TIP3   OH236640   2.894   1.485   0.582
12228TIP3    H136641   2.876   1.454   0.493
12228TIP3    H236642   2.947   1.563   0.570
12229TIP3   OH236643   6.276   5.064   4.078
12229TIP3    H136644   6.297   4.974   4.052
12229TIP3    H236645   6.200   5.055   4.136
12230TIP3   OH236646   1.824   3.876   1.359
12230TIP3    H136647   1.869   3.957   1.336
12230TIP3    H236648   1.734   3.903   1.378
12231TIP3   OH236649   2.773   4.406   2.042
12231TIP3    H136650   2.680   4.421   2.056
12231TIP3    H236651   2.804   4.368   2.124
12232TIP3   OH236652   8.124   1.768   4.733
12232TIP3    H136653   8.045   1.821   4.739
12232TIP3    H236654   8.092   1.678   4.726
12233TIP3   OH236655   5.615   7.783   1.025
12233TIP3    H136656   5.668   7.742   1.093
12233TIP3    H236657   5.678   7.826   0.967
12234TIP3   OH236658   1.629   2.133   2.521
12234TIP3    H136659   1.709   2.171   2.555
12234TIP3    H236660   1.559   2.185   2.561
12235TIP3   OH236661   5.738   5.375   1.140
12235TIP3    H136662   5.729   5.465   1.109
12235TIP3    H236663   5.832   5.358   1.140
12236TIP3   OH236664   7.228   0.646   1.748
12236TIP3    H136665   7.183   0.577   1.698
12236TIP3    H236666   7.158   0.705   1.776
12237TIP3   OH236667   1.860   0.973   2.148
12237TIP3    H136668   1.916   1.042   2.185
12237TIP3    H236669   1.796   0.955   2.217
12238TIP3   OH236670   6.232   6.704   2.356
12238TIP3    H136671   6.193   6.704   2.268
12238TIP3    H236672   6.324   6.726   2.341
12239TIP3   OH236673   4.040   0.525   0.758
12239TIP3    H136674   4.007   0.599   0.809
12239TIP3    H236675   3.981   0.519   0.683
12240TIP3   OH236676   8.041   3.931   3.981
12240TIP3    H136677   8.130   3.959   4.003
12240TIP3    H236678   8.002   3.909   4.066
12241TIP3   OH236679   1.993   3.843   4.855
12241TIP3    H136680   1.917   3.898   4.872
12241TIP3    H236681   1.974   3.762   4.903
12242TIP3   OH236682   4.005   4.063   6.628
12242TIP3    H136683   4.046   3.977   6.638
12242TIP3    H236684   4.050   4.119   6.691
12243TIP3   OH236685   2.627   0.400   4.755
12243TIP3    H136686   2.533   0.414   4.750
12243TIP3    H236687   2.640   0.310   4.724
12244TIP3   OH236688   3.986   3.215   4.824
12244TIP3    H136689   3.912   3.261   4.863
12244TIP3    H236690   3.946   3.147   4.769
12245TIP3   OH236691   6.661   0.911   4.933
12245TIP3    H136692   6.615   0.994   4.920
12245TIP3    H236693   6.592   0.845   4.938
12246TIP3   OH236694   2.168   4.994   3.713
12246TIP3    H136695   2.196   5.085   3.714
12246TIP3    H236696   2.106   4.987   3.785
12247TIP3   OH236697   2.574   7.252   6.601
12247TIP3    H136698   2.557   7.231   6.693
12247TIP3    H236699   2.653   7.307   6.603
12248TIP3   OH236700   0.931   5.086   4.927
12248TIP3    H136701   0.870   5.100   4.999
12248TIP3    H236702   0.966   5.173   4.908
12249TIP3   OH236703   0.582   3.147   3.972
12249TIP3    H136704   0.553   3.092   3.900
12249TIP3    H236705   0.527   3.225   3.967
12250TIP3   OH236706   5.428   5.562   5.607
12250TIP3    H136707   5.339   5.531   5.586
12250TIP3    H236708   5.443   5.632   5.544
12251TIP3   OH236709   0.274   6.337   4.110
12251TIP3    H136710   0.293   6.259   4.059
12251TIP3    H236711   0.288   6.311   4.201
12252TIP3   OH236712   2.160   1.840   1.197
12252TIP3    H136713   2.221   1.807   1.262
12252TIP3    H236714   2.151   1.933   1.216
12253TIP3   OH236715   5.411   2.822   4.713
12253TIP3    H136716   5.466   2.862   4.780
12253TIP3    H236717   5.474   2.783   4.651
12254TIP3   OH236718   3.759   4.804   0.443
12254TIP3    H136719   3.695   4.817   0.373
12254TIP3    H236720   3.776   4.891   0.477
12255TIP3   OH236721   7.885   2.746   6.161
12255TIP3    H136722   7.898   2.837   6.188
12255TIP3    H236723   7.805   2.747   6.108
12256TIP3   OH236724   0.031   0.476   6.724
12256TIP3    H136725   0.016   0.388   6.760
12256TIP3    H236726   0.125   0.491   6.737
12257TIP3   OH236727   2.200   6.959   4.355
12257TIP3    H136728   2.188   6.989   4.265
12257TIP3    H236729   2.217   6.865   4.347
12258TIP3   OH236730   1.419   6.027   5.518
12258TIP3    H136731   1.431   6.061   5.430
12258TIP3    H236732   1.473   5.948   5.521
12259TIP3   OH236733   0.502   0.978   3.392
12259TIP3    H136734   0.595   0.961   3.404
12259TIP3    H236735   0.460   0.940   3.470
12260TIP3   OH236736   2.055   5.720   1.403
12260TIP3    H136737   2.036   5.682   1.318
12260TIP3    H236738   2.050   5.646   1.464
12261TIP3   OH236739   4.599   1.282   4.006
12261TIP3    H136740   4.505   1.275   4.019
12261TIP3    H236741   4.616   1.376   4.000
12262TIP3   OH236742   4.400   5.390   0.173
12262TIP3    H136743   4.389   5.295   0.176
12262TIP3    H236744   4.448   5.407   0.092
12263TIP3   OH236745   4.121   7.239   3.140
12263TIP3    H136746   4.096   7.196   3.058
12263TIP3    H236747   4.042   7.236   3.194
12264TIP3   OH236748   0.893   3.678   6.432
12264TIP3    H136749   0.944   3.734   6.490
12264TIP3    H236750   0.881   3.730   6.352
12265TIP3   OH236751   6.689   3.074   1.442
12265TIP3    H136752   6.597   3.091   1.422
12265TIP3    H236753   6.704   3.119   1.525
12266TIP3   OH236754   3.832   3.135   3.817
12266TIP3    H136755   3.819   3.100   3.729
12266TIP3    H236756   3.915   3.097   3.846
12267TIP3   OH236757   3.242   3.906   5.298
12267TIP3    H136758   3.312   3.961   5.262
12267TIP3    H236759   3.259   3.819   5.262
12268TIP3   OH236760   6.931   1.097   4.805
12268TIP3    H136761   6.926   1.086   4.710
12268TIP3    H236762   6.988   1.026   4.834
12269TIP3   OH236763   8.234   5.197   4.818
12269TIP3    H136764   8.302   5.148   4.771
12269TIP3    H236765   8.262   5.196   4.909
12270TIP3   OH236766   0.931   3.967   3.078
12270TIP3    H136767   1.022   3.960   3.049
12270TIP3    H236768   0.936   4.021   3.157
12271TIP3   OH236769   1.633   5.753   5.878
12271TIP3    H136770   1.562   5.816   5.873
12271TIP3    H236771   1.702   5.799   5.927
12272TIP3   OH236772   0.989   7.508   1.296
12272TIP3    H136773   1.062   7.536   1.351
12272TIP3    H236774   1.023   7.435   1.245
12273TIP3   OH236775   0.339   2.594   6.202
12273TIP3    H136776   0.305   2.684   6.195
12273TIP3    H236777   0.430   2.600   6.174
12274TIP3   OH236778   1.836   1.329   5.655
12274TIP3    H136779   1.843   1.395   5.725
12274TIP3    H236780   1.743   1.326   5.634
12275TIP3   OH236781   5.538   1.476   0.684
12275TIP3    H136782   5.501   1.388   0.685
12275TIP3    H236783   5.631   1.464   0.668
12276TIP3   OH236784   0.726   2.669   6.389
12276TIP3    H136785   0.682   2.640   6.468
12276TIP3    H236786   0.802   2.717   6.420
12277TIP3   OH236787   5.614   1.245   3.162
12277TIP3    H136788   5.600   1.323   3.109
12277TIP3    H236789   5.652   1.278   3.243
12278TIP3   OH236790   5.279   5.721   2.859
12278TIP3    H136791   5.276   5.664   2.936
12278TIP3    H236792   5.372   5.733   2.841
12279TIP3   OH236793   7.357   5.682   6.334
12279TIP3    H136794   7.289   5.691   6.400
12279TIP3    H236795   7.335   5.602   6.286
12280TIP3   OH236796   3.564   3.555   5.964
12280TIP3    H136797   3.492   3.494   5.947
12280TIP3    H236798   3.622   3.506   6.023
12281TIP3   OH236799   4.058   3.619   0.568
12281TIP3    H136800   4.079   3.688   0.630
12281TIP3    H236801   4.057   3.662   0.483
12282TIP3   OH236802   3.481   1.792   5.013
12282TIP3    H136803   3.554   1.805   5.074
12282TIP3    H236804   3.516   1.730   4.948
12283TIP3   OH236805   0.792   5.750   4.522
12283TIP3    H136806   0.843   5.679   4.559
12283TIP3    H236807   0.801   5.822   4.584
12284TIP3   OH236808   7.040   4.894   6.259
12284TIP3    H136809   7.112   4.884   6.321
12284TIP3    H236810   7.082   4.926   6.179
12285TIP3   OH236811   7.518   0.154   0.514
12285TIP3    H136812   7.510   0.063   0.542
12285TIP3    H236813   7.488   0.205   0.589
12286TIP3   OH236814   4.467   4.093   2.660
12286TIP3    H136815   4.511   4.177   2.646
12286TIP3    H236816   4.440   4.065   2.572
12287TIP3   OH236817   3.906   3.705   4.929
12287TIP3    H136818   3.949   3.701   5.015
12287TIP3    H236819   3.917   3.796   4.902
12288TIP3   OH236820   1.255   2.428   3.263
12288TIP3    H136821   1.173   2.412   3.308
12288TIP3    H236822   1.251   2.372   3.185
12289TIP3   OH236823   2.254   0.735   2.135
12289TIP3    H136824   2.236   0.800   2.068
12289TIP3    H236825   2.236   0.651   2.093
12290TIP3   OH236826   5.749   4.130   0.711
12290TIP3    H136827   5.743   4.035   0.705
12290TIP3    H236828   5.728   4.161   0.623
12291TIP3   OH236829   1.837   2.234   1.335
12291TIP3    H136830   1.775   2.165   1.356
12291TIP3    H236831   1.900   2.233   1.407
12292TIP3   OH236832   2.024   3.441   1.284
12292TIP3    H136833   2.103   3.494   1.273
12292TIP3    H236834   2.007   3.441   1.378
12293TIP3   OH236835   3.252   6.200   0.674
12293TIP3    H136836   3.189   6.221   0.744
12293TIP3    H236837   3.335   6.236   0.706
12294TIP3   OH236838   2.939   6.817   1.795
12294TIP3    H136839   3.007   6.752   1.781
12294TIP3    H236840   2.984   6.901   1.784
12295TIP3   OH236841   7.005   6.897   6.635
12295TIP3    H136842   6.977   6.813   6.599
12295TIP3    H236843   6.989   6.891   6.729
12296TIP3   OH236844   7.288   6.114   5.380
12296TIP3    H136845   7.342   6.075   5.311
12296TIP3    H236846   7.336   6.193   5.406
12297TIP3   OH236847   4.770   7.086   5.241
12297TIP3    H136848   4.760   7.037   5.159
12297TIP3    H236849   4.825   7.029   5.296
12298TIP3   OH236850   4.763   1.199   5.131
12298TIP3    H136851   4.711   1.223   5.208
12298TIP3    H236852   4.853   1.217   5.158
12299TIP3   OH236853   7.545   7.812   6.378
12299TIP3    H136854   7.531   7.827   6.471
12299TIP3    H236855   7.472   7.755   6.351
12300TIP3   OH236856   6.914   5.967   3.544
12300TIP3    H136857   6.966   5.894   3.579
12300TIP3    H236858   6.963   6.045   3.568
12301TIP3   OH236859   0.793   7.371   1.867
12301TIP3    H136860   0.839   7.385   1.785
12301TIP3    H236861   0.719   7.431   1.864
12302TIP3   OH236862   8.084   2.767   4.915
12302TIP3    H136863   8.026   2.733   4.983
12302TIP3    H236864   8.132   2.690   4.884
12303TIP3   OH236865   2.852   3.184   6.718
12303TIP3    H136866   2.828   3.100   6.758
12303TIP3    H236867   2.938   3.168   6.679
12304TIP3   OH236868   3.780   0.588   6.678
12304TIP3    H136869   3.777   0.559   6.587
12304TIP3    H236870   3.713   0.536   6.722
12305TIP3   OH236871   1.017   0.691   4.803
12305TIP3    H136872   0.994   0.779   4.832
12305TIP3    H236873   1.006   0.636   4.881
12306TIP3   OH236874   0.753   7.162   3.965
12306TIP3    H136875   0.692   7.186   4.035
12306TIP3    H236876   0.705   7.181   3.884
12307TIP3   OH236877   3.438   7.198   6.438
12307TIP3    H136878   3.527   7.224   6.458
12307TIP3    H236879   3.447   7.119   6.384
12308TIP3   OH236880   5.042   2.096   1.998
12308TIP3    H136881   5.051   2.182   2.040
12308TIP3    H236882   4.955   2.099   1.957
12309TIP3   OH236883   4.950   1.753   0.656
12309TIP3    H136884   4.911   1.684   0.603
12309TIP3    H236885   4.989   1.707   0.731
12310TIP3   OH236886   5.729   1.105   1.679
12310TIP3    H136887   5.731   1.028   1.736
12310TIP3    H236888   5.693   1.072   1.596
12311TIP3   OH236889   5.390   3.365   6.476
12311TIP3    H136890   5.449   3.343   6.548
12311TIP3    H236891   5.305   3.330   6.503
12312TIP3   OH236892   7.015   5.714   5.716
12312TIP3    H136893   7.110   5.715   5.710
12312TIP3    H236894   6.993   5.623   5.735
12313TIP3   OH236895   3.231   3.175   5.165
12313TIP3    H136896   3.154   3.214   5.123
12313TIP3    H236897   3.235   3.087   5.130
12314TIP3   OH236898   4.416   3.748   0.486
12314TIP3    H136899   4.377   3.787   0.408
12314TIP3    H236900   4.453   3.823   0.534
12315TIP3   OH236901   0.643   6.766   5.892
12315TIP3    H136902   0.633   6.795   5.983
12315TIP3    H236903   0.609   6.677   5.891
12316TIP3   OH236904   2.724   0.283   5.006
12316TIP3    H136905   2.704   0.199   4.965
12316TIP3    H236906   2.647   0.302   5.060
12317TIP3   OH236907   7.630   4.083   3.536
12317TIP3    H136908   7.660   4.001   3.577
12317TIP3    H236909   7.535   4.077   3.538
12318TIP3   OH236910   7.878   1.345   6.114
12318TIP3    H136911   7.846   1.261   6.080
12318TIP3    H236912   7.811   1.408   6.088
12319TIP3   OH236913   0.918   3.542   3.344
12319TIP3    H136914   0.897   3.589   3.424
12319TIP3    H236915   1.011   3.522   3.352
12320TIP3   OH236916   1.712   2.024   1.829
12320TIP3    H136917   1.656   1.948   1.846
12320TIP3    H236918   1.665   2.097   1.869
12321TIP3   OH236919   7.272   5.682   5.077
12321TIP3    H136920   7.246   5.716   4.992
12321TIP3    H236921   7.240   5.591   5.078
12322TIP3   OH236922   5.629   4.372   4.234
12322TIP3    H136923   5.664   4.305   4.293
12322TIP3    H236924   5.674   4.452   4.259
12323TIP3   OH236925   6.105   6.748   4.159
12323TIP3    H136926   6.160   6.814   4.201
12323TIP3    H236927   6.143   6.664   4.186
12324TIP3   OH236928   1.421   0.484   6.301
12324TIP3    H136929   1.339   0.495   6.253
12324TIP3    H236930   1.466   0.412   6.257
12325TIP3   OH236931   5.101   6.345   2.025
12325TIP3    H136932   5.177   6.366   2.080
12325TIP3    H236933   5.097   6.418   1.962
12326TIP3   OH236934   5.954   6.448   1.274
12326TIP3    H136935   5.978   6.362   1.241
12326TIP3    H236936   5.877   6.472   1.223
12327TIP3   OH236937   3.661   4.433   1.473
12327TIP3    H136938   3.570   4.462   1.479
12327TIP3    H236939   3.694   4.473   1.393
12328TIP3   OH236940   0.993   1.562   0.237
12328TIP3    H136941   0.935   1.494   0.203
12328TIP3    H236942   0.944   1.643   0.229
12329TIP3   OH236943   6.131   5.566   2.570
12329TIP3    H136944   6.168   5.635   2.516
12329TIP3    H236945   6.109   5.496   2.507
12330TIP3   OH236946   7.760   3.372   4.172
12330TIP3    H136947   7.768   3.331   4.086
12330TIP3    H236948   7.692   3.322   4.216
12331TIP3   OH236949   4.150   0.376   1.883
12331TIP3    H136950   4.085   0.369   1.814
12331TIP3    H236951   4.110   0.331   1.958
12332TIP3   OH236952   1.624   7.167   2.994
12332TIP3    H136953   1.578   7.203   2.918
12332TIP3    H236954   1.563   7.179   3.067
12333TIP3   OH236955   6.733   6.312   0.348
12333TIP3    H136956   6.687   6.330   0.431
12333TIP3    H236957   6.754   6.219   0.353
12334TIP3   OH236958   7.533   3.386   2.874
12334TIP3    H136959   7.539   3.439   2.953
12334TIP3    H236960   7.493   3.443   2.809
12335TIP3   OH236961   1.387   7.445   0.436
12335TIP3    H136962   1.473   7.444   0.395
12335TIP3    H236963   1.363   7.537   0.442
12336TIP3   OH236964   1.268   2.927   6.534
12336TIP3    H136965   1.353   2.948   6.495
12336TIP3    H236966   1.228   3.012   6.551
12337TIP3   OH236967   5.904   1.169   4.470
12337TIP3    H136968   5.838   1.142   4.407
12337TIP3    H236969   5.980   1.193   4.417
12338TIP3   OH236970   6.819   1.860   0.817
12338TIP3    H136971   6.805   1.771   0.850
12338TIP3    H236972   6.776   1.917   0.881
12339TIP3   OH236973   3.908   3.030   4.396
12339TIP3    H136974   3.929   3.121   4.376
12339TIP3    H236975   3.992   2.984   4.393
12340TIP3   OH236976   7.113   5.319   1.480
12340TIP3    H136977   7.160   5.240   1.508
12340TIP3    H236978   7.023   5.305   1.509
12341TIP3   OH236979   1.222   6.757   0.362
12341TIP3    H136980   1.254   6.682   0.413
12341TIP3    H236981   1.291   6.823   0.370
12342TIP3   OH236982   1.000   7.170   1.871
12342TIP3    H136983   1.040   7.157   1.957
12342TIP3    H236984   0.908   7.188   1.890
12343TIP3   OH236985   3.997   1.074   4.733
12343TIP3    H136986   3.945   1.149   4.705
12343TIP3    H236987   4.059   1.060   4.662
12344TIP3   OH236988   0.436   5.189   2.246
12344TIP3    H136989   0.448   5.280   2.271
12344TIP3    H236990   0.504   5.173   2.180
12345TIP3   OH236991   4.866   5.327   6.758
12345TIP3    H136992   4.820   5.411   6.753
12345TIP3    H236993   4.799   5.265   6.787
12346TIP3   OH236994   0.040   6.661   6.028
12346TIP3    H136995   0.088   6.690   5.951
12346TIP3    H236996   0.107   6.627   6.087
12347TIP3   OH236997   7.782   1.736   1.872
12347TIP3    H136998   7.769   1.813   1.927
12347TIP3    H236999   7.765   1.662   1.930
12348TIP3   OH237000   4.274   0.675   1.339
12348TIP3    H137001   4.331   0.629   1.277
12348TIP3    H237002   4.190   0.682   1.293
12349TIP3   OH237003   5.825   4.056   5.529
12349TIP3    H137004   5.883   4.122   5.493
12349TIP3    H237005   5.749   4.054   5.470
12350TIP3   OH237006   7.719   5.710   5.386
12350TIP3    H137007   7.712   5.730   5.479
12350TIP3    H237008   7.754   5.621   5.383
12351TIP3   OH237009   1.177   3.758   1.955
12351TIP3    H137010   1.108   3.818   1.928
12351TIP3    H237011   1.186   3.774   2.049
12352TIP3   OH237012   5.079   7.441   3.346
12352TIP3    H137013   5.081   7.483   3.432
12352TIP3    H237014   5.128   7.500   3.289
12353TIP3   OH237015   4.272   0.983   4.517
12353TIP3    H137016   4.289   1.000   4.609
12353TIP3    H237017   4.224   1.060   4.487
12354TIP3   OH237018   6.775   6.290   1.992
12354TIP3    H137019   6.815   6.362   1.945
12354TIP3    H237020   6.682   6.296   1.971
12355TIP3   OH237021   6.386   1.830   2.763
12355TIP3    H137022   6.385   1.914   2.717
12355TIP3    H237023   6.370   1.852   2.855
12356TIP3   OH237024   7.708   2.355   5.993
12356TIP3    H137025   7.624   2.392   5.968
12356TIP3    H237026   7.758   2.351   5.911
12357TIP3   OH237027   3.123   0.961   1.758
12357TIP3    H137028   3.209   0.977   1.721
12357TIP3    H237029   3.084   0.894   1.702
12358TIP3   OH237030   5.841   4.919   6.296
12358TIP3    H137031   5.768   4.969   6.334
12358TIP3    H237032   5.822   4.918   6.202
12359TIP3   OH237033   0.952   6.946   5.332
12359TIP3    H137034   0.890   6.993   5.277
12359TIP3    H237035   1.024   7.008   5.346
12360TIP3   OH237036   1.811   3.632   4.387
12360TIP3    H137037   1.849   3.662   4.305
12360TIP3    H237038   1.776   3.711   4.428
12361TIP3   OH237039   6.521   2.612   1.789
12361TIP3    H137040   6.456   2.673   1.755
12361TIP3    H237041   6.574   2.589   1.713
12362TIP3   OH237042   0.231   7.738   2.487
12362TIP3    H137043   0.146   7.695   2.503
12362TIP3    H237044   0.218   7.828   2.515
12363TIP3   OH237045   7.858   3.162   1.702
12363TIP3    H137046   7.879   3.125   1.616
12363TIP3    H237047   7.869   3.257   1.690
12364TIP3   OH237048   5.896   1.284   3.882
12364TIP3    H137049   5.919   1.300   3.790
12364TIP3    H237050   5.975   1.244   3.919
12365TIP3   OH237051   7.716   0.441   1.882
12365TIP3    H137052   7.781   0.507   1.857
12365TIP3    H237053   7.650   0.489   1.931
12366TIP3   OH237054   1.894   6.022   1.066
12366TIP3    H137055   1.968   5.969   1.037
12366TIP3    H237056   1.929   6.074   1.139
12367TIP3   OH237057   6.908   6.213   5.254
12367TIP3    H137058   6.980   6.152   5.270
12367TIP3    H237059   6.949   6.288   5.210
12368TIP3   OH237060   2.945   3.532   0.982
12368TIP3    H137061   2.998   3.493   1.051
12368TIP3    H237062   2.998   3.524   0.903
12369TIP3   OH237063   5.632   3.693   0.471
12369TIP3    H137064   5.635   3.619   0.532
12369TIP3    H237065   5.618   3.770   0.527
12370TIP3   OH237066   7.680   0.920   5.000
12370TIP3    H137067   7.696   0.996   5.056
12370TIP3    H237068   7.760   0.868   5.008
12371TIP3   OH237069   3.609   0.157   3.867
12371TIP3    H137070   3.703   0.137   3.858
12371TIP3    H237071   3.572   0.081   3.909
12372TIP3   OH237072   1.132   4.439   0.863
12372TIP3    H137073   1.174   4.473   0.943
12372TIP3    H237074   1.185   4.474   0.792
12373TIP3   OH237075   3.510   0.410   1.300
12373TIP3    H137076   3.585   0.469   1.285
12373TIP3    H237077   3.484   0.382   1.212
12374TIP3   OH237078   7.947   5.365   4.146
12374TIP3    H137079   7.967   5.408   4.063
12374TIP3    H237080   7.937   5.438   4.208
12375TIP3   OH237081   1.128   0.905   0.273
12375TIP3    H137082   1.111   0.825   0.224
12375TIP3    H237083   1.106   0.883   0.364
12376TIP3   OH237084   7.836   6.733   2.829
12376TIP3    H137085   7.927   6.759   2.842
12376TIP3    H237086   7.799   6.802   2.774
12377TIP3   OH237087   8.307   7.324   1.561
12377TIP3    H137088   8.338   7.406   1.523
12377TIP3    H237089   8.212   7.336   1.569
12378TIP3   OH237090   0.773   3.386   0.188
12378TIP3    H137091   0.679   3.395   0.174
12378TIP3    H237092   0.796   3.459   0.245
12379TIP3   OH237093   0.907   5.706   3.323
12379TIP3    H137094   0.855   5.626   3.328
12379TIP3    H237095   0.871   5.754   3.249
12380TIP3   OH237096   6.975   0.322   3.837
12380TIP3    H137097   6.980   0.244   3.781
12380TIP3    H237098   6.882   0.329   3.860
12381TIP3   OH237099   3.206   1.393   3.712
12381TIP3    H137100   3.279   1.358   3.660
12381TIP3    H237101   3.133   1.335   3.690
12382TIP3   OH237102   7.224   0.952   6.718
12382TIP3    H137103   7.217   1.047   6.707
12382TIP3    H237104   7.148   0.917   6.672
12383TIP3   OH237105   6.126   5.272   6.059
12383TIP3    H137106   6.116   5.215   5.983
12383TIP3    H237107   6.220   5.273   6.076
12384TIP3   OH237108   5.657   4.667   4.314
12384TIP3    H137109   5.668   4.635   4.403
12384TIP3    H237110   5.734   4.721   4.298
12385TIP3   OH237111   0.166   2.013   0.486
12385TIP3    H137112   0.113   1.948   0.440
12385TIP3    H237113   0.146   2.095   0.441
12386TIP3   OH237114   2.679   2.514   5.906
12386TIP3    H137115   2.626   2.581   5.861
12386TIP3    H237116   2.707   2.455   5.837
12387TIP3   OH237117   7.318   3.020   4.689
12387TIP3    H137118   7.250   3.050   4.750
12387TIP3    H237119   7.388   2.988   4.745
12388TIP3   OH237120   2.862   1.597   5.526
12388TIP3    H137121   2.779   1.575   5.569
12388TIP3    H237122   2.857   1.691   5.511
12389TIP3   OH237123   1.867   6.319   0.056
12389TIP3    H137124   1.887   6.410   0.078
12389TIP3    H237125   1.881   6.313  -0.038
12390TIP3   OH237126   4.490   7.397   4.861
12390TIP3    H137127   4.527   7.383   4.948
12390TIP3    H237128   4.460   7.488   4.863
12391TIP3   OH237129   3.569   4.770   1.538
12391TIP3    H137130   3.559   4.832   1.466
12391TIP3    H237131   3.507   4.801   1.605
12392TIP3   OH237132   0.026   4.128   6.527
12392TIP3    H137133   0.065   4.041   6.521
12392TIP3    H237134   0.084   4.184   6.475
12393TIP3   OH237135   6.466   5.867   2.856
12393TIP3    H137136   6.559   5.879   2.837
12393TIP3    H237137   6.453   5.908   2.941
12394TIP3   OH237138   0.785   4.096   2.236
12394TIP3    H137139   0.819   4.179   2.202
12394TIP3    H237140   0.835   4.029   2.190
12395TIP3   OH237141   3.969   4.999   5.195
12395TIP3    H137142   4.052   5.046   5.196
12395TIP3    H237143   3.975   4.937   5.267
12396TIP3   OH237144   1.744   4.009   4.897
12396TIP3    H137145   1.712   4.079   4.840
12396TIP3    H237146   1.736   4.045   4.986
12397TIP3   OH237147   4.959   4.961   4.905
12397TIP3    H137148   5.001   4.946   4.990
12397TIP3    H237149   5.028   4.946   4.841
12398TIP3   OH237150   5.014   1.232   6.452
12398TIP3    H137151   4.960   1.303   6.417
12398TIP3    H237152   4.958   1.154   6.446
12399TIP3   OH237153   7.273   6.017   1.795
12399TIP3    H137154   7.308   5.935   1.759
12399TIP3    H237155   7.184   6.021   1.760
12400TIP3   OH237156   1.859   0.041   6.094
12400TIP3    H137157   1.798   0.026   6.166
12400TIP3    H237158   1.869   0.136   6.092
12401TIP3   OH237159   7.874   6.130   5.804
12401TIP3    H137160   7.786   6.147   5.771
12401TIP3    H237161   7.872   6.163   5.894
12402TIP3   OH237162   4.307   1.988   0.539
12402TIP3    H137163   4.227   1.998   0.488
12402TIP3    H237164   4.323   2.075   0.576
12403TIP3   OH237165   5.619   6.781   6.094
12403TIP3    H137166   5.688   6.725   6.060
12403TIP3    H237167   5.544   6.766   6.036
12404TIP3   OH237168   5.173   3.165   0.861
12404TIP3    H137169   5.165   3.074   0.891
12404TIP3    H237170   5.095   3.179   0.807
12405TIP3   OH237171   4.607   3.836   2.692
12405TIP3    H137172   4.700   3.848   2.712
12405TIP3    H237173   4.571   3.925   2.693
12406TIP3   OH237174   3.545   0.063   0.941
12406TIP3    H137175   3.638   0.072   0.925
12406TIP3    H237176   3.519  -0.016   0.893
12407TIP3   OH237177   2.081   5.999   4.420
12407TIP3    H137178   2.031   5.923   4.389
12407TIP3    H237179   2.154   6.006   4.359
12408TIP3   OH237180   1.099   0.138   2.589
12408TIP3    H137181   1.058   0.150   2.504
12408TIP3    H237182   1.050   0.067   2.630
12409TIP3   OH237183   4.330   1.519   5.524
12409TIP3    H137184   4.295   1.571   5.451
12409TIP3    H237185   4.402   1.571   5.559
12410TIP3   OH237186   5.670   5.599   3.324
12410TIP3    H137187   5.753   5.557   3.346
12410TIP3    H237188   5.681   5.629   3.234
12411TIP3   OH237189   3.095   7.108   5.791
12411TIP3    H137190   3.036   7.156   5.849
12411TIP3    H237191   3.058   7.120   5.703
12412TIP3   OH237192   5.077   7.750   1.909
12412TIP3    H137193   5.014   7.711   1.848
12412TIP3    H237194   5.073   7.844   1.892
12413TIP3   OH237195   4.946   4.145   0.139
12413TIP3    H137196   4.954   4.052   0.117
12413TIP3    H237197   4.851   4.160   0.142
12414TIP3   OH237198   3.353   5.034   2.095
12414TIP3    H137199   3.442   5.069   2.102
12414TIP3    H237200   3.299   5.096   2.144
12415TIP3   OH237201   5.908   0.078   0.927
12415TIP3    H137202   5.842   0.138   0.962
12415TIP3    H237203   5.902   0.089   0.832
12416TIP3   OH237204   7.347   1.044   3.884
12416TIP3    H137205   7.265   0.996   3.891
12416TIP3    H237206   7.323   1.135   3.900
12417TIP3   OH237207   3.890   6.911   5.657
12417TIP3    H137208   3.958   6.895   5.591
12417TIP3    H237209   3.863   7.002   5.641
12418TIP3   OH237210   3.418   7.109   1.238
12418TIP3    H137211   3.479   7.180   1.261
12418TIP3    H237212   3.399   7.066   1.321
12419TIP3   OH237213   2.458   7.702   5.595
12419TIP3    H137214   2.396   7.739   5.658
12419TIP3    H237215   2.428   7.735   5.510
12420TIP3   OH237216   7.439   0.328   5.648
12420TIP3    H137217   7.532   0.333   5.624
12420TIP3    H237218   7.433   0.378   5.730
12421TIP3   OH237219   3.054   5.356   3.843
12421TIP3    H137220   2.978   5.405   3.814
12421TIP3    H237221   3.018   5.279   3.888
12422TIP3   OH237222   2.004   0.508   2.763
12422TIP3    H137223   1.949   0.559   2.823
12422TIP3    H237224   1.984   0.417   2.784
12423TIP3   OH237225   1.903   2.476   0.789
12423TIP3    H137226   1.814   2.463   0.821
12423TIP3    H237227   1.954   2.492   0.869
12424TIP3   OH237228   2.023   4.709   5.400
12424TIP3    H137229   1.959   4.726   5.469
12424TIP3    H237230   1.992   4.761   5.326
12425TIP3   OH237231   2.677   4.909   5.471
12425TIP3    H137232   2.666   4.814   5.472
12425TIP3    H237233   2.637   4.938   5.389
12426TIP3   OH237234   7.757   1.166   1.073
12426TIP3    H137235   7.843   1.158   1.030
12426TIP3    H237236   7.728   1.076   1.084
12427TIP3   OH237237   5.505   2.612   0.248
12427TIP3    H137238   5.481   2.685   0.192
12427TIP3    H237239   5.461   2.536   0.209
12428TIP3   OH237240   3.495   0.233   2.779
12428TIP3    H137241   3.565   0.168   2.788
12428TIP3    H237242   3.440   0.219   2.856
12429TIP3   OH237243   2.912   6.440   1.180
12429TIP3    H137244   2.869   6.509   1.230
12429TIP3    H237245   2.855   6.427   1.104
12430TIP3   OH237246   6.672   6.003   4.035
12430TIP3    H137247   6.598   6.041   4.082
12430TIP3    H237248   6.670   6.046   3.949
12431TIP3   OH237249   0.003   0.817   0.476
12431TIP3    H137250  -0.040   0.788   0.556
12431TIP3    H237251   0.043   0.901   0.500
12432TIP3   OH237252   4.789   5.320   0.921
12432TIP3    H137253   4.864   5.380   0.920
12432TIP3    H237254   4.818   5.247   0.975
12433TIP3   OH237255   6.158   2.681   1.186
12433TIP3    H137256   6.098   2.715   1.252
12433TIP3    H237257   6.132   2.590   1.176
12434TIP3   OH237258   1.354   7.774   6.663
12434TIP3    H137259   1.283   7.711   6.647
12434TIP3    H237260   1.426   7.722   6.697
12435TIP3   OH237261   8.249   0.380   5.177
12435TIP3    H137262   8.242   0.431   5.096
12435TIP3    H237263   8.315   0.314   5.159
12436TIP3   OH237264   2.025   5.240   2.979
12436TIP3    H137265   2.022   5.319   3.032
12436TIP3    H237266   2.111   5.201   2.998
12437TIP3   OH237267   6.129   7.097   5.182
12437TIP3    H137268   6.092   7.131   5.263
12437TIP3    H237269   6.221   7.080   5.203
12438TIP3   OH237270   5.887   4.675   0.554
12438TIP3    H137271   5.880   4.751   0.496
12438TIP3    H237272   5.804   4.629   0.543
12439TIP3   OH237273   0.347   4.026   1.365
12439TIP3    H137274   0.290   4.065   1.431
12439TIP3    H237275   0.290   3.970   1.314
12440TIP3   OH237276   5.688   7.480   0.886
12440TIP3    H137277   5.697   7.460   0.979
12440TIP3    H237278   5.595   7.495   0.873
12441TIP3   OH237279   7.591   6.221   2.665
12441TIP3    H137280   7.553   6.151   2.717
12441TIP3    H237281   7.644   6.177   2.599
12442TIP3   OH237282   8.154   6.909   4.018
12442TIP3    H137283   8.115   6.863   3.943
12442TIP3    H237284   8.114   6.996   4.016
12443TIP3   OH237285   0.795   6.248   0.050
12443TIP3    H137286   0.855   6.259  -0.023
12443TIP3    H237287   0.845   6.196   0.114
12444TIP3   OH237288   8.194   4.513   4.406
12444TIP3    H137289   8.160   4.481   4.489
12444TIP3    H237290   8.134   4.478   4.340
12445TIP3   OH237291   1.628   4.619   3.235
12445TIP3    H137292   1.678   4.699   3.250
12445TIP3    H237293   1.615   4.583   3.323
12446TIP3   OH237294   7.395   5.770   3.744
12446TIP3    H137295   7.462   5.838   3.755
12446TIP3    H237296   7.356   5.761   3.831
12447TIP3   OH237297   8.070   4.611   2.444
12447TIP3    H137298   7.978   4.587   2.433
12447TIP3    H237299   8.096   4.571   2.526
12448TIP3   OH237300   0.633   3.572   6.401
12448TIP3    H137301   0.708   3.625   6.374
12448TIP3    H237302   0.580   3.631   6.455
12449TIP3   OH237303   4.213   2.736   6.554
12449TIP3    H137304   4.308   2.723   6.551
12449TIP3    H237305   4.194   2.793   6.479
12450TIP3   OH237306   3.526   5.564   3.806
12450TIP3    H137307   3.478   5.598   3.730
12450TIP3    H237308   3.474   5.490   3.837
12451TIP3   OH237309   4.787   3.503   0.538
12451TIP3    H137310   4.797   3.411   0.515
12451TIP3    H237311   4.751   3.544   0.459
12452TIP3   OH237312   3.479   7.817   3.571
12452TIP3    H137313   3.523   7.732   3.566
12452TIP3    H237314   3.540   7.873   3.617
12453TIP3   OH237315   5.003   4.391   2.776
12453TIP3    H137316   5.015   4.346   2.692
12453TIP3    H237317   4.985   4.321   2.839
12454TIP3   OH237318   6.902   2.021   4.427
12454TIP3    H137319   6.835   2.026   4.359
12454TIP3    H237320   6.965   1.958   4.394
12455TIP3   OH237321   4.347   4.395   2.814
12455TIP3    H137322   4.293   4.367   2.740
12455TIP3    H237323   4.285   4.403   2.887
12456TIP3   OH237324   6.087   2.354   0.970
12456TIP3    H137325   6.020   2.355   1.038
12456TIP3    H237326   6.114   2.262   0.964
12457TIP3   OH237327   0.247   3.932   6.277
12457TIP3    H137328   0.197   3.850   6.273
12457TIP3    H237329   0.202   3.991   6.217
12458TIP3   OH237330   7.409   1.045   2.814
12458TIP3    H137331   7.408   1.049   2.910
12458TIP3    H237332   7.472   0.976   2.794
12459TIP3   OH237333   7.864   6.810   0.858
12459TIP3    H137334   7.806   6.886   0.866
12459TIP3    H237335   7.824   6.742   0.912
12460TIP3   OH237336   1.268   3.159   3.804
12460TIP3    H137337   1.344   3.102   3.817
12460TIP3    H237338   1.282   3.231   3.866
12461TIP3   OH237339   0.077   3.670   4.142
12461TIP3    H137340   0.026   3.685   4.222
12461TIP3    H237341   0.161   3.712   4.160
12462TIP3   OH237342   1.171   4.101   6.693
12462TIP3    H137343   1.164   4.102   6.598
12462TIP3    H237344   1.145   4.011   6.718
12463TIP3   OH237345   7.998   7.623   0.604
12463TIP3    H137346   7.964   7.568   0.675
12463TIP3    H237347   8.005   7.710   0.642
12464TIP3   OH237348   0.214   6.042   2.539
12464TIP3    H137349   0.137   6.071   2.490
12464TIP3    H237350   0.255   6.123   2.570
12465TIP3   OH237351   0.515   0.135   5.014
12465TIP3    H137352   0.522   0.230   5.023
12465TIP3    H237353   0.585   0.100   5.068
12466TIP3   OH237354   2.413   1.992   4.727
12466TIP3    H137355   2.385   1.959   4.813
12466TIP3    H237356   2.333   2.028   4.689
12467TIP3   OH237357   3.854   3.195   5.430
12467TIP3    H137358   3.900   3.191   5.346
12467TIP3    H237359   3.918   3.231   5.491
12468TIP3   OH237360   2.368   1.134   4.683
12468TIP3    H137361   2.336   1.078   4.613
12468TIP3    H237362   2.291   1.151   4.737
12469TIP3   OH237363   7.989   1.165   1.788
12469TIP3    H137364   7.900   1.159   1.756
12469TIP3    H237365   8.037   1.209   1.718
12470TIP3   OH237366   8.135   4.216   1.125
12470TIP3    H137367   8.064   4.209   1.189
12470TIP3    H237368   8.176   4.300   1.143
12471TIP3   OH237369   0.793   4.724   0.169
12471TIP3    H137370   0.744   4.643   0.156
12471TIP3    H237371   0.804   4.730   0.264
12472TIP3   OH237372   6.854   5.492   5.143
12472TIP3    H137373   6.847   5.529   5.231
12472TIP3    H237374   6.774   5.520   5.100
12473TIP3   OH237375   8.067   2.299   4.906
12473TIP3    H137376   8.162   2.286   4.903
12473TIP3    H237377   8.039   2.295   4.815
12474TIP3   OH237378   6.572   5.012   4.132
12474TIP3    H137379   6.495   5.056   4.166
12474TIP3    H237380   6.556   5.003   4.038
12475TIP3   OH237381   7.934   1.138   5.465
12475TIP3    H137382   7.857   1.096   5.501
12475TIP3    H237383   7.999   1.067   5.458
12476TIP3   OH237384   0.903   7.452   4.544
12476TIP3    H137385   0.947   7.525   4.586
12476TIP3    H237386   0.941   7.374   4.586
12477TIP3   OH237387   2.407   4.789   5.674
12477TIP3    H137388   2.452   4.863   5.715
12477TIP3    H237389   2.333   4.828   5.628
12478TIP3   OH237390   1.663   0.493   4.380
12478TIP3    H137391   1.582   0.496   4.328
12478TIP3    H237392   1.691   0.584   4.385
12479TIP3   OH237393   5.926   4.792   4.255
12479TIP3    H137394   6.003   4.740   4.279
12479TIP3    H237395   5.959   4.881   4.247
12480TIP3   OH237396   5.548   0.135   3.523
12480TIP3    H137397   5.636   0.163   3.499
12480TIP3    H237398   5.513   0.096   3.443
12481TIP3   OH237399   5.490   5.620   5.121
12481TIP3    H137400   5.410   5.660   5.155
12481TIP3    H237401   5.460   5.564   5.050
12482TIP3   OH237402   5.026   3.734   5.720
12482TIP3    H137403   5.068   3.735   5.806
12482TIP3    H237404   5.059   3.655   5.678
12483TIP3   OH237405   7.072   5.234   6.205
12483TIP3    H137406   7.043   5.177   6.134
12483TIP3    H237407   6.993   5.279   6.234
12484TIP3   OH237408   7.318   7.751   3.040
12484TIP3    H137409   7.288   7.837   3.012
12484TIP3    H237410   7.411   7.762   3.058
12485TIP3   OH237411   6.650   5.650   0.462
12485TIP3    H137412   6.682   5.672   0.375
12485TIP3    H237413   6.599   5.727   0.489
12486TIP3   OH237414   0.225   0.650   3.372
12486TIP3    H137415   0.150   0.622   3.424
12486TIP3    H237416   0.194   0.729   3.328
12487TIP3   OH237417   3.333   2.526   0.771
12487TIP3    H137418   3.397   2.520   0.842
12487TIP3    H237419   3.299   2.615   0.777
12488TIP3   OH237420   7.209   0.670   5.648
12488TIP3    H137421   7.154   0.728   5.595
12488TIP3    H237422   7.214   0.712   5.733
12489TIP3   OH237423   1.714   6.552   3.593
12489TIP3    H137424   1.646   6.563   3.660
12489TIP3    H237425   1.670   6.568   3.510
12490TIP3   OH237426   5.921   2.450   5.391
12490TIP3    H137427   5.937   2.505   5.314
12490TIP3    H237428   5.926   2.510   5.465
12491TIP3   OH237429   3.766   5.407   0.764
12491TIP3    H137430   3.840   5.362   0.722
12491TIP3    H237431   3.806   5.479   0.812
12492TIP3   OH237432   4.243   1.622   2.091
12492TIP3    H137433   4.266   1.671   2.170
12492TIP3    H237434   4.276   1.677   2.019
12493TIP3   OH237435   4.010   0.567   0.264
12493TIP3    H137436   3.973   0.616   0.337
12493TIP3    H237437   4.004   0.627   0.190
12494TIP3   OH237438   0.706   6.633   6.318
12494TIP3    H137439   0.762   6.707   6.341
12494TIP3    H237440   0.665   6.658   6.236
12495TIP3   OH237441   3.111   7.041   5.134
12495TIP3    H137442   3.058   7.118   5.112
12495TIP3    H237443   3.140   7.006   5.050
12496TIP3   OH237444   1.243   6.078   3.043
12496TIP3    H137445   1.270   6.164   3.012
12496TIP3    H237446   1.147   6.081   3.040
12497TIP3   OH237447   1.856   1.802   4.773
12497TIP3    H137448   1.867   1.730   4.835
12497TIP3    H237449   1.856   1.761   4.687
12498TIP3   OH237450   2.929   2.567   5.115
12498TIP3    H137451   2.975   2.611   5.187
12498TIP3    H237452   2.837   2.573   5.139
12499TIP3   OH237453   0.166   5.078   0.857
12499TIP3    H137454   0.211   5.087   0.773
12499TIP3    H237455   0.086   5.129   0.847
12500TIP3   OH237456   4.626   1.373   1.115
12500TIP3    H137457   4.651   1.438   1.181
12500TIP3    H237458   4.621   1.423   1.033
12501TIP3   OH237459   0.197   5.837   4.724
12501TIP3    H137460   0.190   5.841   4.820
12501TIP3    H237461   0.109   5.859   4.693
12502TIP3   OH237462   3.543   2.767   6.193
12502TIP3    H137463   3.471   2.778   6.131
12502TIP3    H237464   3.575   2.678   6.178
12503TIP3   OH237465   6.763   4.639   1.129
12503TIP3    H137466   6.797   4.617   1.215
12503TIP3    H237467   6.756   4.734   1.129
12504TIP3   OH237468   7.938   4.803   0.089
12504TIP3    H137469   7.843   4.787   0.089
12504TIP3    H237470   7.976   4.721   0.059
12505TIP3   OH237471   6.612   6.265   6.316
12505TIP3    H137472   6.590   6.173   6.305
12505TIP3    H237473   6.598   6.283   6.409
12506TIP3   OH237474   6.923   6.257   4.007
12506TIP3    H137475   6.927   6.347   3.977
12506TIP3    H237476   6.864   6.259   4.083
12507TIP3   OH237477   6.412   3.659   6.392
12507TIP3    H137478   6.376   3.593   6.452
12507TIP3    H237479   6.464   3.609   6.329
12508TIP3   OH237480   4.466   4.165   1.931
12508TIP3    H137481   4.450   4.186   1.839
12508TIP3    H237482   4.435   4.075   1.942
12509TIP3   OH237483   5.921   2.078   6.539
12509TIP3    H137484   5.949   2.004   6.486
12509TIP3    H237485   5.995   2.139   6.537
12510TIP3   OH237486   4.398   1.355   3.602
12510TIP3    H137487   4.432   1.288   3.542
12510TIP3    H237488   4.348   1.305   3.667
12511TIP3   OH237489   4.387   5.846   1.614
12511TIP3    H137490   4.304   5.814   1.578
12511TIP3    H237491   4.454   5.809   1.555
12512TIP3   OH237492   2.684   0.960   6.746
12512TIP3    H137493   2.695   0.884   6.804
12512TIP3    H237494   2.758   0.955   6.686
12513TIP3   OH237495   8.095   0.586   6.563
12513TIP3    H137496   8.183   0.549   6.576
12513TIP3    H237497   8.044   0.552   6.637
12514TIP3   OH237498   3.628   3.669   3.207
12514TIP3    H137499   3.624   3.749   3.260
12514TIP3    H237500   3.713   3.631   3.229
12515TIP3   OH237501   7.158   2.699   4.258
12515TIP3    H137502   7.175   2.693   4.352
12515TIP3    H237503   7.073   2.657   4.246
12516TIP3   OH237504   1.758   0.004   1.794
12516TIP3    H137505   1.682   0.052   1.827
12516TIP3    H237506   1.811   0.070   1.751
12517TIP3   OH237507   0.095   6.889   2.484
12517TIP3    H137508   0.010   6.919   2.451
12517TIP3    H237509   0.139   6.969   2.512
12518TIP3   OH237510   1.290   1.475   5.010
12518TIP3    H137511   1.319   1.386   5.031
12518TIP3    H237512   1.195   1.471   5.015
12519TIP3   OH237513   4.942   1.611   4.770
12519TIP3    H137514   5.002   1.659   4.714
12519TIP3    H237515   4.994   1.587   4.847
12520TIP3   OH237516   8.211   4.174   5.176
12520TIP3    H137517   8.284   4.231   5.198
12520TIP3    H237518   8.149   4.231   5.129
12521TIP3   OH237519   7.586   2.961   6.141
12521TIP3    H137520   7.549   2.968   6.230
12521TIP3    H237521   7.516   2.992   6.084
12522TIP3   OH237522   1.036   4.982   2.030
12522TIP3    H137523   0.955   5.007   2.075
12522TIP3    H237524   1.083   4.929   2.094
12523TIP3   OH237525   5.770   0.370   6.168
12523TIP3    H137526   5.774   0.368   6.072
12523TIP3    H237527   5.751   0.461   6.189
12524TIP3   OH237528   2.697   5.682   3.385
12524TIP3    H137529   2.648   5.619   3.437
12524TIP3    H237530   2.634   5.753   3.369
12525TIP3   OH237531   6.533   6.409   2.721
12525TIP3    H137532   6.498   6.448   2.801
12525TIP3    H237533   6.486   6.453   2.650
12526TIP3   OH237534   3.993   4.408  -0.001
12526TIP3    H137535   4.021   4.418   0.090
12526TIP3    H237536   3.957   4.320  -0.005
12527TIP3   OH237537   3.871   1.419   2.818
12527TIP3    H137538   3.948   1.365   2.801
12527TIP3    H237539   3.892   1.468   2.897
12528TIP3   OH237540   5.429   0.630   2.382
12528TIP3    H137541   5.369   0.561   2.352
12528TIP3    H237542   5.426   0.624   2.478
12529TIP3   OH237543   7.020   3.282   2.507
12529TIP3    H137544   7.013   3.264   2.601
12529TIP3    H237545   6.986   3.203   2.465
12530TIP3   OH237546   5.096   6.431   5.147
12530TIP3    H137547   5.048   6.495   5.093
12530TIP3    H237548   5.153   6.485   5.202
12531TIP3   OH237549   4.792   1.366   0.484
12531TIP3    H137550   4.838   1.440   0.444
12531TIP3    H237551   4.782   1.392   0.576
12532TIP3   OH237552   2.073   2.383   1.537
12532TIP3    H137553   2.100   2.375   1.446
12532TIP3    H237554   2.139   2.439   1.578
12533TIP3   OH237555   5.707   6.996   2.511
12533TIP3    H137556   5.790   7.035   2.541
12533TIP3    H237557   5.698   6.917   2.564
12534TIP3   OH237558   0.212   2.284   6.205
12534TIP3    H137559   0.197   2.344   6.132
12534TIP3    H237560   0.247   2.339   6.275
12535TIP3   OH237561   1.801   2.008   4.065
12535TIP3    H137562   1.765   2.045   3.984
12535TIP3    H237563   1.834   2.084   4.113
12536TIP3   OH237564   6.136   0.134   0.537
12536TIP3    H137565   6.043   0.109   0.540
12536TIP3    H237566   6.135   0.229   0.548
12537TIP3   OH237567   3.577   7.108   5.839
12537TIP3    H137568   3.627   7.089   5.918
12537TIP3    H237569   3.598   7.036   5.780
12538TIP3   OH237570   6.676   7.798   3.420
12538TIP3    H137571   6.636   7.876   3.383
12538TIP3    H237572   6.732   7.764   3.350
12539TIP3   OH237573   6.584   7.523   0.367
12539TIP3    H137574   6.644   7.472   0.313
12539TIP3    H237575   6.523   7.458   0.403
12540TIP3   OH237576   0.824   3.454   1.178
12540TIP3    H137577   0.884   3.516   1.220
12540TIP3    H237578   0.882   3.396   1.129
12541TIP3   OH237579   1.174   4.128   3.022
12541TIP3    H137580   1.175   4.189   2.948
12541TIP3    H237581   1.129   4.175   3.092
12542TIP3   OH237582   1.024   3.144   2.271
12542TIP3    H137583   0.963   3.186   2.332
12542TIP3    H237584   1.108   3.188   2.287
12543TIP3   OH237585   0.453   6.753   1.939
12543TIP3    H137586   0.423   6.836   1.904
12543TIP3    H237587   0.495   6.775   2.022
12544TIP3   OH237588   1.514   7.121   2.319
12544TIP3    H137589   1.549   7.208   2.298
12544TIP3    H237590   1.491   7.084   2.233
12545TIP3   OH237591   7.673   4.849   0.408
12545TIP3    H137592   7.644   4.849   0.317
12545TIP3    H237593   7.709   4.761   0.422
12546TIP3   OH237594   0.402   3.804   4.451
12546TIP3    H137595   0.341   3.862   4.497
12546TIP3    H237596   0.359   3.787   4.367
12547TIP3   OH237597   6.054   1.873   3.380
12547TIP3    H137598   5.975   1.865   3.433
12547TIP3    H237599   6.126   1.852   3.439
12548TIP3   OH237600   2.028   0.995   5.051
12548TIP3    H137601   2.067   1.067   5.101
12548TIP3    H237602   2.015   0.925   5.115
12549TIP3   OH237603   6.821   2.315   2.945
12549TIP3    H137604   6.793   2.367   3.020
12549TIP3    H237605   6.917   2.310   2.955
12550TIP3   OH237606   4.658   1.467   5.295
12550TIP3    H137607   4.567   1.497   5.288
12550TIP3    H237608   4.660   1.415   5.375
12551TIP3   OH237609   3.124   1.371   1.559
12551TIP3    H137610   3.055   1.324   1.605
12551TIP3    H237611   3.173   1.415   1.628
12552TIP3   OH237612   4.194   3.512   5.022
12552TIP3    H137613   4.189   3.514   4.927
12552TIP3    H237614   4.182   3.603   5.049
12553TIP3   OH237615   0.037   3.071   3.888
12553TIP3    H137616  -0.058   3.073   3.880
12553TIP3    H237617   0.055   3.092   3.980
12554TIP3   OH237618   7.163   6.435   5.273
12554TIP3    H137619   7.148   6.411   5.364
12554TIP3    H237620   7.123   6.522   5.264
12555TIP3   OH237621   6.717   3.285   0.429
12555TIP3    H137622   6.658   3.338   0.374
12555TIP3    H237623   6.658   3.231   0.482
12556TIP3   OH237624   0.409   1.942   3.499
12556TIP3    H137625   0.415   1.984   3.413
12556TIP3    H237626   0.324   1.898   3.499
12557TIP3   OH237627   3.565   1.634   3.056
12557TIP3    H137628   3.510   1.682   2.995
12557TIP3    H237629   3.544   1.670   3.142
12558TIP3   OH237630   8.184   5.667   4.335
12558TIP3    H137631   8.142   5.744   4.298
12558TIP3    H237632   8.227   5.698   4.415
12559TIP3   OH237633   0.618   2.772   1.512
12559TIP3    H137634   0.543   2.819   1.548
12559TIP3    H237635   0.687   2.838   1.506
12560TIP3   OH237636   7.583   0.803   4.388
12560TIP3    H137637   7.556   0.763   4.305
12560TIP3    H237638   7.568   0.734   4.453
12561TIP3   OH237639   5.814   3.282   2.032
12561TIP3    H137640   5.811   3.333   2.113
12561TIP3    H237641   5.832   3.192   2.061
12562TIP3   OH237642   6.546   3.813   4.462
12562TIP3    H137643   6.596   3.735   4.488
12562TIP3    H237644   6.564   3.822   4.369
12563TIP3   OH237645   3.461   4.107   2.193
12563TIP3    H137646   3.471   4.012   2.197
12563TIP3    H237647   3.542   4.138   2.152
12564TIP3   OH237648   4.582   1.521   6.753
12564TIP3    H137649   4.504   1.533   6.699
12564TIP3    H237650   4.553   1.547   6.841
12565TIP3   OH237651   6.599   1.801   2.302
12565TIP3    H137652   6.664   1.826   2.237
12565TIP3    H237653   6.525   1.860   2.286
12566TIP3   OH237654   0.522   6.567   3.775
12566TIP3    H137655   0.493   6.567   3.866
12566TIP3    H237656   0.485   6.648   3.739
12567TIP3   OH237657   3.569   6.167   0.034
12567TIP3    H137658   3.490   6.141  -0.015
12567TIP3    H237659   3.601   6.085   0.072
12568TIP3   OH237660   1.273   4.897   4.925
12568TIP3    H137661   1.335   4.904   4.852
12568TIP3    H237662   1.328   4.882   5.001
12569TIP3   OH237663   5.673   2.194   6.635
12569TIP3    H137664   5.601   2.134   6.656
12569TIP3    H237665   5.732   2.144   6.579
12570TIP3   OH237666   2.540   2.451   1.004
12570TIP3    H137667   2.472   2.483   0.945
12570TIP3    H237668   2.549   2.358   0.983
12571TIP3   OH237669   7.729   3.760   4.355
12571TIP3    H137670   7.796   3.727   4.415
12571TIP3    H237671   7.777   3.814   4.293
12572TIP3   OH237672   2.930   2.291   3.285
12572TIP3    H137673   2.962   2.204   3.259
12572TIP3    H237674   2.835   2.281   3.290
12573TIP3   OH237675   6.108   7.619   3.107
12573TIP3    H137676   6.098   7.573   3.191
12573TIP3    H237677   6.202   7.635   3.100
12574TIP3   OH237678   8.303   6.506   4.698
12574TIP3    H137679   8.249   6.578   4.730
12574TIP3    H237680   8.259   6.475   4.620
12575TIP3   OH237681   7.333   3.239   4.509
12575TIP3    H137682   7.249   3.207   4.478
12575TIP3    H237683   7.351   3.188   4.588
12576TIP3   OH237684   2.958   6.510   0.458
12576TIP3    H137685   3.027   6.509   0.391
12576TIP3    H237686   2.993   6.567   0.527
12577TIP3   OH237687   0.504   2.080   1.522
12577TIP3    H137688   0.576   2.097   1.583
12577TIP3    H237689   0.457   2.163   1.516
12578TIP3   OH237690   4.149   3.195   2.898
12578TIP3    H137691   4.097   3.125   2.860
12578TIP3    H237692   4.108   3.276   2.867
12579TIP3   OH237693   5.136   6.324   3.693
12579TIP3    H137694   5.084   6.284   3.624
12579TIP3    H237695   5.122   6.418   3.682
12580TIP3   OH237696   3.687   1.629   4.110
12580TIP3    H137697   3.669   1.610   4.202
12580TIP3    H237698   3.626   1.574   4.061
12581TIP3   OH237699   0.279   0.706   3.749
12581TIP3    H137700   0.231   0.774   3.796
12581TIP3    H237701   0.357   0.691   3.802
12582TIP3   OH237702   7.024   7.199   5.134
12582TIP3    H137703   6.996   7.177   5.223
12582TIP3    H237704   6.999   7.122   5.082
12583TIP3   OH237705   3.381   4.505   1.303
12583TIP3    H137706   3.339   4.579   1.348
12583TIP3    H237707   3.432   4.545   1.233
12584TIP3   OH237708   6.274   6.853   4.961
12584TIP3    H137709   6.340   6.882   4.897
12584TIP3    H237710   6.315   6.778   5.004
12585TIP3   OH237711   5.210   2.025   5.704
12585TIP3    H137712   5.163   1.945   5.730
12585TIP3    H237713   5.242   2.062   5.787
12586TIP3   OH237714   3.402   3.388   0.880
12586TIP3    H137715   3.454   3.309   0.866
12586TIP3    H237716   3.403   3.401   0.975
12587TIP3   OH237717   5.563   2.365   1.486
12587TIP3    H137718   5.519   2.420   1.421
12587TIP3    H237719   5.493   2.308   1.519
12588TIP3   OH237720   0.424   6.485   2.001
12588TIP3    H137721   0.461   6.464   2.087
12588TIP3    H237722   0.420   6.580   1.999
12589TIP3   OH237723   2.955   7.040   4.581
12589TIP3    H137724   2.889   7.023   4.649
12589TIP3    H237725   3.037   7.049   4.629
12590TIP3   OH237726   1.164   2.607   1.640
12590TIP3    H137727   1.092   2.545   1.639
12590TIP3    H237728   1.243   2.552   1.630
12591TIP3   OH237729   7.259   3.490   1.109
12591TIP3    H137730   7.329   3.488   1.043
12591TIP3    H237731   7.256   3.401   1.143
12592TIP3   OH237732   2.960   0.956   1.369
12592TIP3    H137733   3.041   0.976   1.415
12592TIP3    H237734   2.928   1.042   1.340
12593TIP3   OH237735   5.829   7.182   4.984
12593TIP3    H137736   5.774   7.119   4.937
12593TIP3    H237737   5.828   7.260   4.929
12594TIP3   OH237738   0.567   6.497   1.068
12594TIP3    H137739   0.474   6.508   1.084
12594TIP3    H237740   0.578   6.519   0.975
12595TIP3   OH237741   2.401   0.911   1.462
12595TIP3    H137742   2.349   0.872   1.392
12595TIP3    H237743   2.342   0.976   1.502
12596TIP3   OH237744   3.099   6.329   4.058
12596TIP3    H137745   3.140   6.244   4.076
12596TIP3    H237746   3.154   6.392   4.104
12597TIP3   OH237747   7.741   6.093   4.817
12597TIP3    H137748   7.721   6.025   4.881
12597TIP3    H237749   7.780   6.046   4.743
12598TIP3   OH237750   7.957   0.564   5.446
12598TIP3    H137751   7.977   0.471   5.432
12598TIP3    H237752   7.974   0.578   5.540
12599TIP3   OH237753   6.457   0.872   2.106
12599TIP3    H137754   6.367   0.855   2.081
12599TIP3    H237755   6.461   0.966   2.122
12600TIP3   OH237756   6.707   0.071   1.828
12600TIP3    H137757   6.697   0.017   1.750
12600TIP3    H237758   6.694   0.011   1.901
12601TIP3   OH237759   0.408   1.441   4.594
12601TIP3    H137760   0.452   1.512   4.640
12601TIP3    H237761   0.407   1.368   4.656
12602TIP3   OH237762   2.671   5.200   4.452
12602TIP3    H137763   2.652   5.260   4.380
12602TIP3    H237764   2.733   5.137   4.415
12603TIP3   OH237765   8.114   5.052   0.164
12603TIP3    H137766   8.176   5.074   0.233
12603TIP3    H237767   8.085   5.137   0.131
12604TIP3   OH237768   0.865   2.017   6.310
12604TIP3    H137769   0.826   1.972   6.385
12604TIP3    H237770   0.864   2.109   6.334
12605TIP3   OH237771   2.694   6.766   5.523
12605TIP3    H137772   2.713   6.841   5.467
12605TIP3    H237773   2.707   6.799   5.612
12606TIP3   OH237774   7.665   0.801   2.387
12606TIP3    H137775   7.619   0.883   2.403
12606TIP3    H237776   7.754   0.816   2.420
12607TIP3   OH237777   2.394   6.865   2.907
12607TIP3    H137778   2.322   6.910   2.951
12607TIP3    H237779   2.422   6.797   2.968
12608TIP3   OH237780   7.777   3.748   5.512
12608TIP3    H137781   7.820   3.802   5.445
12608TIP3    H237782   7.847   3.691   5.545
12609TIP3   OH237783   1.061   5.329   0.376
12609TIP3    H137784   1.051   5.382   0.297
12609TIP3    H237785   0.971   5.306   0.401
12610TIP3   OH237786   7.325   0.266   0.177
12610TIP3    H137787   7.245   0.223   0.207
12610TIP3    H237788   7.325   0.254   0.082
12611TIP3   OH237789   6.402   6.552   2.914
12611TIP3    H137790   6.416   6.628   2.970
12611TIP3    H237791   6.311   6.561   2.884
12612TIP3   OH237792   2.836   4.958   2.855
12612TIP3    H137793   2.827   4.950   2.760
12612TIP3    H237794   2.874   5.045   2.868
12613TIP3   OH237795   1.382   3.679   3.909
12613TIP3    H137796   1.428   3.702   3.990
12613TIP3    H237797   1.303   3.732   3.911
12614TIP3   OH237798   5.726   3.939   6.363
12614TIP3    H137799   5.693   3.855   6.330
12614TIP3    H237800   5.752   3.987   6.285
12615TIP3   OH237801   2.969   0.196   3.520
12615TIP3    H137802   3.041   0.139   3.546
12615TIP3    H237803   2.912   0.141   3.466
12616TIP3   OH237804   3.598   7.002   0.099
12616TIP3    H137805   3.647   7.008   0.181
12616TIP3    H237806   3.574   7.093   0.079
12617TIP3   OH237807   5.598   7.508   3.300
12617TIP3    H137808   5.595   7.493   3.206
12617TIP3    H237809   5.591   7.603   3.310
12618TIP3   OH237810   5.154   4.612   5.176
12618TIP3    H137811   5.163   4.611   5.271
12618TIP3    H237812   5.196   4.531   5.147
12619TIP3   OH237813   6.535   3.759   2.230
12619TIP3    H137814   6.537   3.771   2.325
12619TIP3    H237815   6.627   3.756   2.205
12620TIP3   OH237816   6.150   1.808   2.361
12620TIP3    H137817   6.126   1.865   2.435
12620TIP3    H237818   6.122   1.721   2.389
12621TIP3   OH237819   6.895   6.709   1.600
12621TIP3    H137820   6.806   6.741   1.614
12621TIP3    H237821   6.951   6.785   1.616
12622TIP3   OH237822   8.166   3.147   3.181
12622TIP3    H137823   8.206   3.202   3.113
12622TIP3    H237824   8.237   3.090   3.210
12623TIP3   OH237825   6.573   0.010   4.867
12623TIP3    H137826   6.538   0.098   4.878
12623TIP3    H237827   6.507  -0.048   4.904
12624TIP3   OH237828   0.846   6.715   2.910
12624TIP3    H137829   0.891   6.715   2.995
12624TIP3    H237830   0.762   6.757   2.928
12625TIP3   OH237831   6.127   5.282   5.109
12625TIP3    H137832   6.094   5.257   5.196
12625TIP3    H237833   6.048   5.287   5.055
12626TIP3   OH237834   5.497   3.627   5.974
12626TIP3    H137835   5.455   3.703   6.015
12626TIP3    H237836   5.504   3.651   5.882
12627TIP3   OH237837   7.818   0.677   1.266
12627TIP3    H137838   7.742   0.633   1.304
12627TIP3    H237839   7.891   0.651   1.322
12628TIP3   OH237840   8.086   0.321   4.296
12628TIP3    H137841   8.057   0.324   4.387
12628TIP3    H237842   8.049   0.240   4.262
12629TIP3   OH237843   3.050   0.217   5.055
12629TIP3    H137844   2.957   0.238   5.048
12629TIP3    H237845   3.073   0.181   4.970
12630TIP3   OH237846   7.032   5.559   2.665
12630TIP3    H137847   7.112   5.507   2.665
12630TIP3    H237848   7.007   5.567   2.573
12631TIP3   OH237849   6.095   3.161   4.356
12631TIP3    H137850   6.184   3.186   4.330
12631TIP3    H237851   6.052   3.244   4.376
12632TIP3   OH237852   2.402   6.758   3.584
12632TIP3    H137853   2.409   6.693   3.514
12632TIP3    H237854   2.424   6.841   3.540
12633TIP3   OH237855   1.828   7.171   2.573
12633TIP3    H137856   1.918   7.145   2.553
12633TIP3    H237857   1.799   7.218   2.495
12634TIP3   OH237858   2.294   1.187   6.522
12634TIP3    H137859   2.321   1.230   6.603
12634TIP3    H237860   2.305   1.094   6.538
12635TIP3   OH237861   7.624   7.161   4.538
12635TIP3    H137862   7.672   7.156   4.621
12635TIP3    H237863   7.540   7.120   4.557
12636TIP3   OH237864   3.618   2.329   4.463
12636TIP3    H137865   3.607   2.235   4.451
12636TIP3    H237866   3.536   2.367   4.432
12637TIP3   OH237867   3.669   5.265   0.192
12637TIP3    H137868   3.643   5.265   0.100
12637TIP3    H237869   3.695   5.355   0.210
12638TIP3   OH237870   3.060   5.980   1.158
12638TIP3    H137871   3.098   6.059   1.119
12638TIP3    H237872   3.109   5.908   1.120
12639TIP3   OH237873   0.902   7.503   3.994
12639TIP3    H137874   0.924   7.410   4.003
12639TIP3    H237875   0.926   7.541   4.079
12640TIP3   OH237876   3.574   2.030   6.234
12640TIP3    H137877   3.657   2.044   6.189
12640TIP3    H237878   3.574   1.937   6.257
12641TIP3   OH237879   5.177   4.571   0.545
12641TIP3    H137880   5.171   4.614   0.460
12641TIP3    H237881   5.251   4.612   0.588
12642TIP3   OH237882   0.493   1.675   0.970
12642TIP3    H137883   0.500   1.580   0.958
12642TIP3    H237884   0.403   1.690   0.996
12643TIP3   OH237885   1.010   3.071   3.075
12643TIP3    H137886   1.038   3.025   2.996
12643TIP3    H237887   1.087   3.069   3.132
12644TIP3   OH237888   6.674   7.673   5.129
12644TIP3    H137889   6.599   7.718   5.091
12644TIP3    H237890   6.726   7.743   5.170
12645TIP3   OH237891   7.573   7.232   2.863
12645TIP3    H137892   7.484   7.259   2.844
12645TIP3    H237893   7.609   7.205   2.779
12646TIP3   OH237894   7.237   7.390   5.634
12646TIP3    H137895   7.278   7.304   5.633
12646TIP3    H237896   7.245   7.420   5.725
12647TIP3   OH237897   3.796   6.642   5.677
12647TIP3    H137898   3.875   6.594   5.703
12647TIP3    H237899   3.828   6.717   5.628
12648TIP3   OH237900   2.715   7.662   4.778
12648TIP3    H137901   2.800   7.621   4.769
12648TIP3    H237902   2.669   7.609   4.843
12649TIP3   OH237903   6.833   5.886   5.185
12649TIP3    H137904   6.833   5.853   5.275
12649TIP3    H237905   6.914   5.934   5.177
12650TIP3   OH237906   3.235   0.521   4.124
12650TIP3    H137907   3.272   0.433   4.132
12650TIP3    H237908   3.148   0.514   4.164
12651TIP3   OH237909   8.195   0.550   3.890
12651TIP3    H137910   8.270   0.517   3.840
12651TIP3    H237911   8.123   0.549   3.827
12652TIP3   OH237912   5.313   5.211   4.723
12652TIP3    H137913   5.297   5.220   4.817
12652TIP3    H237914   5.239   5.256   4.682
12653TIP3   OH237915   0.127   6.664   3.576
12653TIP3    H137916   0.123   6.661   3.481
12653TIP3    H237917   0.201   6.722   3.596
12654TIP3   OH237918   2.566   1.691   4.002
12654TIP3    H137919   2.543   1.780   3.976
12654TIP3    H237920   2.650   1.700   4.048
12655TIP3   OH237921   3.586   6.796   2.527
12655TIP3    H137922   3.656   6.834   2.475
12655TIP3    H237923   3.617   6.802   2.618
12656TIP3   OH237924   5.817   3.474   1.684
12656TIP3    H137925   5.739   3.528   1.684
12656TIP3    H237926   5.885   3.529   1.644
12657TIP3   OH237927   5.160   5.466   2.293
12657TIP3    H137928   5.236   5.429   2.248
12657TIP3    H237929   5.086   5.443   2.236
12658TIP3   OH237930   0.885   6.847   0.763
12658TIP3    H137931   0.822   6.799   0.709
12658TIP3    H237932   0.969   6.806   0.744
12659TIP3   OH237933   5.517   2.984   3.385
12659TIP3    H137934   5.593   3.036   3.410
12659TIP3    H237935   5.510   2.918   3.454
12660TIP3   OH237936   0.498   1.791   6.648
12660TIP3    H137937   0.415   1.794   6.602
12660TIP3    H237938   0.515   1.697   6.661
12661TIP3   OH237939   7.226   6.301   3.904
12661TIP3    H137940   7.212   6.394   3.888
12661TIP3    H237941   7.172   6.281   3.981
12662TIP3   OH237942   7.315   7.084   2.139
12662TIP3    H137943   7.379   7.155   2.141
12662TIP3    H237944   7.356   7.018   2.083
12663TIP3   OH237945   3.991   0.981   2.278
12663TIP3    H137946   3.987   0.888   2.302
12663TIP3    H237947   4.077   1.010   2.306
12664TIP3   OH237948   5.394   4.001   2.740
12664TIP3    H137949   5.433   4.039   2.662
12664TIP3    H237950   5.443   4.038   2.813
12665TIP3   OH237951   4.069   5.272   3.264
12665TIP3    H137952   4.149   5.312   3.297
12665TIP3    H237953   4.023   5.343   3.220
12666TIP3   OH237954   6.574   7.445   5.226
12666TIP3    H137955   6.602   7.536   5.218
12666TIP3    H237956   6.481   7.447   5.205
12667TIP3   OH237957   8.055   0.223   2.817
12667TIP3    H137958   8.076   0.312   2.787
12667TIP3    H237959   7.960   0.224   2.829
12668TIP3   OH237960   6.325   6.967   1.475
12668TIP3    H137961   6.346   7.056   1.504
12668TIP3    H237962   6.232   6.970   1.455
12669TIP3   OH237963   6.842   3.318   1.287
12669TIP3    H137964   6.919   3.317   1.343
12669TIP3    H237965   6.783   3.253   1.326
12670TIP3   OH237966   1.565   5.859   0.756
12670TIP3    H137967   1.642   5.882   0.705
12670TIP3    H237968   1.592   5.871   0.847
12671TIP3   OH237969   6.533   4.735   4.394
12671TIP3    H137970   6.623   4.736   4.426
12671TIP3    H237971   6.517   4.643   4.370
12672TIP3   OH237972   6.286   0.889   6.667
12672TIP3    H137973   6.286   0.867   6.760
12672TIP3    H237974   6.375   0.867   6.638
12673TIP3   OH237975   0.374   2.966   3.080
12673TIP3    H137976   0.406   2.902   3.017
12673TIP3    H237977   0.443   2.969   3.147
12674TIP3   OH237978   1.156   7.815   2.053
12674TIP3    H137979   1.174   7.779   1.967
12674TIP3    H237980   1.075   7.773   2.081
12675TIP3   OH237981   1.671   0.516   0.967
12675TIP3    H137982   1.718   0.572   0.905
12675TIP3    H237983   1.674   0.429   0.928
12676TIP3   OH237984   4.215   4.744   1.554
12676TIP3    H137985   4.131   4.740   1.509
12676TIP3    H237986   4.193   4.762   1.645
12677TIP3   OH237987   6.276   1.959   3.020
12677TIP3    H137988   6.181   1.958   3.032
12677TIP3    H237989   6.297   2.051   3.003
12678TIP3   OH237990   2.517   0.516   3.170
12678TIP3    H137991   2.455   0.584   3.198
12678TIP3    H237992   2.477   0.434   3.200
12679TIP3   OH237993   3.393   6.834   1.084
12679TIP3    H137994   3.452   6.769   1.121
12679TIP3    H237995   3.409   6.913   1.135
12680TIP3   OH237996   6.845   0.916   2.249
12680TIP3    H137997   6.906   0.969   2.300
12680TIP3    H237998   6.771   0.899   2.307
12681TIP3   OH237999   3.048   1.343   1.014
12681TIP3    H138000   2.985   1.320   0.945
12681TIP3    H238001   3.037   1.437   1.027
12682TIP3   OH238002   0.849   4.901   4.176
12682TIP3    H138003   0.892   4.902   4.262
12682TIP3    H238004   0.914   4.938   4.116
12683TIP3   OH238005   5.917   1.666   2.375
12683TIP3    H138006   5.908   1.580   2.334
12683TIP3    H238007   5.930   1.647   2.468
12684TIP3   OH238008   4.093   7.349   0.977
12684TIP3    H138009   4.099   7.321   1.069
12684TIP3    H238010   4.127   7.438   0.977
12685TIP3   OH238011   5.042   1.357   5.811
12685TIP3    H138012   4.979   1.426   5.835
12685TIP3    H238013   5.020   1.284   5.869
12686TIP3   OH238014   6.444   5.314   1.634
12686TIP3    H138015   6.440   5.343   1.725
12686TIP3    H238016   6.354   5.290   1.612
12687TIP3   OH238017   2.854   5.223   6.214
12687TIP3    H138018   2.801   5.284   6.162
12687TIP3    H238019   2.791   5.161   6.250
12688TIP3   OH238020   3.624   0.499   5.013
12688TIP3    H138021   3.707   0.454   4.994
12688TIP3    H238022   3.606   0.551   4.934
12689TIP3   OH238023   1.390   6.964   0.328
12689TIP3    H138024   1.333   7.038   0.346
12689TIP3    H238025   1.468   7.002   0.288
12690TIP3   OH238026   3.531   6.870   0.819
12690TIP3    H138027   3.472   6.805   0.857
12690TIP3    H238028   3.582   6.821   0.754
12691TIP3   OH238029   3.420   6.885   2.240
12691TIP3    H138030   3.436   6.957   2.301
12691TIP3    H238031   3.360   6.923   2.175
12692TIP3   OH238032   0.435   2.943   4.896
12692TIP3    H138033   0.453   2.913   4.807
12692TIP3    H238034   0.522   2.951   4.937
12693TIP3   OH238035   1.938   6.700   3.619
12693TIP3    H138036   1.877   6.637   3.657
12693TIP3    H238037   1.909   6.712   3.529
12694TIP3   OH238038   2.475   0.064   6.356
12694TIP3    H138039   2.485   0.009   6.434
12694TIP3    H238040   2.460   0.001   6.285
12695TIP3   OH238041   5.003   2.808   1.471
12695TIP3    H138042   5.069   2.739   1.470
12695TIP3    H238043   4.922   2.765   1.446
12696TIP3   OH238044   3.143   4.353   3.388
12696TIP3    H138045   3.121   4.428   3.333
12696TIP3    H238046   3.156   4.391   3.475
12697TIP3   OH238047   5.610   7.146   2.142
12697TIP3    H138048   5.544   7.179   2.204
12697TIP3    H238049   5.666   7.222   2.124
12698TIP3   OH238050   0.340   4.604   4.210
12698TIP3    H138051   0.252   4.634   4.236
12698TIP3    H238052   0.397   4.680   4.227
12699TIP3   OH238053   3.747   0.322   1.946
12699TIP3    H138054   3.776   0.242   1.988
12699TIP3    H238055   3.654   0.307   1.927
12700TIP3   OH238056   2.832   4.308   3.044
12700TIP3    H138057   2.768   4.237   3.052
12700TIP3    H238058   2.917   4.264   3.045
12701TIP3   OH238059   3.415   4.206   5.388
12701TIP3    H138060   3.435   4.151   5.313
12701TIP3    H238061   3.341   4.260   5.360
12702TIP3   OH238062   1.557   2.583   2.256
12702TIP3    H138063   1.633   2.629   2.220
12702TIP3    H238064   1.582   2.490   2.254
12703TIP3   OH238065   6.158   4.023   1.105
12703TIP3    H138066   6.098   4.004   1.177
12703TIP3    H238067   6.176   4.117   1.113
12704TIP3   OH238068   2.405   5.097   0.639
12704TIP3    H138069   2.415   5.002   0.626
12704TIP3    H238070   2.425   5.110   0.731
12705TIP3   OH238071   4.082   4.540   4.938
12705TIP3    H138072   4.077   4.631   4.907
12705TIP3    H238073   4.062   4.488   4.861
12706TIP3   OH238074   3.075   3.392   5.023
12706TIP3    H138075   3.120   3.400   4.939
12706TIP3    H238076   3.017   3.316   5.012
12707TIP3   OH238077   2.786   7.754   2.282
12707TIP3    H138078   2.706   7.703   2.271
12707TIP3    H238079   2.847   7.717   2.219
12708TIP3   OH238080   7.522   5.834   5.553
12708TIP3    H138081   7.531   5.899   5.484
12708TIP3    H238082   7.582   5.864   5.622
12709TIP3   OH238083   3.556   3.337   6.584
12709TIP3    H138084   3.621   3.397   6.549
12709TIP3    H238085   3.553   3.264   6.521
12710TIP3   OH238086   5.572   7.119   0.690
12710TIP3    H138087   5.498   7.176   0.671
12710TIP3    H238088   5.647   7.178   0.700
12711TIP3   OH238089   1.835   0.613   4.984
12711TIP3    H138090   1.774   0.686   4.994
12711TIP3    H238091   1.864   0.618   4.893
12712TIP3   OH238092   4.302   5.035   2.556
12712TIP3    H138093   4.271   4.948   2.581
12712TIP3    H238094   4.328   5.076   2.639
12713TIP3   OH238095   0.193   7.166   0.952
12713TIP3    H138096   0.246   7.161   1.031
12713TIP3    H238097   0.204   7.256   0.920
12714TIP3   OH238098   2.248   6.703   4.008
12714TIP3    H138099   2.296   6.786   4.017
12714TIP3    H238100   2.313   6.635   4.027
12715TIP3   OH238101   7.730   6.074   0.741
12715TIP3    H138102   7.657   6.068   0.802
12715TIP3    H238103   7.808   6.074   0.797
12716TIP3   OH238104   7.781   4.980   2.579
12716TIP3    H138105   7.850   4.924   2.613
12716TIP3    H238106   7.827   5.044   2.524
12717TIP3   OH238107   5.134   3.450   1.314
12717TIP3    H138108   5.105   3.469   1.224
12717TIP3    H238109   5.228   3.464   1.312
12718TIP3   OH238110   0.463   1.001   5.706
12718TIP3    H138111   0.369   0.982   5.698
12718TIP3    H238112   0.476   1.079   5.653
12719TIP3   OH238113   7.886   6.238   5.028
12719TIP3    H138114   7.895   6.224   4.934
12719TIP3    H238115   7.807   6.190   5.053
12720TIP3   OH238116   6.053   4.170   4.198
12720TIP3    H138117   6.030   4.132   4.283
12720TIP3    H238118   5.978   4.153   4.142
12721TIP3   OH238119   1.822   6.564   5.544
12721TIP3    H138120   1.893   6.534   5.488
12721TIP3    H238121   1.828   6.659   5.543
12722TIP3   OH238122   5.473   5.549   4.438
12722TIP3    H138123   5.551   5.578   4.390
12722TIP3    H238124   5.451   5.464   4.399
12723TIP3   OH238125   3.385   2.248   6.206
12723TIP3    H138126   3.334   2.178   6.165
12723TIP3    H238127   3.470   2.208   6.223
12724TIP3   OH238128   4.796   2.431   1.824
12724TIP3    H138129   4.712   2.454   1.784
12724TIP3    H238130   4.774   2.363   1.888
12725TIP3   OH238131   6.325   6.837   5.717
12725TIP3    H138132   6.337   6.842   5.811
12725TIP3    H238133   6.293   6.748   5.701
12726TIP3   OH238134   7.925   7.511   0.281
12726TIP3    H138135   7.935   7.581   0.346
12726TIP3    H238136   7.837   7.477   0.296
12727TIP3   OH238137   2.260   5.554   5.413
12727TIP3    H138138   2.181   5.567   5.360
12727TIP3    H238139   2.317   5.500   5.359
12728TIP3   OH238140   3.368   3.522   1.625
12728TIP3    H138141   3.422   3.560   1.694
12728TIP3    H238142   3.427   3.515   1.550
12729TIP3   OH238143   1.930   0.972   1.625
12729TIP3    H138144   1.919   0.984   1.531
12729TIP3    H238145   1.863   0.908   1.649
12730TIP3   OH238146   4.010   3.188   5.211
12730TIP3    H138147   4.074   3.259   5.221
12730TIP3    H238148   4.003   3.175   5.117
12731TIP3   OH238149   3.716   6.376   5.713
12731TIP3    H138150   3.737   6.468   5.728
12731TIP3    H238151   3.733   6.334   5.798
12732TIP3   OH238152   1.787   6.257   0.939
12732TIP3    H138153   1.873   6.297   0.920
12732TIP3    H238154   1.802   6.163   0.933
12733TIP3   OH238155   0.477   7.329   2.180
12733TIP3    H138156   0.511   7.397   2.238
12733TIP3    H238157   0.552   7.274   2.160
12734TIP3   OH238158   5.785   3.293   3.716
12734TIP3    H138159   5.770   3.316   3.808
12734TIP3    H238160   5.787   3.377   3.670
12735TIP3   OH238161   6.010   5.498   2.799
12735TIP3    H138162   6.054   5.519   2.717
12735TIP3    H238163   5.925   5.541   2.793
12736TIP3   OH238164   5.359   5.597   0.880
12736TIP3    H138165   5.393   5.522   0.830
12736TIP3    H238166   5.351   5.667   0.815
12737TIP3   OH238167   6.281   3.559   0.198
12737TIP3    H138168   6.300   3.520   0.113
12737TIP3    H238169   6.338   3.635   0.204
12738TIP3   OH238170   1.299   6.725   2.427
12738TIP3    H138171   1.331   6.734   2.338
12738TIP3    H238172   1.260   6.810   2.447
12739TIP3   OH238173   3.933   2.689   6.344
12739TIP3    H138174   3.956   2.626   6.276
12739TIP3    H238175   3.925   2.636   6.423
12740TIP3   OH238176   4.670   5.987   3.717
12740TIP3    H138177   4.765   5.973   3.716
12740TIP3    H238178   4.637   5.919   3.776
12741TIP3   OH238179   8.031   4.481   2.679
12741TIP3    H138180   8.092   4.473   2.752
12741TIP3    H238181   7.947   4.502   2.719
12742TIP3   OH238182   5.942   4.065   4.454
12742TIP3    H138183   5.920   4.135   4.515
12742TIP3    H238184   5.906   3.986   4.496
12743TIP3   OH238185   3.390   0.249   5.876
12743TIP3    H138186   3.396   0.277   5.967
12743TIP3    H238187   3.296   0.252   5.855
12744TIP3   OH238188   1.110   4.651   1.398
12744TIP3    H138189   1.092   4.568   1.443
12744TIP3    H238190   1.064   4.717   1.451
12745TIP3   OH238191   1.410   0.271   6.582
12745TIP3    H138192   1.316   0.287   6.576
12745TIP3    H238193   1.435   0.243   6.493
12746TIP3   OH238194   6.716   4.454   5.285
12746TIP3    H138195   6.699   4.476   5.377
12746TIP3    H238196   6.701   4.536   5.238
12747TIP3   OH238197   0.839   7.438   3.341
12747TIP3    H138198   0.899   7.406   3.274
12747TIP3    H238199   0.822   7.361   3.396
12748TIP3   OH238200   5.193   5.438   0.105
12748TIP3    H138201   5.285   5.450   0.080
12748TIP3    H238202   5.176   5.508   0.167
12749TIP3   OH238203   2.859   5.864   3.813
12749TIP3    H138204   2.935   5.817   3.847
12749TIP3    H238205   2.889   5.954   3.801
12750TIP3   OH238206   5.182   6.259   3.946
12750TIP3    H138207   5.143   6.173   3.961
12750TIP3    H238208   5.153   6.283   3.858
12751TIP3   OH238209   6.350   6.182   1.618
12751TIP3    H138210   6.349   6.270   1.655
12751TIP3    H238211   6.315   6.192   1.529
12752TIP3   OH238212   0.365   2.250   2.117
12752TIP3    H138213   0.331   2.259   2.028
12752TIP3    H238214   0.287   2.240   2.172
12753TIP3   OH238215   3.287   6.294   2.324
12753TIP3    H138216   3.278   6.281   2.230
12753TIP3    H238217   3.235   6.372   2.343
12754TIP3   OH238218   2.995   7.200   6.021
12754TIP3    H138219   2.921   7.217   6.079
12754TIP3    H238220   3.060   7.156   6.076
12755TIP3   OH238221   7.933   4.199   0.648
12755TIP3    H138222   7.967   4.287   0.666
12755TIP3    H238223   7.893   4.206   0.561
12756TIP3   OH238224   5.519   3.397   3.148
12756TIP3    H138225   5.533   3.488   3.121
12756TIP3    H238226   5.425   3.391   3.163
12757TIP3   OH238227   3.292   1.079   0.992
12757TIP3    H138228   3.271   1.098   1.084
12757TIP3    H238229   3.315   0.986   0.991
12758TIP3   OH238230   7.978   6.137   2.153
12758TIP3    H138231   7.912   6.073   2.126
12758TIP3    H238232   8.055   6.084   2.176
12759TIP3   OH238233   7.546   4.215   4.981
12759TIP3    H138234   7.533   4.305   5.012
12759TIP3    H238235   7.611   4.222   4.912
12760TIP3   OH238236   3.120   4.032   1.540
12760TIP3    H138237   3.131   4.104   1.602
12760TIP3    H238238   3.030   4.040   1.508
12761TIP3   OH238239   1.581   3.709   6.536
12761TIP3    H138240   1.593   3.672   6.624
12761TIP3    H238241   1.604   3.637   6.477
12762TIP3   OH238242   3.686   3.257   2.818
12762TIP3    H138243   3.670   3.168   2.848
12762TIP3    H238244   3.636   3.265   2.736
12763TIP3   OH238245   1.178   1.085   4.062
12763TIP3    H138246   1.217   1.009   4.020
12763TIP3    H238247   1.092   1.055   4.091
12764TIP3   OH238248   4.446   3.886   1.773
12764TIP3    H138249   4.504   3.875   1.848
12764TIP3    H238250   4.453   3.804   1.725
12765TIP3   OH238251   3.951   7.340   2.003
12765TIP3    H138252   3.880   7.401   2.025
12765TIP3    H238253   3.910   7.254   2.011
12766TIP3   OH238254   2.895   6.619   6.615
12766TIP3    H138255   2.857   6.707   6.619
12766TIP3    H238256   2.943   6.617   6.532
12767TIP3   OH238257   6.516   4.411   3.014
12767TIP3    H138258   6.439   4.355   3.023
12767TIP3    H238259   6.548   4.423   3.104
12768TIP3   OH238260   7.703   7.596   5.824
12768TIP3    H138261   7.747   7.622   5.743
12768TIP3    H238262   7.649   7.672   5.847
12769TIP3   OH238263   7.615   4.556   1.035
12769TIP3    H138264   7.612   4.623   0.966
12769TIP3    H238265   7.555   4.488   1.006
12770TIP3   OH238266   3.868   6.299   3.838
12770TIP3    H138267   3.802   6.255   3.784
12770TIP3    H238268   3.920   6.228   3.875
12771TIP3   OH238269   6.927   6.283   0.706
12771TIP3    H138270   6.853   6.230   0.675
12771TIP3    H238271   6.926   6.271   0.801
12772TIP3   OH238272   3.051   6.169   4.507
12772TIP3    H138273   3.007   6.189   4.590
12772TIP3    H238274   3.138   6.139   4.533
12773TIP3   OH238275   7.727   1.240   6.726
12773TIP3    H138276   7.691   1.328   6.728
12773TIP3    H238277   7.652   1.183   6.742
12774TIP3   OH238278   0.009   5.041   6.334
12774TIP3    H138279  -0.075   5.005   6.363
12774TIP3    H238280   0.066   4.964   6.328
12775TIP3   OH238281   1.834   7.805   3.679
12775TIP3    H138282   1.905   7.744   3.663
12775TIP3    H238283   1.877   7.890   3.689
12776TIP3   OH238284   0.814   0.276   6.210
12776TIP3    H138285   0.909   0.273   6.218
12776TIP3    H238286   0.782   0.232   6.289
12777TIP3   OH238287   2.595   5.191   5.080
12777TIP3    H138288   2.520   5.202   5.022
12777TIP3    H238289   2.591   5.099   5.107
12778TIP3   OH238290   0.728   0.862   0.173
12778TIP3    H138291   0.759   0.950   0.156
12778TIP3    H238292   0.713   0.859   0.267
12779TIP3   OH238293   3.678   1.396   3.480
12779TIP3    H138294   3.670   1.334   3.407
12779TIP3    H238295   3.757   1.369   3.526
12780TIP3   OH238296   7.448   6.432   1.741
12780TIP3    H138297   7.358   6.398   1.750
12780TIP3    H238298   7.486   6.381   1.671
12781TIP3   OH238299   0.142   7.488   1.055
12781TIP3    H138300   0.209   7.516   1.117
12781TIP3    H238301   0.065   7.470   1.109
12782TIP3   OH238302   5.904   4.329   4.646
12782TIP3    H138303   5.838   4.354   4.711
12782TIP3    H238304   5.963   4.270   4.693
12783TIP3   OH238305   1.538   1.545   3.976
12783TIP3    H138306   1.444   1.561   3.986
12783TIP3    H238307   1.576   1.572   4.060
12784TIP3   OH238308   3.008   3.386   4.378
12784TIP3    H138309   2.912   3.392   4.386
12784TIP3    H238310   3.022   3.351   4.290
12785TIP3   OH238311   3.064   0.717   0.891
12785TIP3    H138312   3.077   0.734   0.985
12785TIP3    H238313   3.116   0.638   0.874
12786TIP3   OH238314   4.164   7.344   5.573
12786TIP3    H138315   4.230   7.296   5.522
12786TIP3    H238316   4.125   7.278   5.630
12787TIP3   OH238317   3.948   6.047   3.931
12787TIP3    H138318   3.908   5.967   3.896
12787TIP3    H238319   3.916   6.052   4.021
12788TIP3   OH238320   4.217   1.760   4.592
12788TIP3    H138321   4.175   1.682   4.556
12788TIP3    H238322   4.296   1.772   4.539
12789TIP3   OH238323   4.043   6.537   3.239
12789TIP3    H138324   4.097   6.473   3.285
12789TIP3    H238325   4.013   6.597   3.307
12790TIP3   OH238326   3.520   1.254   0.380
12790TIP3    H138327   3.609   1.288   0.391
12790TIP3    H238328   3.473   1.324   0.335
12791TIP3   OH238329   4.652   4.309   2.661
12791TIP3    H138330   4.726   4.314   2.722
12791TIP3    H238331   4.618   4.398   2.658
12792TIP3   OH238332   0.545   5.926   0.401
12792TIP3    H138333   0.543   5.841   0.356
12792TIP3    H238334   0.555   5.990   0.331
12793TIP3   OH238335   2.286   7.184   5.704
12793TIP3    H138336   2.360   7.171   5.763
12793TIP3    H238337   2.281   7.279   5.692
12794TIP3   OH238338   5.394   5.094   2.019
12794TIP3    H138339   5.347   5.163   2.066
12794TIP3    H238340   5.435   5.042   2.087
12795TIP3   OH238341   8.231   0.063   4.256
12795TIP3    H138342   8.152   0.097   4.213
12795TIP3    H238343   8.273   0.008   4.189
12796TIP3   OH238344   7.250   3.265   0.852
12796TIP3    H138345   7.221   3.270   0.944
12796TIP3    H238346   7.171   3.245   0.803
12797TIP3   OH238347   5.872   0.453   5.896
12797TIP3    H138348   5.957   0.436   5.856
12797TIP3    H238349   5.866   0.548   5.902
12798TIP3   OH238350   5.009   4.539   2.444
12798TIP3    H138351   5.006   4.446   2.465
12798TIP3    H238352   5.095   4.568   2.475
12799TIP3   OH238353   6.979   7.679   6.754
12799TIP3    H138354   6.903   7.732   6.730
12799TIP3    H238355   6.942   7.595   6.781
12800TIP3   OH238356   6.439   4.659   1.739
12800TIP3    H138357   6.443   4.565   1.722
12800TIP3    H238358   6.447   4.667   1.834
12801TIP3   OH238359   3.387   1.706   1.143
12801TIP3    H138360   3.410   1.620   1.108
12801TIP3    H238361   3.294   1.716   1.124
12802TIP3   OH238362   2.702   7.783   3.251
12802TIP3    H138363   2.672   7.873   3.236
12802TIP3    H238364   2.628   7.740   3.295
12803TIP3   OH238365   7.521   6.014   3.846
12803TIP3    H138366   7.550   6.101   3.821
12803TIP3    H238367   7.599   5.971   3.880
12804TIP3   OH238368   7.642   1.322   1.270
12804TIP3    H138369   7.654   1.270   1.190
12804TIP3    H238370   7.730   1.328   1.308
12805TIP3   OH238371   7.209   0.662   1.384
12805TIP3    H138372   7.295   0.688   1.352
12805TIP3    H238373   7.193   0.718   1.460
12806TIP3   OH238374   2.426   0.039   0.189
12806TIP3    H138375   2.364   0.109   0.169
12806TIP3    H238376   2.391  -0.002   0.268
12807TIP3   OH238377   3.611   6.624   1.184
12807TIP3    H138378   3.599   6.576   1.266
12807TIP3    H238379   3.588   6.561   1.115
12808TIP3   OH238380   6.782   4.586   3.074
12808TIP3    H138381   6.702   4.579   3.127
12808TIP3    H238382   6.783   4.506   3.021
12809TIP3   OH238383   5.416   4.850   2.446
12809TIP3    H138384   5.359   4.778   2.473
12809TIP3    H238385   5.366   4.895   2.378
12810TIP3   OH238386   6.836   4.955   5.054
12810TIP3    H138387   6.877   4.958   5.140
12810TIP3    H238388   6.751   4.997   5.066
12811TIP3   OH238389   5.524   7.285   4.955
12811TIP3    H138390   5.434   7.296   4.985
12811TIP3    H238391   5.568   7.365   4.983
12812TIP3   OH238392   4.197   0.728   2.308
12812TIP3    H138393   4.203   0.771   2.223
12812TIP3    H238394   4.106   0.700   2.315
12813TIP3   OH238395   6.137   2.296   6.532
12813TIP3    H138396   6.199   2.357   6.573
12813TIP3    H238397   6.057   2.348   6.522
12814TIP3   OH238398   8.109   4.431   3.832
12814TIP3    H138399   8.070   4.354   3.793
12814TIP3    H238400   8.197   4.404   3.858
12815TIP3   OH238401   3.676   5.250   1.246
12815TIP3    H138402   3.738   5.323   1.256
12815TIP3    H238403   3.591   5.286   1.271
12816TIP3   OH238404   1.644   7.386   6.177
12816TIP3    H138405   1.663   7.298   6.211
12816TIP3    H238406   1.613   7.435   6.254
12817TIP3   OH238407   6.832   6.710   4.071
12817TIP3    H138408   6.873   6.769   4.133
12817TIP3    H238409   6.738   6.717   4.090
12818TIP3   OH238410   6.496   0.399   0.477
12818TIP3    H138411   6.561   0.463   0.505
12818TIP3    H238412   6.425   0.450   0.440
12819TIP3   OH238413   5.996   6.332   2.683
12819TIP3    H138414   6.041   6.377   2.611
12819TIP3    H238415   5.913   6.379   2.693
12820TIP3   OH238416   6.023   2.561   2.698
12820TIP3    H138417   6.109   2.595   2.671
12820TIP3    H238418   5.997   2.618   2.770
12821TIP3   OH238419   6.361   7.111   4.623
12821TIP3    H138420   6.414   7.048   4.671
12821TIP3    H238421   6.295   7.140   4.686
12822TIP3   OH238422   7.777   4.594   0.353
12822TIP3    H138423   7.775   4.542   0.272
12822TIP3    H238424   7.870   4.608   0.370
12823TIP3   OH238425   3.113   2.503   3.567
12823TIP3    H138426   3.174   2.465   3.630
12823TIP3    H238427   3.103   2.594   3.595
12824TIP3   OH238428   4.973   3.480   5.845
12824TIP3    H138429   5.039   3.516   5.905
12824TIP3    H238430   5.011   3.397   5.816
12825TIP3   OH238431   2.332   6.642   2.741
12825TIP3    H138432   2.250   6.629   2.789
12825TIP3    H238433   2.368   6.724   2.777
12826TIP3   OH238434   1.463   0.202   0.061
12826TIP3    H138435   1.516   0.199   0.141
12826TIP3    H238436   1.526   0.188  -0.010
12827TIP3   OH238437   0.061   1.869   5.649
12827TIP3    H138438  -0.019   1.889   5.600
12827TIP3    H238439   0.054   1.776   5.670
12828TIP3   OH238440   0.301   6.464   1.135
12828TIP3    H138441   0.241   6.516   1.188
12828TIP3    H238442   0.305   6.380   1.180
12829TIP3   OH238443   1.797   4.147   5.449
12829TIP3    H138444   1.754   4.206   5.387
12829TIP3    H238445   1.874   4.196   5.479
12830TIP3   OH238446   3.121   2.829   3.828
12830TIP3    H138447   3.042   2.790   3.866
12830TIP3    H238448   3.185   2.827   3.899
12831TIP3   OH238449   0.522   2.659   4.241
12831TIP3    H138450   0.511   2.640   4.148
12831TIP3    H238451   0.611   2.628   4.261
12832TIP3   OH238452   6.011   5.429   3.056
12832TIP3    H138453   6.016   5.452   2.963
12832TIP3    H238454   6.043   5.339   3.059
12833TIP3   OH238455   3.403   3.847   4.051
12833TIP3    H138456   3.380   3.829   4.142
12833TIP3    H238457   3.326   3.893   4.016
12834TIP3   OH238458   3.653   1.912   0.318
12834TIP3    H138459   3.559   1.930   0.323
12834TIP3    H238460   3.689   1.985   0.268
12835TIP3   OH238461   7.924   1.579   3.165
12835TIP3    H138462   7.868   1.502   3.176
12835TIP3    H238463   8.005   1.544   3.128
12836TIP3   OH238464   4.545   3.691   5.297
12836TIP3    H138465   4.567   3.678   5.390
12836TIP3    H238466   4.603   3.631   5.250
12837TIP3   OH238467   6.240   0.556   6.513
12837TIP3    H138468   6.222   0.496   6.586
12837TIP3    H238469   6.325   0.526   6.479
12838TIP3   OH238470   1.552   6.234   6.573
12838TIP3    H138471   1.611   6.258   6.502
12838TIP3    H238472   1.481   6.186   6.530
12839TIP3   OH238473   2.945   6.085   6.387
12839TIP3    H138474   2.855   6.099   6.356
12839TIP3    H238475   2.972   6.004   6.346
12840TIP3   OH238476   5.313   7.369   2.241
12840TIP3    H138477   5.347   7.458   2.249
12840TIP3    H238478   5.317   7.351   2.147
12841TIP3   OH238479   2.373   5.480   4.484
12841TIP3    H138480   2.360   5.407   4.544
12841TIP3    H238481   2.284   5.507   4.460
12842TIP3   OH238482   5.099   5.072   6.372
12842TIP3    H138483   5.051   5.137   6.424
12842TIP3    H238484   5.097   5.107   6.283
12843TIP3   OH238485   5.448   5.969   5.772
12843TIP3    H138486   5.539   5.998   5.784
12843TIP3    H238487   5.449   5.877   5.798
12844TIP3   OH238488   3.032   6.965   3.345
12844TIP3    H138489   3.087   6.914   3.405
12844TIP3    H238490   3.084   6.972   3.265
12845TIP3   OH238491   6.354   1.106   1.500
12845TIP3    H138492   6.259   1.121   1.493
12845TIP3    H238493   6.362   1.037   1.566
12846TIP3   OH238494   2.898   0.888   3.660
12846TIP3    H138495   2.927   0.956   3.599
12846TIP3    H238496   2.947   0.811   3.634
12847TIP3   OH238497   5.840   5.404   5.650
12847TIP3    H138498   5.759   5.434   5.608
12847TIP3    H238499   5.887   5.358   5.581
12848TIP3   OH238500   4.745   1.728   5.289
12848TIP3    H138501   4.695   1.646   5.289
12848TIP3    H238502   4.750   1.753   5.197
12849TIP3   OH238503   1.896   6.325   5.691
12849TIP3    H138504   1.867   6.410   5.658
12849TIP3    H238505   1.959   6.347   5.760
12850TIP3   OH238506   2.910   4.686   3.617
12850TIP3    H138507   2.843   4.715   3.555
12850TIP3    H238508   2.865   4.624   3.675
12851TIP3   OH238509   5.076   3.631   4.337
12851TIP3    H138510   5.008   3.614   4.272
12851TIP3    H238511   5.063   3.565   4.405
12852TIP3   OH238512   0.750   0.563   4.931
12852TIP3    H138513   0.774   0.587   5.021
12852TIP3    H238514   0.731   0.469   4.936
12853TIP3   OH238515   5.200   0.507   0.768
12853TIP3    H138516   5.209   0.414   0.789
12853TIP3    H238517   5.114   0.515   0.728
12854TIP3   OH238518   8.278   6.673   2.614
12854TIP3    H138519   8.225   6.729   2.672
12854TIP3    H238520   8.312   6.733   2.547
12855TIP3   OH238521   4.513   6.592   5.187
12855TIP3    H138522   4.555   6.519   5.235
12855TIP3    H238523   4.424   6.593   5.221
12856TIP3   OH238524   7.923   7.365   2.156
12856TIP3    H138525   7.906   7.322   2.073
12856TIP3    H238526   7.873   7.446   2.152
12857TIP3   OH238527   5.178   5.947   4.960
12857TIP3    H138528   5.158   5.890   4.885
12857TIP3    H238529   5.247   6.005   4.928
12858TIP3   OH238530   3.938   3.201   1.204
12858TIP3    H138531   3.933   3.133   1.272
12858TIP3    H238532   3.923   3.283   1.251
12859TIP3   OH238533   0.429   3.336   2.612
12859TIP3    H138534   0.431   3.368   2.522
12859TIP3    H238535   0.414   3.414   2.665
12860TIP3   OH238536   7.643   2.445   1.424
12860TIP3    H138537   7.599   2.501   1.488
12860TIP3    H238538   7.590   2.454   1.345
12861TIP3   OH238539   1.541   5.674   2.553
12861TIP3    H138540   1.558   5.604   2.616
12861TIP3    H238541   1.625   5.690   2.511
12862TIP3   OH238542   0.859   2.378   0.331
12862TIP3    H138543   0.853   2.438   0.405
12862TIP3    H238544   0.774   2.335   0.327
12863TIP3   OH238545   3.975   2.202   2.313
12863TIP3    H138546   3.912   2.197   2.242
12863TIP3    H238547   3.973   2.115   2.353
12864TIP3   OH238548   0.701   3.323   4.313
12864TIP3    H138549   0.632   3.387   4.330
12864TIP3    H238550   0.659   3.238   4.325
12865TIP3   OH238551   5.364   6.768   5.971
12865TIP3    H138552   5.345   6.850   5.924
12865TIP3    H238553   5.303   6.704   5.933
12866TIP3   OH238554   6.908   0.752   1.480
12866TIP3    H138555   6.954   0.828   1.445
12866TIP3    H238556   6.913   0.762   1.575
12867TIP3   OH238557   3.782   4.089   3.073
12867TIP3    H138558   3.695   4.051   3.059
12867TIP3    H238559   3.821   4.091   2.986
12868TIP3   OH238560   1.159   2.128   4.490
12868TIP3    H138561   1.231   2.089   4.440
12868TIP3    H238562   1.200   2.198   4.540
12869TIP3   OH238563   5.605   0.713   2.857
12869TIP3    H138564   5.622   0.787   2.914
12869TIP3    H238565   5.629   0.636   2.910
12870TIP3   OH238566   4.348   1.331   3.061
12870TIP3    H138567   4.297   1.332   3.142
12870TIP3    H238568   4.282   1.331   2.991
12871TIP3   OH238569   4.412   0.457   1.813
12871TIP3    H138570   4.395   0.387   1.750
12871TIP3    H238571   4.423   0.535   1.759
12872TIP3   OH238572   3.884   0.767   4.729
12872TIP3    H138573   3.955   0.747   4.668
12872TIP3    H238574   3.807   0.779   4.672
12873TIP3   OH238575   6.426   4.764   0.242
12873TIP3    H138576   6.350   4.719   0.277
12873TIP3    H238577   6.390   4.841   0.197
12874TIP3   OH238578   5.543   6.310   1.770
12874TIP3    H138579   5.497   6.293   1.852
12874TIP3    H238580   5.515   6.240   1.711
12875TIP3   OH238581   2.916   1.555   6.034
12875TIP3    H138582   2.962   1.616   5.976
12875TIP3    H238583   2.906   1.603   6.116
12876TIP3   OH238584   2.491   0.589   5.177
12876TIP3    H138585   2.530   0.645   5.245
12876TIP3    H238586   2.482   0.647   5.101
12877TIP3   OH238587   5.787   0.795   5.396
12877TIP3    H138588   5.812   0.812   5.487
12877TIP3    H238589   5.812   0.875   5.349
12878TIP3   OH238590   8.225   2.877   5.666
12878TIP3    H138591   8.215   2.799   5.721
12878TIP3    H238592   8.224   2.950   5.728
12879TIP3   OH238593   0.949   5.373   1.158
12879TIP3    H138594   0.862   5.358   1.194
12879TIP3    H238595   1.004   5.392   1.235
12880TIP3   OH238596   4.466   3.678   4.659
12880TIP3    H138597   4.455   3.737   4.585
12880TIP3    H238598   4.378   3.644   4.675
12881TIP3   OH238599   4.858   1.981   3.082
12881TIP3    H138600   4.836   1.917   3.014
12881TIP3    H238601   4.778   2.030   3.095
12882TIP3   OH238602   3.810   1.284   4.701
12882TIP3    H138603   3.787   1.339   4.626
12882TIP3    H238604   3.732   1.231   4.718
12883TIP3   OH238605   7.610   0.718   0.428
12883TIP3    H138606   7.630   0.628   0.453
12883TIP3    H238607   7.695   0.761   0.423
12884TIP3   OH238608   2.390   2.157   1.056
12884TIP3    H138609   2.440   2.147   0.975
12884TIP3    H238610   2.405   2.076   1.104
12885TIP3   OH238611   4.418   3.012   5.504
12885TIP3    H138612   4.396   2.946   5.570
12885TIP3    H238613   4.488   2.973   5.453
12886TIP3   OH238614   0.529   5.284   4.644
12886TIP3    H138615   0.554   5.346   4.576
12886TIP3    H238616   0.439   5.260   4.621
12887TIP3   OH238617   5.016   7.660   0.531
12887TIP3    H138618   4.937   7.653   0.477
12887TIP3    H238619   5.031   7.570   0.561
12888TIP3   OH238620   1.368   6.983   3.719
12888TIP3    H138621   1.327   7.068   3.732
12888TIP3    H238622   1.376   6.974   3.624
12889TIP3   OH238623   0.347   4.036   5.156
12889TIP3    H138624   0.389   4.121   5.163
12889TIP3    H238625   0.257   4.055   5.129
12890TIP3   OH238626   3.491   2.514   1.979
12890TIP3    H138627   3.549   2.479   1.912
12890TIP3    H238628   3.408   2.531   1.933
12891TIP3   OH238629   0.367   1.597   5.233
12891TIP3    H138630   0.456   1.611   5.265
12891TIP3    H238631   0.322   1.555   5.306
12892TIP3   OH238632   4.814   3.889   3.474
12892TIP3    H138633   4.891   3.910   3.422
12892TIP3    H238634   4.821   3.795   3.490
12893TIP3   OH238635   6.569   3.751   3.914
12893TIP3    H138636   6.558   3.666   3.957
12893TIP3    H238637   6.496   3.756   3.853
12894TIP3   OH238638   3.103   3.460   4.751
12894TIP3    H138639   3.107   3.537   4.808
12894TIP3    H238640   3.037   3.482   4.685
12895TIP3   OH238641   7.366   5.609   5.420
12895TIP3    H138642   7.299   5.677   5.411
12895TIP3    H238643   7.438   5.652   5.468
12896TIP3   OH238644   0.269   5.464   5.562
12896TIP3    H138645   0.176   5.442   5.553
12896TIP3    H238646   0.271   5.560   5.565
12897TIP3   OH238647   1.183   4.995   1.796
12897TIP3    H138648   1.148   4.993   1.885
12897TIP3    H238649   1.235   5.075   1.792
12898TIP3   OH238650   6.584   2.456   6.268
12898TIP3    H138651   6.642   2.475   6.342
12898TIP3    H238652   6.626   2.384   6.222
12899TIP3   OH238653   2.200   0.485   1.198
12899TIP3    H138654   2.269   0.492   1.264
12899TIP3    H238655   2.120   0.470   1.248
12900TIP3   OH238656   5.362   4.833   1.504
12900TIP3    H138657   5.358   4.740   1.480
12900TIP3    H238658   5.292   4.873   1.453
12901TIP3   OH238659   5.345   2.898   2.551
12901TIP3    H138660   5.404   2.955   2.601
12901TIP3    H238661   5.396   2.819   2.534
12902TIP3   OH238662   3.184   5.030   1.853
12902TIP3    H138663   3.234   5.008   1.931
12902TIP3    H238664   3.123   4.957   1.842
12903TIP3   OH238665   6.195   3.095   2.416
12903TIP3    H138666   6.113   3.125   2.375
12903TIP3    H238667   6.219   3.016   2.367
12904TIP3   OH238668   8.180   6.862   1.884
12904TIP3    H138669   8.235   6.816   1.948
12904TIP3    H238670   8.236   6.871   1.807
12905TIP3   OH238671   4.837   4.724   1.605
12905TIP3    H138672   4.880   4.647   1.643
12905TIP3    H238673   4.819   4.781   1.680
12906TIP3   OH238674   6.146   3.859   0.049
12906TIP3    H138675   6.080   3.789   0.053
12906TIP3    H238676   6.229   3.813   0.049
12907TIP3   OH238677   2.530   7.386   4.241
12907TIP3    H138678   2.552   7.326   4.170
12907TIP3    H238679   2.599   7.373   4.306
12908TIP3   OH238680   1.563   2.212   6.175
12908TIP3    H138681   1.557   2.124   6.137
12908TIP3    H238682   1.528   2.270   6.108
12909TIP3   OH238683   0.497   3.122   0.852
12909TIP3    H138684   0.545   3.197   0.886
12909TIP3    H238685   0.467   3.150   0.766
12910TIP3   OH238686   1.686   0.798   4.070
12910TIP3    H138687   1.631   0.724   4.046
12910TIP3    H238688   1.637   0.842   4.140
12911TIP3   OH238689   3.967   2.602   2.680
12911TIP3    H138690   3.965   2.572   2.589
12911TIP3    H238691   3.879   2.638   2.695
12912TIP3   OH238692   5.485   1.115   1.952
12912TIP3    H138693   5.486   1.021   1.937
12912TIP3    H238694   5.447   1.125   2.040
12913TIP3   OH238695   7.350   4.654   1.970
12913TIP3    H138696   7.431   4.702   1.955
12913TIP3    H238697   7.359   4.575   1.916
12914TIP3   OH238698   7.820   6.273   2.810
12914TIP3    H138699   7.848   6.360   2.780
12914TIP3    H238700   7.729   6.267   2.782
12915TIP3   OH238701   5.439   3.225   5.070
12915TIP3    H138702   5.392   3.271   5.000
12915TIP3    H238703   5.371   3.176   5.116
12916TIP3   OH238704   2.512   1.630   4.718
12916TIP3    H138705   2.484   1.689   4.787
12916TIP3    H238706   2.606   1.616   4.734
12917TIP3   OH238707   3.951   4.667   1.721
12917TIP3    H138708   3.919   4.757   1.711
12917TIP3    H238709   3.981   4.641   1.634
12918TIP3   OH238710   6.015   4.626   2.721
12918TIP3    H138711   6.070   4.556   2.757
12918TIP3    H238712   6.060   4.653   2.641
12919TIP3   OH238713   7.954   7.049   5.468
12919TIP3    H138714   7.893   7.106   5.421
12919TIP3    H238715   7.987   7.104   5.539
12920TIP3   OH238716   5.106   5.382   4.696
12920TIP3    H138717   5.130   5.444   4.627
12920TIP3    H238718   5.013   5.400   4.713
12921TIP3   OH238719   1.662   0.237   5.534
12921TIP3    H138720   1.628   0.165   5.480
12921TIP3    H238721   1.586   0.266   5.584
12922TIP3   OH238722   6.592   5.715   0.836
12922TIP3    H138723   6.511   5.677   0.870
12922TIP3    H238724   6.632   5.645   0.786
12923TIP3   OH238725   5.338   3.155   1.590
12923TIP3    H138726   5.423   3.198   1.584
12923TIP3    H238727   5.358   3.061   1.585
12924TIP3   OH238728   0.787   6.143   2.875
12924TIP3    H138729   0.709   6.089   2.862
12924TIP3    H238730   0.841   6.125   2.798
12925TIP3   OH238731   5.826   5.969   5.844
12925TIP3    H138732   5.811   5.897   5.905
12925TIP3    H238733   5.798   5.935   5.759
12926TIP3   OH238734   2.572   2.343   2.704
12926TIP3    H138735   2.659   2.353   2.664
12926TIP3    H238736   2.512   2.335   2.630
12927TIP3   OH238737   2.873   6.351   6.164
12927TIP3    H138738   2.921   6.287   6.218
12927TIP3    H238739   2.941   6.402   6.121
12928TIP3   OH238740   6.792   3.682   0.464
12928TIP3    H138741   6.780   3.773   0.436
12928TIP3    H238742   6.882   3.680   0.498
12929TIP3   OH238743   0.954   0.657   5.160
12929TIP3    H138744   1.027   0.597   5.147
12929TIP3    H238745   0.976   0.707   5.239
12930TIP3   OH238746   3.364   5.092   5.189
12930TIP3    H138747   3.376   5.072   5.096
12930TIP3    H238748   3.271   5.110   5.198
12931TIP3   OH238749   2.264   4.290   1.519
12931TIP3    H138750   2.292   4.201   1.498
12931TIP3    H238751   2.175   4.280   1.553
12932TIP3   OH238752   6.957   3.729   5.325
12932TIP3    H138753   6.946   3.649   5.274
12932TIP3    H238754   6.940   3.703   5.416
12933TIP3   OH238755   4.549   6.914   1.866
12933TIP3    H138756   4.468   6.867   1.846
12933TIP3    H238757   4.582   6.942   1.781
12934TIP3   OH238758   6.500   4.963   2.762
12934TIP3    H138759   6.516   4.976   2.856
12934TIP3    H238760   6.406   4.951   2.756
12935TIP3   OH238761   1.223   1.206   3.088
12935TIP3    H138762   1.219   1.241   2.999
12935TIP3    H238763   1.234   1.112   3.077
12936TIP3   OH238764   4.138   0.141   2.425
12936TIP3    H138765   4.117   0.103   2.340
12936TIP3    H238766   4.153   0.066   2.482
12937TIP3   OH238767   5.443   5.609   6.637
12937TIP3    H138768   5.504   5.558   6.585
12937TIP3    H238769   5.390   5.544   6.683
12938TIP3   OH238770   0.142   3.650   5.539
12938TIP3    H138771   0.155   3.643   5.445
12938TIP3    H238772   0.090   3.730   5.550
12939TIP3   OH238773   0.803   2.407   1.990
12939TIP3    H138774   0.856   2.481   2.021
12939TIP3    H238775   0.720   2.415   2.037
12940TIP3   OH238776   3.372   0.270   4.453
12940TIP3    H138777   3.431   0.269   4.528
12940TIP3    H238778   3.298   0.215   4.479
12941TIP3   OH238779   1.071   0.386   3.567
12941TIP3    H138780   1.140   0.355   3.625
12941TIP3    H238781   1.022   0.450   3.620
12942TIP3   OH238782   7.221   2.527   6.106
12942TIP3    H138783   7.216   2.604   6.162
12942TIP3    H238784   7.208   2.452   6.165
12943TIP3   OH238785   5.207   0.246   0.749
12943TIP3    H138786   5.177   0.178   0.809
12943TIP3    H238787   5.261   0.199   0.685
12944TIP3   OH238788   3.016   6.903   0.872
12944TIP3    H138789   2.968   6.979   0.839
12944TIP3    H238790   3.101   6.908   0.828
12945TIP3   OH238791   6.734   0.654   0.261
12945TIP3    H138792   6.696   0.610   0.337
12945TIP3    H238793   6.811   0.699   0.296
12946TIP3   OH238794   3.242   1.473   1.794
12946TIP3    H138795   3.294   1.403   1.834
12946TIP3    H238796   3.201   1.517   1.868
12947TIP3   OH238797   2.974   0.163   4.782
12947TIP3    H138798   2.884   0.142   4.809
12947TIP3    H238799   2.986   0.114   4.701
12948TIP3   OH238800   0.591   2.048   4.266
12948TIP3    H138801   0.499   2.043   4.238
12948TIP3    H238802   0.622   1.957   4.262
12949TIP3   OH238803   0.810   5.791   2.796
12949TIP3    H138804   0.839   5.841   2.720
12949TIP3    H238805   0.728   5.750   2.768
12950TIP3   OH238806   2.710   0.996   1.804
12950TIP3    H138807   2.743   0.917   1.761
12950TIP3    H238808   2.787   1.036   1.845
12951TIP3   OH238809   1.804   3.903   3.592
12951TIP3    H138810   1.732   3.944   3.640
12951TIP3    H238811   1.804   3.812   3.622
12952TIP3   OH238812   1.224   5.802   0.128
12952TIP3    H138813   1.165   5.781   0.056
12952TIP3    H238814   1.195   5.746   0.200
12953TIP3   OH238815   0.526   4.005   2.702
12953TIP3    H138816   0.554   3.993   2.611
12953TIP3    H238817   0.564   4.090   2.727
12954TIP3   OH238818   4.561   1.323   3.301
12954TIP3    H138819   4.466   1.321   3.312
12954TIP3    H238820   4.587   1.409   3.334
12955TIP3   OH238821   1.288   3.387   4.529
12955TIP3    H138822   1.197   3.358   4.542
12955TIP3    H238823   1.317   3.415   4.616
12956TIP3   OH238824   1.822   6.027   4.285
12956TIP3    H138825   1.821   6.020   4.190
12956TIP3    H238826   1.829   5.937   4.316
12957TIP3   OH238827   6.682   1.360   0.308
12957TIP3    H138828   6.627   1.437   0.291
12957TIP3    H238829   6.730   1.346   0.227
12958TIP3   OH238830   2.301   3.097   1.027
12958TIP3    H138831   2.311   3.048   1.109
12958TIP3    H238832   2.226   3.154   1.042
12959TIP3   OH238833   7.641   6.842   2.095
12959TIP3    H138834   7.631   6.795   2.178
12959TIP3    H238835   7.731   6.825   2.069
12960TIP3   OH238836   7.711   1.139   6.033
12960TIP3    H138837   7.653   1.215   6.030
12960TIP3    H238838   7.653   1.065   6.016
12961TIP3   OH238839   2.303   7.009   6.256
12961TIP3    H138840   2.278   7.069   6.186
12961TIP3    H238841   2.238   7.025   6.325
12962TIP3   OH238842   0.757   1.048   6.374
12962TIP3    H138843   0.801   0.973   6.415
12962TIP3    H238844   0.725   1.015   6.290
12963TIP3   OH238845   3.435   1.165   6.217
12963TIP3    H138846   3.425   1.169   6.312
12963TIP3    H238847   3.521   1.123   6.204
12964TIP3   OH238848   1.064   7.264   1.177
12964TIP3    H138849   1.136   7.206   1.201
12964TIP3    H238850   0.985   7.215   1.198
12965TIP3   OH238851   1.161   1.498   2.052
12965TIP3    H138852   1.218   1.435   2.095
12965TIP3    H238853   1.191   1.583   2.083
12966TIP3   OH238854   2.105   4.086   1.997
12966TIP3    H138855   2.122   4.008   1.944
12966TIP3    H238856   2.111   4.055   2.087
12967TIP3   OH238857   1.550   2.967   3.915
12967TIP3    H138858   1.588   2.909   3.981
12967TIP3    H238859   1.613   2.966   3.843
12968TIP3   OH238860   6.303   4.977   5.974
12968TIP3    H138861   6.247   5.013   5.905
12968TIP3    H238862   6.242   4.939   6.037
12969TIP3   OH238863   5.388   2.077   4.393
12969TIP3    H138864   5.426   2.155   4.353
12969TIP3    H238865   5.419   2.004   4.339
12970TIP3   OH238866   1.821   3.371   5.752
12970TIP3    H138867   1.814   3.277   5.766
12970TIP3    H238868   1.781   3.385   5.666
12971TIP3   OH238869   2.935   4.140   3.399
12971TIP3    H138870   3.004   4.197   3.366
12971TIP3    H238871   2.884   4.194   3.458
12972TIP3   OH238872   6.375   6.430   4.775
12972TIP3    H138873   6.453   6.419   4.721
12972TIP3    H238874   6.402   6.488   4.846
12973TIP3   OH238875   7.396   7.344   1.076
12973TIP3    H138876   7.461   7.413   1.066
12973TIP3    H238877   7.313   7.384   1.051
12974TIP3   OH238878   3.166   2.021   6.706
12974TIP3    H138879   3.229   2.042   6.636
12974TIP3    H238880   3.099   2.089   6.698
12975TIP3   OH238881   4.860   3.131   4.423
12975TIP3    H138882   4.819   3.195   4.480
12975TIP3    H238883   4.931   3.093   4.476
12976TIP3   OH238884   1.728   1.128   3.805
12976TIP3    H138885   1.712   1.079   3.724
12976TIP3    H238886   1.729   1.220   3.778
12977TIP3   OH238887   7.419   0.689   0.768
12977TIP3    H138888   7.494   0.738   0.802
12977TIP3    H238889   7.357   0.756   0.741
12978TIP3   OH238890   0.895   6.331   4.181
12978TIP3    H138891   0.801   6.337   4.197
12978TIP3    H238892   0.911   6.387   4.105
12979TIP3   OH238893   0.948   0.230   2.374
12979TIP3    H138894   0.979   0.307   2.325
12979TIP3    H238895   0.946   0.159   2.309
12980TIP3   OH238896   3.098   1.281   0.020
12980TIP3    H138897   3.046   1.334  -0.041
12980TIP3    H238898   3.103   1.334   0.099
12981TIP3   OH238899   1.889   0.896   5.260
12981TIP3    H138900   1.905   0.802   5.265
12981TIP3    H238901   1.899   0.928   5.350
12982TIP3   OH238902   6.830   1.472   3.331
12982TIP3    H138903   6.836   1.547   3.390
12982TIP3    H238904   6.800   1.400   3.387
12983TIP3   OH238905   1.264   3.174   3.379
12983TIP3    H138906   1.237   3.265   3.383
12983TIP3    H238907   1.225   3.133   3.456
12984TIP3   OH238908   5.468   4.099   5.560
12984TIP3    H138909   5.431   4.087   5.473
12984TIP3    H238910   5.529   4.172   5.549
12985TIP3   OH238911   8.240   4.402   0.903
12985TIP3    H138912   8.333   4.390   0.922
12985TIP3    H238913   8.197   4.326   0.942
12986TIP3   OH238914   6.845   1.723   5.964
12986TIP3    H138915   6.804   1.809   5.959
12986TIP3    H238916   6.934   1.742   5.994
12987TIP3   OH238917   0.199   4.609   6.535
12987TIP3    H138918   0.260   4.562   6.479
12987TIP3    H238919   0.164   4.679   6.480
12988TIP3   OH238920   1.603   2.767   4.608
12988TIP3    H138921   1.547   2.794   4.536
12988TIP3    H238922   1.567   2.684   4.637
12989TIP3   OH238923   7.776   6.633   5.198
12989TIP3    H138924   7.821   6.684   5.266
12989TIP3    H238925   7.697   6.600   5.241
12990TIP3   OH238926   5.739   1.473   4.000
12990TIP3    H138927   5.673   1.424   4.048
12990TIP3    H238928   5.802   1.406   3.972
12991TIP3   OH238929   3.320   2.455   4.432
12991TIP3    H138930   3.385   2.503   4.484
12991TIP3    H238931   3.240   2.457   4.485
12992TIP3   OH238932   4.175   1.299   3.274
12992TIP3    H138933   4.119   1.222   3.284
12992TIP3    H238934   4.163   1.348   3.356
12993TIP3   OH238935   5.418   5.096   0.142
12993TIP3    H138936   5.455   5.052   0.066
12993TIP3    H238937   5.494   5.124   0.193
12994TIP3   OH238938   5.387   0.196   4.406
12994TIP3    H138939   5.340   0.267   4.362
12994TIP3    H238940   5.461   0.177   4.349
12995TIP3   OH238941   1.277   3.104   5.452
12995TIP3    H138942   1.198   3.097   5.506
12995TIP3    H238943   1.329   3.172   5.495
12996TIP3   OH238944   8.097   0.418   4.894
12996TIP3    H138945   8.055   0.375   4.969
12996TIP3    H238946   8.029   0.475   4.858
12997TIP3   OH238947   7.318   3.482   3.301
12997TIP3    H138948   7.313   3.506   3.393
12997TIP3    H238949   7.317   3.386   3.301
12998TIP3   OH238950   8.240   6.238   6.348
12998TIP3    H138951   8.278   6.290   6.277
12998TIP3    H238952   8.182   6.299   6.394
12999TIP3   OH238953   5.319   7.112   2.173
12999TIP3    H138954   5.384   7.072   2.115
12999TIP3    H238955   5.236   7.097   2.130
13000TIP3   OH238956   1.063   6.278   5.969
13000TIP3    H138957   1.133   6.218   5.944
13000TIP3    H238958   1.077   6.294   6.062
13001TIP3   OH238959   1.805   1.955   1.571
13001TIP3    H138960   1.792   1.949   1.665
13001TIP3    H238961   1.716   1.951   1.534
13002TIP3   OH238962   0.674   0.463   3.036
13002TIP3    H138963   0.758   0.497   3.067
13002TIP3    H238964   0.608   0.519   3.078
13003TIP3   OH238965   5.301   0.620   4.090
13003TIP3    H138966   5.238   0.686   4.062
13003TIP3    H238967   5.289   0.548   4.027
13004TIP3   OH238968   7.528   0.802   2.097
13004TIP3    H138969   7.458   0.824   2.035
13004TIP3    H238970   7.484   0.797   2.182
13005TIP3   OH238971   4.605   1.554   2.672
13005TIP3    H138972   4.645   1.502   2.742
13005TIP3    H238973   4.533   1.500   2.640
13006TIP3   OH238974   4.936   0.033   1.110
13006TIP3    H138975   4.859   0.029   1.053
13006TIP3    H238976   4.979  -0.052   1.098
13007TIP3   OH238977   6.177   2.584   0.839
13007TIP3    H138978   6.213   2.646   0.904
13007TIP3    H238979   6.171   2.501   0.886
13008TIP3   OH238980   1.403   4.914   2.096
13008TIP3    H138981   1.417   5.008   2.091
13008TIP3    H238982   1.490   4.878   2.113
13009TIP3   OH238983   1.630   2.162   4.331
13009TIP3    H138984   1.670   2.196   4.252
13009TIP3    H238985   1.687   2.191   4.402
13010TIP3   OH238986   4.617   3.162   0.440
13010TIP3    H138987   4.535   3.158   0.488
13010TIP3    H238988   4.618   3.083   0.386
13011TIP3   OH238989   8.143   1.746   3.479
13011TIP3    H138990   8.079   1.689   3.523
13011TIP3    H238991   8.091   1.793   3.414
13012TIP3   OH238992   1.967   0.871   1.367
13012TIP3    H138993   1.931   0.833   1.287
13012TIP3    H238994   2.051   0.909   1.340
13013TIP3   OH238995   6.500   4.393   1.742
13013TIP3    H138996   6.528   4.317   1.690
13013TIP3    H238997   6.549   4.384   1.824
13014TIP3   OH238998   7.680   5.303   1.198
13014TIP3    H138999   7.635   5.386   1.181
13014TIP3    H239000   7.639   5.269   1.277
13015TIP3   OH239001   1.389   1.534   3.442
13015TIP3    H139002   1.388   1.483   3.523
13015TIP3    H239003   1.418   1.473   3.375
13016TIP3   OH239004   8.232   3.757   1.889
13016TIP3    H139005   8.277   3.673   1.880
13016TIP3    H239006   8.139   3.734   1.898
13017TIP3   OH239007   4.347   3.287   0.865
13017TIP3    H139008   4.333   3.378   0.889
13017TIP3    H239009   4.324   3.237   0.944
13018TIP3   OH239010   2.794   2.101   6.365
13018TIP3    H139011   2.743   2.020   6.355
13018TIP3    H239012   2.777   2.149   6.284
13019TIP3   OH239013   5.710   4.856   1.234
13019TIP3    H139014   5.795   4.866   1.277
13019TIP3    H239015   5.696   4.939   1.189
13020TIP3   OH239016   7.175   5.465   5.723
13020TIP3    H139017   7.187   5.425   5.637
13020TIP3    H239018   7.254   5.517   5.737
13021TIP3   OH239019   6.628   6.572   1.524
13021TIP3    H139020   6.600   6.656   1.487
13021TIP3    H239021   6.724   6.575   1.518
13022TIP3   OH239022   5.195   2.695   5.616
13022TIP3    H139023   5.248   2.653   5.683
13022TIP3    H239024   5.120   2.732   5.664
13023TIP3   OH239025   2.157   4.923   5.595
13023TIP3    H139026   2.228   4.987   5.585
13023TIP3    H239027   2.103   4.935   5.517
13024TIP3   OH239028   7.974   2.663   0.985
13024TIP3    H139029   7.933   2.577   0.974
13024TIP3    H239030   7.996   2.667   1.079
13025TIP3   OH239031   6.698   4.071   3.653
13025TIP3    H139032   6.627   4.018   3.616
13025TIP3    H239033   6.720   4.134   3.585
13026TIP3   OH239034   5.068   5.066   2.351
13026TIP3    H139035   5.074   5.004   2.424
13026TIP3    H239036   5.074   5.152   2.392
13027TIP3   OH239037   6.991   5.943   5.848
13027TIP3    H139038   6.981   5.856   5.810
13027TIP3    H239039   7.072   5.938   5.899
13028TIP3   OH239040   0.882   3.279   0.432
13028TIP3    H139041   0.875   3.310   0.342
13028TIP3    H239042   0.801   3.231   0.448
13029TIP3   OH239043   3.478   0.382   5.254
13029TIP3    H139044   3.529   0.424   5.184
13029TIP3    H239045   3.397   0.354   5.210
13030TIP3   OH239046   2.571   4.027   4.790
13030TIP3    H139047   2.490   4.068   4.761
13030TIP3    H239048   2.555   4.005   4.882
13031TIP3   OH239049   5.401   1.233   0.643
13031TIP3    H139050   5.356   1.220   0.559
13031TIP3    H239051   5.420   1.145   0.674
13032TIP3   OH239052   7.544   5.804   5.163
13032TIP3    H139053   7.462   5.756   5.173
13032TIP3    H239054   7.598   5.776   5.237
13033TIP3   OH239055   4.916   3.643   1.739
13033TIP3    H139056   4.886   3.557   1.769
13033TIP3    H239057   4.932   3.692   1.820
13034TIP3   OH239058   0.085   0.579   2.382
13034TIP3    H139059   0.147   0.645   2.349
13034TIP3    H239060   0.140   0.508   2.415
13035TIP3   OH239061   6.067   7.791   1.857
13035TIP3    H139062   6.160   7.775   1.843
13035TIP3    H239063   6.058   7.799   1.952
13036TIP3   OH239064   0.189   5.121   3.232
13036TIP3    H139065   0.207   5.036   3.272
13036TIP3    H239066   0.159   5.099   3.144
13037TIP3   OH239067   1.460   7.061   1.017
13037TIP3    H139068   1.451   7.084   0.924
13037TIP3    H239069   1.554   7.058   1.032
13038TIP3   OH239070   6.341   0.961   4.844
13038TIP3    H139071   6.272   0.900   4.819
13038TIP3    H239072   6.315   1.044   4.805
13039TIP3   OH239073   7.469   0.570   3.190
13039TIP3    H139074   7.394   0.525   3.228
13039TIP3    H239075   7.435   0.609   3.109
13040TIP3   OH239076   2.954   7.551   1.832
13040TIP3    H139077   2.909   7.594   1.758
13040TIP3    H239078   2.884   7.505   1.878
13041TIP3   OH239079   4.776   7.552   2.184
13041TIP3    H139080   4.871   7.557   2.181
13041TIP3    H239081   4.746   7.615   2.119
13042TIP3   OH239082   7.165   7.686   3.542
13042TIP3    H139083   7.141   7.594   3.554
13042TIP3    H239084   7.083   7.730   3.522
13043TIP3   OH239085   1.463   5.918   2.648
13043TIP3    H139086   1.368   5.931   2.655
13043TIP3    H239087   1.473   5.853   2.578
13044TIP3   OH239088   7.278   1.665   0.660
13044TIP3    H139089   7.304   1.724   0.589
13044TIP3    H239090   7.186   1.685   0.676
13045TIP3   OH239091   5.046   5.971   1.297
13045TIP3    H139092   5.141   5.966   1.303
13045TIP3    H239093   5.025   6.059   1.327
13046TIP3   OH239094   2.900   3.450   3.913
13046TIP3    H139095   2.966   3.461   3.981
13046TIP3    H239096   2.817   3.449   3.960
13047TIP3   OH239097   3.476   6.961   6.304
13047TIP3    H139098   3.471   6.917   6.219
13047TIP3    H239099   3.481   6.890   6.368
13048TIP3   OH239100   1.834   2.721   6.752
13048TIP3    H139101   1.825   2.772   6.672
13048TIP3    H239102   1.826   2.630   6.723
13049TIP3   OH239103   6.945   6.330   4.615
13049TIP3    H139104   7.010   6.282   4.667
13049TIP3    H239105   6.996   6.393   4.565
13050TIP3   OH239106   2.793   2.675   6.344
13050TIP3    H139107   2.741   2.679   6.425
13050TIP3    H239108   2.852   2.600   6.357
13051TIP3   OH239109   0.845   4.255   4.676
13051TIP3    H139110   0.856   4.325   4.741
13051TIP3    H239111   0.880   4.177   4.717
13052TIP3   OH239112   6.830   5.598   4.533
13052TIP3    H139113   6.798   5.597   4.623
13052TIP3    H239114   6.860   5.508   4.517
13053TIP3   OH239115   1.407   0.951   0.284
13053TIP3    H139116   1.312   0.947   0.285
13053TIP3    H239117   1.428   1.029   0.335
13054TIP3   OH239118   7.031   0.456   0.368
13054TIP3    H139119   7.057   0.533   0.316
13054TIP3    H239120   7.090   0.387   0.339
13055TIP3   OH239121   1.891   7.522   2.571
13055TIP3    H139122   1.902   7.602   2.519
13055TIP3    H239123   1.905   7.451   2.509
13056TIP3   OH239124   3.793   1.127   0.069
13056TIP3    H139125   3.821   1.058   0.129
13056TIP3    H239126   3.783   1.205   0.124
13057TIP3   OH239127   6.426   1.520   1.440
13057TIP3    H139128   6.501   1.573   1.415
13057TIP3    H239129   6.451   1.481   1.524
13058TIP3   OH239130   7.743   3.242   5.166
13058TIP3    H139131   7.768   3.325   5.126
13058TIP3    H239132   7.827   3.199   5.185
13059TIP3   OH239133   5.738   4.034   6.092
13059TIP3    H139134   5.814   3.977   6.079
13059TIP3    H239135   5.707   4.053   6.003
13060TIP3   OH239136   3.092   5.877   1.638
13060TIP3    H139137   3.073   5.841   1.551
13060TIP3    H239138   3.044   5.821   1.698
13061TIP3   OH239139   2.934   2.126   0.290
13061TIP3    H139140   2.891   2.050   0.250
13061TIP3    H239141   2.862   2.181   0.322
13062TIP3   OH239142   3.788   1.013   2.445
13062TIP3    H139143   3.710   0.975   2.405
13062TIP3    H239144   3.859   0.991   2.385
13063TIP3   OH239145   0.932   0.663   3.675
13063TIP3    H139146   0.884   0.631   3.752
13063TIP3    H239147   0.866   0.668   3.606
13064TIP3   OH239148   1.442   0.720   0.871
13064TIP3    H139149   1.475   0.667   0.798
13064TIP3    H239150   1.408   0.799   0.829
13065TIP3   OH239151   3.468   2.903   6.420
13065TIP3    H139152   3.474   2.876   6.328
13065TIP3    H239153   3.374   2.913   6.436
13066TIP3   OH239154   1.566   5.419   5.861
13066TIP3    H139155   1.472   5.424   5.881
13066TIP3    H239156   1.574   5.458   5.774
13067TIP3   OH239157   2.694   4.427   3.956
13067TIP3    H139158   2.599   4.422   3.943
13067TIP3    H239159   2.706   4.431   4.050
13068TIP3   OH239160   3.666   3.431   5.234
13068TIP3    H139161   3.661   3.443   5.329
13068TIP3    H239162   3.736   3.490   5.206
13069TIP3   OH239163   7.059   2.753   1.212
13069TIP3    H139164   7.008   2.763   1.132
13069TIP3    H239165   7.012   2.804   1.278
13070TIP3   OH239166   4.721   3.480   5.721
13070TIP3    H139167   4.676   3.453   5.801
13070TIP3    H239168   4.813   3.491   5.747
13071TIP3   OH239169   4.959   0.189   5.182
13071TIP3    H139170   4.955   0.264   5.123
13071TIP3    H239171   4.912   0.119   5.137
13072TIP3   OH239172   0.339   0.962   4.606
13072TIP3    H139173   0.261   0.995   4.562
13072TIP3    H239174   0.346   1.016   4.686
13073TIP3   OH239175   6.880   7.093   5.343
13073TIP3    H139176   6.933   7.018   5.316
13073TIP3    H239177   6.792   7.074   5.311
13074TIP3   OH239178   8.165   3.827   6.534
13074TIP3    H139179   8.091   3.788   6.580
13074TIP3    H239180   8.171   3.916   6.569
13075TIP3   OH239181   0.964   5.614   2.383
13075TIP3    H139182   1.026   5.666   2.433
13075TIP3    H239183   0.947   5.537   2.437
13076TIP3   OH239184   7.615   4.748   2.680
13076TIP3    H139185   7.529   4.721   2.713
13076TIP3    H239186   7.607   4.842   2.665
13077TIP3   OH239187   0.308   7.269   1.935
13077TIP3    H139188   0.286   7.362   1.934
13077TIP3    H239189   0.359   7.257   2.015
13078TIP3   OH239190   4.229   2.779   3.788
13078TIP3    H139191   4.315   2.739   3.804
13078TIP3    H239192   4.167   2.716   3.826
13079TIP3   OH239193   1.283   5.333   0.594
13079TIP3    H139194   1.206   5.311   0.542
13079TIP3    H239195   1.350   5.357   0.530
13080TIP3   OH239196   0.485   7.042   5.265
13080TIP3    H139197   0.404   7.062   5.312
13080TIP3    H239198   0.552   7.038   5.334
13081TIP3   OH239199   6.861   0.935   3.053
13081TIP3    H139200   6.947   0.917   3.017
13081TIP3    H239201   6.864   1.028   3.077
13082TIP3   OH239202   0.965   2.946   3.944
13082TIP3    H139203   0.879   2.924   3.980
13082TIP3    H239204   0.994   3.021   3.995
13083TIP3   OH239205   6.430   6.464   1.688
13083TIP3    H139206   6.518   6.481   1.655
13083TIP3    H239207   6.377   6.534   1.650
13084TIP3   OH239208   3.792   1.114   6.470
13084TIP3    H139209   3.761   1.093   6.382
13084TIP3    H239210   3.729   1.071   6.528
13085TIP3   OH239211   3.527   0.577   1.679
13085TIP3    H139212   3.597   0.579   1.743
13085TIP3    H239213   3.478   0.497   1.698
13086TIP3   OH239214   7.949   7.576   1.905
13086TIP3    H139215   7.991   7.662   1.913
13086TIP3    H239216   7.889   7.572   1.980
13087TIP3   OH239217   6.862   6.065   3.101
13087TIP3    H139218   6.849   6.128   3.171
13087TIP3    H239219   6.841   6.113   3.021
13088TIP3   OH239220   4.471   3.627   1.249
13088TIP3    H139221   4.464   3.708   1.199
13088TIP3    H239222   4.383   3.612   1.284
13089TIP3   OH239223   5.136   6.156   6.366
13089TIP3    H139224   5.061   6.100   6.345
13089TIP3    H239225   5.211   6.111   6.327
13090TIP3   OH239226   6.479   7.114   6.074
13090TIP3    H139227   6.444   7.179   6.134
13090TIP3    H239228   6.570   7.141   6.059
13091TIP3   OH239229   1.729   3.330   5.500
13091TIP3    H139230   1.723   3.384   5.422
13091TIP3    H239231   1.764   3.246   5.470
13092TIP3   OH239232   4.693   3.263   0.987
13092TIP3    H139233   4.731   3.242   0.902
13092TIP3    H239234   4.630   3.193   1.004
13093TIP3   OH239235   6.192   0.890   5.411
13093TIP3    H139236   6.249   0.853   5.478
13093TIP3    H239237   6.243   0.887   5.331
13094TIP3   OH239238   2.254   6.694   5.355
13094TIP3    H139239   2.277   6.781   5.324
13094TIP3    H239240   2.286   6.635   5.286
13095TIP3   OH239241   4.192   0.523   4.247
13095TIP3    H139242   4.240   0.551   4.325
13095TIP3    H239243   4.219   0.432   4.234
13096TIP3   OH239244   4.388   1.219   1.373
13096TIP3    H139245   4.452   1.262   1.317
13096TIP3    H239246   4.410   1.126   1.367
13097TIP3   OH239247   5.939   6.820   5.318
13097TIP3    H139248   5.918   6.837   5.226
13097TIP3    H239249   6.027   6.783   5.317
13098TIP3   OH239250   3.587   5.194   2.122
13098TIP3    H139251   3.532   5.268   2.098
13098TIP3    H239252   3.675   5.231   2.132
13099TIP3   OH239253   5.921   4.710   5.949
13099TIP3    H139254   5.992   4.704   6.013
13099TIP3    H239255   5.943   4.787   5.897
13100TIP3   OH239256   6.316   1.979   0.739
13100TIP3    H139257   6.353   1.956   0.824
13100TIP3    H239258   6.231   1.936   0.737
13101TIP3   OH239259   1.534   7.121   6.578
13101TIP3    H139260   1.578   7.038   6.598
13101TIP3    H239261   1.494   7.107   6.492
13102TIP3   OH239262   0.433   0.139   6.013
13102TIP3    H139263   0.483   0.104   5.939
13102TIP3    H239264   0.344   0.106   5.999
13103TIP3   OH239265   1.034   7.786   5.008
13103TIP3    H139266   1.080   7.801   4.926
13103TIP3    H239267   0.943   7.807   4.990
13104TIP3   OH239268   3.048   5.827   0.352
13104TIP3    H139269   3.049   5.778   0.269
13104TIP3    H239270   3.060   5.918   0.326
13105TIP3   OH239271   3.047   0.221   4.266
13105TIP3    H139272   3.048   0.147   4.327
13105TIP3    H239273   3.115   0.201   4.202
13106TIP3   OH239274   3.317   0.277   4.191
13106TIP3    H139275   3.350   0.272   4.281
13106TIP3    H239276   3.374   0.218   4.141
13107TIP3   OH239277   0.582   2.213   3.871
13107TIP3    H139278   0.548   2.128   3.899
13107TIP3    H239279   0.620   2.251   3.950
13108TIP3   OH239280   3.982   1.085   0.305
13108TIP3    H139281   4.022   1.172   0.303
13108TIP3    H239282   4.037   1.032   0.247
13109TIP3   OH239283   0.305   4.872   1.296
13109TIP3    H139284   0.400   4.857   1.294
13109TIP3    H239285   0.289   4.937   1.228
13110TIP3   OH239286   1.944   3.815   2.517
13110TIP3    H139287   1.889   3.737   2.508
13110TIP3    H239288   1.892   3.886   2.480
13111TIP3   OH239289   0.334   0.167   5.655
13111TIP3    H139290   0.282   0.229   5.604
13111TIP3    H239291   0.381   0.223   5.718
13112TIP3   OH239292   6.330   2.578   6.357
13112TIP3    H139293   6.387   2.588   6.281
13112TIP3    H239294   6.364   2.500   6.402
13113TIP3   OH239295   8.114   4.071   6.327
13113TIP3    H139296   8.186   4.054   6.266
13113TIP3    H239297   8.156   4.071   6.413
13114TIP3   OH239298   2.999   7.755   5.219
13114TIP3    H139299   2.908   7.751   5.189
13114TIP3    H239300   2.997   7.819   5.290
13115TIP3   OH239301   8.007   6.033   0.814
13115TIP3    H139302   8.001   6.019   0.909
13115TIP3    H239303   8.090   5.992   0.789
13116TIP3   OH239304   4.394   0.505   6.738
13116TIP3    H139305   4.457   0.532   6.804
13116TIP3    H239306   4.434   0.429   6.695
13117TIP3   OH239307   6.506   2.398   2.124
13117TIP3    H139308   6.597   2.401   2.153
13117TIP3    H239309   6.469   2.322   2.168
13118TIP3   OH239310   7.028   1.198   4.100
13118TIP3    H139311   7.096   1.135   4.124
13118TIP3    H239312   6.958   1.144   4.062
13119TIP3   OH239313   2.163   2.425   1.280
13119TIP3    H139314   2.118   2.444   1.198
13119TIP3    H239315   2.255   2.445   1.262
13120TIP3   OH239316   3.117   7.335   2.362
13120TIP3    H139317   3.100   7.404   2.297
13120TIP3    H239318   3.140   7.383   2.442
13121TIP3   OH239319   1.527   7.552   2.451
13121TIP3    H139320   1.608   7.531   2.498
13121TIP3    H239321   1.508   7.643   2.474
13122TIP3   OH239322   0.926   1.471   2.383
13122TIP3    H139323   0.963   1.411   2.318
13122TIP3    H239324   0.895   1.546   2.332
13123TIP3   OH239325   5.245   7.488   0.298
13123TIP3    H139326   5.307   7.453   0.362
13123TIP3    H239327   5.291   7.485   0.215
13124TIP3   OH239328   2.366   0.573   5.724
13124TIP3    H139329   2.439   0.515   5.745
13124TIP3    H239330   2.377   0.593   5.630
13125TIP3   OH239331   6.716   4.729   2.095
13125TIP3    H139332   6.754   4.660   2.040
13125TIP3    H239333   6.791   4.780   2.125
13126TIP3   OH239334   7.964   4.350   3.139
13126TIP3    H139335   7.904   4.424   3.137
13126TIP3    H239336   8.004   4.354   3.226
13127TIP3   OH239337   5.952   3.737   3.385
13127TIP3    H139338   5.971   3.831   3.395
13127TIP3    H239339   5.865   3.735   3.345
13128TIP3   OH239340   1.414   5.031   3.772
13128TIP3    H139341   1.389   4.947   3.733
13128TIP3    H239342   1.334   5.063   3.814
13129TIP3   OH239343   5.316   7.673   0.514
13129TIP3    H139344   5.291   7.717   0.595
13129TIP3    H239345   5.234   7.658   0.468
13130TIP3   OH239346   5.797   3.546   4.804
13130TIP3    H139347   5.758   3.608   4.742
13130TIP3    H239348   5.849   3.601   4.862
13131TIP3   OH239349   4.923   2.888   6.209
13131TIP3    H139350   4.901   2.877   6.116
13131TIP3    H239351   4.848   2.934   6.246
13132TIP3   OH239352   6.030   0.031   3.932
13132TIP3    H139353   5.950   0.083   3.932
13132TIP3    H239354   6.001  -0.059   3.917
13133TIP3   OH239355   8.159   1.448   0.684
13133TIP3    H139356   8.065   1.439   0.668
13133TIP3    H239357   8.178   1.541   0.669
13134TIP3   OH239358   0.971   1.118   6.669
13134TIP3    H139359   0.932   1.202   6.695
13134TIP3    H239360   1.011   1.136   6.584
13135TIP3   OH239361   4.634   3.409   1.654
13135TIP3    H139362   4.721   3.373   1.640
13135TIP3    H239363   4.585   3.337   1.696
13136TIP3   OH239364   6.585   3.270   6.215
13136TIP3    H139365   6.592   3.362   6.238
13136TIP3    H239366   6.492   3.249   6.225
13137TIP3   OH239367   0.660   3.335   0.972
13137TIP3    H139368   0.732   3.287   0.930
13137TIP3    H239369   0.701   3.374   1.049
13138TIP3   OH239370   0.101   5.448   6.573
13138TIP3    H139371   0.055   5.465   6.491
13138TIP3    H239372   0.053   5.376   6.614
13139TIP3   OH239373   6.753   7.081   1.994
13139TIP3    H139374   6.845   7.084   1.965
13139TIP3    H239375   6.756   7.107   2.086
13140TIP3   OH239376   7.540   3.145   1.694
13140TIP3    H139377   7.630   3.135   1.663
13140TIP3    H239378   7.490   3.168   1.616
13141TIP3   OH239379   7.066   0.263   4.494
13141TIP3    H139380   7.116   0.208   4.433
13141TIP3    H239381   7.021   0.326   4.438
13142TIP3   OH239382   0.297   2.038   6.255
13142TIP3    H139383   0.383   2.078   6.250
13142TIP3    H239384   0.237   2.105   6.222
13143TIP3   OH239385   1.591   2.396   0.088
13143TIP3    H139386   1.605   2.346   0.007
13143TIP3    H239387   1.655   2.468   0.083
13144TIP3   OH239388   6.307   0.809   0.867
13144TIP3    H139389   6.356   0.837   0.944
13144TIP3    H239390   6.354   0.847   0.793
13145TIP3   OH239391   4.639   1.190   2.157
13145TIP3    H139392   4.718   1.145   2.124
13145TIP3    H239393   4.628   1.156   2.246
13146TIP3   OH239394   7.473   7.772   5.849
13146TIP3    H139395   7.403   7.737   5.794
13146TIP3    H239396   7.431   7.791   5.932
13147TIP3   OH239397   0.235   3.706   1.686
13147TIP3    H139398   0.222   3.792   1.725
13147TIP3    H239399   0.291   3.721   1.611
13148TIP3   OH239400   0.624   7.657   2.399
13148TIP3    H139401   0.636   7.685   2.308
13148TIP3    H239402   0.635   7.737   2.450
13149TIP3   OH239403   3.863   6.268   5.297
13149TIP3    H139404   3.774   6.263   5.260
13149TIP3    H239405   3.918   6.222   5.233
13150TIP3   OH239406   6.220   6.312   4.448
13150TIP3    H139407   6.167   6.331   4.525
13150TIP3    H239408   6.309   6.336   4.473
13151TIP3   OH239409   2.585   3.964   4.424
13151TIP3    H139410   2.588   4.060   4.430
13151TIP3    H239411   2.556   3.947   4.334
13152TIP3   OH239412   6.750   1.679   5.563
13152TIP3    H139413   6.693   1.607   5.590
13152TIP3    H239414   6.726   1.695   5.471
13153TIP3   OH239415   2.816   1.604   3.791
13153TIP3    H139416   2.836   1.615   3.884
13153TIP3    H239417   2.899   1.620   3.746
13154TIP3   OH239418   0.309   4.503   1.510
13154TIP3    H139419   0.269   4.545   1.435
13154TIP3    H239420   0.281   4.554   1.585
13155TIP3   OH239421   1.456   3.547   5.387
13155TIP3    H139422   1.365   3.515   5.386
13155TIP3    H239423   1.480   3.554   5.295
13156TIP3   OH239424   6.994   4.965   3.132
13156TIP3    H139425   6.979   5.058   3.115
13156TIP3    H239426   6.928   4.920   3.079
13157TIP3   OH239427   4.954   1.101   5.943
13157TIP3    H139428   5.026   1.040   5.926
13157TIP3    H239429   4.906   1.062   6.016
13158TIP3   OH239430   5.996   3.327   1.842
13158TIP3    H139431   5.945   3.305   1.920
13158TIP3    H239432   5.931   3.355   1.777
13159TIP3   OH239433   2.345   5.631   4.106
13159TIP3    H139434   2.358   5.553   4.052
13159TIP3    H239435   2.430   5.675   4.106
13160TIP3   OH239436   6.556   2.468   4.435
13160TIP3    H139437   6.601   2.552   4.425
13160TIP3    H239438   6.627   2.403   4.443
13161TIP3   OH239439   7.844   3.727   2.916
13161TIP3    H139440   7.912   3.786   2.884
13161TIP3    H239441   7.885   3.640   2.914
13162TIP3   OH239442   1.120   5.772   3.612
13162TIP3    H139443   1.104   5.746   3.522
13162TIP3    H239444   1.191   5.716   3.642
13163TIP3   OH239445   0.871   6.410   0.345
13163TIP3    H139446   0.786   6.417   0.389
13163TIP3    H239447   0.880   6.318   0.324
13164TIP3   OH239448   2.153   6.663   1.737
13164TIP3    H139449   2.169   6.753   1.711
13164TIP3    H239450   2.147   6.665   1.832
13165TIP3   OH239451   0.757   1.313   6.404
13165TIP3    H139452   0.817   1.354   6.342
13165TIP3    H239453   0.756   1.220   6.379
13166TIP3   OH239454   3.780   6.784   4.820
13166TIP3    H139455   3.758   6.856   4.761
13166TIP3    H239456   3.729   6.800   4.899
13167TIP3   OH239457   1.383   6.369   4.115
13167TIP3    H139458   1.361   6.443   4.058
13167TIP3    H239459   1.418   6.408   4.195
13168TIP3   OH239460   5.114   0.631   2.285
13168TIP3    H139461   5.020   0.633   2.272
13168TIP3    H239462   5.150   0.675   2.208
13169TIP3   OH239463   6.395   3.876   4.919
13169TIP3    H139464   6.460   3.898   4.853
13169TIP3    H239465   6.435   3.804   4.968
13170TIP3   OH239466   7.379   0.725   2.607
13170TIP3    H139467   7.444   0.789   2.638
13170TIP3    H239468   7.415   0.640   2.631
13171TIP3   OH239469   1.114   5.873   0.611
13171TIP3    H139470   1.142   5.792   0.653
13171TIP3    H239471   1.193   5.927   0.609
13172TIP3   OH239472   7.884   0.362   5.851
13172TIP3    H139473   7.950   0.294   5.837
13172TIP3    H239474   7.875   0.366   5.946
13173TIP3   OH239475   1.632   6.878   1.576
13173TIP3    H139476   1.675   6.925   1.504
13173TIP3    H239477   1.637   6.786   1.550
13174TIP3   OH239478   2.108   1.804   5.891
13174TIP3    H139479   2.051   1.777   5.963
13174TIP3    H239480   2.176   1.856   5.932
13175TIP3   OH239481   2.503   6.776   4.182
13175TIP3    H139482   2.598   6.765   4.195
13175TIP3    H239483   2.492   6.871   4.172
13176TIP3   OH239484   2.489   7.798   0.180
13176TIP3    H139485   2.501   7.713   0.138
13176TIP3    H239486   2.542   7.793   0.259
13177TIP3   OH239487   1.068   0.422   1.498
13177TIP3    H139488   1.149   0.418   1.548
13177TIP3    H239489   1.090   0.382   1.413
13178TIP3   OH239490   2.195   3.527   3.870
13178TIP3    H139491   2.177   3.582   3.946
13178TIP3    H239492   2.156   3.443   3.891
13179TIP3   OH239493   2.637   6.775   2.636
13179TIP3    H139494   2.643   6.870   2.627
13179TIP3    H239495   2.639   6.760   2.731
13180TIP3   OH239496   3.886   5.455   5.182
13180TIP3    H139497   3.826   5.381   5.195
13180TIP3    H239498   3.892   5.464   5.087
13181TIP3   OH239499   6.640   0.160   6.410
13181TIP3    H139500   6.547   0.139   6.419
13181TIP3    H239501   6.648   0.247   6.450
13182TIP3   OH239502   6.698   6.356   5.917
13182TIP3    H139503   6.657   6.338   5.832
13182TIP3    H239504   6.715   6.269   5.954
13183TIP3   OH239505   7.280   4.641   6.192
13183TIP3    H139506   7.189   4.636   6.163
13183TIP3    H239507   7.278   4.614   6.284
13184TIP3   OH239508   1.394   1.979   0.359
13184TIP3    H139509   1.416   2.034   0.283
13184TIP3    H239510   1.299   1.972   0.357
13185TIP3   OH239511   0.467   0.279   1.705
13185TIP3    H139512   0.554   0.242   1.689
13185TIP3    H239513   0.478   0.335   1.782
13186TIP3   OH239514   6.843   5.086   4.226
13186TIP3    H139515   6.749   5.082   4.208
13186TIP3    H239516   6.866   4.998   4.254
13187TIP3   OH239517   3.101   0.740   5.718
13187TIP3    H139518   3.156   0.804   5.672
13187TIP3    H239519   3.097   0.772   5.808
13188TIP3   OH239520   4.264   4.811   0.923
13188TIP3    H139521   4.358   4.829   0.926
13188TIP3    H239522   4.235   4.815   1.014
13189TIP3   OH239523   6.111   4.472   3.133
13189TIP3    H139524   6.120   4.529   3.209
13189TIP3    H239525   6.108   4.531   3.058
13190TIP3   OH239526   3.910   0.707   0.932
13190TIP3    H139527   3.825   0.749   0.944
13190TIP3    H239528   3.973   0.779   0.935
13191TIP3   OH239529   7.702   2.768   1.327
13191TIP3    H139530   7.784   2.729   1.295
13191TIP3    H239531   7.720   2.862   1.330
13192TIP3   OH239532   5.813   6.832   0.793
13192TIP3    H139533   5.751   6.784   0.737
13192TIP3    H239534   5.818   6.780   0.873
13193TIP3   OH239535   2.800   3.246   1.764
13193TIP3    H139536   2.731   3.183   1.783
13193TIP3    H239537   2.775   3.325   1.811
13194TIP3   OH239538   0.148   5.598   1.133
13194TIP3    H139539   0.218   5.664   1.134
13194TIP3    H239540   0.109   5.603   1.220
13195TIP3   OH239541   6.783   4.182   0.574
13195TIP3    H139542   6.751   4.180   0.484
13195TIP3    H239543   6.718   4.235   0.621
13196TIP3   OH239544   1.192   7.371   5.386
13196TIP3    H139545   1.205   7.457   5.347
13196TIP3    H239546   1.159   7.389   5.475
13197TIP3   OH239547   0.613   3.520   4.065
13197TIP3    H139548   0.630   3.599   4.013
13197TIP3    H239549   0.700   3.491   4.092
13198TIP3   OH239550   5.236   1.651   5.538
13198TIP3    H139551   5.320   1.613   5.564
13198TIP3    H239552   5.239   1.652   5.443
13199TIP3   OH239553   8.130   3.335   3.595
13199TIP3    H139554   8.180   3.350   3.514
13199TIP3    H239555   8.055   3.394   3.587
13200TIP3   OH239556   3.994   6.380   2.371
13200TIP3    H139557   4.068   6.440   2.379
13200TIP3    H239558   3.924   6.433   2.333
13201TIP3   OH239559   3.792   3.660   4.249
13201TIP3    H139560   3.731   3.734   4.252
13201TIP3    H239561   3.762   3.607   4.175
13202TIP3   OH239562   4.193   2.960   5.267
13202TIP3    H139563   4.121   3.020   5.284
13202TIP3    H239564   4.220   2.929   5.353
13203TIP3   OH239565   1.130   6.387   6.210
13203TIP3    H139566   1.204   6.437   6.243
13203TIP3    H239567   1.061   6.401   6.275
13204TIP3   OH239568   0.163   6.652   1.304
13204TIP3    H139569   0.156   6.747   1.315
13204TIP3    H239570   0.211   6.622   1.381
13205TIP3   OH239571   3.561   1.797   3.303
13205TIP3    H139572   3.529   1.871   3.252
13205TIP3    H239573   3.503   1.793   3.379
13206TIP3   OH239574   0.766   5.532   0.187
13206TIP3    H139575   0.766   5.530   0.283
13206TIP3    H239576   0.766   5.625   0.164
13207TIP3   OH239577   2.177   1.271   0.278
13207TIP3    H139578   2.104   1.307   0.329
13207TIP3    H239579   2.146   1.186   0.249
13208TIP3   OH239580   7.950   1.984   6.294
13208TIP3    H139581   7.873   2.006   6.346
13208TIP3    H239582   8.008   1.938   6.355
13209TIP3   OH239583   1.378   5.172   5.264
13209TIP3    H139584   1.393   5.168   5.170
13209TIP3    H239585   1.446   5.115   5.301
13210TIP3   OH239586   3.798   1.838   3.144
13210TIP3    H139587   3.717   1.848   3.194
13210TIP3    H239588   3.822   1.746   3.155
13211TIP3   OH239589   7.141   1.985   3.829
13211TIP3    H139590   7.187   1.902   3.840
13211TIP3    H239591   7.182   2.043   3.892
13212TIP3   OH239592   6.630   2.494   4.718
13212TIP3    H139593   6.723   2.490   4.695
13212TIP3    H239594   6.607   2.587   4.709
13213TIP3   OH239595   8.107   4.876   5.030
13213TIP3    H139596   8.038   4.916   4.978
13213TIP3    H239597   8.160   4.828   4.966
13214TIP3   OH239598   7.131   1.547   2.124
13214TIP3    H139599   7.201   1.543   2.189
13214TIP3    H239600   7.174   1.536   2.040
13215TIP3   OH239601   7.765   2.852   0.558
13215TIP3    H139602   7.806   2.905   0.491
13215TIP3    H239603   7.816   2.869   0.637
13216TIP3   OH239604   7.332   3.539   3.827
13216TIP3    H139605   7.245   3.543   3.866
13216TIP3    H239606   7.392   3.553   3.900
13217TIP3   OH239607   2.453   3.928   1.353
13217TIP3    H139608   2.455   4.008   1.300
13217TIP3    H239609   2.525   3.875   1.318
13218TIP3   OH239610   6.236   1.280   4.726
13218TIP3    H139611   6.272   1.285   4.815
13218TIP3    H239612   6.267   1.360   4.683
13219TIP3   OH239613   0.094   0.767   1.558
13219TIP3    H139614   0.090   0.686   1.507
13219TIP3    H239615   0.161   0.751   1.624
13220TIP3   OH239616   0.030   6.107   0.828
13220TIP3    H139617   0.102   6.168   0.847
13220TIP3    H239618   0.070   6.020   0.837
13221TIP3   OH239619   6.020   6.765   1.734
13221TIP3    H139620   6.015   6.801   1.822
13221TIP3    H239621   6.000   6.840   1.677
13222TIP3   OH239622   2.298   4.176   5.099
13222TIP3    H139623   2.341   4.231   5.034
13222TIP3    H239624   2.369   4.129   5.143
13223TIP3   OH239625   4.491   1.790   0.057
13223TIP3    H139626   4.426   1.857   0.079
13223TIP3    H239627   4.571   1.817   0.102
13224TIP3   OH239628   6.524   3.809   5.722
13224TIP3    H139629   6.579   3.847   5.791
13224TIP3    H239630   6.489   3.729   5.761
13225TIP3   OH239631   0.853   4.727   3.168
13225TIP3    H139632   0.788   4.692   3.229
13225TIP3    H239633   0.803   4.776   3.104
13226TIP3   OH239634   3.972   7.302   0.676
13226TIP3    H139635   4.065   7.321   0.689
13226TIP3    H239636   3.956   7.224   0.730
13227TIP3   OH239637   3.024   2.270   6.142
13227TIP3    H139638   2.931   2.256   6.154
13227TIP3    H239639   3.063   2.248   6.226
13228TIP3   OH239640   7.818   4.437   4.415
13228TIP3    H139641   7.870   4.420   4.336
13228TIP3    H239642   7.748   4.495   4.384
13229TIP3   OH239643   3.092   7.271   4.954
13229TIP3    H139644   3.015   7.218   4.933
13229TIP3    H239645   3.057   7.350   4.995
13230TIP3   OH239646   2.022   3.164   3.757
13230TIP3    H139647   2.095   3.147   3.697
13230TIP3    H239648   2.061   3.213   3.829
13231TIP3   OH239649   0.893   3.570   1.578
13231TIP3    H139650   0.954   3.617   1.520
13231TIP3    H239651   0.946   3.548   1.655
13232TIP3   OH239652   1.058   3.245   1.412
13232TIP3    H139653   1.014   3.200   1.340
13232TIP3    H239654   1.121   3.181   1.445
13233TIP3   OH239655   6.420   3.486   3.141
13233TIP3    H139656   6.443   3.518   3.228
13233TIP3    H239657   6.442   3.558   3.082
13234TIP3   OH239658   2.476   1.360   4.546
13234TIP3    H139659   2.503   1.439   4.593
13234TIP3    H239660   2.455   1.298   4.616
13235TIP3   OH239661   3.832   2.050   6.120
13235TIP3    H139662   3.877   1.983   6.067
13235TIP3    H239663   3.861   2.133   6.083
13236TIP3   OH239664   2.266   5.801   1.687
13236TIP3    H139665   2.338   5.768   1.634
13236TIP3    H239666   2.260   5.741   1.761
13237TIP3   OH239667   7.903   1.289   0.226
13237TIP3    H139668   7.877   1.299   0.317
13237TIP3    H239669   7.833   1.331   0.176
13238TIP3   OH239670   1.644   0.569   5.733
13238TIP3    H139671   1.703   0.581   5.659
13238TIP3    H239672   1.561   0.606   5.704
13239TIP3   OH239673   1.016   3.745   4.963
13239TIP3    H139674   1.008   3.653   4.941
13239TIP3    H239675   1.096   3.751   5.014
13240TIP3   OH239676   5.031   6.889   5.123
13240TIP3    H139677   4.944   6.922   5.102
13240TIP3    H239678   5.024   6.859   5.213
13241TIP3   OH239679   4.346   6.480   6.087
13241TIP3    H139680   4.281   6.498   6.019
13241TIP3    H239681   4.355   6.385   6.087
13242TIP3   OH239682   3.792   5.680   3.055
13242TIP3    H139683   3.807   5.605   3.111
13242TIP3    H239684   3.697   5.685   3.045
13243TIP3   OH239685   3.433   4.205   4.898
13243TIP3    H139686   3.343   4.185   4.922
13243TIP3    H239687   3.451   4.290   4.938
13244TIP3   OH239688   3.152   1.576   4.201
13244TIP3    H139689   3.221   1.639   4.220
13244TIP3    H239690   3.198   1.502   4.161
13245TIP3   OH239691   2.596   6.143   0.953
13245TIP3    H139692   2.560   6.062   0.987
13245TIP3    H239693   2.661   6.116   0.888
13246TIP3   OH239694   4.542   6.398   4.414
13246TIP3    H139695   4.493   6.396   4.331
13246TIP3    H239696   4.633   6.381   4.388
13247TIP3   OH239697   2.103   6.183   5.590
13247TIP3    H139698   2.087   6.211   5.500
13247TIP3    H239699   2.162   6.250   5.626
13248TIP3   OH239700   6.087   5.673   0.990
13248TIP3    H139701   6.010   5.725   0.968
13248TIP3    H239702   6.130   5.723   1.060
13249TIP3   OH239703   3.342   5.940   5.203
13249TIP3    H139704   3.390   5.990   5.136
13249TIP3    H239705   3.250   5.951   5.178
13250TIP3   OH239706   2.315   2.099   5.162
13250TIP3    H139707   2.294   2.189   5.189
13250TIP3    H239708   2.250   2.079   5.095
13251TIP3   OH239709   3.430   5.111   4.275
13251TIP3    H139710   3.473   5.162   4.207
13251TIP3    H239711   3.342   5.093   4.240
13252TIP3   OH239712   6.605   2.143   2.498
13252TIP3    H139713   6.634   2.152   2.407
13252TIP3    H239714   6.682   2.165   2.550
13253TIP3   OH239715   0.826   0.994   5.306
13253TIP3    H139716   0.854   1.024   5.220
13253TIP3    H239717   0.900   0.942   5.338
13254TIP3   OH239718   3.005   2.228   3.543
13254TIP3    H139719   3.086   2.184   3.568
13254TIP3    H239720   3.025   2.271   3.460
13255TIP3   OH239721   1.701   2.680   6.126
13255TIP3    H139722   1.751   2.657   6.048
13255TIP3    H239723   1.617   2.635   6.115
13256TIP3   OH239724   7.213   4.764   0.099
13256TIP3    H139725   7.216   4.837   0.162
13256TIP3    H239726   7.303   4.732   0.095
13257TIP3   OH239727   2.410   7.646   6.486
13257TIP3    H139728   2.326   7.691   6.494
13257TIP3    H239729   2.424   7.606   6.571
13258TIP3   OH239730   4.010   7.367   1.353
13258TIP3    H139731   3.991   7.277   1.379
13258TIP3    H239732   4.094   7.361   1.307
13259TIP3   OH239733   6.307   4.131   3.273
13259TIP3    H139734   6.213   4.121   3.291
13259TIP3    H239735   6.343   4.043   3.284
13260TIP3   OH239736   0.106   1.395   5.842
13260TIP3    H139737   0.145   1.336   5.778
13260TIP3    H239738   0.118   1.351   5.926
13261TIP3   OH239739   6.389   0.980   5.673
13261TIP3    H139740   6.335   0.916   5.719
13261TIP3    H239741   6.380   1.061   5.724
13262TIP3   OH239742   0.278   5.287   6.044
13262TIP3    H139743   0.293   5.219   6.109
13262TIP3    H239744   0.211   5.251   5.986
13263TIP3   OH239745   3.564   1.982   4.213
13263TIP3    H139746   3.522   2.039   4.277
13263TIP3    H239747   3.648   1.959   4.251
13264TIP3   OH239748   1.268   4.134  -0.011
13264TIP3    H139749   1.196   4.085   0.028
13264TIP3    H239750   1.297   4.193   0.058
13265TIP3   OH239751   0.144   3.287   2.694
13265TIP3    H139752   0.187   3.234   2.761
13265TIP3    H239753   0.212   3.347   2.663
13266TIP3   OH239754   4.699   5.279   0.649
13266TIP3    H139755   4.736   5.295   0.737
13266TIP3    H239756   4.710   5.363   0.604
13267TIP3   OH239757   6.153   4.759   5.524
13267TIP3    H139758   6.246   4.759   5.500
13267TIP3    H239759   6.107   4.776   5.442
13268TIP3   OH239760   2.556   5.966   6.452
13268TIP3    H139761   2.540   6.058   6.471
13268TIP3    H239762   2.525   5.955   6.362
13269TIP3   OH239763   3.404   6.913   3.217
13269TIP3    H139764   3.368   6.917   3.305
13269TIP3    H239765   3.446   6.998   3.204
13270TIP3   OH239766   4.636   3.936   5.697
13270TIP3    H139767   4.630   4.019   5.650
13270TIP3    H239768   4.559   3.935   5.754
13271TIP3   OH239769   3.435   3.334   3.038
13271TIP3    H139770   3.454   3.356   2.946
13271TIP3    H239771   3.520   3.317   3.076
13272TIP3   OH239772   0.742   0.198   2.809
13272TIP3    H139773   0.750   0.293   2.818
13272TIP3    H239774   0.721   0.184   2.717
13273TIP3   OH239775   4.527   7.624   2.410
13273TIP3    H139776   4.453   7.586   2.456
13273TIP3    H239777   4.599   7.561   2.424
13274TIP3   OH239778   4.974   2.026   0.647
13274TIP3    H139779   4.967   1.932   0.635
13274TIP3    H239780   4.884   2.058   0.640
13275TIP3   OH239781   4.372   5.598   3.905
13275TIP3    H139782   4.311   5.658   3.861
13275TIP3    H239783   4.365   5.620   3.998
13276TIP3   OH239784   2.138   1.841   4.457
13276TIP3    H139785   2.192   1.779   4.408
13276TIP3    H239786   2.167   1.832   4.548
13277TIP3   OH239787   6.053   1.775   0.769
13277TIP3    H139788   5.988   1.839   0.798
13277TIP3    H239789   6.080   1.730   0.849
13278TIP3   OH239790   0.301   1.154   3.687
13278TIP3    H139791   0.337   1.186   3.605
13278TIP3    H239792   0.253   1.229   3.723
13279TIP3   OH239793   3.894   5.216   6.743
13279TIP3    H139794   3.810   5.254   6.715
13279TIP3    H239795   3.875   5.175   6.827
13280TIP3   OH239796   1.156   1.876   1.510
13280TIP3    H139797   1.226   1.866   1.446
13280TIP3    H239798   1.201   1.890   1.593
13281TIP3   OH239799   6.570   4.223   5.366
13281TIP3    H139800   6.587   4.298   5.309
13281TIP3    H239801   6.560   4.149   5.305
13282TIP3   OH239802   3.916   2.496   1.258
13282TIP3    H139803   3.845   2.438   1.228
13282TIP3    H239804   3.973   2.439   1.310
13283TIP3   OH239805   5.940   3.324   4.733
13283TIP3    H139806   5.908   3.413   4.746
13283TIP3    H239807   6.035   3.333   4.728
13284TIP3   OH239808   2.583   6.487   2.682
13284TIP3    H139809   2.602   6.570   2.725
13284TIP3    H239810   2.490   6.472   2.700
13285TIP3   OH239811   7.405   7.561   6.085
13285TIP3    H139812   7.498   7.541   6.097
13285TIP3    H239813   7.402   7.657   6.075
13286TIP3   OH239814   0.704   2.110   0.644
13286TIP3    H139815   0.622   2.097   0.595
13286TIP3    H239816   0.692   2.056   0.723
13287TIP3   OH239817   4.981   2.705   2.983
13287TIP3    H139818   4.921   2.728   2.912
13287TIP3    H239819   4.953   2.759   3.057
13288TIP3   OH239820   5.175   7.821   3.552
13288TIP3    H139821   5.103   7.775   3.597
13288TIP3    H239822   5.234   7.751   3.524
13289TIP3   OH239823   5.914   5.572   4.917
13289TIP3    H139824   5.865   5.643   4.875
13289TIP3    H239825   5.926   5.507   4.847
13290TIP3   OH239826   4.623   3.926   5.192
13290TIP3    H139827   4.586   3.989   5.254
13290TIP3    H239828   4.582   3.843   5.214
13291TIP3   OH239829   5.872   3.017   3.073
13291TIP3    H139830   5.855   2.988   3.162
13291TIP3    H239831   5.795   3.067   3.048
13292TIP3   OH239832   1.277   2.023   2.191
13292TIP3    H139833   1.213   2.048   2.124
13292TIP3    H239834   1.290   2.103   2.243
13293TIP3   OH239835   5.883   5.765   1.222
13293TIP3    H139836   5.836   5.772   1.305
13293TIP3    H239837   5.970   5.734   1.247
13294TIP3   OH239838   4.834   5.887   6.585
13294TIP3    H139839   4.904   5.886   6.651
13294TIP3    H239840   4.834   5.976   6.552
13295TIP3   OH239841   4.879   3.706   3.038
13295TIP3    H139842   4.897   3.729   2.947
13295TIP3    H239843   4.855   3.788   3.080
13296TIP3   OH239844   1.820   0.756   4.357
13296TIP3    H139845   1.806   0.829   4.418
13296TIP3    H239846   1.799   0.794   4.271
13297TIP3   OH239847   8.135   7.246   0.219
13297TIP3    H139848   8.103   7.278   0.303
13297TIP3    H239849   8.130   7.150   0.227
13298TIP3   OH239850   2.550   4.938   2.372
13298TIP3    H139851   2.461   4.935   2.408
13298TIP3    H239852   2.537   4.942   2.277
13299TIP3   OH239853   5.109   0.397   5.658
13299TIP3    H139854   5.182   0.351   5.615
13299TIP3    H239855   5.035   0.336   5.649
13300TIP3   OH239856   0.302   1.255   2.449
13300TIP3    H139857   0.331   1.181   2.503
13300TIP3    H239858   0.206   1.253   2.455
13301TIP3   OH239859   4.029   2.378   5.557
13301TIP3    H139860   3.977   2.327   5.619
13301TIP3    H239861   4.093   2.423   5.611
13302TIP3   OH239862   1.490   0.651   2.843
13302TIP3    H139863   1.494   0.723   2.906
13302TIP3    H239864   1.508   0.572   2.894
13303TIP3   OH239865   6.342   0.571   5.375
13303TIP3    H139866   6.402   0.499   5.357
13303TIP3    H239867   6.321   0.607   5.288
13304TIP3   OH239868   1.198   2.324   4.207
13304TIP3    H139869   1.207   2.313   4.112
13304TIP3    H239870   1.257   2.259   4.244
13305TIP3   OH239871   5.554   6.389   5.598
13305TIP3    H139872   5.534   6.460   5.536
13305TIP3    H239873   5.501   6.316   5.569
13306TIP3   OH239874   1.699   2.912   4.893
13306TIP3    H139875   1.656   2.830   4.869
13306TIP3    H239876   1.647   2.980   4.851
13307TIP3   OH239877   6.751   2.209   3.532
13307TIP3    H139878   6.792   2.140   3.585
13307TIP3    H239879   6.795   2.203   3.447
13308TIP3   OH239880   3.681   0.479   0.917
13308TIP3    H139881   3.776   0.467   0.920
13308TIP3    H239882   3.668   0.556   0.861
13309TIP3   OH239883   5.176   1.361   5.093
13309TIP3    H139884   5.118   1.353   5.168
13309TIP3    H239885   5.149   1.442   5.049
13310TIP3   OH239886   5.470   6.433   2.716
13310TIP3    H139887   5.444   6.346   2.747
13310TIP3    H239888   5.418   6.494   2.768
13311TIP3   OH239889   6.250   0.709   3.895
13311TIP3    H139890   6.311   0.782   3.888
13311TIP3    H239891   6.215   0.698   3.807
13312TIP3   OH239892   2.053   3.284   5.488
13312TIP3    H139893   2.095   3.305   5.571
13312TIP3    H239894   2.068   3.190   5.476
13313TIP3   OH239895   5.927   4.993   6.600
13313TIP3    H139896   5.893   5.059   6.661
13313TIP3    H239897   5.968   5.044   6.530
13314TIP3   OH239898   3.851   0.498   5.719
13314TIP3    H139899   3.759   0.502   5.746
13314TIP3    H239900   3.855   0.427   5.656
13315TIP3   OH239901   7.703   5.326   4.835
13315TIP3    H139902   7.609   5.308   4.831
13315TIP3    H239903   7.738   5.293   4.753
13316TIP3   OH239904   4.924   4.873   0.348
13316TIP3    H139905   4.938   4.933   0.275
13316TIP3    H239906   4.861   4.918   0.404
13317TIP3   OH239907   0.425   2.465   5.294
13317TIP3    H139908   0.334   2.453   5.322
13317TIP3    H239909   0.444   2.557   5.314
13318TIP3   OH239910   3.142   5.077   4.224
13318TIP3    H139911   3.183   4.990   4.234
13318TIP3    H239912   3.084   5.084   4.299
13319TIP3   OH239913   6.177   6.707   5.422
13319TIP3    H139914   6.127   6.704   5.504
13319TIP3    H239915   6.199   6.615   5.404
13320TIP3   OH239916   5.259   2.887   5.920
13320TIP3    H139917   5.197   2.928   5.860
13320TIP3    H239918   5.340   2.879   5.869
13321TIP3   OH239919   5.562   5.920   1.858
13321TIP3    H139920   5.496   5.867   1.815
13321TIP3    H239921   5.542   5.912   1.952
13322TIP3   OH239922   1.200   1.889   4.851
13322TIP3    H139923   1.263   1.920   4.787
13322TIP3    H239924   1.139   1.835   4.801
13323TIP3   OH239925   6.648   0.871   1.672
13323TIP3    H139926   6.678   0.951   1.715
13323TIP3    H239927   6.681   0.800   1.728
13324TIP3   OH239928   7.545   6.599   2.594
13324TIP3    H139929   7.465   6.569   2.637
13324TIP3    H239930   7.579   6.522   2.550
13325TIP3   OH239931   8.080   5.547   6.387
13325TIP3    H139932   8.045   5.577   6.303
13325TIP3    H239933   8.175   5.550   6.375
13326TIP3   OH239934   4.114   1.748   3.199
13326TIP3    H139935   4.108   1.843   3.191
13326TIP3    H239936   4.198   1.726   3.160
13327TIP3   OH239937   3.620   3.737   3.925
13327TIP3    H139938   3.536   3.767   3.959
13327TIP3    H239939   3.598   3.664   3.868
13328TIP3   OH239940   3.855   5.399   3.152
13328TIP3    H139941   3.819   5.366   3.235
13328TIP3    H239942   3.811   5.348   3.085
13329TIP3   OH239943   0.680   2.577   3.993
13329TIP3    H139944   0.669   2.496   4.042
13329TIP3    H239945   0.660   2.553   3.902
13330TIP3   OH239946   4.935   0.246   2.479
13330TIP3    H139947   4.847   0.282   2.468
13330TIP3    H239948   4.931   0.197   2.561
13331TIP3   OH239949   6.120   5.078   1.171
13331TIP3    H139950   6.088   5.020   1.103
13331TIP3    H239951   6.198   5.118   1.134
13332TIP3   OH239952   1.113   4.343   2.820
13332TIP3    H139953   1.081   4.390   2.744
13332TIP3    H239954   1.036   4.297   2.854
13333TIP3   OH239955   1.149   6.107   4.830
13333TIP3    H139956   1.054   6.100   4.837
13333TIP3    H239957   1.183   6.031   4.876
13334TIP3   OH239958   8.051   4.076   2.709
13334TIP3    H139959   8.086   3.989   2.727
13334TIP3    H239960   8.128   4.128   2.685
13335TIP3   OH239961   5.593   4.434   4.813
13335TIP3    H139962   5.605   4.495   4.886
13335TIP3    H239963   5.569   4.352   4.856
13336TIP3   OH239964   2.823   1.970   5.721
13336TIP3    H139965   2.809   1.969   5.627
13336TIP3    H239966   2.905   2.018   5.733
13337TIP3   OH239967   4.994   6.548   4.344
13337TIP3    H139968   5.011   6.519   4.254
13337TIP3    H239969   5.050   6.493   4.398
13338TIP3   OH239970   3.811   3.694   4.659
13338TIP3    H139971   3.898   3.682   4.698
13338TIP3    H239972   3.751   3.697   4.734
13339TIP3   OH239973   6.196   6.497   3.198
13339TIP3    H139974   6.196   6.590   3.175
13339TIP3    H239975   6.126   6.460   3.144
13340TIP3   OH239976   7.912   6.604   4.198
13340TIP3    H139977   7.954   6.596   4.113
13340TIP3    H239978   7.975   6.653   4.251
13341TIP3   OH239979   5.766   6.207   3.625
13341TIP3    H139980   5.800   6.276   3.682
13341TIP3    H239981   5.843   6.157   3.599
13342TIP3   OH239982   2.492   5.894   1.030
13342TIP3    H139983   2.402   5.863   1.036
13342TIP3    H239984   2.540   5.822   0.989
13343TIP3   OH239985   6.053   6.816   3.676
13343TIP3    H139986   6.049   6.732   3.630
13343TIP3    H239987   6.021   6.797   3.765
13344TIP3   OH239988   7.585   4.892   5.100
13344TIP3    H139989   7.644   4.942   5.044
13344TIP3    H239990   7.523   4.957   5.132
13345TIP3   OH239991   6.912   3.489   4.099
13345TIP3    H139992   6.880   3.532   4.179
13345TIP3    H239993   6.844   3.506   4.035
13346TIP3   OH239994   6.689   4.876   5.406
13346TIP3    H139995   6.631   4.854   5.332
13346TIP3    H239996   6.657   4.961   5.437
13347TIP3   OH239997   5.678   2.323   5.417
13347TIP3    H139998   5.669   2.339   5.511
13347TIP3    H239999   5.766   2.356   5.396
13348TIP3   OH240000   5.029   0.599   5.259
13348TIP3    H140001   5.107   0.545   5.244
13348TIP3    H240002   4.960   0.535   5.277
13349TIP3   OH240003   4.178   2.851   2.041
13349TIP3    H140004   4.094   2.845   2.086
13349TIP3    H240005   4.240   2.877   2.109
13350TIP3   OH240006   3.135   4.020   2.887
13350TIP3    H140007   3.118   4.114   2.899
13350TIP3    H240008   3.103   4.001   2.799
13351TIP3   OH240009   6.058   6.753   1.134
13351TIP3    H140010   6.100   6.744   1.220
13351TIP3    H240011   6.122   6.717   1.073
13352TIP3   OH240012   4.937   0.852   5.218
13352TIP3    H140013   4.976   0.765   5.215
13352TIP3    H240014   4.944   0.885   5.129
13353TIP3   OH240015   3.716   5.158   1.689
13353TIP3    H140016   3.696   5.201   1.606
13353TIP3    H240017   3.674   5.213   1.755
13354TIP3   OH240018   2.650   2.696   6.570
13354TIP3    H140019   2.657   2.791   6.561
13354TIP3    H240020   2.586   2.683   6.641
13355TIP3   OH240021   2.873   2.162   0.982
13355TIP3    H140022   2.925   2.185   0.905
13355TIP3    H240023   2.782   2.164   0.951
13356TIP3   OH240024   3.543   0.955   4.999
13356TIP3    H140025   3.621   0.900   5.008
13356TIP3    H240026   3.563   1.011   4.924
13357TIP3   OH240027   3.506   2.333   3.036
13357TIP3    H140028   3.466   2.266   2.980
13357TIP3    H240029   3.474   2.312   3.124
13358TIP3   OH240030   2.599   4.541   4.509
13358TIP3    H140031   2.655   4.465   4.491
13358TIP3    H240032   2.627   4.571   4.595
13359TIP3   OH240033   5.091   7.381   1.979
13359TIP3    H140034   5.029   7.362   1.909
13359TIP3    H240035   5.076   7.473   2.001
13360TIP3   OH240036   5.592   5.012   2.565
13360TIP3    H140037   5.672   4.979   2.525
13360TIP3    H240038   5.523   4.952   2.535
13361TIP3   OH240039   7.706   2.058   6.410
13361TIP3    H140040   7.654   2.073   6.331
13361TIP3    H240041   7.735   2.145   6.437
13362TIP3   OH240042   8.097   5.205   1.320
13362TIP3    H140043   8.112   5.173   1.409
13362TIP3    H240044   8.014   5.166   1.293
13363TIP3   OH240045   5.491   3.258   6.243
13363TIP3    H140046   5.439   3.315   6.300
13363TIP3    H240047   5.575   3.249   6.288
13364TIP3   OH240048   4.707   1.188   2.721
13364TIP3    H140049   4.745   1.140   2.794
13364TIP3    H240050   4.625   1.223   2.755
13365TIP3   OH240051   4.920   7.689   5.203
13365TIP3    H140052   4.882   7.626   5.142
13365TIP3    H240053   4.848   7.746   5.228
13366TIP3   OH240054   8.000   5.120   3.166
13366TIP3    H140055   7.967   5.094   3.080
13366TIP3    H240056   7.948   5.069   3.228
13367TIP3   OH240057   4.041   7.426   6.024
13367TIP3    H140058   4.011   7.517   6.029
13367TIP3    H240059   4.132   7.428   6.054
13368TIP3   OH240060   3.489   5.427   2.830
13368TIP3    H140061   3.470   5.520   2.817
13368TIP3    H240062   3.584   5.422   2.834
13369TIP3   OH240063   7.267   3.792   3.682
13369TIP3    H140064   7.241   3.749   3.763
13369TIP3    H240065   7.362   3.802   3.689
13370TIP3   OH240066   5.775   0.859   1.888
13370TIP3    H140067   5.728   0.817   1.817
13370TIP3    H240068   5.794   0.788   1.950
13371TIP3   OH240069   6.398   2.642   6.067
13371TIP3    H140070   6.474   2.655   6.010
13371TIP3    H240071   6.376   2.549   6.055
13372TIP3   OH240072   7.569   3.414   4.615
13372TIP3    H140073   7.494   3.354   4.622
13372TIP3    H240074   7.575   3.455   4.701
13373TIP3   OH240075   2.360   2.398   0.411
13373TIP3    H140076   2.350   2.483   0.454
13373TIP3    H240077   2.331   2.413   0.321
13374TIP3   OH240078   6.546   5.723   6.215
13374TIP3    H140079   6.462   5.767   6.222
13374TIP3    H240080   6.575   5.712   6.306
13375TIP3   OH240081   4.951   5.885   0.771
13375TIP3    H140082   4.980   5.913   0.857
13375TIP3    H240083   4.890   5.953   0.742
13376TIP3   OH240084   0.712   4.596   6.526
13376TIP3    H140085   0.629   4.628   6.561
13376TIP3    H240086   0.755   4.675   6.492
13377TIP3   OH240087   4.184   2.179   0.854
13377TIP3    H140088   4.199   2.259   0.905
13377TIP3    H240089   4.169   2.210   0.765
13378TIP3   OH240090   1.180   1.915   6.291
13378TIP3    H140091   1.090   1.881   6.298
13378TIP3    H240092   1.172   2.008   6.312
13379TIP3   OH240093   7.577   6.740   4.841
13379TIP3    H140094   7.538   6.679   4.904
13379TIP3    H240095   7.567   6.826   4.881
13380TIP3   OH240096   2.087   2.695   4.573
13380TIP3    H140097   2.153   2.763   4.560
13380TIP3    H240098   2.119   2.644   4.647
13381TIP3   OH240099   6.874   1.085   2.628
13381TIP3    H140100   6.786   1.105   2.659
13381TIP3    H240101   6.871   0.992   2.606
13382TIP3   OH240102   3.416   6.765   4.766
13382TIP3    H140103   3.476   6.793   4.696
13382TIP3    H240104   3.469   6.773   4.846
13383TIP3   OH240105   1.909   7.683   6.361
13383TIP3    H140106   1.898   7.647   6.273
13383TIP3    H240107   1.835   7.649   6.410
13384TIP3   OH240108   2.139   1.619   1.642
13384TIP3    H140109   2.109   1.705   1.613
13384TIP3    H240110   2.113   1.614   1.734
13385TIP3   OH240111   6.226   0.715   5.791
13385TIP3    H140112   6.210   0.669   5.709
13385TIP3    H240113   6.140   0.742   5.821
13386TIP3   OH240114   3.945   6.284   4.354
13386TIP3    H140115   3.970   6.257   4.442
13386TIP3    H240116   3.909   6.372   4.365
13387TIP3   OH240117   1.660   6.349   2.248
13387TIP3    H140118   1.641   6.368   2.157
13387TIP3    H240119   1.583   6.377   2.296
13388TIP3   OH240120   1.153   3.801   4.690
13388TIP3    H140121   1.139   3.803   4.785
13388TIP3    H240122   1.067   3.782   4.653
13389TIP3   OH240123   4.113   1.307   1.252
13389TIP3    H140124   4.185   1.268   1.302
13389TIP3    H240125   4.077   1.235   1.200
13390TIP3   OH240126   6.491   3.657   5.051
13390TIP3    H140127   6.490   3.568   5.086
13390TIP3    H240128   6.534   3.709   5.119
13391TIP3   OH240129   1.631   0.283   3.302
13391TIP3    H140130   1.561   0.230   3.340
13391TIP3    H240131   1.619   0.370   3.339
13392TIP3   OH240132   1.549   3.266   3.473
13392TIP3    H140133   1.531   3.353   3.438
13392TIP3    H240134   1.562   3.280   3.567
13393TIP3   OH240135   2.054   3.520   1.567
13393TIP3    H140136   2.017   3.522   1.655
13393TIP3    H240137   2.137   3.473   1.577
13394TIP3   OH240138   6.881   0.799   3.864
13394TIP3    H140139   6.852   0.803   3.956
13394TIP3    H240140   6.828   0.865   3.820
13395TIP3   OH240141   4.838   0.084   0.267
13395TIP3    H140142   4.929   0.116   0.262
13395TIP3    H240143   4.792   0.131   0.198
13396TIP3   OH240144   5.334   1.592   6.680
13396TIP3    H140145   5.252   1.641   6.675
13396TIP3    H240146   5.369   1.612   6.767
13397TIP3   OH240147   4.268   0.975   6.621
13397TIP3    H140148   4.341   1.005   6.675
13397TIP3    H240149   4.268   0.880   6.630
13398TIP3   OH240150   4.870   4.109   6.551
13398TIP3    H140151   4.838   4.136   6.637
13398TIP3    H240152   4.958   4.145   6.546
13399TIP3   OH240153   7.813   1.986   2.316
13399TIP3    H140154   7.772   2.059   2.269
13399TIP3    H240155   7.869   2.028   2.381
13400TIP3   OH240156   3.175   0.314   2.747
13400TIP3    H140157   3.157   0.398   2.789
13400TIP3    H240158   3.144   0.249   2.810
13401TIP3   OH240159   3.032   0.988   3.435
13401TIP3    H140160   3.001   0.909   3.390
13401TIP3    H240161   2.989   1.060   3.388
13402TIP3   OH240162   1.327   0.636   3.563
13402TIP3    H140163   1.385   0.679   3.501
13402TIP3    H240164   1.286   0.565   3.512
13403TIP3   OH240165   4.185   0.242   6.214
13403TIP3    H140166   4.129   0.282   6.148
13403TIP3    H240167   4.274   0.265   6.188
13404TIP3   OH240168   4.845   7.121   5.626
13404TIP3    H140169   4.881   7.210   5.634
13404TIP3    H240170   4.918   7.064   5.650
13405TIP3   OH240171   1.782   5.953   0.526
13405TIP3    H140172   1.806   5.922   0.439
13405TIP3    H240173   1.829   6.036   0.535
13406TIP3   OH240174   5.632   7.567   0.211
13406TIP3    H140175   5.616   7.475   0.190
13406TIP3    H240176   5.618   7.613   0.128
13407TIP3   OH240177   4.738   7.774   6.140
13407TIP3    H140178   4.666   7.724   6.102
13407TIP3    H240179   4.810   7.762   6.078
13408TIP3   OH240180   4.738   1.118   0.617
13408TIP3    H140181   4.769   1.205   0.590
13408TIP3    H240182   4.818   1.066   0.627
13409TIP3   OH240183   6.678   2.715   4.271
13409TIP3    H140184   6.648   2.689   4.185
13409TIP3    H240185   6.672   2.810   4.271
13410TIP3   OH240186   1.580   7.725   4.115
13410TIP3    H140187   1.588   7.816   4.086
13410TIP3    H240188   1.628   7.675   4.049
13411TIP3   OH240189   3.237   6.984   4.685
13411TIP3    H140190   3.285   6.907   4.715
13411TIP3    H240191   3.298   7.028   4.626
13412TIP3   OH240192   4.522   5.759   1.331
13412TIP3    H140193   4.431   5.757   1.303
13412TIP3    H240194   4.545   5.852   1.333
13413TIP3   OH240195   8.078   7.166   2.268
13413TIP3    H140196   8.118   7.144   2.183
13413TIP3    H240197   8.009   7.228   2.246
13414TIP3   OH240198   7.870   7.032   2.806
13414TIP3    H140199   7.901   7.099   2.868
13414TIP3    H240200   7.865   6.952   2.858
13415TIP3   OH240201   2.246   5.665   1.921
13415TIP3    H140202   2.307   5.655   1.994
13415TIP3    H240203   2.165   5.696   1.962
13416TIP3   OH240204   6.279   5.901   5.539
13416TIP3    H140205   6.200   5.852   5.559
13416TIP3    H240206   6.274   5.979   5.594
13417TIP3   OH240207   5.801   6.086   3.056
13417TIP3    H140208   5.766   6.124   3.137
13417TIP3    H240209   5.799   6.159   2.994
13418TIP3   OH240210   3.713   5.703   1.622
13418TIP3    H140211   3.697   5.793   1.594
13418TIP3    H240212   3.679   5.700   1.712
13419TIP3   OH240213   2.360   1.386   0.086
13419TIP3    H140214   2.292   1.421   0.027
13419TIP3    H240215   2.311   1.349   0.159
13420TIP3   OH240216   7.555   2.469   6.313
13420TIP3    H140217   7.650   2.470   6.317
13420TIP3    H240218   7.533   2.542   6.255
13421TIP3   OH240219   5.936   2.170   0.552
13421TIP3    H140220   5.857   2.121   0.575
13421TIP3    H240221   5.983   2.112   0.492
13422TIP3   OH240222   4.784   2.170   6.649
13422TIP3    H140223   4.841   2.133   6.581
13422TIP3    H240224   4.761   2.096   6.704
13423TIP3   OH240225   0.864   2.044   1.944
13423TIP3    H140226   0.877   2.115   1.881
13423TIP3    H240227   0.787   2.070   1.995
13424TIP3   OH240228   1.587   2.406   1.792
13424TIP3    H140229   1.583   2.336   1.858
13424TIP3    H240230   1.651   2.375   1.728
13425TIP3   OH240231   1.460   3.829   5.203
13425TIP3    H140232   1.467   3.769   5.277
13425TIP3    H240233   1.551   3.844   5.177
13426TIP3   OH240234   5.277   4.510   3.993
13426TIP3    H140235   5.275   4.437   4.055
13426TIP3    H240236   5.189   4.548   3.998
13427TIP3   OH240237   7.419   2.465   5.323
13427TIP3    H140238   7.327   2.478   5.302
13427TIP3    H240239   7.438   2.529   5.391
13428TIP3   OH240240   3.379   4.431   5.068
13428TIP3    H140241   3.402   4.522   5.087
13428TIP3    H240242   3.453   4.380   5.099
13429TIP3   OH240243   1.738   5.142   0.323
13429TIP3    H140244   1.747   5.143   0.418
13429TIP3    H240245   1.683   5.066   0.305
13430TIP3   OH240246   5.071   5.131   6.112
13430TIP3    H140247   5.035   5.169   6.032
13430TIP3    H240248   5.155   5.093   6.084
13431TIP3   OH240249   3.380   6.130   6.524
13431TIP3    H140250   3.287   6.108   6.530
13431TIP3    H240251   3.425   6.046   6.539
13432TIP3   OH240252   6.286   5.129   0.635
13432TIP3    H140253   6.330   5.208   0.665
13432TIP3    H240254   6.200   5.131   0.678
13433TIP3   OH240255   2.672   6.132   6.194
13433TIP3    H140256   2.691   6.044   6.160
13433TIP3    H240257   2.679   6.189   6.117
13434TIP3   OH240258   1.897   5.053   4.008
13434TIP3    H140259   1.839   5.129   4.005
13434TIP3    H240260   1.958   5.071   4.079
13435TIP3   OH240261   4.671   4.177   0.063
13435TIP3    H140262   4.653   4.270   0.053
13435TIP3    H240263   4.599   4.144   0.117
13436TIP3   OH240264   7.719   3.787   1.122
13436TIP3    H140265   7.746   3.730   1.051
13436TIP3    H240266   7.795   3.844   1.138
13437TIP3   OH240267   0.704   4.241   2.712
13437TIP3    H140268   0.742   4.311   2.766
13437TIP3    H240269   0.702   4.277   2.623
13438TIP3   OH240270   6.086   2.845   5.475
13438TIP3    H140271   6.132   2.896   5.542
13438TIP3    H240272   6.131   2.868   5.394
13439TIP3   OH240273   5.217   3.275   3.829
13439TIP3    H140274   5.284   3.284   3.896
13439TIP3    H240275   5.249   3.204   3.772
13440TIP3   OH240276   7.378   1.799   4.667
13440TIP3    H140277   7.365   1.716   4.621
13440TIP3    H240278   7.322   1.861   4.621
13441TIP3   OH240279   6.351   0.122   1.820
13441TIP3    H140280   6.284   0.190   1.817
13441TIP3    H240281   6.418   0.150   1.758
13442TIP3   OH240282   7.757   5.429   6.569
13442TIP3    H140283   7.771   5.522   6.587
13442TIP3    H240284   7.688   5.427   6.503
13443TIP3   OH240285   6.170   4.009   0.789
13443TIP3    H140286   6.222   3.957   0.728
13443TIP3    H240287   6.114   4.064   0.734
13444TIP3   OH240288   7.676   2.046   6.777
13444TIP3    H140289   7.760   2.034   6.822
13444TIP3    H240290   7.698   2.039   6.684
13445TIP3   OH240291   0.705   5.486   3.369
13445TIP3    H140292   0.685   5.402   3.411
13445TIP3    H240293   0.644   5.548   3.408
13446TIP3   OH240294   5.165   6.026   5.913
13446TIP3    H140295   5.107   5.951   5.918
13446TIP3    H240296   5.232   6.001   5.849
13447TIP3   OH240297   3.459   7.154   2.992
13447TIP3    H140298   3.410   7.094   2.937
13447TIP3    H240299   3.551   7.139   2.969
13448TIP3   OH240300   4.384   0.607   5.865
13448TIP3    H140301   4.471   0.615   5.905
13448TIP3    H240302   4.340   0.541   5.917
13449TIP3   OH240303   1.567   4.657   5.314
13449TIP3    H140304   1.563   4.578   5.367
13449TIP3    H240305   1.619   4.632   5.238
13450TIP3   OH240306   2.916   1.234   3.730
13450TIP3    H140307   2.873   1.243   3.645
13450TIP3    H240308   2.858   1.179   3.782
13451TIP3   OH240309   7.977   2.340   0.188
13451TIP3    H140310   8.040   2.395   0.140
13451TIP3    H240311   7.940   2.399   0.253
13452TIP3   OH240312   3.329   3.405   1.965
13452TIP3    H140313   3.259   3.466   1.987
13452TIP3    H240314   3.398   3.459   1.927
13453TIP3   OH240315   2.105   7.736   0.647
13453TIP3    H140316   2.168   7.666   0.633
13453TIP3    H240317   2.020   7.692   0.650
13454TIP3   OH240318   3.722   4.574   5.857
13454TIP3    H140319   3.648   4.625   5.889
13454TIP3    H240320   3.745   4.615   5.773
13455TIP3   OH240321   1.247   5.287   2.130
13455TIP3    H140322   1.212   5.304   2.043
13455TIP3    H240323   1.335   5.253   2.115
13456TIP3   OH240324   3.755   4.609   1.272
13456TIP3    H140325   3.671   4.631   1.230
13456TIP3    H240326   3.801   4.557   1.206
13457TIP3   OH240327   3.703   3.961   4.434
13457TIP3    H140328   3.617   3.987   4.465
13457TIP3    H240329   3.694   3.958   4.339
13458TIP3   OH240330   5.749   6.186   6.305
13458TIP3    H140331   5.715   6.156   6.221
13458TIP3    H240332   5.812   6.254   6.283
13459TIP3   OH240333   4.459   6.399   3.578
13459TIP3    H140334   4.444   6.489   3.603
13459TIP3    H240335   4.428   6.347   3.652
13460TIP3   OH240336   6.314   4.947   6.744
13460TIP3    H140337   6.242   5.004   6.773
13460TIP3    H240338   6.393   4.999   6.760
13461TIP3   OH240339   7.355   7.539   4.295
13461TIP3    H140340   7.349   7.613   4.356
13461TIP3    H240341   7.445   7.509   4.304
13462TIP3   OH240342   7.120   4.396   4.802
13462TIP3    H140343   7.170   4.315   4.793
13462TIP3    H240344   7.031   4.373   4.779
13463TIP3   OH240345   4.558   4.068   4.066
13463TIP3    H140346   4.531   4.086   3.976
13463TIP3    H240347   4.611   3.988   4.059
13464TIP3   OH240348   0.873   3.281   1.635
13464TIP3    H140349   0.938   3.311   1.571
13464TIP3    H240350   0.909   3.198   1.668
13465TIP3   OH240351   2.333   7.780   2.376
13465TIP3    H140352   2.340   7.825   2.460
13465TIP3    H240353   2.248   7.807   2.341
13466TIP3   OH240354   7.843   6.372   0.618
13466TIP3    H140355   7.763   6.321   0.608
13466TIP3    H240356   7.815   6.463   0.615
13467TIP3   OH240357   6.817   5.074   1.823
13467TIP3    H140358   6.723   5.054   1.818
13467TIP3    H240359   6.853   5.006   1.880
13468TIP3   OH240360   2.483   5.331   1.283
13468TIP3    H140361   2.474   5.305   1.375
13468TIP3    H240362   2.533   5.260   1.242
13469TIP3   OH240363   2.913   4.851   0.404
13469TIP3    H140364   2.927   4.762   0.438
13469TIP3    H240365   2.980   4.904   0.447
13470TIP3   OH240366   7.602   2.178   5.381
13470TIP3    H140367   7.694   2.202   5.392
13470TIP3    H240368   7.603   2.108   5.315
13471TIP3   OH240369   5.584   0.859   0.146
13471TIP3    H140370   5.603   0.785   0.089
13471TIP3    H240371   5.616   0.936   0.099
13472TIP3   OH240372   2.222   4.010   2.286
13472TIP3    H140373   2.252   3.921   2.304
13472TIP3    H240374   2.300   4.056   2.255
13473TIP3   OH240375   8.249   0.491   5.428
13473TIP3    H140376   8.161   0.520   5.453
13473TIP3    H240377   8.235   0.432   5.355
13474TIP3   OH240378   3.842   3.685   2.145
13474TIP3    H140379   3.915   3.625   2.160
13474TIP3    H240380   3.879   3.756   2.094
13475TIP3   OH240381   4.462   1.625   1.354
13475TIP3    H140382   4.390   1.615   1.417
13475TIP3    H240383   4.435   1.573   1.279
13476TIP3   OH240384   3.595   1.601   4.834
13476TIP3    H140385   3.598   1.615   4.740
13476TIP3    H240386   3.684   1.575   4.857
13477TIP3   OH240387   4.116   1.604   0.777
13477TIP3    H140388   4.053   1.659   0.822
13477TIP3    H240389   4.195   1.607   0.832
13478TIP3   OH240390   6.479   7.302   4.135
13478TIP3    H140391   6.568   7.336   4.126
13478TIP3    H240392   6.470   7.282   4.228
13479TIP3   OH240393   4.998   4.254   3.277
13479TIP3    H140394   4.923   4.302   3.242
13479TIP3    H240395   5.058   4.322   3.309
13480TIP3   OH240396   0.258   0.702   1.136
13480TIP3    H140397   0.321   0.710   1.208
13480TIP3    H240398   0.290   0.763   1.069
13481TIP3   OH240399   3.608   5.037   0.655
13481TIP3    H140400   3.703   5.028   0.654
13481TIP3    H240401   3.588   5.093   0.580
13482TIP3   OH240402   4.298   4.270   0.133
13482TIP3    H140403   4.326   4.277   0.042
13482TIP3    H240404   4.362   4.212   0.173
13483TIP3   OH240405   0.454   4.304   6.052
13483TIP3    H140406   0.479   4.223   6.095
13483TIP3    H240407   0.361   4.314   6.071
13484TIP3   OH240408   6.876   2.794   3.912
13484TIP3    H140409   6.941   2.724   3.903
13484TIP3    H240410   6.795   2.749   3.935
13485TIP3   OH240411   6.845   3.377   1.950
13485TIP3    H140412   6.914   3.320   1.917
13485TIP3    H240413   6.831   3.348   2.040
13486TIP3   OH240414   7.272   0.301   4.842
13486TIP3    H140415   7.183   0.336   4.832
13486TIP3    H240416   7.275   0.271   4.934
13487TIP3   OH240417   2.590   0.069   2.866
13487TIP3    H140418   2.618   0.120   2.791
13487TIP3    H240419   2.496   0.058   2.855
13488TIP3   OH240420   5.203   4.332   6.265
13488TIP3    H140421   5.120   4.304   6.228
13488TIP3    H240422   5.251   4.369   6.191
13489TIP3   OH240423   7.179   4.698   0.779
13489TIP3    H140424   7.229   4.637   0.725
13489TIP3    H240425   7.099   4.649   0.801
13490TIP3   OH240426   4.427   2.155   1.184
13490TIP3    H140427   4.470   2.122   1.263
13490TIP3    H240428   4.337   2.172   1.211
13491TIP3   OH240429   7.003   4.216   1.429
13491TIP3    H140430   7.040   4.292   1.384
13491TIP3    H240431   7.073   4.183   1.485
13492TIP3   OH240432   0.872   2.022   2.518
13492TIP3    H140433   0.951   1.997   2.471
13492TIP3    H240434   0.858   2.114   2.496
13493TIP3   OH240435   5.699   2.977   2.496
13493TIP3    H140436   5.674   2.887   2.518
13493TIP3    H240437   5.752   3.006   2.570
13494TIP3   OH240438   8.272   5.324   5.468
13494TIP3    H140439   8.217   5.250   5.493
13494TIP3    H240440   8.218   5.401   5.484
13495TIP3   OH240441   2.001   5.707   5.239
13495TIP3    H140442   1.953   5.731   5.160
13495TIP3    H240443   1.991   5.612   5.245
13496TIP3   OH240444   6.647   1.029   1.058
13496TIP3    H140445   6.585   1.075   1.114
13496TIP3    H240446   6.710   1.097   1.032
13497TIP3   OH240447   4.928   5.475   6.202
13497TIP3    H140448   4.859   5.504   6.262
13497TIP3    H240449   4.941   5.550   6.143
13498TIP3   OH240450   4.600   5.709   6.169
13498TIP3    H140451   4.505   5.717   6.158
13498TIP3    H240452   4.616   5.738   6.259
13499TIP3   OH240453   0.313   5.518   4.691
13499TIP3    H140454   0.289   5.442   4.638
13499TIP3    H240455   0.315   5.484   4.781
13500TIP3   OH240456   7.658   4.006   4.118
13500TIP3    H140457   7.661   4.101   4.135
13500TIP3    H240458   7.646   3.967   4.205
13501TIP3   OH240459   2.761   5.749   0.631
13501TIP3    H140460   2.674   5.780   0.608
13501TIP3    H240461   2.796   5.712   0.550
13502TIP3   OH240462   0.302   5.360   1.792
13502TIP3    H140463   0.309   5.279   1.742
13502TIP3    H240464   0.284   5.332   1.882
13503TIP3   OH240465   5.772   5.458   6.209
13503TIP3    H140466   5.759   5.479   6.117
13503TIP3    H240467   5.805   5.539   6.248
13504TIP3   OH240468   7.204   2.876   4.486
13504TIP3    H140469   7.220   2.917   4.401
13504TIP3    H240470   7.262   2.923   4.546
13505TIP3   OH240471   6.181   1.414   3.888
13505TIP3    H140472   6.253   1.446   3.943
13505TIP3    H240473   6.154   1.332   3.929
13506TIP3   OH240474   5.185   0.205   1.476
13506TIP3    H140475   5.210   0.201   1.383
13506TIP3    H240476   5.214   0.122   1.512
13507TIP3   OH240477   2.784   3.170   2.596
13507TIP3    H140478   2.859   3.112   2.604
13507TIP3    H240479   2.816   3.256   2.623
13508TIP3   OH240480   3.202   0.241   2.384
13508TIP3    H140481   3.283   0.202   2.416
13508TIP3    H240482   3.155   0.168   2.343
13509TIP3   OH240483   2.005   4.221   4.898
13509TIP3    H140484   2.014   4.147   4.958
13509TIP3    H240485   1.913   4.246   4.906
13510TIP3   OH240486   3.161   4.215   6.517
13510TIP3    H140487   3.133   4.307   6.516
13510TIP3    H240488   3.244   4.216   6.566
13511TIP3   OH240489   2.881   6.036   0.713
13511TIP3    H140490   2.912   5.959   0.665
13511TIP3    H240491   2.844   6.093   0.645
13512TIP3   OH240492   2.097   0.071   3.718
13512TIP3    H140493   2.090   0.158   3.757
13512TIP3    H240494   2.008   0.051   3.689
13513TIP3   OH240495   4.315   6.998   3.728
13513TIP3    H140496   4.256   6.933   3.765
13513TIP3    H240497   4.387   7.004   3.792
13514TIP3   OH240498   4.695   0.767   3.947
13514TIP3    H140499   4.624   0.823   3.977
13514TIP3    H240500   4.775   0.817   3.965
13515TIP3   OH240501   2.330   3.687   1.669
13515TIP3    H140502   2.313   3.596   1.694
13515TIP3    H240503   2.407   3.712   1.720
13516TIP3   OH240504   7.629   0.534   5.452
13516TIP3    H140505   7.583   0.574   5.526
13516TIP3    H240506   7.691   0.474   5.493
13517TIP3   OH240507   3.251   0.562   0.348
13517TIP3    H140508   3.249   0.631   0.414
13517TIP3    H240509   3.159   0.538   0.335
13518TIP3   OH240510   5.515   5.115   4.214
13518TIP3    H140511   5.439   5.164   4.181
13518TIP3    H240512   5.484   5.076   4.296
13519TIP3   OH240513   2.214   1.670   5.076
13519TIP3    H140514   2.208   1.651   5.169
13519TIP3    H240515   2.175   1.594   5.033
13520TIP3   OH240516   7.010   3.621   0.605
13520TIP3    H140517   7.040   3.690   0.665
13520TIP3    H240518   7.086   3.602   0.551
13521TIP3   OH240519   3.327   2.869   4.736
13521TIP3    H140520   3.284   2.842   4.817
13521TIP3    H240521   3.388   2.938   4.763
13522TIP3   OH240522   1.386   4.609   1.375
13522TIP3    H140523   1.414   4.688   1.420
13522TIP3    H240524   1.291   4.616   1.370
13523TIP3   OH240525   0.339   2.886   1.955
13523TIP3    H140526   0.248   2.857   1.955
13523TIP3    H240527   0.336   2.976   1.989
13524TIP3   OH240528   7.650   7.360   5.538
13524TIP3    H140529   7.581   7.416   5.502
13524TIP3    H240530   7.731   7.405   5.516
13525TIP3   OH240531   6.241   6.054   5.282
13525TIP3    H140532   6.151   6.062   5.315
13525TIP3    H240533   6.271   5.969   5.313
13526TIP3   OH240534   3.861   6.544   2.221
13526TIP3    H140535   3.782   6.540   2.167
13526TIP3    H240536   3.919   6.604   2.174
13527TIP3   OH240537   3.655   5.236   3.670
13527TIP3    H140538   3.660   5.265   3.579
13527TIP3    H240539   3.738   5.192   3.686
13528TIP3   OH240540   7.911   0.881   2.490
13528TIP3    H140541   7.908   0.916   2.401
13528TIP3    H240542   8.004   0.876   2.511
13529TIP3   OH240543   6.213   1.359   3.622
13529TIP3    H140544   6.205   1.393   3.711
13529TIP3    H240545   6.307   1.363   3.604
13530TIP3   OH240546   4.775   2.804   4.059
13530TIP3    H140547   4.742   2.888   4.028
13530TIP3    H240548   4.697   2.754   4.080
13531TIP3   OH240549   5.123   7.814   6.419
13531TIP3    H140550   5.180   7.740   6.441
13531TIP3    H240551   5.034   7.781   6.436
13532TIP3   OH240552   7.874   2.488   5.299
13532TIP3    H140553   7.793   2.530   5.269
13532TIP3    H240554   7.923   2.472   5.218
13533TIP3   OH240555   0.949   1.559   3.223
13533TIP3    H140556   1.009   1.626   3.253
13533TIP3    H240557   0.953   1.564   3.127
13534TIP3   OH240558   8.154   2.531   6.534
13534TIP3    H140559   8.176   2.486   6.615
13534TIP3    H240560   8.062   2.557   6.545
13535TIP3   OH240561   3.596   3.476   5.506
13535TIP3    H140562   3.668   3.528   5.542
13535TIP3    H240563   3.526   3.483   5.571
13536TIP3   OH240564   6.318   4.661   2.660
13536TIP3    H140565   6.374   4.648   2.736
13536TIP3    H240566   6.333   4.585   2.604
13537TIP3   OH240567   1.859   6.042   2.940
13537TIP3    H140568   1.835   6.036   3.033
13537TIP3    H240569   1.841   6.134   2.917
13538TIP3   OH240570   6.740   2.963   4.211
13538TIP3    H140571   6.682   2.984   4.137
13538TIP3    H240572   6.828   2.963   4.172
13539TIP3   OH240573   6.438   2.797   4.791
13539TIP3    H140574   6.359   2.786   4.843
13539TIP3    H240575   6.414   2.767   4.703
13540TIP3   OH240576   7.324   5.463   1.971
13540TIP3    H140577   7.307   5.470   1.877
13540TIP3    H240578   7.259   5.399   2.002
13541TIP3   OH240579   6.569   6.951   2.767
13541TIP3    H140580   6.553   6.962   2.674
13541TIP3    H240581   6.615   7.032   2.793
13542TIP3   OH240582   3.710   1.031   3.819
13542TIP3    H140583   3.752   1.053   3.736
13542TIP3    H240584   3.775   1.054   3.886
13543TIP3   OH240585   0.235   6.899   0.835
13543TIP3    H140586   0.310   6.934   0.786
13543TIP3    H240587   0.194   6.977   0.874
13544TIP3   OH240588   1.863   3.160   4.569
13544TIP3    H140589   1.778   3.204   4.573
13544TIP3    H240590   1.867   3.107   4.648
13545TIP3   OH240591   6.069   4.379   6.053
13545TIP3    H140592   6.046   4.436   5.979
13545TIP3    H240593   6.100   4.298   6.012
13546TIP3   OH240594   6.130   7.307   6.209
13546TIP3    H140595   6.056   7.305   6.270
13546TIP3    H240596   6.205   7.278   6.260
13547TIP3   OH240597   6.945   0.376   0.603
13547TIP3    H140598   7.023   0.323   0.617
13547TIP3    H240599   6.953   0.409   0.514
13548TIP3   OH240600   5.480   4.735   4.520
13548TIP3    H140601   5.412   4.669   4.531
13548TIP3    H240602   5.508   4.727   4.428
13549TIP3   OH240603   0.294   2.275   4.391
13549TIP3    H140604   0.373   2.313   4.431
13549TIP3    H240605   0.274   2.334   4.319
13550TIP3   OH240606   5.062   4.614   1.196
13550TIP3    H140607   5.060   4.684   1.130
13550TIP3    H240608   5.000   4.643   1.263
13551TIP3   OH240609   2.945   0.064   3.957
13551TIP3    H140610   2.921   0.135   3.898
13551TIP3    H240611   3.039   0.074   3.969
13552TIP3   OH240612   7.980   3.854   0.284
13552TIP3    H140613   7.888   3.879   0.297
13552TIP3    H240614   8.004   3.894   0.201
13553TIP3   OH240615   6.779   0.991   5.578
13553TIP3    H140616   6.690   1.018   5.601
13553TIP3    H240617   6.771   0.897   5.559
13554TIP3   OH240618   5.625   1.524   1.105
13554TIP3    H140619   5.563   1.596   1.114
13554TIP3    H240620   5.665   1.537   1.019
13555TIP3   OH240621   1.539   3.849   0.248
13555TIP3    H140622   1.514   3.941   0.257
13555TIP3    H240623   1.630   3.846   0.277
13556TIP3   OH240624   6.499   1.393   1.208
13556TIP3    H140625   6.436   1.324   1.191
13556TIP3    H240626   6.482   1.420   1.298
13557TIP3   OH240627   5.937   6.532   3.044
13557TIP3    H140628   5.848   6.567   3.040
13557TIP3    H240629   5.941   6.483   3.126
13558TIP3   OH240630   7.333   0.516   4.187
13558TIP3    H140631   7.246   0.521   4.148
13558TIP3    H240632   7.320   0.472   4.270
13559TIP3   OH240633   6.513   1.041   2.583
13559TIP3    H140634   6.424   1.075   2.587
13559TIP3    H240635   6.519   0.981   2.657
13560TIP3   OH240636   7.845   6.207   5.338
13560TIP3    H140637   7.878   6.212   5.248
13560TIP3    H240638   7.861   6.295   5.373
13561TIP3   OH240639   5.611   0.758   4.478
13561TIP3    H140640   5.683   0.821   4.468
13561TIP3    H240641   5.641   0.681   4.431
13562TIP3   OH240642   2.712   6.345   2.479
13562TIP3    H140643   2.771   6.271   2.487
13562TIP3    H240644   2.711   6.384   2.566
13563TIP3   OH240645   3.031   1.625   3.540
13563TIP3    H140646   3.107   1.637   3.597
13563TIP3    H240647   2.987   1.711   3.540
13564TIP3   OH240648   0.681   1.604   6.344
13564TIP3    H140649   0.652   1.674   6.286
13564TIP3    H240650   0.605   1.548   6.355
13565TIP3   OH240651   1.993   0.368   5.033
13565TIP3    H140652   2.062   0.428   5.060
13565TIP3    H240653   1.974   0.316   5.111
13566TIP3   OH240654   5.912   1.222   5.036
13566TIP3    H140655   5.866   1.169   4.971
13566TIP3    H240656   5.861   1.302   5.043
13567TIP3   OH240657   4.367   0.653   3.464
13567TIP3    H140658   4.273   0.641   3.469
13567TIP3    H240659   4.384   0.674   3.372
13568TIP3   OH240660   4.126   2.621   1.604
13568TIP3    H140661   4.164   2.686   1.544
13568TIP3    H240662   4.165   2.641   1.689
13569TIP3   OH240663   0.541   3.483   4.899
13569TIP3    H140664   0.510   3.413   4.841
13569TIP3    H240665   0.620   3.516   4.856
13570TIP3   OH240666   7.810   3.432   5.399
13570TIP3    H140667   7.876   3.444   5.468
13570TIP3    H240668   7.829   3.346   5.363
13571TIP3   OH240669   0.901   1.338   0.577
13571TIP3    H140670   0.874   1.265   0.521
13571TIP3    H240671   0.970   1.301   0.632
13572TIP3   OH240672   3.334   0.481   6.058
13572TIP3    H140673   3.257   0.503   6.111
13572TIP3    H240674   3.400   0.454   6.122
13573TIP3   OH240675   2.129  -0.029   1.035
13573TIP3    H140676   2.081   0.012   0.962
13573TIP3    H240677   2.192   0.038   1.063
13574TIP3   OH240678   5.590   0.106   4.737
13574TIP3    H140679   5.554   0.193   4.721
13574TIP3    H240680   5.521   0.046   4.712
13575TIP3   OH240681   0.653   0.746   6.489
13575TIP3    H140682   0.606   0.781   6.413
13575TIP3    H240683   0.604   0.780   6.564
13576TIP3   OH240684   7.271   2.087   4.655
13576TIP3    H140685   7.236   2.158   4.601
13576TIP3    H240686   7.352   2.062   4.612
13577TIP3   OH240687   5.427   2.681   3.919
13577TIP3    H140688   5.340   2.670   3.881
13577TIP3    H240689   5.476   2.731   3.854
13578TIP3   OH240690   0.937   2.514   1.705
13578TIP3    H140691   0.945   2.496   1.799
13578TIP3    H240692   0.904   2.432   1.668
13579TIP3   OH240693   6.554   2.978   4.009
13579TIP3    H140694   6.525   2.927   3.933
13579TIP3    H240695   6.491   2.957   4.077
13580TIP3   OH240696   0.051   0.498   5.866
13580TIP3    H140697   0.091   0.580   5.839
13580TIP3    H240698  -0.039   0.521   5.890
13581TIP3   OH240699   4.897   3.493   4.627
13581TIP3    H140700   4.835   3.434   4.584
13581TIP3    H240701   4.842   3.558   4.671
13582TIP3   OH240702   1.580   6.944   5.441
13582TIP3    H140703   1.623   6.878   5.387
13582TIP3    H240704   1.535   6.893   5.510
13583TIP3   OH240705   4.090   1.943   6.269
13583TIP3    H140706   4.003   1.925   6.233
13583TIP3    H240707   4.125   2.013   6.214
13584TIP3   OH240708   4.773   6.662   6.234
13584TIP3    H140709   4.865   6.675   6.210
13584TIP3    H240710   4.777   6.620   6.320
13585TIP3   OH240711   1.792   1.786   5.586
13585TIP3    H140712   1.733   1.714   5.566
13585TIP3    H240713   1.734   1.855   5.620
13586TIP3   OH240714   7.784   7.254   0.609
13586TIP3    H140715   7.731   7.300   0.543
13586TIP3    H240716   7.749   7.285   0.693
13587TIP3   OH240717   5.751   5.329   3.044
13587TIP3    H140718   5.837   5.369   3.054
13587TIP3    H240719   5.696   5.399   3.007
13588TIP3   OH240720   8.109   3.010   2.046
13588TIP3    H140721   8.163   2.972   2.115
13588TIP3    H240722   8.021   2.976   2.063
13589TIP3   OH240723   3.487   3.171   5.783
13589TIP3    H140724   3.452   3.157   5.695
13589TIP3    H240725   3.581   3.183   5.770
13590TIP3   OH240726   7.223   0.123   3.277
13590TIP3    H140727   7.186   0.198   3.230
13590TIP3    H240728   7.309   0.154   3.306
13591TIP3   OH240729   2.954   1.884   3.457
13591TIP3    H140730   2.865   1.905   3.429
13591TIP3    H240731   2.970   1.945   3.529
13592TIP3   OH240732   0.604   2.442   0.808
13592TIP3    H140733   0.601   2.515   0.870
13592TIP3    H240734   0.637   2.369   0.860
13593TIP3   OH240735   2.969   0.568   0.388
13593TIP3    H140736   2.904   0.499   0.376
13593TIP3    H240737   2.990   0.566   0.481
13594TIP3   OH240738   6.603   6.778   0.725
13594TIP3    H140739   6.657   6.789   0.647
13594TIP3    H240740   6.543   6.852   0.724
13595TIP3   OH240741   1.874   1.558   1.240
13595TIP3    H140742   1.958   1.513   1.227
13595TIP3    H240743   1.898   1.642   1.279
13596TIP3   OH240744   5.012   1.887   1.386
13596TIP3    H140745   4.991   1.942   1.311
13596TIP3    H240746   5.105   1.903   1.403
13597TIP3   OH240747   5.307   3.042   5.246
13597TIP3    H140748   5.315   2.957   5.289
13597TIP3    H240749   5.233   3.084   5.289
13598TIP3   OH240750   7.229   7.651   1.583
13598TIP3    H140751   7.308   7.611   1.546
13598TIP3    H240752   7.259   7.693   1.663
13599TIP3   OH240753   3.613   6.069   4.288
13599TIP3    H140754   3.576   6.121   4.216
13599TIP3    H240755   3.537   6.032   4.332
13600TIP3   OH240756   5.746   6.438   2.706
13600TIP3    H140757   5.653   6.442   2.686
13600TIP3    H240758   5.750   6.409   2.798
13601TIP3   OH240759   0.481   4.023   5.839
13601TIP3    H140760   0.479   4.091   5.906
13601TIP3    H240761   0.504   4.069   5.759
13602TIP3   OH240762   8.017   7.148   4.060
13602TIP3    H140763   8.104   7.174   4.092
13602TIP3    H240764   7.970   7.230   4.049
13603TIP3   OH240765   4.691   0.734   3.533
13603TIP3    H140766   4.647   0.792   3.471
13603TIP3    H240767   4.726   0.793   3.600
13604TIP3   OH240768   0.511   5.725   0.184
13604TIP3    H140769   0.451   5.651   0.194
13604TIP3    H240770   0.523   5.733   0.089
13605TIP3   OH240771   2.361   6.333   3.588
13605TIP3    H140772   2.330   6.308   3.501
13605TIP3    H240773   2.457   6.326   3.582
13606TIP3   OH240774   5.962   3.574   0.640
13606TIP3    H140775   5.992   3.581   0.549
13606TIP3    H240776   6.040   3.548   0.689
13607TIP3   OH240777   7.698   4.657   5.135
13607TIP3    H140778   7.786   4.695   5.127
13607TIP3    H240779   7.639   4.732   5.125
13608TIP3   OH240780   2.032   1.192   2.221
13608TIP3    H140781   2.056   1.276   2.261
13608TIP3    H240782   2.099   1.131   2.253
13609TIP3   OH240783   8.076   1.836   6.576
13609TIP3    H140784   8.103   1.745   6.573
13609TIP3    H240785   8.133   1.880   6.513
13610TIP3   OH240786   3.727   4.944   2.430
13610TIP3    H140787   3.642   4.971   2.395
13610TIP3    H240788   3.784   5.020   2.415
13611TIP3   OH240789   7.111   2.506   6.623
13611TIP3    H140790   7.166   2.583   6.606
13611TIP3    H240791   7.026   2.542   6.647
13612TIP3   OH240792   3.402   4.132   6.631
13612TIP3    H140793   3.432   4.125   6.722
13612TIP3    H240794   3.384   4.041   6.605
13613TIP3   OH240795   2.716   1.725   4.448
13613TIP3    H140796   2.682   1.806   4.486
13613TIP3    H240797   2.792   1.752   4.397
13614TIP3   OH240798   4.994   7.361   5.674
13614TIP3    H140799   4.942   7.388   5.750
13614TIP3    H240800   4.985   7.433   5.612
13615TIP3   OH240801   5.908   3.853   4.668
13615TIP3    H140802   5.906   3.909   4.746
13615TIP3    H240803   5.817   3.827   4.655
13616TIP3   OH240804   6.784   4.727   0.453
13616TIP3    H140805   6.742   4.649   0.490
13616TIP3    H240806   6.762   4.724   0.360
13617TIP3   OH240807   0.033   7.607   5.791
13617TIP3    H140808   0.122   7.642   5.797
13617TIP3    H240809  -0.023   7.681   5.812
13618TIP3   OH240810   1.461   7.690   5.139
13618TIP3    H140811   1.411   7.760   5.097
13618TIP3    H240812   1.433   7.610   5.095
13619TIP3   OH240813   7.038   5.992   1.477
13619TIP3    H140814   7.068   5.931   1.410
13619TIP3    H240815   6.952   5.957   1.504
13620TIP3   OH240816   3.484   4.174   1.741
13620TIP3    H140817   3.495   4.125   1.660
13620TIP3    H240818   3.492   4.266   1.714
13621TIP3   OH240819   5.174   0.671   4.765
13621TIP3    H140820   5.124   0.659   4.845
13621TIP3    H240821   5.266   0.666   4.793
13622TIP3   OH240822   6.858   1.942   1.844
13622TIP3    H140823   6.953   1.948   1.856
13622TIP3    H240824   6.845   1.951   1.749
13623TIP3   OH240825   0.452   3.748   6.543
13623TIP3    H140826   0.489   3.835   6.532
13623TIP3    H240827   0.409   3.750   6.628
13624TIP3   OH240828   2.297   0.726   3.281
13624TIP3    H140829   2.246   0.804   3.300
13624TIP3    H240830   2.232   0.660   3.256
13625TIP3   OH240831   3.987   4.315   4.743
13625TIP3    H140832   3.990   4.387   4.679
13625TIP3    H240833   3.973   4.237   4.690
13626TIP3   OH240834   1.918   0.629   5.271
13626TIP3    H140835   1.872   0.556   5.310
13626TIP3    H240836   1.906   0.619   5.177
13627TIP3   OH240837   1.690   1.244   6.106
13627TIP3    H140838   1.755   1.197   6.055
13627TIP3    H240839   1.646   1.177   6.158
13628TIP3   OH240840   5.208   1.210   0.864
13628TIP3    H140841   5.240   1.227   0.775
13628TIP3    H240842   5.272   1.253   0.921
13629TIP3   OH240843   3.610   6.808   1.830
13629TIP3    H140844   3.541   6.871   1.812
13629TIP3    H240845   3.665   6.808   1.751
13630TIP3   OH240846   6.826   3.305   4.998
13630TIP3    H140847   6.734   3.317   5.022
13630TIP3    H240848   6.852   3.223   5.042
13631TIP3   OH240849   1.171   1.068   1.042
13631TIP3    H140850   1.143   0.996   0.985
13631TIP3    H240851   1.088   1.107   1.072
13632TIP3   OH240852   7.725   7.310   4.016
13632TIP3    H140853   7.752   7.304   3.924
13632TIP3    H240854   7.683   7.396   4.022
13633TIP3   OH240855   3.025   0.486   4.369
13633TIP3    H140856   3.000   0.485   4.462
13633TIP3    H240857   3.065   0.401   4.354
13634TIP3   OH240858   0.217   1.533   0.781
13634TIP3    H140859   0.143   1.474   0.798
13634TIP3    H240860   0.181   1.599   0.721
13635TIP3   OH240861   3.319   3.095   5.509
13635TIP3    H140862   3.335   3.006   5.479
13635TIP3    H240863   3.393   3.145   5.475
13636TIP3   OH240864   4.650   5.539   4.116
13636TIP3    H140865   4.566   5.495   4.128
13636TIP3    H240866   4.703   5.476   4.067
13637TIP3   OH240867   7.571   5.809   3.348
13637TIP3    H140868   7.548   5.901   3.340
13637TIP3    H240869   7.664   5.805   3.323
13638TIP3   OH240870   2.432   1.051   0.422
13638TIP3    H140871   2.463   1.059   0.331
13638TIP3    H240872   2.509   1.071   0.475
13639TIP3   OH240873   4.774   5.012   6.637
13639TIP3    H140874   4.694   5.000   6.689
13639TIP3    H240875   4.844   5.012   6.702
13640TIP3   OH240876   5.863   3.448   2.515
13640TIP3    H140877   5.830   3.459   2.604
13640TIP3    H240878   5.956   3.428   2.526
13641TIP3   OH240879   5.123   1.260   1.947
13641TIP3    H140880   5.117   1.274   2.041
13641TIP3    H240881   5.114   1.165   1.936
13642TIP3   OH240882   1.891   7.577   1.580
13642TIP3    H140883   1.961   7.512   1.590
13642TIP3    H240884   1.811   7.525   1.583
13643TIP3   OH240885   8.244   4.467   1.247
13643TIP3    H140886   8.304   4.541   1.254
13643TIP3    H240887   8.157   4.507   1.245
13644TIP3   OH240888   3.349   5.931   2.621
13644TIP3    H140889   3.306   5.975   2.547
13644TIP3    H240890   3.374   6.002   2.680
13645TIP3   OH240891   6.706   0.552   0.524
13645TIP3    H140892   6.799   0.574   0.533
13645TIP3    H240893   6.671   0.560   0.613
13646TIP3   OH240894   7.597   7.223   1.325
13646TIP3    H140895   7.541   7.185   1.392
13646TIP3    H240896   7.551   7.303   1.298
13647TIP3   OH240897   0.920   2.263   2.352
13647TIP3    H140898   0.955   2.264   2.263
13647TIP3    H240899   0.994   2.288   2.407
13648TIP3   OH240900   4.804   0.542   6.494
13648TIP3    H140901   4.757   0.615   6.533
13648TIP3    H240902   4.894   0.573   6.483
13649TIP3   OH240903   7.925   7.717   5.950
13649TIP3    H140904   7.855   7.660   5.918
13649TIP3    H240905   7.882   7.772   6.016
13650TIP3   OH240906   4.786   4.298   1.582
13650TIP3    H140907   4.806   4.215   1.625
13650TIP3    H240908   4.859   4.355   1.605
13651TIP3   OH240909   1.619   2.918   1.585
13651TIP3    H140910   1.524   2.906   1.585
13651TIP3    H240911   1.646   2.900   1.495
13652TIP3   OH240912   5.734   0.643   3.792
13652TIP3    H140913   5.716   0.659   3.884
13652TIP3    H240914   5.730   0.547   3.783
13653TIP3   OH240915   6.860   4.764   4.840
13653TIP3    H140916   6.936   4.706   4.855
13653TIP3    H240917   6.855   4.817   4.919
13654TIP3   OH240918   1.002   1.848   5.294
13654TIP3    H140919   0.962   1.816   5.374
13654TIP3    H240920   1.087   1.882   5.322
13655TIP3   OH240921   1.118   2.477   0.304
13655TIP3    H140922   1.146   2.403   0.250
13655TIP3    H240923   1.023   2.473   0.304
13656TIP3   OH240924   0.008   3.160   1.030
13656TIP3    H140925   0.102   3.154   1.013
13656TIP3    H240926  -0.014   3.075   1.068
13657TIP3   OH240927   2.529   4.623   0.620
13657TIP3    H140928   2.531   4.601   0.527
13657TIP3    H240929   2.455   4.684   0.629
13658TIP3   OH240930   7.745   5.967   1.759
13658TIP3    H140931   7.775   6.015   1.683
13658TIP3    H240932   7.690   6.029   1.807
13659TIP3   OH240933   3.729   5.817   6.350
13659TIP3    H140934   3.790   5.807   6.424
13659TIP3    H240935   3.678   5.737   6.350
13660TIP3   OH240936   8.238   1.961   0.682
13660TIP3    H140937   8.299   2.035   0.679
13660TIP3    H240938   8.203   1.962   0.771
13661TIP3   OH240939   1.470   4.223   4.395
13661TIP3    H140940   1.513   4.152   4.346
13661TIP3    H240941   1.512   4.303   4.364
13662TIP3   OH240942   1.142   0.812   3.355
13662TIP3    H140943   1.088   0.860   3.418
13662TIP3    H240944   1.092   0.733   3.336
13663TIP3   OH240945   3.535   3.849   2.221
13663TIP3    H140946   3.536   3.769   2.168
13663TIP3    H240947   3.571   3.822   2.306
13664TIP3   OH240948   0.128   5.097   5.322
13664TIP3    H140949   0.115   5.155   5.398
13664TIP3    H240950   0.223   5.100   5.306
13665TIP3   OH240951   5.218   7.062   2.971
13665TIP3    H140952   5.287   7.110   3.017
13665TIP3    H240953   5.211   6.980   3.019
13666TIP3   OH240954   0.197   0.940   3.869
13666TIP3    H140955   0.172   1.017   3.921
13666TIP3    H240956   0.212   0.975   3.781
13667TIP3   OH240957   0.343   5.747   5.732
13667TIP3    H140958   0.315   5.748   5.823
13667TIP3    H240959   0.264   5.766   5.682
13668TIP3   OH240960   5.330   7.466   1.483
13668TIP3    H140961   5.398   7.441   1.421
13668TIP3    H240962   5.349   7.557   1.504
13669TIP3   OH240963   4.979   3.572   6.444
13669TIP3    H140964   5.037   3.648   6.454
13669TIP3    H240965   5.018   3.506   6.501
13670TIP3   OH240966   2.030   2.090   4.432
13670TIP3    H140967   2.096   2.134   4.378
13670TIP3    H240968   2.066   2.002   4.447
13671TIP3   OH240969   7.518   6.456   5.946
13671TIP3    H140970   7.590   6.443   6.007
13671TIP3    H240971   7.524   6.548   5.921
13672TIP3   OH240972   7.857   0.631   0.831
13672TIP3    H140973   7.883   0.657   0.920
13672TIP3    H240974   7.860   0.712   0.781
13673TIP3   OH240975   5.541   5.840   3.492
13673TIP3    H140976   5.620   5.810   3.537
13673TIP3    H240977   5.530   5.779   3.419
13674TIP3   OH240978   1.548   4.387   6.346
13674TIP3    H140979   1.499   4.305   6.339
13674TIP3    H240980   1.522   4.423   6.431
13675TIP3   OH240981   5.395   4.212   3.696
13675TIP3    H140982   5.401   4.280   3.628
13675TIP3    H240983   5.301   4.202   3.710
13676TIP3   OH240984   0.504   0.534   3.792
13676TIP3    H140985   0.479   0.460   3.848
13676TIP3    H240986   0.569   0.497   3.732
13677TIP3   OH240987   1.792   7.036   6.442
13677TIP3    H140988   1.780   7.060   6.350
13677TIP3    H240989   1.781   7.118   6.490
13678TIP3   OH240990   6.051   0.775   6.338
13678TIP3    H140991   6.059   0.684   6.308
13678TIP3    H240992   6.123   0.786   6.401
13679TIP3   OH240993   2.388   6.236   0.501
13679TIP3    H140994   2.329   6.168   0.468
13679TIP3    H240995   2.453   6.189   0.552
13680TIP3   OH240996   7.723   1.634   0.173
13680TIP3    H140997   7.811   1.670   0.162
13680TIP3    H240998   7.730   1.577   0.249
13681TIP3   OH240999   5.213   1.457   2.421
13681TIP3    H141000   5.252   1.404   2.491
13681TIP3    H241001   5.175   1.532   2.466
13682TIP3   OH241002   7.837   2.261   1.498
13682TIP3    H141003   7.851   2.223   1.411
13682TIP3    H241004   7.782   2.337   1.483
13683TIP3   OH241005   7.108   5.881   0.482
13683TIP3    H141006   7.032   5.939   0.490
13683TIP3    H241007   7.181   5.939   0.459
13684TIP3   OH241008   6.947   1.310   0.161
13684TIP3    H141009   7.027   1.278   0.203
13684TIP3    H241010   6.948   1.404   0.177
13685TIP3   OH241011   4.068   1.559   1.349
13685TIP3    H141012   3.985   1.546   1.394
13685TIP3    H241013   4.086   1.475   1.306
13686TIP3   OH241014   7.762   4.021   6.658
13686TIP3    H141015   7.738   4.114   6.662
13686TIP3    H241016   7.857   4.021   6.671
13687TIP3   OH241017   0.673   0.291   1.425
13687TIP3    H141018   0.687   0.378   1.388
13687TIP3    H241019   0.748   0.276   1.482
13688TIP3   OH241020   0.427   4.783   4.805
13688TIP3    H141021   0.425   4.839   4.728
13688TIP3    H241022   0.429   4.694   4.770
13689TIP3   OH241023   4.355   4.350   6.137
13689TIP3    H141024   4.276   4.371   6.087
13689TIP3    H241025   4.380   4.262   6.109
13690TIP3   OH241026   4.662   4.427   3.743
13690TIP3    H141027   4.587   4.421   3.684
13690TIP3    H241028   4.623   4.431   3.831
13691TIP3   OH241029   4.641   1.839   6.095
13691TIP3    H141030   4.580   1.857   6.166
13691TIP3    H241031   4.726   1.868   6.129
13692TIP3   OH241032   6.155   1.227   2.894
13692TIP3    H141033   6.218   1.249   2.963
13692TIP3    H241034   6.074   1.271   2.920
13693TIP3   OH241035   4.189   0.027   3.034
13693TIP3    H141036   4.218   0.002   3.122
13693TIP3    H241037   4.218   0.117   3.023
13694TIP3   OH241038   8.242   3.447   6.150
13694TIP3    H141039   8.191   3.520   6.184
13694TIP3    H241040   8.328   3.485   6.129
13695TIP3   OH241041   0.359   3.518   2.857
13695TIP3    H141042   0.454   3.505   2.867
13695TIP3    H241043   0.344   3.608   2.888
13696TIP3   OH241044   1.013   6.497   2.026
13696TIP3    H141045   0.938   6.476   1.970
13696TIP3    H241046   1.089   6.471   1.975
13697TIP3   OH241047   0.744   1.169   3.582
13697TIP3    H141048   0.778   1.129   3.502
13697TIP3    H241049   0.813   1.154   3.647
13698TIP3   OH241050   1.044   1.602   4.838
13698TIP3    H141051   1.005   1.581   4.753
13698TIP3    H241052   1.138   1.584   4.826
13699TIP3   OH241053   6.424   2.459   5.593
13699TIP3    H141054   6.479   2.381   5.601
13699TIP3    H241055   6.382   2.467   5.678
13700TIP3   OH241056   4.821   0.976   2.907
13700TIP3    H141057   4.853   0.920   2.978
13700TIP3    H241058   4.875   0.952   2.831
13701TIP3   OH241059   3.428   6.491   4.719
13701TIP3    H141060   3.389   6.564   4.767
13701TIP3    H241061   3.427   6.519   4.627
13702TIP3   OH241062   0.806   5.103   3.757
13702TIP3    H141063   0.827   5.024   3.709
13702TIP3    H241064   0.721   5.086   3.798
13703TIP3   OH241065   2.037   6.464   5.431
13703TIP3    H141066   2.073   6.525   5.367
13703TIP3    H241067   2.112   6.438   5.484
13704TIP3   OH241068   5.814   2.620   2.104
13704TIP3    H141069   5.843   2.707   2.134
13704TIP3    H241070   5.882   2.561   2.134
13705TIP3   OH241071   7.527   5.449   1.488
13705TIP3    H141072   7.466   5.469   1.560
13705TIP3    H241073   7.474   5.460   1.409
13706TIP3   OH241074   3.618   5.697   5.062
13706TIP3    H141075   3.558   5.678   5.135
13706TIP3    H241076   3.598   5.630   4.997
13707TIP3   OH241077   1.182   3.963   2.649
13707TIP3    H141078   1.088   3.968   2.630
13707TIP3    H241079   1.199   3.869   2.657
13708TIP3   OH241080   4.004   4.171   0.936
13708TIP3    H141081   3.963   4.255   0.955
13708TIP3    H241082   3.937   4.106   0.957
13709TIP3   OH241083   1.445   7.644   4.679
13709TIP3    H141084   1.518   7.695   4.645
13709TIP3    H241085   1.480   7.599   4.755
13710TIP3   OH241086   6.792   0.799   2.572
13710TIP3    H141087   6.802   0.719   2.624
13710TIP3    H241088   6.722   0.779   2.510
13711TIP3   OH241089   6.889   2.796   1.007
13711TIP3    H141090   6.871   2.706   0.980
13711TIP3    H241091   6.892   2.846   0.925
13712TIP3   OH241092   4.389   3.546   6.459
13712TIP3    H141093   4.320   3.537   6.524
13712TIP3    H241094   4.470   3.549   6.510
13713TIP3   OH241095   3.512   6.662   1.551
13713TIP3    H141096   3.448   6.733   1.546
13713TIP3    H241097   3.595   6.707   1.570
13714TIP3   OH241098   5.253   0.744   0.888
13714TIP3    H141099   5.244   0.802   0.813
13714TIP3    H241100   5.223   0.659   0.855
13715TIP3   OH241101   0.528   7.511   4.954
13715TIP3    H141102   0.524   7.418   4.975
13715TIP3    H241103   0.437   7.541   4.959
13716TIP3   OH241104   4.002   6.117   6.103
13716TIP3    H141105   4.057   6.047   6.138
13716TIP3    H241106   4.028   6.195   6.152
13717TIP3   OH241107   0.234   7.522   4.959
13717TIP3    H141108   0.252   7.433   4.992
13717TIP3    H241109   0.179   7.508   4.882
13718TIP3   OH241110   0.583   4.757   1.683
13718TIP3    H141111   0.581   4.746   1.588
13718TIP3    H241112   0.537   4.680   1.717
13719TIP3   OH241113   7.124   2.229   2.030
13719TIP3    H141114   7.165   2.302   1.984
13719TIP3    H241115   7.109   2.164   1.961
13720TIP3   OH241116   0.333   6.591   3.958
13720TIP3    H141117   0.241   6.617   3.967
13720TIP3    H241118   0.338   6.507   4.004
13721TIP3   OH241119   7.532   3.784   6.733
13721TIP3    H141120   7.580   3.861   6.702
13721TIP3    H241121   7.440   3.812   6.732
13722TIP3   OH241122   6.362   3.936   6.454
13722TIP3    H141123   6.383   3.847   6.425
13722TIP3    H241124   6.416   3.993   6.400
13723TIP3   OH241125   5.680   3.159   6.656
13723TIP3    H141126   5.597   3.202   6.675
13723TIP3    H241127   5.683   3.085   6.717
13724TIP3   OH241128   5.650   2.234   3.265
13724TIP3    H141129   5.561   2.269   3.275
13724TIP3    H241130   5.707   2.303   3.302
13725TIP3   OH241131   0.773   1.241   4.110
13725TIP3    H141132   0.685   1.270   4.134
13725TIP3    H241133   0.759   1.175   4.042
13726TIP3   OH241134   4.724   5.200   4.635
13726TIP3    H141135   4.777   5.255   4.576
13726TIP3    H241136   4.638   5.196   4.593
13727TIP3   OH241137   1.981   2.671   5.034
13727TIP3    H141138   1.941   2.629   4.958
13727TIP3    H241139   1.909   2.717   5.076
13728TIP3   OH241140   2.959   5.143   3.169
13728TIP3    H141141   3.051   5.154   3.191
13728TIP3    H241142   2.936   5.056   3.202
13729TIP3   OH241143   4.693   0.895   4.241
13729TIP3    H141144   4.624   0.941   4.289
13729TIP3    H241145   4.751   0.965   4.210
13730TIP3   OH241146   1.265   6.885   3.456
13730TIP3    H141147   1.185   6.902   3.507
13730TIP3    H241148   1.251   6.932   3.373
13731TIP3   OH241149   2.184   1.916   3.371
13731TIP3    H141150   2.122   1.882   3.307
13731TIP3    H241151   2.245   1.844   3.386
13732TIP3   OH241152   4.466   7.155   4.292
13732TIP3    H141153   4.436   7.241   4.264
13732TIP3    H241154   4.560   7.166   4.306
13733TIP3   OH241155   4.291   3.397   6.126
13733TIP3    H141156   4.322   3.324   6.072
13733TIP3    H241157   4.283   3.360   6.214
13734TIP3   OH241158   5.036   3.902   4.376
13734TIP3    H141159   5.067   3.812   4.374
13734TIP3    H241160   5.078   3.944   4.300
13735TIP3   OH241161   4.895   5.316   4.394
13735TIP3    H141162   4.890   5.408   4.366
13735TIP3    H241163   4.984   5.289   4.373
13736TIP3   OH241164   6.518   4.754   1.478
13736TIP3    H141165   6.479   4.710   1.553
13736TIP3    H241166   6.488   4.704   1.402
13737TIP3   OH241167   0.226   5.279   4.628
13737TIP3    H141168   0.170   5.301   4.554
13737TIP3    H241169   0.206   5.187   4.647
13738TIP3   OH241170   2.037   7.141   5.367
13738TIP3    H141171   2.025   7.234   5.349
13738TIP3    H241172   1.964   7.118   5.424
13739TIP3   OH241173   3.828   1.034   4.128
13739TIP3    H141174   3.903   1.014   4.184
13739TIP3    H241175   3.759   1.060   4.188
13740TIP3   OH241176   0.177   4.666   5.212
13740TIP3    H141177   0.243   4.645   5.278
13740TIP3    H241178   0.120   4.731   5.254
13741TIP3   OH241179   6.194   6.939   0.614
13741TIP3    H141180   6.187   7.035   0.610
13741TIP3    H241181   6.104   6.908   0.605
13742TIP3   OH241182   0.366   1.706   2.443
13742TIP3    H141183   0.337   1.629   2.392
13742TIP3    H241184   0.287   1.759   2.453
13743TIP3   OH241185   7.240   2.558   0.445
13743TIP3    H141186   7.173   2.615   0.408
13743TIP3    H241187   7.304   2.547   0.375
13744TIP3   OH241188   2.433   5.381   6.727
13744TIP3    H141189   2.469   5.297   6.697
13744TIP3    H241190   2.339   5.372   6.716
13745TIP3   OH241191   0.318   7.331   3.435
13745TIP3    H141192   0.407   7.357   3.463
13745TIP3    H241193   0.304   7.380   3.354
13746TIP3   OH241194   7.528   7.416   3.502
13746TIP3    H141195   7.561   7.476   3.435
13746TIP3    H241196   7.568   7.332   3.480
13747TIP3   OH241197   6.715   6.571   3.573
13747TIP3    H141198   6.779   6.608   3.634
13747TIP3    H241199   6.757   6.577   3.488
13748TIP3   OH241200   0.707   4.001   1.170
13748TIP3    H141201   0.774   4.022   1.235
13748TIP3    H241202   0.749   3.938   1.111
13749TIP3   OH241203   7.958   3.482   2.848
13749TIP3    H141204   7.965   3.426   2.771
13749TIP3    H241205   7.908   3.430   2.911
13750TIP3   OH241206   0.170   5.225   6.767
13750TIP3    H141207   0.088   5.266   6.795
13750TIP3    H241208   0.226   5.297   6.741
13751TIP3   OH241209   4.681   1.572   0.934
13751TIP3    H141210   4.603   1.619   0.904
13751TIP3    H241211   4.736   1.639   0.974
13752TIP3   OH241212   5.782   5.336   0.593
13752TIP3    H141213   5.867   5.369   0.622
13752TIP3    H241214   5.762   5.386   0.514
13753TIP3   OH241215   4.253   4.095   1.019
13753TIP3    H141216   4.164   4.129   1.011
13753TIP3    H241217   4.294   4.116   0.934
13754TIP3   OH241218   2.521   3.672   3.886
13754TIP3    H141219   2.552   3.583   3.867
13754TIP3    H241220   2.534   3.719   3.804
13755TIP3   OH241221   4.110   4.598   6.339
13755TIP3    H141222   4.098   4.678   6.287
13755TIP3    H241223   4.033   4.544   6.318
13756TIP3   OH241224   5.926   1.548   3.518
13756TIP3    H141225   5.894   1.638   3.521
13756TIP3    H241226   5.978   1.544   3.438
13757TIP3   OH241227   6.737   6.831   6.099
13757TIP3    H141228   6.719   6.737   6.102
13757TIP3    H241229   6.721   6.856   6.008
13758TIP3   OH241230   3.516   3.823   1.490
13758TIP3    H141231   3.557   3.802   1.575
13758TIP3    H241232   3.561   3.766   1.428
13759TIP3   OH241233   5.401   2.651   5.206
13759TIP3    H141234   5.421   2.562   5.237
13759TIP3    H241235   5.456   2.662   5.128
13760TIP3   OH241236   2.292   5.861   2.281
13760TIP3    H141237   2.288   5.777   2.328
13760TIP3    H241238   2.242   5.921   2.336
13761TIP3   OH241239   1.141   2.250   2.083
13761TIP3    H141240   1.199   2.327   2.089
13761TIP3    H241241   1.111   2.251   1.993
13762TIP3   OH241242   2.718   3.204   3.792
13762TIP3    H141243   2.728   3.285   3.742
13762TIP3    H241244   2.642   3.219   3.848
13763TIP3   OH241245   3.582   5.781   5.499
13763TIP3    H141246   3.591   5.696   5.457
13763TIP3    H241247   3.600   5.844   5.429
13764TIP3   OH241248   2.774   2.654   0.418
13764TIP3    H141249   2.869   2.642   0.418
13764TIP3    H241250   2.741   2.578   0.370
13765TIP3   OH241251   0.151   4.645   1.826
13765TIP3    H141252   0.240   4.613   1.813
13765TIP3    H241253   0.103   4.570   1.861
13766TIP3   OH241254   0.884   3.920   0.852
13766TIP3    H141255   0.918   4.000   0.892
13766TIP3    H241256   0.921   3.919   0.764
13767TIP3   OH241257   7.446   6.020   6.521
13767TIP3    H141258   7.480   5.943   6.568
13767TIP3    H241259   7.392   6.065   6.585
13768TIP3   OH241260   7.025   1.695   4.847
13768TIP3    H141261   6.958   1.627   4.839
13768TIP3    H241262   7.024   1.739   4.762
13769TIP3   OH241263   2.125   5.955   0.686
13769TIP3    H141264   2.149   5.870   0.649
13769TIP3    H241265   2.085   6.001   0.613
13770TIP3   OH241266   5.454   3.853  -0.011
13770TIP3    H141267   5.397   3.923  -0.043
13770TIP3    H241268   5.455   3.864   0.084
13771TIP3   OH241269   8.206   0.904   3.934
13771TIP3    H141270   8.301   0.905   3.924
13771TIP3    H241271   8.186   0.817   3.970
13772TIP3   OH241272   4.901   4.536   5.924
13772TIP3    H141273   4.835   4.482   5.880
13772TIP3    H241274   4.852   4.608   5.962
13773TIP3   OH241275   4.951   3.905   2.387
13773TIP3    H141276   4.976   3.952   2.466
13773TIP3    H241277   5.001   3.945   2.317
13774TIP3   OH241278   4.483   1.716   0.850
13774TIP3    H141279   4.479   1.808   0.876
13774TIP3    H241280   4.461   1.717   0.756
13775TIP3   OH241281   3.261   0.527   3.502
13775TIP3    H141282   3.323   0.464   3.540
13775TIP3    H241283   3.198   0.473   3.454
13776TIP3   OH241284   6.124   7.223   0.563
13776TIP3    H141285   6.048   7.246   0.509
13776TIP3    H241286   6.122   7.285   0.636
13777TIP3   OH241287   8.282   4.860   5.290
13777TIP3    H141288   8.209   4.868   5.229
13777TIP3    H241289   8.326   4.945   5.285
13778TIP3   OH241290   3.532   1.024   0.544
13778TIP3    H141291   3.536   1.086   0.472
13778TIP3    H241292   3.442   1.032   0.578
13779TIP3   OH241293   7.806   2.209   3.102
13779TIP3    H141294   7.872   2.193   3.035
13779TIP3    H241295   7.738   2.143   3.085
13780TIP3   OH241296   7.730   1.816   6.217
13780TIP3    H141297   7.760   1.891   6.164
13780TIP3    H241298   7.809   1.784   6.260
13781TIP3   OH241299   0.446   1.383   0.902
13781TIP3    H141300   0.360   1.395   0.863
13781TIP3    H241301   0.439   1.300   0.950
13782TIP3   OH241302   2.538   6.842   3.311
13782TIP3    H141303   2.613   6.821   3.366
13782TIP3    H241304   2.542   6.938   3.302
13783TIP3   OH241305   7.953   3.525   0.518
13783TIP3    H141306   7.872   3.529   0.467
13783TIP3    H241307   8.010   3.591   0.479
13784TIP3   OH241308   0.843   4.738   2.250
13784TIP3    H141309   0.864   4.824   2.213
13784TIP3    H241310   0.769   4.755   2.309
13785TIP3   OH241311   5.680   2.401   5.120
13785TIP3    H141312   5.666   2.432   5.210
13785TIP3    H241313   5.756   2.450   5.089
13786TIP3   OH241314   3.830   2.940   2.559
13786TIP3    H141315   3.788   2.864   2.599
13786TIP3    H241316   3.758   2.991   2.523
13787TIP3   OH241317   2.688   4.218   0.485
13787TIP3    H141318   2.655   4.264   0.407
13787TIP3    H241319   2.609   4.198   0.535
13788TIP3   OH241320   1.246   1.379   2.840
13788TIP3    H141321   1.262   1.380   2.746
13788TIP3    H241322   1.319   1.428   2.878
13789TIP3   OH241323   0.419   4.264   2.175
13789TIP3    H141324   0.377   4.190   2.132
13789TIP3    H241325   0.357   4.336   2.164
13790TIP3   OH241326   0.443   7.022   1.816
13790TIP3    H141327   0.349   7.007   1.803
13790TIP3    H241328   0.448   7.109   1.854
13791TIP3   OH241329   0.309   6.718   4.975
13791TIP3    H141330   0.302   6.798   5.028
13791TIP3    H241331   0.229   6.670   4.995
13792TIP3   OH241332   5.292   2.419   1.659
13792TIP3    H141333   5.197   2.418   1.651
13792TIP3    H241334   5.309   2.427   1.753
13793TIP3   OH241335   7.141   2.391   5.040
13793TIP3    H141336   7.196   2.314   5.051
13793TIP3    H241337   7.161   2.445   5.117
13794TIP3   OH241338   1.360   3.702   3.221
13794TIP3    H141339   1.284   3.752   3.253
13794TIP3    H241340   1.418   3.768   3.183
13795TIP3   OH241341   2.019   1.223   2.866
13795TIP3    H141342   2.083   1.281   2.824
13795TIP3    H241343   2.067   1.185   2.940
13796TIP3   OH241344   1.813   6.889   4.798
13796TIP3    H141345   1.835   6.944   4.723
13796TIP3    H241346   1.805   6.800   4.761
13797TIP3   OH241347   7.662   0.910   1.122
13797TIP3    H141348   7.641   0.935   1.212
13797TIP3    H241349   7.662   0.814   1.123
13798TIP3   OH241350   3.955   0.025   5.824
13798TIP3    H141351   3.989  -0.031   5.894
13798TIP3    H241352   4.033   0.070   5.790
13799TIP3   OH241353   5.269   6.747   3.607
13799TIP3    H141354   5.221   6.829   3.608
13799TIP3    H241355   5.304   6.739   3.696
13800TIP3   OH241356   7.229   2.992   6.396
13800TIP3    H141357   7.209   3.049   6.323
13800TIP3    H241358   7.312   3.025   6.430
13801TIP3   OH241359   0.450   1.862   4.645
13801TIP3    H141360   0.392   1.827   4.577
13801TIP3    H241361   0.535   1.871   4.602
13802TIP3   OH241362   8.006   1.185   4.404
13802TIP3    H141363   7.961   1.165   4.486
13802TIP3    H241364   8.080   1.125   4.402
13803TIP3   OH241365   3.593   6.340   3.426
13803TIP3    H141366   3.551   6.267   3.379
13803TIP3    H241367   3.537   6.415   3.409
13804TIP3   OH241368   3.409   2.268   0.492
13804TIP3    H141369   3.340   2.258   0.558
13804TIP3    H241370   3.490   2.275   0.542
13805TIP3   OH241371   2.152   6.891   5.801
13805TIP3    H141372   2.242   6.904   5.830
13805TIP3    H241373   2.153   6.912   5.708
13806TIP3   OH241374   7.488   4.677   6.612
13806TIP3    H141375   7.553   4.702   6.678
13806TIP3    H241376   7.540   4.645   6.538
13807TIP3   OH241377   6.984   3.612   1.841
13807TIP3    H141378   7.052   3.611   1.909
13807TIP3    H241379   6.915   3.554   1.875
13808TIP3   OH241380   7.784   6.367   4.232
13808TIP3    H141381   7.812   6.458   4.230
13808TIP3    H241382   7.700   6.368   4.278
13809TIP3   OH241383   5.955   5.129   0.902
13809TIP3    H141384   5.899   5.071   0.954
13809TIP3    H241385   6.011   5.172   0.967
13810TIP3   OH241386   6.985   3.692   5.596
13810TIP3    H141387   6.936   3.616   5.628
13810TIP3    H241388   7.061   3.698   5.653
13811TIP3   OH241389   7.732   5.913   3.980
13811TIP3    H141390   7.691   5.928   4.066
13811TIP3    H241391   7.801   5.979   3.975
13812TIP3   OH241392   7.784   5.309   0.523
13812TIP3    H141393   7.803   5.244   0.456
13812TIP3    H241394   7.695   5.338   0.503
13813TIP3   OH241395   8.295   3.806   6.179
13813TIP3    H141396   8.360   3.743   6.147
13813TIP3    H241397   8.212   3.759   6.175
13814TIP3   OH241398   2.151   6.240   0.127
13814TIP3    H141399   2.087   6.310   0.140
13814TIP3    H241400   2.099   6.160   0.120
13815TIP3   OH241401   1.560   4.696   5.751
13815TIP3    H141402   1.619   4.729   5.818
13815TIP3    H241403   1.475   4.733   5.773
13816TIP3   OH241404   0.818   1.116   2.222
13816TIP3    H141405   0.763   1.116   2.300
13816TIP3    H241406   0.868   1.035   2.227
13817TIP3   OH241407   2.569   0.855   5.260
13817TIP3    H141408   2.542   0.946   5.250
13817TIP3    H241409   2.648   0.847   5.206
13818TIP3   OH241410   3.122   0.875   5.954
13818TIP3    H141411   3.084   0.958   5.925
13818TIP3    H241412   3.087   0.863   6.043
13819TIP3   OH241413   8.134   4.414   5.874
13819TIP3    H141414   8.052   4.398   5.828
13819TIP3    H241415   8.131   4.354   5.949
13820TIP3   OH241416   2.220   0.682   4.898
13820TIP3    H141417   2.128   0.685   4.924
13820TIP3    H241418   2.229   0.756   4.837
13821TIP3   OH241419   3.547   1.332   5.584
13821TIP3    H141420   3.498   1.305   5.507
13821TIP3    H241421   3.637   1.304   5.567
13822TIP3   OH241422   0.176   4.046   5.634
13822TIP3    H141423   0.104   3.988   5.608
13822TIP3    H241424   0.251   4.014   5.585
13823TIP3   OH241425   5.203   0.592   4.509
13823TIP3    H141426   5.244   0.672   4.475
13823TIP3    H241427   5.197   0.606   4.603
13824TIP3   OH241428   2.194   0.507   2.022
13824TIP3    H141429   2.186   0.421   2.063
13824TIP3    H241430   2.213   0.488   1.930
13825TIP3   OH241431   0.613   5.632   2.716
13825TIP3    H141432   0.600   5.638   2.622
13825TIP3    H241433   0.601   5.539   2.736
13826TIP3   OH241434   2.999   5.803   1.369
13826TIP3    H141435   2.907   5.809   1.395
13826TIP3    H241436   3.017   5.887   1.326
13827TIP3   OH241437   0.875   3.424   6.552
13827TIP3    H141438   0.882   3.519   6.551
13827TIP3    H241439   0.905   3.398   6.639
13828TIP3   OH241440   4.774   0.475   5.316
13828TIP3    H141441   4.743   0.540   5.379
13828TIP3    H241442   4.751   0.391   5.356
13829TIP3   OH241443   1.913   6.370   1.541
13829TIP3    H141444   1.912   6.459   1.505
13829TIP3    H241445   1.964   6.320   1.478
13830TIP3   OH241446   7.169   2.526   5.280
13830TIP3    H141447   7.094   2.503   5.335
13830TIP3    H241448   7.188   2.617   5.303
13831TIP3   OH241449   0.499   6.751   5.174
13831TIP3    H141450   0.505   6.847   5.169
13831TIP3    H241451   0.535   6.721   5.090
13832TIP3   OH241452   3.859   4.109   6.376
13832TIP3    H141453   3.868   4.201   6.398
13832TIP3    H241454   3.912   4.063   6.441
13833TIP3   OH241455   7.469   7.071   4.157
13833TIP3    H141456   7.545   7.021   4.187
13833TIP3    H241457   7.484   7.160   4.188
13834TIP3   OH241458   3.329   1.465   2.951
13834TIP3    H141459   3.267   1.430   3.015
13834TIP3    H241460   3.391   1.515   3.004
13835TIP3   OH241461   0.970   6.536   2.709
13835TIP3    H141462   1.061   6.555   2.687
13835TIP3    H241463   0.943   6.608   2.766
13836TIP3   OH241464   4.704   6.330   1.884
13836TIP3    H141465   4.681   6.315   1.793
13836TIP3    H241466   4.781   6.276   1.899
13837TIP3   OH241467   7.099   2.151   4.222
13837TIP3    H141468   7.142   2.219   4.171
13837TIP3    H241469   7.153   2.073   4.208
13838TIP3   OH241470   1.971   3.686   5.912
13838TIP3    H141471   1.919   3.670   5.990
13838TIP3    H241472   1.971   3.781   5.902
13839TIP3   OH241473   1.253   1.739   2.130
13839TIP3    H141474   1.186   1.777   2.074
13839TIP3    H241475   1.311   1.811   2.151
13840TIP3   OH241476   3.071   3.792   6.045
13840TIP3    H141477   3.101   3.709   6.007
13840TIP3    H241478   3.144   3.823   6.098
13841TIP3   OH241479   0.841   0.744   2.249
13841TIP3    H141480   0.790   0.783   2.177
13841TIP3    H241481   0.903   0.813   2.274
13842TIP3   OH241482   5.312   3.830   3.984
13842TIP3    H141483   5.303   3.800   4.074
13842TIP3    H241484   5.273   3.760   3.932
13843TIP3   OH241485   7.674   2.431   0.680
13843TIP3    H141486   7.584   2.428   0.711
13843TIP3    H241487   7.672   2.488   0.603
13844TIP3   OH241488   0.876   5.892   5.617
13844TIP3    H141489   0.839   5.847   5.692
13844TIP3    H241490   0.964   5.855   5.608
13845TIP3   OH241491   1.667   1.215   4.706
13845TIP3    H141492   1.740   1.272   4.679
13845TIP3    H241493   1.589   1.259   4.673
13846TIP3   OH241494   7.758   4.571   3.118
13846TIP3    H141495   7.683   4.622   3.148
13846TIP3    H241496   7.756   4.578   3.022
13847TIP3   OH241497   7.509   5.587   0.905
13847TIP3    H141498   7.428   5.627   0.873
13847TIP3    H241499   7.502   5.495   0.882
13848TIP3   OH241500   0.756   1.247   6.020
13848TIP3    H141501   0.662   1.228   6.027
13848TIP3    H241502   0.762   1.307   5.945
13849TIP3   OH241503   1.615   6.395   5.677
13849TIP3    H141504   1.547   6.356   5.622
13849TIP3    H241505   1.683   6.422   5.616
13850TIP3   OH241506   6.572   0.350   0.107
13850TIP3    H141507   6.642   0.415   0.105
13850TIP3    H241508   6.599   0.284   0.043
13851TIP3   OH241509   0.406   4.297   4.961
13851TIP3    H141510   0.358   4.380   4.959
13851TIP3    H241511   0.434   4.283   4.871
13852TIP3   OH241512   0.474   1.841   2.991
13852TIP3    H141513   0.399   1.796   3.029
13852TIP3    H241514   0.453   1.850   2.898
13853TIP3   OH241515   1.048   6.654   5.430
13853TIP3    H141516   1.083   6.594   5.496
13853TIP3    H241517   1.111   6.650   5.358
13854TIP3   OH241518   6.816   3.834   1.596
13854TIP3    H141519   6.785   3.744   1.607
13854TIP3    H241520   6.908   3.825   1.572
13855TIP3   OH241521   1.639   7.111   6.212
13855TIP3    H141522   1.559   7.113   6.265
13855TIP3    H241523   1.620   7.050   6.141
13856TIP3   OH241524   6.717   5.261   2.488
13856TIP3    H141525   6.788   5.282   2.428
13856TIP3    H241526   6.730   5.319   2.563
13857TIP3   OH241527   5.072   3.378   4.426
13857TIP3    H141528   5.119   3.296   4.443
13857TIP3    H241529   5.019   3.392   4.505
13858TIP3   OH241530   0.667   4.908   1.250
13858TIP3    H141531   0.700   4.856   1.176
13858TIP3    H241532   0.743   4.921   1.306
13859TIP3   OH241533   7.852   4.584   3.901
13859TIP3    H141534   7.782   4.574   3.836
13859TIP3    H241535   7.931   4.556   3.855
13860TIP3   OH241536   3.535   2.695   1.184
13860TIP3    H141537   3.491   2.631   1.240
13860TIP3    H241538   3.616   2.716   1.231
13861TIP3   OH241539   5.987   0.277   3.717
13861TIP3    H141540   5.996   0.317   3.804
13861TIP3    H241541   6.060   0.215   3.713
13862TIP3   OH241542   3.086   1.786   5.942
13862TIP3    H141543   3.152   1.815   6.005
13862TIP3    H241544   3.085   1.854   5.875
13863TIP3   OH241545   0.286   3.193   2.005
13863TIP3    H141546   0.287   3.209   2.099
13863TIP3    H241547   0.213   3.246   1.972
13864TIP3   OH241548   1.850   6.750   1.838
13864TIP3    H141549   1.881   6.660   1.837
13864TIP3    H241550   1.922   6.800   1.878
13865TIP3   OH241551   3.611   3.404   4.689
13865TIP3    H141552   3.645   3.461   4.759
13865TIP3    H241553   3.678   3.407   4.621
13866TIP3   OH241554   1.772   5.222   2.586
13866TIP3    H141555   1.697   5.273   2.617
13866TIP3    H241556   1.775   5.147   2.645
13867TIP3   OH241557   1.144   3.836   0.704
13867TIP3    H141558   1.129   3.899   0.774
13867TIP3    H241559   1.214   3.780   0.737
13868TIP3   OH241560   2.299   5.734   3.130
13868TIP3    H141561   2.317   5.668   3.196
13868TIP3    H241562   2.304   5.687   3.047
13869TIP3   OH241563   0.269   1.942   4.843
13869TIP3    H141564   0.264   1.867   4.901
13869TIP3    H241565   0.335   1.918   4.778
13870TIP3   OH241566   6.773   2.700   3.415
13870TIP3    H141567   6.807   2.735   3.497
13870TIP3    H241568   6.827   2.741   3.347
13871TIP3   OH241569   5.010   6.383   5.559
13871TIP3    H141570   5.073   6.424   5.619
13871TIP3    H241571   5.055   6.305   5.527
13872TIP3   OH241572   7.068   5.556   1.336
13872TIP3    H141573   6.988   5.511   1.362
13872TIP3    H241574   7.138   5.494   1.354
13873TIP3   OH241575   1.333   5.493   1.114
13873TIP3    H141576   1.254   5.540   1.140
13873TIP3    H241577   1.343   5.513   1.021
13874TIP3   OH241578   1.095   1.739   0.619
13874TIP3    H141579   1.015   1.730   0.567
13874TIP3    H241580   1.141   1.656   0.607
13875TIP3   OH241581   8.289   6.278   3.876
13875TIP3    H141582   8.205   6.257   3.835
13875TIP3    H241583   8.342   6.314   3.805
13876TIP3   OH241584   5.254   5.933   3.151
13876TIP3    H141585   5.283   5.845   3.128
13876TIP3    H241586   5.167   5.941   3.112
13877TIP3   OH241587   2.661   5.517   4.782
13877TIP3    H141588   2.567   5.498   4.779
13877TIP3    H241589   2.694   5.465   4.856
13878TIP3   OH241590   5.949   2.286   1.724
13878TIP3    H141591   5.939   2.352   1.792
13878TIP3    H241592   5.870   2.232   1.731
13879TIP3   OH241593   2.272   7.131   4.053
13879TIP3    H141594   2.208   7.059   4.049
13879TIP3    H241595   2.298   7.145   3.961
13880TIP3   OH241596   1.409   0.811   4.291
13880TIP3    H141597   1.321   0.846   4.276
13880TIP3    H241598   1.468   0.885   4.275
13881TIP3   OH241599   7.495   2.821   0.599
13881TIP3    H141600   7.477   2.915   0.600
13881TIP3    H241601   7.587   2.814   0.576
13882TIP3   OH241602   4.576   6.912   5.696
13882TIP3    H141603   4.595   6.983   5.757
13882TIP3    H241604   4.521   6.852   5.746
13883TIP3   OH241605   1.267   5.693   3.398
13883TIP3    H141606   1.220   5.614   3.371
13883TIP3    H241607   1.255   5.754   3.326
13884TIP3   OH241608   3.856   5.778   5.240
13884TIP3    H141609   3.791   5.847   5.254
13884TIP3    H241610   3.820   5.727   5.167
13885TIP3   OH241611   5.496   6.401   4.340
13885TIP3    H141612   5.452   6.378   4.422
13885TIP3    H241613   5.472   6.331   4.280
13886TIP3   OH241614   2.938   2.041   2.793
13886TIP3    H141615   2.924   2.124   2.839
13886TIP3    H241616   2.950   2.066   2.701
13887TIP3   OH241617   6.250   1.145   2.637
13887TIP3    H141618   6.195   1.107   2.705
13887TIP3    H241619   6.192   1.203   2.587
13888TIP3   OH241620   5.483   6.612   5.454
13888TIP3    H141621   5.543   6.683   5.432
13888TIP3    H241622   5.417   6.652   5.511
13889TIP3   OH241623   7.476   4.017   2.569
13889TIP3    H141624   7.548   3.982   2.621
13889TIP3    H241625   7.520   4.070   2.502
13890TIP3   OH241626   5.708   4.295   5.113
13890TIP3    H141627   5.740   4.227   5.173
13890TIP3    H241628   5.667   4.247   5.041
13891TIP3   OH241629   2.442   1.165   2.200
13891TIP3    H141630   2.371   1.102   2.214
13891TIP3    H241631   2.518   1.125   2.244
13892TIP3   OH241632   1.044   5.121   4.167
13892TIP3    H141633   1.128   5.150   4.204
13892TIP3    H241634   0.981   5.187   4.197
13893TIP3   OH241635   2.574   4.918   2.964
13893TIP3    H141636   2.594   4.964   3.045
13893TIP3    H241637   2.648   4.935   2.906
13894TIP3   OH241638   6.406   1.138   2.226
13894TIP3    H141639   6.348   1.214   2.232
13894TIP3    H241640   6.492   1.171   2.251
13895TIP3   OH241641   6.562   5.472   5.563
13895TIP3    H141642   6.544   5.539   5.629
13895TIP3    H241643   6.499   5.490   5.493
13896TIP3   OH241644   4.700   0.640   0.849
13896TIP3    H141645   4.724   0.730   0.829
13896TIP3    H241646   4.616   0.627   0.806
13897TIP3   OH241647   1.463   6.355   2.669
13897TIP3    H141648   1.386   6.327   2.618
13897TIP3    H241649   1.508   6.418   2.613
13898TIP3   OH241650   4.970   5.953   3.618
13898TIP3    H141651   4.921   5.871   3.624
13898TIP3    H241652   5.051   5.936   3.666
13899TIP3   OH241653   6.019   5.779   3.726
13899TIP3    H141654   6.103   5.825   3.732
13899TIP3    H241655   6.014   5.727   3.807
13900TIP3   OH241656   7.929   2.056   2.595
13900TIP3    H141657   7.873   2.118   2.642
13900TIP3    H241658   8.011   2.055   2.644
13901TIP3   OH241659   3.938   3.459   6.307
13901TIP3    H141660   3.969   3.391   6.367
13901TIP3    H241661   4.001   3.530   6.317
13902TIP3   OH241662   1.908   7.244   6.197
13902TIP3    H141663   1.846   7.221   6.128
13902TIP3    H241664   1.945   7.328   6.170
13903TIP3   OH241665   1.209   5.427   3.208
13903TIP3    H141666   1.115   5.408   3.205
13903TIP3    H241667   1.236   5.426   3.116
13904TIP3   OH241668   3.717   2.810   2.287
13904TIP3    H141669   3.664   2.859   2.350
13904TIP3    H241670   3.671   2.820   2.204
13905TIP3   OH241671   2.329   0.739   2.962
13905TIP3    H141672   2.369   0.790   3.033
13905TIP3    H241673   2.402   0.711   2.907
13906TIP3   OH241674   3.838   5.622   6.515
13906TIP3    H141675   3.791   5.624   6.598
13906TIP3    H241676   3.807   5.543   6.471
13907TIP3   OH241677   6.057   5.465   0.637
13907TIP3    H141678   6.142   5.501   0.612
13907TIP3    H241679   6.001   5.542   0.649
13908TIP3   OH241680   3.759   0.436   5.298
13908TIP3    H141681   3.764   0.532   5.301
13908TIP3    H241682   3.667   0.417   5.282
13909TIP3   OH241683   3.422   3.114   0.409
13909TIP3    H141684   3.410   3.206   0.384
13909TIP3    H241685   3.382   3.065   0.337
13910TIP3   OH241686   8.254   4.116   0.703
13910TIP3    H141687   8.313   4.107   0.778
13910TIP3    H241688   8.301   4.174   0.643
13911TIP3   OH241689   1.740   4.168   0.341
13911TIP3    H141690   1.782   4.082   0.331
13911TIP3    H241691   1.653   4.156   0.303
13912TIP3   OH241692   0.598   6.926   3.842
13912TIP3    H141693   0.530   6.937   3.910
13912TIP3    H241694   0.660   6.864   3.881
13913TIP3   OH241695   7.993   3.209   1.447
13913TIP3    H141696   8.071   3.169   1.410
13913TIP3    H241697   8.022   3.295   1.478
13914TIP3   OH241698   2.707   1.751   1.062
13914TIP3    H141699   2.612   1.746   1.055
13914TIP3    H241700   2.731   1.677   1.118
13915TIP3   OH241701   1.662   6.649   0.176
13915TIP3    H141702   1.718   6.716   0.215
13915TIP3    H241703   1.691   6.567   0.216
13916TIP3   OH241704   5.050   0.017   2.651
13916TIP3    H141705   4.989  -0.053   2.674
13916TIP3    H241706   5.048   0.076   2.727
13917TIP3   OH241707   1.869   6.708   2.665
13917TIP3    H141708   1.794   6.678   2.716
13917TIP3    H241709   1.889   6.636   2.606
13918TIP3   OH241710   8.087   7.687   6.154
13918TIP3    H141711   8.032   7.617   6.189
13918TIP3    H241712   8.067   7.689   6.060
13919TIP3   OH241713   1.815   7.410   3.651
13919TIP3    H141714   1.764   7.329   3.662
13919TIP3    H241715   1.864   7.419   3.732
13920TIP3   OH241716   4.735   1.158   6.510
13920TIP3    H141717   4.691   1.212   6.445
13920TIP3    H241718   4.752   1.218   6.583
13921TIP3   OH241719   5.308   2.641   4.399
13921TIP3    H141720   5.389   2.596   4.421
13921TIP3    H241721   5.242   2.600   4.455
13922TIP3   OH241722   0.837   2.069   3.810
13922TIP3    H141723   0.900   2.138   3.793
13922TIP3    H241724   0.753   2.105   3.779
13923TIP3   OH241725   2.184   6.822   3.755
13923TIP3    H141726   2.214   6.782   3.836
13923TIP3    H241727   2.259   6.818   3.696
13924TIP3   OH241728   2.560   2.590   3.835
13924TIP3    H141729   2.467   2.594   3.812
13924TIP3    H241730   2.576   2.497   3.851
13925TIP3   OH241731   2.693   6.850   5.791
13925TIP3    H141732   2.722   6.936   5.823
13925TIP3    H241733   2.597   6.855   5.791
13926TIP3   OH241734   3.661   4.961   5.885
13926TIP3    H141735   3.743   4.938   5.929
13926TIP3    H241736   3.661   5.056   5.882
13927TIP3   OH241737   5.066   4.033   4.632
13927TIP3    H141738   5.075   3.979   4.553
13927TIP3    H241739   5.146   4.086   4.634
13928TIP3   OH241740   4.850   3.891   0.885
13928TIP3    H141741   4.865   3.804   0.848
13928TIP3    H241742   4.783   3.878   0.952
13929TIP3   OH241743   2.195   7.223   4.792
13929TIP3    H141744   2.264   7.157   4.801
13929TIP3    H241745   2.171   7.219   4.699
13930TIP3   OH241746   2.468   5.930   3.860
13930TIP3    H141747   2.500   5.906   3.773
13930TIP3    H241748   2.375   5.950   3.846
13931TIP3   OH241749   1.837   7.662   4.203
13931TIP3    H141750   1.881   7.740   4.169
13931TIP3    H241751   1.745   7.674   4.182
13932TIP3   OH241752   7.696   3.781   3.156
13932TIP3    H141753   7.740   3.774   3.072
13932TIP3    H241754   7.671   3.874   3.162
13933TIP3   OH241755   1.739   4.850   3.361
13933TIP3    H141756   1.785   4.794   3.424
13933TIP3    H241757   1.809   4.902   3.321
13934TIP3   OH241758   5.463   0.308   1.062
13934TIP3    H141759   5.464   0.392   1.017
13934TIP3    H241760   5.553   0.298   1.095
13935TIP3   OH241761   1.828   2.948   2.553
13935TIP3    H141762   1.895   2.954   2.485
13935TIP3    H241763   1.749   2.919   2.507
13936TIP3   OH241764   2.073   6.654   2.013
13936TIP3    H141765   2.052   6.739   2.053
13936TIP3    H241766   2.094   6.597   2.087
13937TIP3   OH241767   7.543   2.485   5.697
13937TIP3    H141768   7.552   2.393   5.672
13937TIP3    H241769   7.534   2.483   5.792
13938TIP3   OH241770   3.096   3.949   4.436
13938TIP3    H141771   3.078   4.042   4.451
13938TIP3    H241772   3.015   3.914   4.400
13939TIP3   OH241773   0.375   6.873   4.674
13939TIP3    H141774   0.417   6.917   4.748
13939TIP3    H241775   0.420   6.789   4.667
13940TIP3   OH241776   0.249   0.297   4.816
13940TIP3    H141777   0.285   0.322   4.731
13940TIP3    H241778   0.157   0.320   4.811
13941TIP3   OH241779   2.032   7.475   6.160
13941TIP3    H141780   2.123   7.506   6.157
13941TIP3    H241781   1.982   7.545   6.117
13942TIP3   OH241782   4.375   3.283   5.650
13942TIP3    H141783   4.413   3.354   5.597
13942TIP3    H241784   4.412   3.203   5.612
13943TIP3   OH241785   1.331   6.375   0.460
13943TIP3    H141786   1.372   6.384   0.373
13943TIP3    H241787   1.352   6.286   0.487
13944TIP3   OH241788   2.600   6.658   6.667
13944TIP3    H141789   2.672   6.689   6.611
13944TIP3    H241790   2.557   6.738   6.695
13945TIP3   OH241791   2.251   3.436   2.003
13945TIP3    H141792   2.310   3.477   2.066
13945TIP3    H241793   2.271   3.342   2.009
13946TIP3   OH241794   4.841   0.504   3.059
13946TIP3    H141795   4.934   0.524   3.069
13946TIP3    H241796   4.832   0.414   3.089
13947TIP3   OH241797   4.866   2.655   1.258
13947TIP3    H141798   4.907   2.725   1.207
13947TIP3    H241799   4.794   2.625   1.203
13948TIP3   OH241800   1.970   1.160   1.937
13948TIP3    H141801   2.039   1.206   1.888
13948TIP3    H241802   1.991   1.177   2.029
13949TIP3   OH241803   3.414   0.719   4.154
13949TIP3    H141804   3.500   0.680   4.140
13949TIP3    H241805   3.352   0.646   4.145
13950TIP3   OH241806   6.565   3.986   3.001
13950TIP3    H141807   6.647   4.017   3.039
13950TIP3    H241808   6.580   3.893   2.985
13951TIP3   OH241809   3.873   1.112   5.202
13951TIP3    H141810   3.889   1.183   5.140
13951TIP3    H241811   3.799   1.064   5.164
13952TIP3   OH241812   1.726   6.405   5.261
13952TIP3    H141813   1.745   6.339   5.327
13952TIP3    H241814   1.811   6.428   5.224
13953TIP3   OH241815   7.809   7.598   3.537
13953TIP3    H141816   7.817   7.509   3.503
13953TIP3    H241817   7.744   7.639   3.480
13954TIP3   OH241818   3.250   3.538   4.249
13954TIP3    H141819   3.162   3.506   4.267
13954TIP3    H241820   3.254   3.624   4.290
13955TIP3   OH241821   2.601   3.585   5.571
13955TIP3    H141822   2.592   3.491   5.581
13955TIP3    H241823   2.677   3.597   5.515
13956TIP3   OH241824   6.045   4.046   5.167
13956TIP3    H141825   6.107   4.101   5.120
13956TIP3    H241826   6.065   4.060   5.260
13957TIP3   OH241827   5.126   0.020   0.533
13957TIP3    H141828   5.149   0.089   0.471
13957TIP3    H241829   5.052   0.055   0.582
13958TIP3   OH241830   7.533   5.352   5.313
13958TIP3    H141831   7.516   5.401   5.232
13958TIP3    H241832   7.596   5.284   5.287
13959TIP3   OH241833   0.705   2.211   2.671
13959TIP3    H141834   0.736   2.301   2.662
13959TIP3    H241835   0.780   2.156   2.648
13960TIP3   OH241836   1.882   0.149   1.570
13960TIP3    H141837   1.804   0.203   1.564
13960TIP3    H241838   1.877   0.090   1.495
13961TIP3   OH241839   7.340   0.174   2.297
13961TIP3    H141840   7.436   0.167   2.294
13961TIP3    H241841   7.315   0.193   2.207
13962TIP3   OH241842   0.622   3.113   5.601
13962TIP3    H141843   0.638   3.020   5.612
13962TIP3    H241844   0.529   3.119   5.576
13963TIP3   OH241845   0.613   2.220   0.334
13963TIP3    H141846   0.562   2.210   0.254
13963TIP3    H241847   0.558   2.183   0.403
13964TIP3   OH241848   8.034   6.885   4.902
13964TIP3    H141849   7.974   6.923   4.966
13964TIP3    H241850   8.073   6.961   4.859
13965TIP3   OH241851   5.549   4.601   6.032
13965TIP3    H141852   5.576   4.517   6.069
13965TIP3    H241853   5.511   4.649   6.106
13966TIP3   OH241854   7.254   4.252   6.201
13966TIP3    H141855   7.221   4.297   6.123
13966TIP3    H241856   7.184   4.262   6.266
13967TIP3   OH241857   0.097   0.062   2.765
13967TIP3    H141858   0.093   0.149   2.803
13967TIP3    H241859   0.189   0.037   2.772
13968TIP3   OH241860   4.846   6.356   4.557
13968TIP3    H141861   4.776   6.291   4.559
13968TIP3    H241862   4.860   6.374   4.464
13969TIP3   OH241863   7.651   4.590   6.414
13969TIP3    H141864   7.617   4.501   6.404
13969TIP3    H241865   7.622   4.635   6.334
13970TIP3   OH241866   5.317   2.269   2.047
13970TIP3    H141867   5.278   2.347   2.006
13970TIP3    H241868   5.263   2.254   2.125
13971TIP3   OH241869   1.867   1.728   1.823
13971TIP3    H141870   1.806   1.661   1.793
13971TIP3    H241871   1.849   1.738   1.916
13972TIP3   OH241872   1.008   3.472   0.553
13972TIP3    H141873   0.966   3.389   0.530
13972TIP3    H241874   1.096   3.466   0.515
13973TIP3   OH241875   2.465   0.380   2.094
13973TIP3    H141876   2.514   0.383   2.011
13973TIP3    H241877   2.430   0.468   2.103
13974TIP3   OH241878   1.779   3.531   1.959
13974TIP3    H141879   1.713   3.486   1.906
13974TIP3    H241880   1.862   3.509   1.918
13975TIP3   OH241881   2.727   6.463   1.980
13975TIP3    H141882   2.738   6.556   1.997
13975TIP3    H241883   2.811   6.434   1.944
13976TIP3   OH241884   0.050   7.337   6.285
13976TIP3    H141885   0.077   7.393   6.211
13976TIP3    H241886   0.132   7.306   6.322
13977TIP3   OH241887   6.754   1.227   3.412
13977TIP3    H141888   6.743   1.257   3.502
13977TIP3    H241889   6.665   1.215   3.380
13978TIP3   OH241890   3.752   0.745   0.022
13978TIP3    H141891   3.734   0.802   0.097
13978TIP3    H241892   3.847   0.731   0.024
13979TIP3   OH241893   6.408   7.268   6.296
13979TIP3    H141894   6.449   7.351   6.320
13979TIP3    H241895   6.439   7.207   6.363
13980TIP3   OH241896   6.147   5.878   1.576
13980TIP3    H141897   6.091   5.895   1.500
13980TIP3    H241898   6.112   5.934   1.645
13981TIP3   OH241899   5.776   0.900   3.235
13981TIP3    H141900   5.695   0.929   3.277
13981TIP3    H241901   5.755   0.813   3.202
13982TIP3   OH241902   3.140   5.295   1.297
13982TIP3    H141903   3.066   5.235   1.288
13982TIP3    H241904   3.099   5.380   1.316
13983TIP3   OH241905   1.138   2.230   5.877
13983TIP3    H141906   1.171   2.208   5.964
13983TIP3    H241907   1.119   2.324   5.882
13984TIP3   OH241908   5.973   4.972   0.082
13984TIP3    H141909   5.979   4.879   0.060
13984TIP3    H241910   6.057   5.009   0.055
13985TIP3   OH241911   4.334   3.285   6.360
13985TIP3    H141912   4.363   3.367   6.399
13985TIP3    H241913   4.304   3.233   6.435
13986TIP3   OH241914   7.603   4.084   5.691
13986TIP3    H141915   7.672   4.063   5.628
13986TIP3    H241916   7.643   4.146   5.752
13987TIP3   OH241917   2.144   6.778   6.452
13987TIP3    H141918   2.180   6.709   6.396
13987TIP3    H241919   2.071   6.814   6.402
13988TIP3   OH241920   1.675   0.910   2.404
13988TIP3    H141921   1.740   0.961   2.454
13988TIP3    H241922   1.592   0.931   2.445
13989TIP3   OH241923   2.183   5.660   6.601
13989TIP3    H141924   2.188   5.753   6.580
13989TIP3    H241925   2.123   5.655   6.675
13990TIP3   OH241926   1.850   2.925   3.415
13990TIP3    H141927   1.890   2.909   3.330
13990TIP3    H241928   1.860   3.019   3.428
13991TIP3   OH241929   8.118   0.495   2.843
13991TIP3    H141930   8.047   0.542   2.887
13991TIP3    H241931   8.198   0.538   2.875
13992TIP3   OH241932   1.729   3.781   4.731
13992TIP3    H141933   1.665   3.716   4.760
13992TIP3    H241934   1.705   3.861   4.778
13993TIP3   OH241935   6.558   6.402   0.562
13993TIP3    H141936   6.473   6.385   0.602
13993TIP3    H241937   6.554   6.494   0.534
13994TIP3   OH241938   6.422   0.075   1.336
13994TIP3    H141939   6.467   0.102   1.257
13994TIP3    H241940   6.333   0.053   1.308
13995TIP3   OH241941   8.103   3.651   6.267
13995TIP3    H141942   8.018   3.633   6.226
13995TIP3    H241943   8.082   3.707   6.341
13996TIP3   OH241944   2.980   6.377   1.903
13996TIP3    H141945   3.041   6.405   1.834
13996TIP3    H241946   2.956   6.288   1.879
13997TIP3   OH241947   4.921   5.678   2.159
13997TIP3    H141948   4.920   5.663   2.065
13997TIP3    H241949   4.830   5.665   2.187
13998TIP3   OH241950   2.543   3.711   1.812
13998TIP3    H141951   2.610   3.779   1.814
13998TIP3    H241952   2.491   3.726   1.890
13999TIP3   OH241953   4.988   1.828   0.305
13999TIP3    H141954   5.083   1.837   0.320
13999TIP3    H241955   4.976   1.854   0.214
14000TIP3   OH241956   3.103   2.148   1.631
14000TIP3    H141957   3.195   2.142   1.660
14000TIP3    H241958   3.079   2.057   1.613
14001TIP3   OH241959   2.862   7.443   2.162
14001TIP3    H141960   2.948   7.485   2.164
14001TIP3    H241961   2.851   7.415   2.071
14002TIP3   OH241962   2.935   2.375   1.691
14002TIP3    H141963   2.989   2.296   1.692
14002TIP3    H241964   2.890   2.374   1.776
14003TIP3   OH241965   1.497   0.265   1.381
14003TIP3    H141966   1.421   0.316   1.352
14003TIP3    H241967   1.466   0.174   1.382
14004TIP3   OH241968   7.405   5.506   4.546
14004TIP3    H141969   7.479   5.477   4.492
14004TIP3    H241970   7.414   5.458   4.628
14005TIP3   OH241971   4.294   3.800   2.649
14005TIP3    H141972   4.301   3.706   2.663
14005TIP3    H241973   4.378   3.825   2.610
14006TIP3   OH241974   1.979   6.762   5.377
14006TIP3    H141975   2.074   6.757   5.383
14006TIP3    H241976   1.961   6.760   5.283
14007TIP3   OH241977   6.788   5.161   5.669
14007TIP3    H141978   6.839   5.222   5.722
14007TIP3    H241979   6.848   5.089   5.651
14008TIP3   OH241980   1.752   4.711   0.168
14008TIP3    H141981   1.837   4.670   0.156
14008TIP3    H241982   1.729   4.746   0.082
14009TIP3   OH241983   5.945   2.760   1.682
14009TIP3    H141984   5.979   2.818   1.751
14009TIP3    H241985   6.018   2.750   1.621
14010TIP3   OH241986   2.911   4.328   0.542
14010TIP3    H141987   2.965   4.281   0.606
14010TIP3    H241988   2.827   4.284   0.544
14011TIP3   OH241989   0.780   6.884   4.164
14011TIP3    H141990   0.838   6.878   4.088
14011TIP3    H241991   0.698   6.918   4.129
14012TIP3   OH241992   4.907   4.233   4.549
14012TIP3    H141993   4.955   4.164   4.596
14012TIP3    H241994   4.950   4.238   4.464
14013TIP3   OH241995   2.922   4.898   2.248
14013TIP3    H141996   3.005   4.859   2.220
14013TIP3    H241997   2.889   4.943   2.170
14014TIP3   OH241998   1.822   5.701   0.638
14014TIP3    H141999   1.844   5.777   0.585
14014TIP3    H242000   1.728   5.688   0.625
14015TIP3   OH242001   7.746   5.415   3.631
14015TIP3    H142002   7.675   5.478   3.642
14015TIP3    H242003   7.746   5.364   3.712
14016TIP3   OH242004   1.983   7.536   5.751
14016TIP3    H142005   1.905   7.508   5.702
14016TIP3    H242006   2.030   7.455   5.771
14017TIP3   OH242007   1.350   5.598   2.332
14017TIP3    H142008   1.351   5.510   2.370
14017TIP3    H242009   1.410   5.648   2.387
14018TIP3   OH242010   3.057   6.852   1.133
14018TIP3    H142011   2.996   6.902   1.187
14018TIP3    H242012   3.028   6.866   1.043
14019TIP3   OH242013   0.304   3.609   0.301
14019TIP3    H142014   0.222   3.570   0.270
14019TIP3    H242015   0.295   3.613   0.396
14020TIP3   OH242016   1.874   7.402   6.420
14020TIP3    H142017   1.898   7.364   6.335
14020TIP3    H242018   1.957   7.434   6.456
14021TIP3   OH242019   6.187   3.695   2.468
14021TIP3    H142020   6.197   3.635   2.542
14021TIP3    H242021   6.211   3.781   2.503
14022TIP3   OH242022   2.838   2.000   2.171
14022TIP3    H142023   2.822   2.040   2.085
14022TIP3    H242024   2.904   1.932   2.154
14023TIP3   OH242025   5.804   0.206   4.508
14023TIP3    H142026   5.820   0.119   4.545
14023TIP3    H242027   5.794   0.191   4.414
14024TIP3   OH242028   5.138   3.671   0.648
14024TIP3    H142029   5.051   3.659   0.687
14024TIP3    H242030   5.130   3.749   0.594
14025TIP3   OH242031   5.278   4.372   0.224
14025TIP3    H142032   5.221   4.364   0.301
14025TIP3    H242033   5.228   4.331   0.153
14026TIP3   OH242034   4.968   6.863   1.274
14026TIP3    H142035   4.891   6.818   1.239
14026TIP3    H242036   4.956   6.861   1.369
14027TIP3   OH242037   6.709   0.234   0.653
14027TIP3    H142038   6.643   0.299   0.629
14027TIP3    H242039   6.793   0.279   0.637
14028TIP3   OH242040   1.930   0.419   4.304
14028TIP3    H142041   1.982   0.494   4.332
14028TIP3    H242042   1.839   0.444   4.322
14029TIP3   OH242043   3.653   3.578   2.613
14029TIP3    H142044   3.701   3.510   2.566
14029TIP3    H242045   3.705   3.594   2.692
14030TIP3   OH242046   1.656   1.682   0.458
14030TIP3    H142047   1.713   1.643   0.524
14030TIP3    H242048   1.567   1.665   0.490
14031TIP3   OH242049   5.800   2.491   3.012
14031TIP3    H142050   5.871   2.436   3.046
14031TIP3    H242051   5.814   2.576   3.053
14032TIP3   OH242052   1.326   4.234   2.239
14032TIP3    H142053   1.396   4.202   2.182
14032TIP3    H242054   1.264   4.276   2.180
14033TIP3   OH242055   7.100   1.343   5.526
14033TIP3    H142056   7.010   1.374   5.534
14033TIP3    H242057   7.101   1.259   5.572
14034TIP3   OH242058   5.777   2.190   1.383
14034TIP3    H142059   5.825   2.149   1.454
14034TIP3    H242060   5.699   2.226   1.425
14035TIP3   OH242061   4.013   1.672   3.903
14035TIP3    H142062   4.064   1.706   3.829
14035TIP3    H242063   3.930   1.643   3.864
14036TIP3   OH242064   7.888   6.486   2.677
14036TIP3    H142065   7.880   6.492   2.582
14036TIP3    H242066   7.859   6.572   2.709
14037TIP3   OH242067   4.860   2.231   4.323
14037TIP3    H142068   4.807   2.292   4.374
14037TIP3    H242069   4.940   2.280   4.303
14038TIP3   OH242070   1.724   1.627   1.497
14038TIP3    H142071   1.778   1.586   1.429
14038TIP3    H242072   1.734   1.569   1.573
14039TIP3   OH242073   2.337   3.417   5.577
14039TIP3    H142074   2.324   3.359   5.652
14039TIP3    H242075   2.279   3.492   5.595
14040TIP3   OH242076   7.191   0.889   0.078
14040TIP3    H142077   7.120   0.894   0.014
14040TIP3    H242078   7.205   0.980   0.104
14041TIP3   OH242079   1.823   3.877   6.716
14041TIP3    H142080   1.738   3.887   6.672
14041TIP3    H242081   1.887   3.907   6.652
14042TIP3   OH242082   0.262   2.635   5.736
14042TIP3    H142083   0.235   2.698   5.668
14042TIP3    H242084   0.231   2.674   5.818
14043TIP3   OH242085   2.016   0.541   3.508
14043TIP3    H142086   2.087   0.564   3.567
14043TIP3    H242087   1.938   0.579   3.549
14044TIP3   OH242088   5.511   2.677   6.074
14044TIP3    H142089   5.571   2.735   6.122
14044TIP3    H242090   5.426   2.720   6.081
14045TIP3   OH242091   6.232   6.026   1.174
14045TIP3    H142092   6.251   6.014   1.267
14045TIP3    H242093   6.286   5.960   1.130
14046TIP3   OH242094   2.473   6.213   5.803
14046TIP3    H142095   2.413   6.241   5.734
14046TIP3    H242096   2.494   6.293   5.851
14047TIP3   OH242097   6.209   6.090   4.321
14047TIP3    H142098   6.218   6.166   4.378
14047TIP3    H242099   6.134   6.042   4.356
14048TIP3   OH242100   5.215   6.711   0.619
14048TIP3    H142101   5.310   6.716   0.630
14048TIP3    H242102   5.190   6.797   0.585
14049TIP3   OH242103   5.710   1.466   3.356
14049TIP3    H142104   5.788   1.476   3.410
14049TIP3    H242105   5.640   1.445   3.418
14050TIP3   OH242106   1.470   3.994   3.619
14050TIP3    H142107   1.478   4.077   3.572
14050TIP3    H242108   1.474   4.019   3.712
14051TIP3   OH242109   6.017   3.480   3.791
14051TIP3    H142110   5.969   3.411   3.744
14051TIP3    H242111   6.033   3.442   3.878
14052TIP3   OH242112   0.291   6.001   4.446
14052TIP3    H142113   0.336   6.015   4.529
14052TIP3    H242114   0.348   5.943   4.397
14053TIP3   OH242115   0.382   7.232   1.163
14053TIP3    H142116   0.415   7.316   1.195
14053TIP3    H242117   0.452   7.199   1.107
14054TIP3   OH242118   6.048   0.002   4.375
14054TIP3    H142119   5.994   0.051   4.313
14054TIP3    H242120   6.112  -0.044   4.321
14055TIP3   OH242121   4.849   3.463   2.186
14055TIP3    H142122   4.926   3.408   2.200
14055TIP3    H242123   4.836   3.462   2.091
14056TIP3   OH242124   2.783   0.556   4.580
14056TIP3    H142125   2.877   0.541   4.590
14056TIP3    H242126   2.744   0.510   4.654
14057TIP3   OH242127   6.279   4.760   3.230
14057TIP3    H142128   6.315   4.698   3.294
14057TIP3    H242129   6.356   4.797   3.187
14058TIP3   OH242130   4.691   5.676   4.631
14058TIP3    H142131   4.596   5.662   4.624
14058TIP3    H242132   4.726   5.637   4.551
14059TIP3   OH242133   2.190   5.776   5.580
14059TIP3    H142134   2.261   5.720   5.549
14059TIP3    H242135   2.168   5.830   5.504
14060TIP3   OH242136   6.177   2.427   5.187
14060TIP3    H142137   6.167   2.449   5.279
14060TIP3    H242138   6.269   2.447   5.168
14061TIP3   OH242139   2.760   3.633   5.289
14061TIP3    H142140   2.730   3.719   5.319
14061TIP3    H242141   2.833   3.652   5.230
14062TIP3   OH242142   7.649   4.350   3.485
14062TIP3    H142143   7.591   4.359   3.409
14062TIP3    H242144   7.639   4.259   3.513
14063TIP3   OH242145   0.215   4.897   1.951
14063TIP3    H142146   0.291   4.866   2.001
14063TIP3    H242147   0.184   4.820   1.904
14064TIP3   OH242148   7.695   2.596   0.450
14064TIP3    H142149   7.741   2.680   0.456
14064TIP3    H242150   7.650   2.600   0.366
14065TIP3   OH242151   1.330   6.113   0.939
14065TIP3    H142152   1.243   6.147   0.916
14065TIP3    H242153   1.381   6.192   0.961
14066TIP3   OH242154   6.592   5.992   6.051
14066TIP3    H142155   6.624   5.904   6.031
14066TIP3    H242156   6.588   5.994   6.147
14067TIP3   OH242157   6.639   1.176   1.581
14067TIP3    H142158   6.701   1.139   1.518
14067TIP3    H242159   6.553   1.147   1.550
14068TIP3   OH242160   0.153   3.942   0.467
14068TIP3    H142161   0.087   3.913   0.530
14068TIP3    H242162   0.131   3.896   0.386
14069TIP3   OH242163   2.822   4.056   2.856
14069TIP3    H142164   2.877   4.038   2.932
14069TIP3    H242165   2.810   3.971   2.814
14070TIP3   OH242166   1.818   1.011   3.228
14070TIP3    H142167   1.889   0.948   3.217
14070TIP3    H242168   1.771   0.982   3.306
14071TIP3   OH242169   3.963   5.350   4.068
14071TIP3    H142170   3.968   5.406   4.145
14071TIP3    H242171   3.875   5.362   4.034
14072TIP3   OH242172   4.532   7.674   5.985
14072TIP3    H142173   4.544   7.688   5.891
14072TIP3    H242174   4.439   7.652   5.995
14073TIP3   OH242175   1.283   2.213   1.368
14073TIP3    H142176   1.266   2.168   1.451
14073TIP3    H242177   1.266   2.148   1.301
14074TIP3   OH242178   6.605   5.490   5.023
14074TIP3    H142179   6.572   5.565   5.073
14074TIP3    H242180   6.526   5.439   5.003
14075TIP3   OH242181   0.287   0.681   1.748
14075TIP3    H142182   0.377   0.655   1.769
14075TIP3    H242183   0.246   0.697   1.834
14076TIP3   OH242184   2.902   7.185   4.185
14076TIP3    H142185   2.982   7.144   4.152
14076TIP3    H242186   2.928   7.230   4.265
14077TIP3   OH242187   4.479   7.059   0.286
14077TIP3    H142188   4.545   6.991   0.285
14077TIP3    H242189   4.480   7.093   0.376
14078TIP3   OH242190   5.161   1.814   4.413
14078TIP3    H142191   5.199   1.898   4.385
14078TIP3    H242192   5.123   1.777   4.334
14079TIP3   OH242193   4.388   2.538   2.057
14079TIP3    H142194   4.351   2.549   2.145
14079TIP3    H242195   4.473   2.582   2.062
14080TIP3   OH242196   7.729   2.374   2.793
14080TIP3    H142197   7.699   2.284   2.783
14080TIP3    H242198   7.755   2.401   2.705
14081TIP3   OH242199   4.438   1.278   6.153
14081TIP3    H142200   4.517   1.303   6.201
14081TIP3    H242201   4.399   1.208   6.205
14082TIP3   OH242202   8.005   2.797   1.475
14082TIP3    H142203   8.099   2.809   1.464
14082TIP3    H242204   7.992   2.802   1.570
14083TIP3   OH242205   3.265   6.735   2.999
14083TIP3    H142206   3.323   6.802   3.035
14083TIP3    H242207   3.211   6.708   3.073
14084TIP3   OH242208   5.296   1.458   5.787
14084TIP3    H142209   5.333   1.435   5.701
14084TIP3    H242210   5.205   1.430   5.782
14085TIP3   OH242211   3.220   5.972   3.770
14085TIP3    H142212   3.143   6.025   3.789
14085TIP3    H242213   3.228   5.913   3.845
14086TIP3   OH242214   4.101   0.254   0.071
14086TIP3    H142215   4.085   0.271   0.164
14086TIP3    H242216   4.029   0.197   0.044
14087TIP3   OH242217   0.729   1.966   4.531
14087TIP3    H142218   0.805   1.956   4.588
14087TIP3    H242219   0.720   1.882   4.487
14088TIP3   OH242220   4.958   1.613   5.989
14088TIP3    H142221   5.025   1.654   5.934
14088TIP3    H242222   4.875   1.641   5.949
14089TIP3   OH242223   7.303   0.854   5.833
14089TIP3    H142224   7.359   0.925   5.802
14089TIP3    H242225   7.338   0.832   5.920
14090TIP3   OH242226   5.322   7.099   0.905
14090TIP3    H142227   5.413   7.097   0.933
14090TIP3    H242228   5.286   7.178   0.946
14091TIP3   OH242229   3.751   3.760   6.216
14091TIP3    H142230   3.747   3.667   6.193
14091TIP3    H242231   3.677   3.799   6.170
14092TIP3   OH242232   2.334   4.652   2.068
14092TIP3    H142233   2.313   4.564   2.038
14092TIP3    H242234   2.358   4.642   2.160
14093TIP3   OH242235   6.591   1.947   1.273
14093TIP3    H142236   6.649   2.012   1.313
14093TIP3    H242237   6.599   1.963   1.178
14094TIP3   OH242238   5.837   0.073   0.663
14094TIP3    H142239   5.863   0.099   0.575
14094TIP3    H242240   5.852  -0.022   0.665
14095TIP3   OH242241   1.460   0.913   2.124
14095TIP3    H142242   1.427   0.825   2.102
14095TIP3    H242243   1.536   0.925   2.067
14096TIP3   OH242244   6.202   5.608   4.328
14096TIP3    H142245   6.280   5.648   4.290
14096TIP3    H242246   6.132   5.628   4.266
14097TIP3   OH242247   7.200   3.321   5.093
14097TIP3    H142248   7.269   3.256   5.107
14097TIP3    H242249   7.203   3.377   5.170
14098TIP3   OH242250   1.608   6.951   2.608
14098TIP3    H142251   1.620   6.884   2.540
14098TIP3    H242252   1.687   7.004   2.604
14099TIP3   OH242253   4.686   3.676   2.145
14099TIP3    H142254   4.722   3.593   2.175
14099TIP3    H242255   4.695   3.735   2.220
14100TIP3   OH242256   0.799   4.155   4.421
14100TIP3    H142257   0.825   4.199   4.502
14100TIP3    H242258   0.705   4.140   4.431
14101TIP3   OH242259   0.228   6.320   2.810
14101TIP3    H142260   0.271   6.287   2.731
14101TIP3    H242261   0.248   6.413   2.812
14102TIP3   OH242262   4.323   5.470   1.682
14102TIP3    H142263   4.384   5.544   1.685
14102TIP3    H242264   4.366   5.406   1.625
14103TIP3   OH242265   1.785   5.129   5.457
14103TIP3    H142266   1.741   5.052   5.421
14103TIP3    H242267   1.763   5.128   5.550
14104TIP3   OH242268   4.692   4.174   3.408
14104TIP3    H142269   4.749   4.186   3.484
14104TIP3    H242270   4.726   4.235   3.342
14105TIP3   OH242271   4.424   0.146   0.585
14105TIP3    H142272   4.516   0.163   0.605
14105TIP3    H242273   4.426   0.070   0.526
14106TIP3   OH242274   3.997   1.925   2.333
14106TIP3    H142275   3.926   1.879   2.377
14106TIP3    H242276   3.996   1.890   2.244
14107TIP3   OH242277   5.679   7.368   3.847
14107TIP3    H142278   5.771   7.394   3.855
14107TIP3    H242279   5.638   7.441   3.800
14108TIP3   OH242280   7.116   5.669   4.638
14108TIP3    H142281   7.033   5.665   4.591
14108TIP3    H242282   7.116   5.591   4.693
14109TIP3   OH242283   4.568   0.763   2.864
14109TIP3    H142284   4.520   0.702   2.808
14109TIP3    H242285   4.603   0.708   2.934
14110TIP3   OH242286   7.967   6.320   0.151
14110TIP3    H142287   7.927   6.297   0.235
14110TIP3    H242288   8.050   6.362   0.175
14111TIP3   OH242289   4.255   0.041   3.296
14111TIP3    H142290   4.195   0.006   3.362
14111TIP3    H242291   4.333   0.067   3.344
14112TIP3   OH242292   3.186   6.421   1.209
14112TIP3    H142293   3.231   6.498   1.246
14112TIP3    H242294   3.099   6.453   1.187
14113TIP3   OH242295   7.320   1.997   4.900
14113TIP3    H142296   7.325   2.047   4.818
14113TIP3    H242297   7.301   1.907   4.872
14114TIP3   OH242298   4.101   7.605   1.425
14114TIP3    H142299   4.070   7.514   1.432
14114TIP3    H242300   4.068   7.635   1.340
14115TIP3   OH242301   4.205   4.297   1.479
14115TIP3    H142302   4.265   4.238   1.525
14115TIP3    H242303   4.120   4.282   1.519
14116TIP3   OH242304   2.592   3.334   6.263
14116TIP3    H142305   2.651   3.337   6.338
14116TIP3    H242306   2.637   3.384   6.194
14117TIP3   OH242307   2.520   0.445   0.387
14117TIP3    H142308   2.611   0.460   0.361
14117TIP3    H242309   2.524   0.368   0.444
14118TIP3   OH242310   7.714   2.708   3.155
14118TIP3    H142311   7.785   2.747   3.207
14118TIP3    H242312   7.759   2.660   3.086
14119TIP3   OH242313   5.454   1.005   6.182
14119TIP3    H142314   5.533   0.979   6.134
14119TIP3    H242315   5.418   1.078   6.132
14120TIP3   OH242316   7.809   3.948   2.630
14120TIP3    H142317   7.877   3.995   2.678
14120TIP3    H242318   7.795   3.868   2.681
14121TIP3   OH242319   1.949   6.562   1.025
14121TIP3    H142320   1.956   6.619   1.101
14121TIP3    H242321   2.031   6.574   0.977
14122TIP3   OH242322   0.023   3.100   4.160
14122TIP3    H142323  -0.017   3.032   4.214
14122TIP3    H242324   0.063   3.160   4.222
14123TIP3   OH242325   7.943   1.631   5.279
14123TIP3    H142326   8.021   1.621   5.333
14123TIP3    H242327   7.893   1.551   5.294
14124TIP3   OH242328   8.004   2.634   4.371
14124TIP3    H142329   7.915   2.605   4.352
14124TIP3    H242330   7.994   2.725   4.399
14125TIP3   OH242331   2.097   4.906   3.424
14125TIP3    H142332   2.183   4.919   3.464
14125TIP3    H242333   2.050   4.988   3.442
14126TIP3   OH242334   3.881   1.539   0.395
14126TIP3    H142335   3.787   1.556   0.388
14126TIP3    H242336   3.916   1.614   0.444
14127TIP3   OH242337   6.782   1.819   3.752
14127TIP3    H142338   6.731   1.769   3.815
14127TIP3    H242339   6.864   1.771   3.743
14128TIP3   OH242340   0.285   2.043   5.599
14128TIP3    H142341   0.215   1.978   5.608
14128TIP3    H242342   0.285   2.090   5.683
14129TIP3   OH242343   4.246   5.674   5.849
14129TIP3    H142344   4.307   5.608   5.816
14129TIP3    H242345   4.262   5.751   5.795
14130TIP3   OH242346   7.500   1.333   6.183
14130TIP3    H142347   7.435   1.402   6.190
14130TIP3    H242348   7.576   1.366   6.232
14131TIP3   OH242349   1.499   0.485   1.173
14131TIP3    H142350   1.528   0.532   1.251
14131TIP3    H242351   1.575   0.484   1.115
14132TIP3   OH242352   1.449   0.304   5.224
14132TIP3    H142353   1.381   0.307   5.291
14132TIP3    H242354   1.454   0.394   5.191
14133TIP3   OH242355   3.656   5.354   3.412
14133TIP3    H142356   3.597   5.290   3.373
14133TIP3    H242357   3.642   5.434   3.361
14134TIP3   OH242358   4.701   7.409   2.445
14134TIP3    H142359   4.774   7.419   2.384
14134TIP3    H242360   4.656   7.330   2.415
14135TIP3   OH242361   5.456   0.867   1.050
14135TIP3    H142362   5.387   0.822   1.002
14135TIP3    H242363   5.530   0.807   1.047
14136TIP3   OH242364   0.883   3.594   0.772
14136TIP3    H142365   0.942   3.586   0.848
14136TIP3    H242366   0.932   3.555   0.700
14137TIP3   OH242367   1.867   5.093   3.252
14137TIP3    H142368   1.943   5.151   3.258
14137TIP3    H242369   1.891   5.029   3.185
14138TIP3   OH242370   1.862   5.477   3.480
14138TIP3    H142371   1.844   5.443   3.392
14138TIP3    H242372   1.778   5.477   3.524
14139TIP3   OH242373   2.389   0.203   1.225
14139TIP3    H142374   2.454   0.182   1.292
14139TIP3    H242375   2.305   0.201   1.271
14140TIP3   OH242376   5.586   5.836   6.067
14140TIP3    H142377   5.670   5.789   6.066
14140TIP3    H242378   5.524   5.774   6.028
14141TIP3   OH242379   1.617   4.576   2.019
14141TIP3    H142380   1.675   4.647   2.045
14141TIP3    H242381   1.572   4.550   2.100
14142TIP3   OH242382   3.417   5.321   1.303
14142TIP3    H142383   3.357   5.307   1.377
14142TIP3    H242384   3.367   5.295   1.226
14143TIP3   OH242385   6.373   3.569   3.409
14143TIP3    H142386   6.303   3.570   3.474
14143TIP3    H242387   6.402   3.478   3.407
14144TIP3   OH242388   7.473   7.704   0.262
14144TIP3    H142389   7.391   7.662   0.236
14144TIP3    H242390   7.540   7.660   0.210
14145TIP3   OH242391   8.037   0.200   0.358
14145TIP3    H142392   8.107   0.212   0.294
14145TIP3    H242393   7.987   0.126   0.325
14146TIP3   OH242394   6.583   6.149   1.740
14146TIP3    H142395   6.577   6.132   1.834
14146TIP3    H242396   6.493   6.140   1.708
14147TIP3   OH242397   4.136   3.781   2.238
14147TIP3    H142398   4.111   3.862   2.283
14147TIP3    H242399   4.228   3.768   2.262
14148TIP3   OH242400   6.731   2.246   1.954
14148TIP3    H142401   6.785   2.302   1.899
14148TIP3    H242402   6.747   2.158   1.922
14149TIP3   OH242403   0.388   2.147   0.821
14149TIP3    H142404   0.315   2.202   0.849
14149TIP3    H242405   0.348   2.063   0.799
14150TIP3   OH242406   0.485   6.631   6.489
14150TIP3    H142407   0.426   6.694   6.449
14150TIP3    H242408   0.561   6.629   6.430
14151TIP3   OH242409   0.976   4.212   1.957
14151TIP3    H142410   1.033   4.143   1.990
14151TIP3    H242411   1.027   4.292   1.968
14152TIP3   OH242412   3.561   7.784   6.276
14152TIP3    H142413   3.584   7.767   6.185
14152TIP3    H242414   3.614   7.722   6.326
14153TIP3   OH242415   4.051   6.260   3.515
14153TIP3    H142416   3.987   6.205   3.559
14153TIP3    H242417   4.078   6.323   3.582
14154TIP3   OH242418   3.301   4.686   0.750
14154TIP3    H142419   3.377   4.635   0.778
14154TIP3    H242420   3.338   4.753   0.692
14155TIP3   OH242421   6.826   4.021   2.367
14155TIP3    H142422   6.749   4.043   2.419
14155TIP3    H242423   6.791   3.998   2.281
14156TIP3   OH242424   6.389   7.065   0.376
14156TIP3    H142425   6.312   7.020   0.411
14156TIP3    H242426   6.377   7.064   0.281
14157TIP3   OH242427   5.797   6.818   1.068
14157TIP3    H142428   5.737   6.774   1.128
14157TIP3    H242429   5.881   6.775   1.082
14158TIP3   OH242430   7.450   2.744   3.197
14158TIP3    H142431   7.412   2.656   3.187
14158TIP3    H242432   7.541   2.734   3.168
14159TIP3   OH242433   0.049   2.111   0.149
14159TIP3    H142434  -0.022   2.170   0.172
14159TIP3    H242435   0.129   2.160   0.169
14160TIP3   OH242436   6.207   0.698   0.077
14160TIP3    H142437   6.215   0.613   0.119
14160TIP3    H242438   6.296   0.721   0.052
14161TIP3   OH242439   4.493   6.623   6.609
14161TIP3    H142440   4.481   6.596   6.518
14161TIP3    H242441   4.502   6.542   6.658
14162TIP3   OH242442   4.125   6.759   3.775
14162TIP3    H142443   4.169   6.674   3.776
14162TIP3    H242444   4.107   6.778   3.867
14163TIP3   OH242445   0.074   4.016   5.009
14163TIP3    H142446   0.035   4.067   5.081
14163TIP3    H242447   0.048   4.063   4.930
14164TIP3   OH242448   6.464   2.827   3.342
14164TIP3    H142449   6.514   2.757   3.299
14164TIP3    H242450   6.521   2.858   3.412
14165TIP3   OH242451   1.889   6.872   4.289
14165TIP3    H142452   1.946   6.806   4.251
14165TIP3    H242453   1.949   6.941   4.319
14166TIP3   OH242454   1.138   2.247   1.798
14166TIP3    H142455   1.088   2.193   1.736
14166TIP3    H242456   1.165   2.323   1.746
14167TIP3   OH242457   6.953   2.337   6.239
14167TIP3    H142458   7.046   2.320   6.260
14167TIP3    H242459   6.931   2.413   6.293
14168TIP3   OH242460   3.533   3.251   5.061
14168TIP3    H142461   3.474   3.186   5.099
14168TIP3    H242462   3.564   3.302   5.137
14169TIP3   OH242463   8.023   6.554   1.883
14169TIP3    H142464   7.984   6.478   1.927
14169TIP3    H242465   7.992   6.548   1.793
14170TIP3   OH242466   5.422   0.302   2.077
14170TIP3    H142467   5.473   0.381   2.096
14170TIP3    H242468   5.336   0.335   2.052
14171TIP3   OH242469   8.211   1.584   1.876
14171TIP3    H142470   8.156   1.509   1.902
14171TIP3    H242471   8.151   1.658   1.875
14172TIP3   OH242472   2.578   2.016   3.390
14172TIP3    H142473   2.603   2.108   3.385
14172TIP3    H242474   2.646   1.969   3.341
14173TIP3   OH242475   0.294   1.813   3.201
14173TIP3    H142476   0.232   1.808   3.274
14173TIP3    H242477   0.333   1.899   3.208
14174TIP3   OH242478   2.090   5.662   6.044
14174TIP3    H142479   1.999   5.631   6.053
14174TIP3    H242480   2.123   5.664   6.133
14175TIP3   OH242481   5.654   0.777   1.616
14175TIP3    H142482   5.718   0.712   1.588
14175TIP3    H242483   5.630   0.823   1.536
14176TIP3   OH242484   6.012   3.161   3.626
14176TIP3    H142485   5.919   3.173   3.642
14176TIP3    H242486   6.023   3.174   3.532
14177TIP3   OH242487   8.262   6.372   2.836
14177TIP3    H142488   8.355   6.351   2.828
14177TIP3    H242489   8.228   6.364   2.747
14178TIP3   OH242490   3.714   1.851   0.023
14178TIP3    H142491   3.806   1.826   0.017
14178TIP3    H242492   3.715   1.935   0.069
14179TIP3   OH242493   3.483   0.077   1.484
14179TIP3    H142494   3.405   0.076   1.428
14179TIP3    H242495   3.557   0.069   1.423
14180TIP3   OH242496   3.825   2.914   3.104
14180TIP3    H142497   3.758   2.944   3.043
14180TIP3    H242498   3.886   2.988   3.111
14181TIP3   OH242499   4.041   6.092   3.089
14181TIP3    H142500   4.025   6.180   3.055
14181TIP3    H242501   3.959   6.045   3.073
14182TIP3   OH242502   0.183   2.084   5.313
14182TIP3    H142503   0.174   1.993   5.284
14182TIP3    H242504   0.218   2.076   5.402
14183TIP3   OH242505   1.898   7.853   2.639
14183TIP3    H142506   1.893   7.798   2.561
14183TIP3    H242507   1.902   7.792   2.712
14184TIP3   OH242508   4.741   3.373   6.204
14184TIP3    H142509   4.796   3.431   6.151
14184TIP3    H242510   4.692   3.321   6.141
14185TIP3   OH242511   8.014   2.030   1.395
14185TIP3    H142512   7.968   2.028   1.479
14185TIP3    H242513   8.101   2.064   1.416
14186TIP3   OH242514   5.893   0.849   6.041
14186TIP3    H142515   5.977   0.894   6.033
14186TIP3    H242516   5.869   0.859   6.133
14187TIP3   OH242517   8.200   6.339   2.084
14187TIP3    H142518   8.265   6.341   2.014
14187TIP3    H242519   8.145   6.262   2.064
14188TIP3   OH242520   4.316   4.532   1.373
14188TIP3    H142521   4.292   4.458   1.430
14188TIP3    H242522   4.267   4.606   1.409
14189TIP3   OH242523   2.948   1.169   3.232
14189TIP3    H142524   2.922   1.104   3.167
14189TIP3    H242525   2.874   1.229   3.238
14190TIP3   OH242526   1.611   0.091   5.830
14190TIP3    H142527   1.660   0.164   5.868
14190TIP3    H242528   1.595   0.118   5.739
14191TIP3   OH242529   3.240   0.336   1.363
14191TIP3    H142530   3.236   0.293   1.449
14191TIP3    H242531   3.329   0.370   1.358
14192TIP3   OH242532   4.966   5.932   1.590
14192TIP3    H142533   5.035   5.996   1.608
14192TIP3    H242534   4.987   5.898   1.502
14193TIP3   OH242535   4.348   4.183   5.687
14193TIP3    H142536   4.398   4.146   5.760
14193TIP3    H242537   4.411   4.235   5.638
14194TIP3   OH242538   1.382   1.317   2.210
14194TIP3    H142539   1.313   1.263   2.171
14194TIP3    H242540   1.458   1.259   2.214
14195TIP3   OH242541   3.352   7.010   5.255
14195TIP3    H142542   3.278   7.040   5.202
14195TIP3    H242543   3.420   7.076   5.241
14196TIP3   OH242544   0.208   2.066   2.307
14196TIP3    H142545   0.285   2.035   2.354
14196TIP3    H242546   0.156   2.112   2.374
14197TIP3   OH242547   1.726   1.092   1.418
14197TIP3    H142548   1.720   1.155   1.346
14197TIP3    H242549   1.643   1.045   1.416
14198TIP3   OH242550   7.590   7.183   3.386
14198TIP3    H142551   7.513   7.128   3.372
14198TIP3    H242552   7.661   7.121   3.401
14199TIP3   OH242553   4.693   0.725   3.131
14199TIP3    H142554   4.738   0.646   3.100
14199TIP3    H242555   4.762   0.779   3.168
14200TIP3   OH242556   0.576   3.449   6.642
14200TIP3    H142557   0.581   3.487   6.554
14200TIP3    H242558   0.556   3.356   6.626
14201TIP3   OH242559   5.249   4.946   0.589
14201TIP3    H142560   5.216   5.001   0.518
14201TIP3    H242561   5.289   4.871   0.545
14202TIP3   OH242562   1.906   3.218   1.588
14202TIP3    H142563   1.918   3.139   1.534
14202TIP3    H242564   1.815   3.212   1.618
14203TIP3   OH242565   6.262   4.431   2.463
14203TIP3    H142566   6.173   4.398   2.451
14203TIP3    H242567   6.301   4.371   2.527
14204TIP3   OH242568   0.908   3.111   2.004
14204TIP3    H142569   0.974   3.078   1.942
14204TIP3    H242570   0.955   3.119   2.086
14205TIP3   OH242571   5.519   1.676   5.510
14205TIP3    H142572   5.488   1.752   5.561
14205TIP3    H242573   5.530   1.710   5.422
14206TIP3   OH242574   4.281   7.096   5.218
14206TIP3    H142575   4.321   7.010   5.226
14206TIP3    H242576   4.324   7.149   5.285
14207TIP3   OH242577   0.992   4.567   5.022
14207TIP3    H142578   1.004   4.662   5.030
14207TIP3    H242579   1.012   4.548   4.930
14208TIP3   OH242580   6.997   4.931   3.420
14208TIP3    H142581   6.992   4.927   3.324
14208TIP3    H242582   7.090   4.929   3.440
14209TIP3   OH242583   7.854   5.897   5.638
14209TIP3    H142584   7.768   5.906   5.598
14209TIP3    H242585   7.857   5.965   5.705
14210TIP3   OH242586   6.855   1.247   3.742
14210TIP3    H142587   6.934   1.207   3.706
14210TIP3    H242588   6.883   1.336   3.767
14211TIP3   OH242589   1.817   2.713   3.842
14211TIP3    H142590   1.753   2.720   3.913
14211TIP3    H242591   1.821   2.619   3.824
14212TIP3   OH242592   8.230   6.825   5.189
14212TIP3    H142593   8.278   6.908   5.180
14212TIP3    H242594   8.144   6.843   5.149
14213TIP3   OH242595   0.950   1.165   4.298
14213TIP3    H142596   0.880   1.214   4.256
14213TIP3    H242597   0.951   1.081   4.252
14214TIP3   OH242598   4.600   6.922   1.329
14214TIP3    H142599   4.646   6.838   1.319
14214TIP3    H242600   4.652   6.984   1.278
14215TIP3   OH242601   7.674   4.269   2.771
14215TIP3    H142602   7.746   4.263   2.708
14215TIP3    H242603   7.702   4.214   2.844
14216TIP3   OH242604   2.846   4.306   6.285
14216TIP3    H142605   2.781   4.372   6.310
14216TIP3    H242606   2.866   4.326   6.193
14217TIP3   OH242607   5.842   5.611   6.599
14217TIP3    H142608   5.879   5.527   6.626
14217TIP3    H242609   5.772   5.627   6.663
14218TIP3   OH242610   5.973   1.354   1.192
14218TIP3    H142611   5.908   1.343   1.262
14218TIP3    H242612   6.052   1.313   1.227
14219TIP3   OH242613   5.271   4.559   1.383
14219TIP3    H142614   5.350   4.556   1.329
14219TIP3    H242615   5.201   4.583   1.323
14220TIP3   OH242616   4.125   5.342   0.441
14220TIP3    H142617   4.115   5.403   0.368
14220TIP3    H242618   4.165   5.264   0.402
14221TIP3   OH242619   0.840   3.158   6.067
14221TIP3    H142620   0.873   3.143   5.979
14221TIP3    H242621   0.785   3.082   6.085
14222TIP3   OH242622   5.833   5.953   1.863
14222TIP3    H142623   5.865   6.042   1.852
14222TIP3    H242624   5.739   5.958   1.844
14223TIP3   OH242625   7.406   5.726   5.991
14223TIP3    H142626   7.392   5.647   6.044
14223TIP3    H242627   7.494   5.717   5.956
14224TIP3   OH242628   0.594   2.163   6.234
14224TIP3    H142629   0.606   2.213   6.315
14224TIP3    H242630   0.676   2.116   6.222
14225TIP3   OH242631   7.728   1.765   1.376
14225TIP3    H142632   7.819   1.746   1.354
14225TIP3    H242633   7.728   1.779   1.471
14226TIP3   OH242634   6.572   5.156   1.417
14226TIP3    H142635   6.508   5.087   1.402
14226TIP3    H242636   6.528   5.218   1.474
14227TIP3   OH242637   5.317   2.563   0.612
14227TIP3    H142638   5.225   2.543   0.624
14227TIP3    H242639   5.356   2.549   0.699
14228TIP3   OH242640   0.139   4.794   4.273
14228TIP3    H142641   0.184   4.877   4.257
14228TIP3    H242642   0.063   4.817   4.326
14229TIP3   OH242643   0.240   5.042   0.353
14229TIP3    H142644   0.254   4.981   0.281
14229TIP3    H242645   0.148   5.067   0.347
14230TIP3   OH242646   2.142   0.865   4.711
14230TIP3    H142647   2.210   0.892   4.649
14230TIP3    H242648   2.109   0.947   4.747
14231TIP3   OH242649   3.399   7.550   6.242
14231TIP3    H142650   3.408   7.644   6.262
14231TIP3    H242651   3.488   7.517   6.242
14232TIP3   OH242652   2.439   3.465   0.414
14232TIP3    H142653   2.373   3.518   0.458
14232TIP3    H242654   2.432   3.379   0.456
14233TIP3   OH242655   3.150   4.740   4.790
14233TIP3    H142656   3.172   4.809   4.854
14233TIP3    H242657   3.216   4.750   4.722
14234TIP3   OH242658   3.207   3.623   2.794
14234TIP3    H142659   3.170   3.648   2.878
14234TIP3    H242660   3.261   3.697   2.768
14235TIP3   OH242661   0.124   1.777   2.318
14235TIP3    H142662   0.086   1.846   2.265
14235TIP3    H242663   0.113   1.698   2.265
14236TIP3   OH242664   0.586   3.421   3.425
14236TIP3    H142665   0.591   3.351   3.491
14236TIP3    H242666   0.628   3.496   3.467
14237TIP3   OH242667   5.388   5.309   0.894
14237TIP3    H142668   5.370   5.224   0.853
14237TIP3    H242669   5.465   5.342   0.848
14238TIP3   OH242670   6.314   5.510   6.422
14238TIP3    H142671   6.232   5.492   6.377
14238TIP3    H242672   6.313   5.451   6.498
14239TIP3   OH242673   5.011   5.706   1.714
14239TIP3    H142674   4.921   5.678   1.732
14239TIP3    H242675   5.003   5.800   1.695
14240TIP3   OH242676   7.952   1.344   3.910
14240TIP3    H142677   7.925   1.299   3.990
14240TIP3    H242678   7.969   1.274   3.848
14241TIP3   OH242679   1.139   5.486   0.159
14241TIP3    H142680   1.210   5.428   0.129
14241TIP3    H242681   1.095   5.513   0.079
14242TIP3   OH242682   7.496   2.872   0.934
14242TIP3    H142683   7.426   2.830   0.884
14242TIP3    H242684   7.566   2.884   0.870
14243TIP3   OH242685   0.419   6.023   4.855
14243TIP3    H142686   0.433   5.957   4.786
14243TIP3    H242687   0.444   5.978   4.936
14244TIP3   OH242688   3.815   7.035   3.576
14244TIP3    H142689   3.794   7.045   3.669
14244TIP3    H242690   3.887   7.096   3.561
14245TIP3   OH242691   4.481   4.013   3.358
14245TIP3    H142692   4.461   3.964   3.438
14245TIP3    H242693   4.558   4.065   3.381
14246TIP3   OH242694   6.585   7.534   6.265
14246TIP3    H142695   6.536   7.597   6.212
14246TIP3    H242696   6.670   7.526   6.221
14247TIP3   OH242697   3.606   6.300   0.456
14247TIP3    H142698   3.637   6.255   0.377
14247TIP3    H242699   3.686   6.332   0.498
14248TIP3   OH242700   6.313   4.513   3.421
14248TIP3    H142701   6.332   4.419   3.416
14248TIP3    H242702   6.338   4.538   3.510
14249TIP3   OH242703   6.379   3.756   3.711
14249TIP3    H142704   6.337   3.842   3.706
14249TIP3    H242705   6.310   3.694   3.687
14250TIP3   OH242706   3.037   5.705   1.878
14250TIP3    H142707   2.968   5.762   1.911
14250TIP3    H242708   3.118   5.744   1.909
14251TIP3   OH242709   7.565   2.141   4.707
14251TIP3    H142710   7.636   2.125   4.646
14251TIP3    H242711   7.579   2.230   4.739
14252TIP3   OH242712   3.506   0.683   3.714
14252TIP3    H142713   3.501   0.759   3.772
14252TIP3    H242714   3.480   0.610   3.770
14253TIP3   OH242715   4.434   5.507   4.591
14253TIP3    H142716   4.476   5.420   4.588
14253TIP3    H242717   4.353   5.493   4.640
14254TIP3   OH242718   0.888   3.510   3.819
14254TIP3    H142719   0.977   3.498   3.787
14254TIP3    H242720   0.898   3.554   3.903
14255TIP3   OH242721   7.537   1.821   6.559
14255TIP3    H142722   7.538   1.894   6.496
14255TIP3    H242723   7.498   1.748   6.510
14256TIP3   OH242724   7.058   0.428   1.721
14256TIP3    H142725   7.110   0.351   1.744
14256TIP3    H242726   6.968   0.397   1.717
14257TIP3   OH242727   5.126   1.285   1.597
14257TIP3    H142728   5.046   1.241   1.569
14257TIP3    H242729   5.158   1.330   1.519
14258TIP3   OH242730   2.685   3.551   0.355
14258TIP3    H142731   2.592   3.530   0.350
14258TIP3    H242732   2.710   3.529   0.445
14259TIP3   OH242733   3.751   3.139   6.169
14259TIP3    H142734   3.838   3.174   6.152
14259TIP3    H242735   3.764   3.045   6.179
14260TIP3   OH242736   3.604   2.359   0.193
14260TIP3    H142737   3.638   2.402   0.271
14260TIP3    H242738   3.510   2.378   0.194
14261TIP3   OH242739   5.218   7.202   5.672
14261TIP3    H142740   5.137   7.253   5.674
14261TIP3    H242741   5.286   7.265   5.695
14262TIP3   OH242742   5.991   3.306   0.678
14262TIP3    H142743   5.979   3.400   0.665
14262TIP3    H242744   6.043   3.278   0.603
14263TIP3   OH242745   2.536   3.102   5.059
14263TIP3    H142746   2.574   3.182   5.096
14263TIP3    H242747   2.588   3.031   5.098
14264TIP3   OH242748   1.361   1.885   5.644
14264TIP3    H142749   1.375   1.941   5.720
14264TIP3    H242750   1.396   1.934   5.571
14265TIP3   OH242751   0.509   5.128   4.270
14265TIP3    H142752   0.425   5.154   4.308
14265TIP3    H242753   0.530   5.198   4.208
14266TIP3   OH242754   5.569   7.037   3.951
14266TIP3    H142755   5.650   6.995   3.979
14266TIP3    H242756   5.588   7.131   3.954
14267TIP3   OH242757   5.478   2.539   0.827
14267TIP3    H142758   5.554   2.486   0.801
14267TIP3    H242759   5.515   2.625   0.847
14268TIP3   OH242760   6.601   7.795   3.776
14268TIP3    H142761   6.643   7.742   3.844
14268TIP3    H242762   6.530   7.740   3.742
14269TIP3   OH242763   0.429   3.583   5.548
14269TIP3    H142764   0.335   3.599   5.556
14269TIP3    H242765   0.471   3.663   5.579
14270TIP3   OH242766   4.128   5.121   4.049
14270TIP3    H142767   4.055   5.086   4.100
14270TIP3    H242768   4.101   5.211   4.029
14271TIP3   OH242769   6.493   2.218   3.737
14271TIP3    H142770   6.471   2.248   3.649
14271TIP3    H242771   6.587   2.203   3.734
14272TIP3   OH242772   0.083   0.222   2.115
14272TIP3    H142773   0.060   0.313   2.133
14272TIP3    H242774   0.178   0.224   2.102
14273TIP3   OH242775   2.548   3.199   3.179
14273TIP3    H142776   2.636   3.161   3.181
14273TIP3    H242777   2.502   3.148   3.112
14274TIP3   OH242778   1.822   2.246   4.544
14274TIP3    H142779   1.852   2.266   4.632
14274TIP3    H242780   1.892   2.194   4.505
14275TIP3   OH242781   4.471   2.983   5.210
14275TIP3    H142782   4.477   3.078   5.208
14275TIP3    H242783   4.386   2.965   5.249
14276TIP3   OH242784   0.429   5.707   2.185
14276TIP3    H142785   0.404   5.669   2.100
14276TIP3    H242786   0.465   5.793   2.163
14277TIP3   OH242787   6.872   0.947   0.290
14277TIP3    H142788   6.873   1.034   0.329
14277TIP3    H242789   6.902   0.888   0.359
14278TIP3   OH242790   6.771   4.746   3.487
14278TIP3    H142791   6.846   4.805   3.487
14278TIP3    H242792   6.777   4.700   3.571
14279TIP3   OH242793   6.340   3.993   5.651
14279TIP3    H142794   6.429   3.963   5.670
14279TIP3    H242795   6.287   3.958   5.722
14280TIP3   OH242796   7.134   5.676   1.847
14280TIP3    H142797   7.166   5.743   1.908
14280TIP3    H242798   7.202   5.672   1.780
14281TIP3   OH242799   4.350   4.845   0.475
14281TIP3    H142800   4.317   4.793   0.403
14281TIP3    H242801   4.441   4.816   0.486
14282TIP3   OH242802   0.132   5.312   0.209
14282TIP3    H142803   0.158   5.268   0.128
14282TIP3    H242804   0.205   5.299   0.269
14283TIP3   OH242805   0.144   4.714   2.216
14283TIP3    H142806   0.143   4.757   2.301
14283TIP3    H242807   0.052   4.698   2.196
14284TIP3   OH242808   6.379   7.617   3.128
14284TIP3    H142809   6.382   7.685   3.195
14284TIP3    H242810   6.432   7.546   3.164
14285TIP3   OH242811   2.906   1.010   0.831
14285TIP3    H142812   2.869   1.095   0.853
14285TIP3    H242813   2.997   1.015   0.863
14286TIP3   OH242814   6.892   4.708   2.479
14286TIP3    H142815   6.875   4.753   2.561
14286TIP3    H242816   6.986   4.693   2.479
14287TIP3   OH242817   6.676   1.494   5.760
14287TIP3    H142818   6.652   1.410   5.798
14287TIP3    H242819   6.771   1.494   5.757
14288TIP3   OH242820   3.675   1.567   5.373
14288TIP3    H142821   3.699   1.559   5.465
14288TIP3    H242822   3.636   1.482   5.351
14289TIP3   OH242823   4.989   3.290   1.072
14289TIP3    H142824   5.042   3.241   1.010
14289TIP3    H242825   4.899   3.279   1.041
14290TIP3   OH242826   1.588   2.654   0.692
14290TIP3    H142827   1.555   2.621   0.775
14290TIP3    H242828   1.533   2.611   0.626
14291TIP3   OH242829   3.376   3.804   2.757
14291TIP3    H142830   3.438   3.758   2.813
14291TIP3    H242831   3.424   3.881   2.726
14292TIP3   OH242832   5.262   0.273   5.098
14292TIP3    H142833   5.237   0.361   5.124
14292TIP3    H242834   5.218   0.216   5.161
14293TIP3   OH242835   7.566   6.397   6.602
14293TIP3    H142836   7.594   6.449   6.527
14293TIP3    H242837   7.471   6.403   6.602
14294TIP3   OH242838   3.125   2.834   4.557
14294TIP3    H142839   3.183   2.832   4.632
14294TIP3    H242840   3.166   2.896   4.496
14295TIP3   OH242841   2.189   2.827   0.867
14295TIP3    H142842   2.121   2.891   0.891
14295TIP3    H242843   2.240   2.872   0.800
14296TIP3   OH242844   0.675   7.826   4.087
14296TIP3    H142845   0.611   7.762   4.120
14296TIP3    H242846   0.736   7.838   4.160
14297TIP3   OH242847   6.571   1.420   4.296
14297TIP3    H142848   6.481   1.410   4.328
14297TIP3    H242849   6.589   1.513   4.306
14298TIP3   OH242850   3.546   7.640   3.288
14298TIP3    H142851   3.502   7.644   3.203
14298TIP3    H242852   3.575   7.730   3.304
14299TIP3   OH242853   7.085   2.668   2.556
14299TIP3    H142854   7.052   2.716   2.631
14299TIP3    H242855   7.126   2.735   2.500
14300TIP3   OH242856   4.774   6.762   4.680
14300TIP3    H142857   4.687   6.803   4.682
14300TIP3    H242858   4.757   6.671   4.657
14301TIP3   OH242859   7.720   1.569   6.066
14301TIP3    H142860   7.786   1.620   6.020
14301TIP3    H242861   7.637   1.614   6.046
14302TIP3   OH242862   2.082   7.126   6.404
14302TIP3    H142863   2.119   7.214   6.407
14302TIP3    H242864   1.997   7.137   6.360
14303TIP3   OH242865   0.531   1.149   1.196
14303TIP3    H142866   0.599   1.123   1.134
14303TIP3    H242867   0.570   1.221   1.246
14304TIP3   OH242868   7.030   7.740   3.094
14304TIP3    H142869   7.015   7.687   3.015
14304TIP3    H242870   7.123   7.760   3.092
14305TIP3   OH242871   7.037   4.598   2.020
14305TIP3    H142872   6.965   4.590   1.958
14305TIP3    H242873   7.057   4.692   2.021
14306TIP3   OH242874   1.820   6.450   6.372
14306TIP3    H142875   1.779   6.448   6.285
14306TIP3    H242876   1.861   6.364   6.380
14307TIP3   OH242877   1.493   0.188   4.259
14307TIP3    H142878   1.540   0.242   4.196
14307TIP3    H242879   1.418   0.241   4.285
14308TIP3   OH242880   3.872   2.816   0.126
14308TIP3    H142881   3.920   2.733   0.121
14308TIP3    H242882   3.780   2.789   0.135
14309TIP3   OH242883   0.039   3.520   1.738
14309TIP3    H142884   0.123   3.564   1.725
14309TIP3    H242885  -0.022   3.567   1.681
14310TIP3   OH242886   3.692   2.253   4.081
14310TIP3    H142887   3.774   2.225   4.120
14310TIP3    H242888   3.711   2.340   4.045
14311TIP3   OH242889   6.665   3.955   4.951
14311TIP3    H142890   6.746   3.936   4.999
14311TIP3    H242891   6.692   4.016   4.883
14312TIP3   OH242892   2.242   0.766   6.352
14312TIP3    H142893   2.192   0.791   6.274
14312TIP3    H242894   2.297   0.843   6.370
14313TIP3   OH242895   1.940   2.644   6.266
14313TIP3    H142896   1.853   2.670   6.237
14313TIP3    H242897   1.964   2.571   6.210
14314TIP3   OH242898   1.410   2.153   5.745
14314TIP3    H142899   1.384   2.156   5.653
14314TIP3    H242900   1.334   2.184   5.793
14315TIP3   OH242901   7.986   6.716   5.703
14315TIP3    H142902   7.947   6.735   5.618
14315TIP3    H242903   8.033   6.796   5.727
14316TIP3   OH242904   3.359   0.319   0.329
14316TIP3    H142905   3.331   0.410   0.338
14316TIP3    H242906   3.303   0.270   0.389
14317TIP3   OH242907   6.251   3.447   6.042
14317TIP3    H142908   6.284   3.364   6.077
14317TIP3    H242909   6.192   3.421   5.971
14318TIP3   OH242910   2.235   6.652   0.066
14318TIP3    H142911   2.180   6.612   0.133
14318TIP3    H242912   2.314   6.680   0.112
14319TIP3   OH242913   0.985   6.730   4.482
14319TIP3    H142914   1.048   6.737   4.411
14319TIP3    H242915   0.919   6.667   4.451
14320TIP3   OH242916   5.182   5.422   5.457
14320TIP3    H142917   5.147   5.463   5.378
14320TIP3    H242918   5.106   5.382   5.499
14321TIP3   OH242919   3.628   5.564   5.780
14321TIP3    H142920   3.675   5.584   5.699
14321TIP3    H242921   3.539   5.595   5.764
14322TIP3   OH242922   0.583   4.502   3.026
14322TIP3    H142923   0.544   4.448   2.957
14322TIP3    H242924   0.661   4.454   3.054
14323TIP3   OH242925   4.424   5.519   5.248
14323TIP3    H142926   4.413   5.545   5.156
14323TIP3    H242927   4.335   5.517   5.283
14324TIP3   OH242928   7.918   4.028   3.375
14324TIP3    H142929   7.931   3.977   3.455
14324TIP3    H242930   7.823   4.028   3.361
14325TIP3   OH242931   0.383   6.922   5.582
14325TIP3    H142932   0.383   6.861   5.508
14325TIP3    H242933   0.465   6.971   5.572
14326TIP3   OH242934   2.900   4.219   1.644
14326TIP3    H142935   2.813   4.245   1.674
14326TIP3    H242936   2.958   4.239   1.718
14327TIP3   OH242937   2.388   6.211   5.321
14327TIP3    H142938   2.391   6.283   5.385
14327TIP3    H242939   2.301   6.219   5.283
14328TIP3   OH242940   0.623   7.059   6.167
14328TIP3    H142941   0.626   7.072   6.262
14328TIP3    H242942   0.563   7.127   6.136
14329TIP3   OH242943   2.584   5.079   6.208
14329TIP3    H142944   2.557   5.004   6.262
14329TIP3    H242945   2.576   5.048   6.118
14330TIP3   OH242946   2.453   5.458   5.172
14330TIP3    H142947   2.506   5.535   5.153
14330TIP3    H242948   2.409   5.439   5.089
14331TIP3   OH242949   2.416   1.709   2.513
14331TIP3    H142950   2.492   1.752   2.476
14331TIP3    H242951   2.421   1.728   2.607
14332TIP3   OH242952   6.499   7.797   2.238
14332TIP3    H142953   6.539   7.767   2.319
14332TIP3    H242954   6.439   7.727   2.213
14333TIP3   OH242955   2.472   7.334   2.753
14333TIP3    H142956   2.537   7.373   2.812
14333TIP3    H242957   2.518   7.324   2.670
14334TIP3   OH242958   5.547   0.736   5.949
14334TIP3    H142959   5.545   0.750   5.855
14334TIP3    H242960   5.613   0.798   5.982
14335TIP3   OH242961   1.926   1.248   1.561
14335TIP3    H142962   1.926   1.225   1.654
14335TIP3    H242963   1.897   1.169   1.517
14336TIP3   OH242964   0.041   4.391   5.310
14336TIP3    H142965   0.013   4.482   5.322
14336TIP3    H242966   0.135   4.393   5.326
14337TIP3   OH242967   6.328   0.407   4.442
14337TIP3    H142968   6.331   0.490   4.393
14337TIP3    H242969   6.241   0.406   4.482
14338TIP3   OH242970   3.347   4.801   0.330
14338TIP3    H142971   3.265   4.815   0.283
14338TIP3    H242972   3.354   4.706   0.339
14339TIP3   OH242973   6.679   7.735   1.159
14339TIP3    H142974   6.628   7.677   1.103
14339TIP3    H242975   6.745   7.773   1.101
14340TIP3   OH242976   4.329   1.357   0.392
14340TIP3    H142977   4.403   1.414   0.373
14340TIP3    H242978   4.345   1.326   0.481
14341TIP3   OH242979   7.057   6.259   3.579
14341TIP3    H142980   7.027   6.332   3.633
14341TIP3    H242981   7.000   6.259   3.503
14342TIP3   OH242982   2.577   5.110   3.177
14342TIP3    H142983   2.641   5.182   3.177
14342TIP3    H242984   2.554   5.099   3.269
14343TIP3   OH242985   2.435   3.956   0.832
14343TIP3    H142986   2.382   3.985   0.907
14343TIP3    H242987   2.512   3.916   0.871
14344TIP3   OH242988   5.160   5.375   1.871
14344TIP3    H142989   5.100   5.379   1.946
14344TIP3    H242990   5.103   5.354   1.797
14345TIP3   OH242991   0.473   1.835   2.192
14345TIP3    H142992   0.454   1.803   2.280
14345TIP3    H242993   0.467   1.931   2.200
14346TIP3   OH242994   4.364   6.745   0.559
14346TIP3    H142995   4.390   6.735   0.651
14346TIP3    H242996   4.446   6.767   0.513
14347TIP3   OH242997   6.719   5.837   3.147
14347TIP3    H142998   6.780   5.911   3.137
14347TIP3    H242999   6.635   5.871   3.114
14348TIP3   OH243000   6.235   3.036   0.232
14348TIP3    H143001   6.307   2.997   0.281
14348TIP3    H243002   6.275   3.062   0.148
14349TIP3   OH243003   6.358   3.008   5.396
14349TIP3    H143004   6.359   3.017   5.301
14349TIP3    H243005   6.373   2.915   5.412
14350TIP3   OH243006   1.368   6.456   5.821
14350TIP3    H143007   1.447   6.457   5.766
14350TIP3    H243008   1.381   6.530   5.881
14351TIP3   OH243009   0.182   2.141   4.036
14351TIP3    H143010   0.093   2.105   4.028
14351TIP3    H243011   0.217   2.138   3.947
14352TIP3   OH243012   2.675   5.448   0.693
14352TIP3    H143013   2.759   5.485   0.664
14352TIP3    H243014   2.673   5.361   0.654
14353TIP3   OH243015   1.224   7.492   6.685
14353TIP3    H143016   1.311   7.455   6.674
14353TIP3    H243017   1.227   7.538   6.769
14354TIP3   OH243018   7.984   5.214   3.504
14354TIP3    H143019   8.061   5.180   3.460
14354TIP3    H243020   7.911   5.188   3.448
14355TIP3   OH243021   4.537   4.944   5.590
14355TIP3    H143022   4.452   4.938   5.546
14355TIP3    H243023   4.561   5.036   5.584
14356TIP3   OH243024   5.745   6.044   5.545
14356TIP3    H143025   5.711   6.011   5.462
14356TIP3    H243026   5.720   6.136   5.546
14357TIP3   OH243027   6.483   5.972   0.789
14357TIP3    H143028   6.498   5.900   0.850
14357TIP3    H243029   6.411   6.022   0.826
14358TIP3   OH243030   4.300   1.133   3.814
14358TIP3    H143031   4.312   1.123   3.908
14358TIP3    H243032   4.246   1.058   3.788
14359TIP3   OH243033   6.076   7.634   0.889
14359TIP3    H143034   6.063   7.704   0.954
14359TIP3    H243035   6.022   7.661   0.815
14360TIP3   OH243036   4.525   2.640   5.847
14360TIP3    H143037   4.534   2.668   5.939
14360TIP3    H243038   4.482   2.555   5.852
14361TIP3   OH243039   7.124   5.989   4.167
14361TIP3    H143040   7.205   6.024   4.130
14361TIP3    H243041   7.058   6.005   4.099
14362TIP3   OH243042   1.584   4.662   6.547
14362TIP3    H143043   1.510   4.719   6.526
14362TIP3    H243044   1.546   4.575   6.557
14363TIP3   OH243045   2.660   2.332   4.950
14363TIP3    H143046   2.613   2.253   4.975
14363TIP3    H243047   2.731   2.301   4.895
14364TIP3   OH243048   6.574   4.907   4.800
14364TIP3    H143049   6.553   4.874   4.713
14364TIP3    H243050   6.664   4.937   4.794
14365TIP3   OH243051   2.434   4.484   3.864
14365TIP3    H143052   2.410   4.395   3.840
14365TIP3    H243053   2.351   4.526   3.888
14366TIP3   OH243054   7.637   4.345   5.794
14366TIP3    H143055   7.605   4.340   5.704
14366TIP3    H243056   7.576   4.404   5.838
14367TIP3   OH243057   3.749   3.595   1.731
14367TIP3    H143058   3.803   3.659   1.685
14367TIP3    H243059   3.685   3.647   1.779
14368TIP3   OH243060   3.027   5.888   2.726
14368TIP3    H143061   3.012   5.795   2.708
14368TIP3    H243062   3.117   5.904   2.699
14369TIP3   OH243063   1.377   3.812   1.591
14369TIP3    H143064   1.433   3.885   1.616
14369TIP3    H243065   1.404   3.740   1.648
14370TIP3   OH243066   6.010   4.111   0.163
14370TIP3    H143067   5.983   4.081   0.250
14370TIP3    H243068   6.059   4.037   0.126
14371TIP3   OH243069   4.388   6.798   3.368
14371TIP3    H143070   4.361   6.881   3.328
14371TIP3    H243071   4.396   6.737   3.294
14372TIP3   OH243072   5.977   7.038   3.191
14372TIP3    H143073   5.908   7.033   3.125
14372TIP3    H243074   5.931   7.055   3.273
14373TIP3   OH243075   2.064   3.214   1.132
14373TIP3    H143076   2.046   3.287   1.191
14373TIP3    H243077   2.054   3.250   1.044
14374TIP3   OH243078   3.530   6.800   4.280
14374TIP3    H143079   3.503   6.880   4.236
14374TIP3    H243080   3.567   6.746   4.210
14375TIP3   OH243081   1.543   4.795   4.108
14375TIP3    H143082   1.519   4.869   4.053
14375TIP3    H243083   1.488   4.723   4.078
14376TIP3   OH243084   3.856   3.818   6.490
14376TIP3    H143085   3.840   3.860   6.406
14376TIP3    H243086   3.774   3.773   6.510
14377TIP3   OH243087   1.107   6.688   6.298
14377TIP3    H143088   1.093   6.613   6.356
14377TIP3    H243089   1.202   6.691   6.284
14378TIP3   OH243090   4.046   0.504   3.127
14378TIP3    H143091   4.083   0.587   3.097
14378TIP3    H243092   3.952   0.517   3.122
14379TIP3   OH243093   6.230   2.656   2.249
14379TIP3    H143094   6.277   2.717   2.306
14379TIP3    H243095   6.276   2.662   2.165
14380TIP3   OH243096   4.371   0.501   4.915
14380TIP3    H143097   4.428   0.479   4.988
14380TIP3    H243098   4.429   0.508   4.840
14381TIP3   OH243099   6.189   0.331   1.439
14381TIP3    H143100   6.178   0.247   1.394
14381TIP3    H243101   6.266   0.370   1.397
14382TIP3   OH243102   4.774   6.940   2.457
14382TIP3    H143103   4.788   6.945   2.362
14382TIP3    H243104   4.717   7.014   2.477
14383TIP3   OH243105   5.294   3.647   1.724
14383TIP3    H143106   5.277   3.619   1.814
14383TIP3    H243107   5.242   3.588   1.670
14384TIP3   OH243108   1.062   4.170   1.687
14384TIP3    H143109   1.120   4.199   1.758
14384TIP3    H243110   1.120   4.121   1.628
14385TIP3   OH243111   2.558   4.972   5.911
14385TIP3    H143112   2.591   5.033   5.845
14385TIP3    H243113   2.628   4.907   5.921
14386TIP3   OH243114   0.755   5.027   4.417
14386TIP3    H143115   0.743   5.089   4.345
14386TIP3    H243116   0.720   5.072   4.494
14387TIP3   OH243117   7.135   6.509   0.856
14387TIP3    H143118   7.145   6.478   0.766
14387TIP3    H243119   7.057   6.565   0.852
14388TIP3   OH243120   1.465   6.155   2.010
14388TIP3    H143121   1.509   6.227   2.053
14388TIP3    H243122   1.384   6.142   2.060
14389TIP3   OH243123   5.801   0.335   2.112
14389TIP3    H143124   5.727   0.376   2.158
14389TIP3    H243125   5.762   0.262   2.064
14390TIP3   OH243126   2.159   5.604   4.314
14390TIP3    H143127   2.238   5.614   4.262
14390TIP3    H243128   2.121   5.521   4.286
14391TIP3   OH243129   5.430   6.985   2.820
14391TIP3    H143130   5.399   6.993   2.730
14391TIP3    H243131   5.359   7.022   2.873
14392TIP3   OH243132   3.553   5.120   0.910
14392TIP3    H143133   3.600   5.096   0.830
14392TIP3    H243134   3.577   5.211   0.926
14393TIP3   OH243135   0.377   5.576   2.922
14393TIP3    H143136   0.445   5.508   2.926
14393TIP3    H243137   0.298   5.532   2.951
14394TIP3   OH243138   3.706   4.627   5.264
14394TIP3    H143139   3.729   4.661   5.178
14394TIP3    H243140   3.790   4.614   5.308
14395TIP3   OH243141   5.341   4.370   5.104
14395TIP3    H143142   5.370   4.407   5.188
14395TIP3    H243143   5.275   4.305   5.129
14396TIP3   OH243144   7.873   0.819   0.402
14396TIP3    H143145   7.908   0.739   0.361
14396TIP3    H243146   7.930   0.889   0.368
14397TIP3   OH243147   7.763   2.162   1.243
14397TIP3    H143148   7.775   2.067   1.235
14397TIP3    H243149   7.702   2.184   1.172
14398TIP3   OH243150   4.179   4.394   0.429
14398TIP3    H143151   4.108   4.330   0.432
14398TIP3    H243152   4.193   4.410   0.335
14399TIP3   OH243153   7.809   4.791   2.093
14399TIP3    H143154   7.771   4.784   2.180
14399TIP3    H243155   7.789   4.880   2.064
14400TIP3   OH243156   3.955   7.524   0.030
14400TIP3    H143157   4.018   7.548  -0.038
14400TIP3    H243158   4.003   7.535   0.112
14401TIP3   OH243159   4.947   7.346   2.348
14401TIP3    H143160   5.010   7.315   2.413
14401TIP3    H243161   4.987   7.424   2.311
14402TIP3   OH243162   7.284   0.877   0.632
14402TIP3    H143163   7.298   0.826   0.551
14402TIP3    H243164   7.323   0.962   0.613
14403TIP3   OH243165   2.243   2.189   2.568
14403TIP3    H143166   2.249   2.225   2.657
14403TIP3    H243167   2.150   2.174   2.554
14404TIP3   OH243168   6.465   6.550   5.006
14404TIP3    H143169   6.519   6.622   4.976
14404TIP3    H243170   6.527   6.481   5.029
14405TIP3   OH243171   8.276   3.850   2.623
14405TIP3    H143172   8.223   3.876   2.548
14405TIP3    H243173   8.358   3.896   2.612
14406TIP3   OH243174   1.326   0.024   0.905
14406TIP3    H143175   1.258  -0.003   0.842
14406TIP3    H243176   1.406   0.027   0.853
14407TIP3   OH243177   5.401   5.709   5.861
14407TIP3    H143178   5.397   5.661   5.779
14407TIP3    H243179   5.310   5.719   5.888
14408TIP3   OH243180   2.746   2.224   6.140
14408TIP3    H143181   2.710   2.312   6.155
14408TIP3    H243182   2.698   2.191   6.064
14409TIP3   OH243183   5.548   4.213   2.259
14409TIP3    H143184   5.488   4.232   2.186
14409TIP3    H243185   5.619   4.163   2.219
14410TIP3   OH243186   2.990   4.499   4.475
14410TIP3    H143187   2.951   4.586   4.467
14410TIP3    H243188   3.017   4.493   4.567
14411TIP3   OH243189   2.501   2.418   1.692
14411TIP3    H143190   2.574   2.435   1.632
14411TIP3    H243191   2.483   2.324   1.682
14412TIP3   OH243192   4.398   0.905   1.420
14412TIP3    H143193   4.488   0.907   1.388
14412TIP3    H243194   4.366   0.818   1.395
14413TIP3   OH243195   5.527   6.635   2.170
14413TIP3    H143196   5.586   6.670   2.237
14413TIP3    H243197   5.509   6.709   2.113
14414TIP3   OH243198   6.128   0.118   2.034
14414TIP3    H143199   6.203   0.107   1.976
14414TIP3    H243200   6.151   0.191   2.091
14415TIP3   OH243201   5.591   4.936   2.181
14415TIP3    H143202   5.630   4.892   2.105
14415TIP3    H243203   5.539   4.868   2.225
14416TIP3   OH243204   6.075   7.403   4.960
14416TIP3    H143205   5.982   7.416   4.939
14416TIP3    H243206   6.112   7.492   4.960
14417TIP3   OH243207   1.156   5.331   2.380
14417TIP3    H143208   1.202   5.350   2.299
14417TIP3    H243209   1.214   5.365   2.449
14418TIP3   OH243210   4.427   7.762   2.218
14418TIP3    H143211   4.467   7.848   2.230
14418TIP3    H243212   4.489   7.701   2.256
14419TIP3   OH243213   3.516   0.158   1.845
14419TIP3    H143214   3.421   0.164   1.854
14419TIP3    H243215   3.530   0.072   1.805
14420TIP3   OH243216   8.026   1.226   6.299
14420TIP3    H143217   7.962   1.277   6.249
14420TIP3    H243218   8.011   1.252   6.390
14421TIP3   OH243219   2.496   1.149   0.153
14421TIP3    H143220   2.589   1.167   0.163
14421TIP3    H243221   2.455   1.235   0.151
14422TIP3   OH243222   3.091   1.522   2.152
14422TIP3    H143223   3.025   1.505   2.218
14422TIP3    H243224   3.152   1.447   2.160
14423TIP3   OH243225   1.060   5.323   4.491
14423TIP3    H143226   1.150   5.346   4.513
14423TIP3    H243227   1.061   5.228   4.480
14424TIP3   OH243228   4.878   4.062   5.116
14424TIP3    H143229   4.872   3.983   5.169
14424TIP3    H243230   4.787   4.089   5.104
14425TIP3   OH243231   1.658   1.949   0.220
14425TIP3    H143232   1.727   2.000   0.178
14425TIP3    H243233   1.602   2.014   0.263
14426TIP3   OH243234   4.675   1.328   5.936
14426TIP3    H143235   4.739   1.332   6.007
14426TIP3    H243236   4.594   1.298   5.977
14427TIP3   OH243237   0.099   2.504   3.907
14427TIP3    H143238   0.029   2.447   3.876
14427TIP3    H243239   0.133   2.460   3.985
14428TIP3   OH243240   5.460   2.383   0.446
14428TIP3    H143241   5.515   2.391   0.524
14428TIP3    H243242   5.383   2.437   0.465
14429TIP3   OH243243   2.113   5.946   3.114
14429TIP3    H143244   2.101   5.957   3.020
14429TIP3    H243245   2.186   5.885   3.122
14430TIP3   OH243246   0.130   7.662   4.196
14430TIP3    H143247   0.147   7.732   4.133
14430TIP3    H243248   0.169   7.694   4.278
14431TIP3   OH243249   0.814   4.378   6.264
14431TIP3    H143250   0.799   4.286   6.241
14431TIP3    H243251   0.777   4.427   6.190
14432TIP3   OH243252   2.979   6.891   0.414
14432TIP3    H143253   3.018   6.977   0.425
14432TIP3    H243254   2.891   6.908   0.381
14433TIP3   OH243255   5.505   2.188   5.064
14433TIP3    H143256   5.530   2.190   4.972
14433TIP3    H243257   5.541   2.269   5.101
14434TIP3   OH243258   3.753   7.711   3.862
14434TIP3    H143259   3.659   7.713   3.881
14434TIP3    H243260   3.790   7.652   3.928
14435TIP3   OH243261   3.302   1.656   5.827
14435TIP3    H143262   3.215   1.689   5.850
14435TIP3    H243263   3.305   1.569   5.867
14436TIP3   OH243264   0.643   2.335   4.101
14436TIP3    H143265   0.738   2.334   4.100
14436TIP3    H243266   0.620   2.324   4.194
14437TIP3   OH243267   1.954   0.288   5.649
14437TIP3    H143268   2.024   0.224   5.646
14437TIP3    H243269   1.874   0.237   5.634
14438TIP3   OH243270   6.193   0.924   6.059
14438TIP3    H143271   6.242   0.863   6.114
14438TIP3    H243272   6.238   1.008   6.070
14439TIP3   OH243273   7.591   7.534   2.481
14439TIP3    H143274   7.578   7.625   2.509
14439TIP3    H243275   7.505   7.494   2.489
14440TIP3   OH243276   7.999   0.855   5.484
14440TIP3    H143277   7.998   0.850   5.580
14440TIP3    H243278   7.994   0.763   5.455
14441TIP3   OH243279   7.554   7.277   1.799
14441TIP3    H143280   7.638   7.313   1.770
14441TIP3    H243281   7.570   7.183   1.808
14442TIP3   OH243282   5.624   5.182   6.640
14442TIP3    H143283   5.627   5.263   6.588
14442TIP3    H243284   5.592   5.116   6.580
14443TIP3   OH243285   5.864   1.413   2.243
14443TIP3    H143286   5.908   1.328   2.256
14443TIP3    H243287   5.771   1.390   2.232
14444TIP3   OH243288   7.484   3.146   0.657
14444TIP3    H143289   7.456   3.152   0.566
14444TIP3    H243290   7.404   3.158   0.708
14445TIP3   OH243291   5.316   2.404   5.027
14445TIP3    H143292   5.297   2.429   5.118
14445TIP3    H243293   5.325   2.309   5.030
14446TIP3   OH243294   7.745   3.177   6.057
14446TIP3    H143295   7.728   3.213   5.970
14446TIP3    H243296   7.699   3.094   6.058
14447TIP3   OH243297   8.265   7.083   5.063
14447TIP3    H143298   8.267   7.178   5.066
14447TIP3    H243299   8.298   7.061   4.976
14448TIP3   OH243300   0.276   7.665   0.646
14448TIP3    H143301   0.322   7.748   0.637
14448TIP3    H243302   0.299   7.616   0.566
14449TIP3   OH243303   3.711   0.746   2.805
14449TIP3    H143304   3.642   0.811   2.793
14449TIP3    H243305   3.668   0.662   2.790
14450TIP3   OH243306   4.946   1.873   0.037
14450TIP3    H143307   4.909   1.855  -0.050
14450TIP3    H243308   4.994   1.955   0.026
14451TIP3   OH243309   4.032   5.520   3.448
14451TIP3    H143310   4.042   5.480   3.361
14451TIP3    H243311   4.052   5.613   3.434
14452TIP3   OH243312   0.660   4.564   5.379
14452TIP3    H143313   0.646   4.499   5.310
14452TIP3    H243314   0.746   4.601   5.360
14453TIP3   OH243315   1.925   4.934   3.033
14453TIP3    H143316   1.881   4.942   2.949
14453TIP3    H243317   2.012   4.899   3.011
14454TIP3   OH243318   1.552   4.098   1.018
14454TIP3    H143319   1.591   4.170   0.967
14454TIP3    H243320   1.580   4.116   1.108
14455TIP3   OH243321   0.404   6.687   0.563
14455TIP3    H143322   0.362   6.629   0.500
14455TIP3    H243323   0.397   6.642   0.647
14456TIP3   OH243324   7.160   4.626   1.497
14456TIP3    H143325   7.145   4.719   1.483
14456TIP3    H243326   7.074   4.590   1.516
14457TIP3   OH243327   2.567   1.147   4.380
14457TIP3    H143328   2.534   1.212   4.442
14457TIP3    H243329   2.496   1.136   4.316
14458TIP3   OH243330   4.853   6.309   3.351
14458TIP3    H143331   4.804   6.243   3.401
14458TIP3    H243332   4.894   6.259   3.281
14459TIP3   OH243333   6.832   7.403   3.252
14459TIP3    H143334   6.894   7.412   3.179
14459TIP3    H243335   6.887   7.387   3.328
14460TIP3   OH243336   1.479   4.575   1.770
14460TIP3    H143337   1.537   4.566   1.846
14460TIP3    H243338   1.419   4.645   1.794
14461TIP3   OH243339   5.986   2.117   6.151
14461TIP3    H143340   5.895   2.144   6.162
14461TIP3    H243341   6.019   2.109   6.240
14462TIP3   OH243342   4.435   6.513   1.153
14462TIP3    H143343   4.363   6.451   1.168
14462TIP3    H243344   4.469   6.491   1.067
14463TIP3   OH243345   2.418   6.209   6.561
14463TIP3    H143346   2.379   6.223   6.647
14463TIP3    H243347   2.469   6.289   6.546
14464TIP3   OH243348   2.560   3.042   6.270
14464TIP3    H143349   2.594   3.131   6.260
14464TIP3    H243350   2.568   3.003   6.183
14465TIP3   OH243351   0.321   3.942   0.819
14465TIP3    H143352   0.348   3.980   0.736
14465TIP3    H243353   0.340   4.010   0.884
14466TIP3   OH243354   0.265   2.220   3.563
14466TIP3    H143355   0.239   2.129   3.556
14466TIP3    H243356   0.266   2.252   3.473
14467TIP3   OH243357   5.614   3.992   1.911
14467TIP3    H143358   5.680   3.937   1.953
14467TIP3    H243359   5.587   3.943   1.834
14468TIP3   OH243360   5.715   6.625   4.021
14468TIP3    H143361   5.653   6.558   3.991
14468TIP3    H243362   5.681   6.653   4.106
14469TIP3   OH243363   1.565   3.795   1.138
14469TIP3    H143364   1.537   3.732   1.204
14469TIP3    H243365   1.563   3.879   1.183
14470TIP3   OH243366   8.187   5.655   5.947
14470TIP3    H143367   8.162   5.702   6.026
14470TIP3    H243368   8.267   5.608   5.971
14471TIP3   OH243369   3.733   0.536   1.196
14471TIP3    H143370   3.694   0.528   1.109
14471TIP3    H243371   3.780   0.619   1.194
14472TIP3   OH243372   0.497   4.806   0.463
14472TIP3    H143373   0.574   4.750   0.457
14472TIP3    H243374   0.520   4.884   0.411
14473TIP3   OH243375   7.366   2.520   1.603
14473TIP3    H143376   7.451   2.564   1.613
14473TIP3    H243377   7.332   2.554   1.520
14474TIP3   OH243378   4.481   5.824   3.440
14474TIP3    H143379   4.446   5.758   3.380
14474TIP3    H243380   4.494   5.777   3.522
14475TIP3   OH243381   1.529   2.166   4.668
14475TIP3    H143382   1.522   2.090   4.725
14475TIP3    H243383   1.621   2.167   4.639
14476TIP3   OH243384   7.671   1.173   6.412
14476TIP3    H143385   7.596   1.168   6.471
14476TIP3    H243386   7.679   1.266   6.392
14477TIP3   OH243387   0.207   0.374   5.481
14477TIP3    H143388   0.256   0.424   5.416
14477TIP3    H243389   0.122   0.418   5.487
14478TIP3   OH243390   3.529   5.959   3.952
14478TIP3    H143391   3.443   5.918   3.941
14478TIP3    H243392   3.586   5.914   3.890
14479TIP3   OH243393   0.730   3.518   2.466
14479TIP3    H143394   0.725   3.515   2.561
14479TIP3    H243395   0.727   3.612   2.444
14480TIP3   OH243396   0.052   1.013   1.134
14480TIP3    H143397   0.077   0.974   1.218
14480TIP3    H243398   0.135   1.036   1.093
14481TIP3   OH243399   1.618   5.515   3.616
14481TIP3    H143400   1.560   5.483   3.686
14481TIP3    H243401   1.574   5.489   3.535
14482TIP3   OH243402   7.420   1.491   2.684
14482TIP3    H143403   7.324   1.491   2.690
14482TIP3    H243404   7.441   1.416   2.629
14483TIP3   OH243405   3.769   7.166   5.604
14483TIP3    H143406   3.719   7.232   5.652
14483TIP3    H243407   3.787   7.206   5.519
14484TIP3   OH243408   3.861   6.490   5.068
14484TIP3    H143409   3.777   6.468   5.026
14484TIP3    H243410   3.836   6.529   5.152
14485TIP3   OH243411   0.802   1.795   3.803
14485TIP3    H143412   0.831   1.887   3.796
14485TIP3    H243413   0.707   1.799   3.797
14486TIP3   OH243414   0.134   6.813   3.347
14486TIP3    H143415   0.120   6.908   3.351
14486TIP3    H243416   0.067   6.781   3.287
14487TIP3   OH243417   1.709   4.570   5.088
14487TIP3    H143418   1.679   4.587   4.999
14487TIP3    H243419   1.804   4.580   5.084
14488TIP3   OH243420   4.059   4.048   2.290
14488TIP3    H143421   4.076   4.138   2.315
14488TIP3    H243422   3.972   4.049   2.252
14489TIP3   OH243423   2.132   3.280   0.444
14489TIP3    H143424   2.055   3.222   0.444
14489TIP3    H243425   2.181   3.254   0.366
14490TIP3   OH243426   8.164   5.888   4.872
14490TIP3    H143427   8.123   5.934   4.799
14490TIP3    H243428   8.091   5.857   4.925
14491TIP3   OH243429   5.749   7.776   4.291
14491TIP3    H143430   5.662   7.805   4.262
14491TIP3    H243431   5.767   7.829   4.369
14492TIP3   OH243432   0.229   1.810   6.572
14492TIP3    H143433   0.135   1.824   6.564
14492TIP3    H243434   0.258   1.788   6.483
14493TIP3   OH243435   4.850   1.007   5.426
14493TIP3    H143436   4.894   0.950   5.364
14493TIP3    H243437   4.844   0.956   5.506
14494TIP3   OH243438   0.317   3.804   3.113
14494TIP3    H143439   0.340   3.881   3.165
14494TIP3    H243440   0.361   3.818   3.029
14495TIP3   OH243441   5.872   4.575   6.241
14495TIP3    H143442   5.930   4.631   6.189
14495TIP3    H243443   5.913   4.489   6.239
14496TIP3   OH243444   0.221   6.117   3.500
14496TIP3    H143445   0.253   6.053   3.437
14496TIP3    H243446   0.264   6.199   3.476
14497TIP3   OH243447   1.591   3.388   3.751
14497TIP3    H143448   1.659   3.322   3.739
14497TIP3    H243449   1.625   3.465   3.705
14498TIP3   OH243450   4.377   7.599   1.982
14498TIP3    H143451   4.395   7.654   1.906
14498TIP3    H243452   4.391   7.656   2.057
14499TIP3   OH243453   2.211   2.218   3.089
14499TIP3    H143454   2.259   2.147   3.130
14499TIP3    H243455   2.120   2.203   3.115
14500TIP3   OH243456   8.031   3.051   6.677
14500TIP3    H143457   8.114   3.032   6.634
14500TIP3    H243458   8.052   3.047   6.771
14501TIP3   OH243459   5.225   2.446   5.821
14501TIP3    H143460   5.164   2.378   5.793
14501TIP3    H243461   5.299   2.399   5.857
14502TIP3   OH243462   0.050   6.723   2.069
14502TIP3    H143463   0.114   6.764   2.127
14502TIP3    H243464  -0.014   6.683   2.127
14503TIP3   OH243465   8.215   2.530   4.197
14503TIP3    H143466   8.130   2.553   4.235
14503TIP3    H243467   8.247   2.611   4.159
14504TIP3   OH243468   5.904   4.338   1.741
14504TIP3    H143469   5.851   4.281   1.797
14504TIP3    H243470   5.900   4.298   1.654
14505TIP3   OH243471   4.435   2.341   6.120
14505TIP3    H143472   4.451   2.361   6.028
14505TIP3    H243473   4.515   2.296   6.149
14506TIP3   OH243474   0.624   6.388   0.482
14506TIP3    H143475   0.655   6.331   0.551
14506TIP3    H243476   0.533   6.360   0.466
14507TIP3   OH243477   0.258   1.098   6.373
14507TIP3    H143478   0.178   1.086   6.322
14507TIP3    H243479   0.234   1.069   6.461
14508TIP3   OH243480   1.777   0.882   4.603
14508TIP3    H143481   1.804   0.905   4.692
14508TIP3    H243482   1.687   0.852   4.614
14509TIP3   OH243483   0.236   4.858   5.551
14509TIP3    H143484   0.326   4.882   5.529
14509TIP3    H243485   0.198   4.939   5.585
14510TIP3   OH243486   5.262   4.139   5.995
14510TIP3    H143487   5.194   4.155   5.929
14510TIP3    H243488   5.341   4.176   5.957
14511TIP3   OH243489   2.767   3.607   4.753
14511TIP3    H143490   2.758   3.534   4.814
14511TIP3    H243491   2.688   3.660   4.767
14512TIP3   OH243492   3.542   2.110   1.489
14512TIP3    H143493   3.457   2.120   1.533
14512TIP3    H243494   3.530   2.036   1.431
14513TIP3   OH243495   3.071   4.539   3.165
14513TIP3    H143496   3.048   4.567   3.076
14513TIP3    H243497   2.987   4.535   3.211
14514TIP3   OH243498   4.302   5.954   1.327
14514TIP3    H143499   4.309   5.974   1.421
14514TIP3    H243500   4.244   6.022   1.293
14515TIP3   OH243501   6.545   0.508   3.640
14515TIP3    H143502   6.636   0.503   3.671
14515TIP3    H243503   6.535   0.600   3.612
14516TIP3   OH243504   3.374   5.442   4.650
14516TIP3    H143505   3.424   5.360   4.643
14516TIP3    H243506   3.371   5.476   4.560
14517TIP3   OH243507   3.555   0.058   4.329
14517TIP3    H143508   3.523  -0.015   4.383
14517TIP3    H243509   3.536   0.136   4.381
14518TIP3   OH243510   6.157   1.655   0.195
14518TIP3    H143511   6.234   1.711   0.192
14518TIP3    H243512   6.139   1.644   0.289
14519TIP3   OH243513   4.061   3.178   0.957
14519TIP3    H143514   4.092   3.088   0.968
14519TIP3    H243515   4.014   3.197   1.038
14520TIP3   OH243516   7.690   7.431   5.147
14520TIP3    H143517   7.654   7.486   5.216
14520TIP3    H243518   7.624   7.433   5.078
14521TIP3   OH243519   7.918   3.205   3.730
14521TIP3    H143520   7.988   3.234   3.672
14521TIP3    H243521   7.858   3.157   3.673
14522TIP3   OH243522   2.293   2.965   6.351
14522TIP3    H143523   2.383   2.987   6.325
14522TIP3    H243524   2.304   2.910   6.429
14523TIP3   OH243525   0.322   1.574   5.670
14523TIP3    H143526   0.351   1.498   5.720
14523TIP3    H243527   0.368   1.567   5.586
14524TIP3   OH243528   2.580   0.584   6.053
14524TIP3    H143529   2.568   0.656   6.115
14524TIP3    H243530   2.603   0.509   6.108
14525TIP3   OH243531   1.224   5.506   2.686
14525TIP3    H143532   1.290   5.482   2.621
14525TIP3    H243533   1.159   5.436   2.681
14526TIP3   OH243534   5.179   3.533   5.593
14526TIP3    H143535   5.192   3.455   5.647
14526TIP3    H243536   5.121   3.504   5.523
14527TIP3   OH243537   4.157   5.532   1.396
14527TIP3    H143538   4.214   5.535   1.319
14527TIP3    H243539   4.205   5.478   1.459
14528TIP3   OH243540   7.170   6.555   2.943
14528TIP3    H143541   7.257   6.517   2.940
14528TIP3    H243542   7.178   6.639   2.898
14529TIP3   OH243543   6.282   7.571   0.052
14529TIP3    H143544   6.242   7.487   0.074
14529TIP3    H243545   6.360   7.548   0.002
14530TIP3   OH243546   6.663   5.314   4.540
14530TIP3    H143547   6.652   5.224   4.509
14530TIP3    H243548   6.750   5.314   4.581
14531TIP3   OH243549   0.803   4.612   1.277
14531TIP3    H143550   0.799   4.530   1.326
14531TIP3    H243551   0.729   4.608   1.217
14532TIP3   OH243552   1.144   3.678   0.346
14532TIP3    H143553   1.167   3.636   0.429
14532TIP3    H243554   1.213   3.652   0.286
14533TIP3   OH243555   0.569   3.078   6.453
14533TIP3    H143556   0.613   3.160   6.433
14533TIP3    H243557   0.629   3.030   6.509
14534TIP3   OH243558   4.042   3.780   4.275
14534TIP3    H143559   3.947   3.776   4.271
14534TIP3    H243560   4.069   3.794   4.184
14535TIP3   OH243561   2.878   7.102   0.718
14535TIP3    H143562   2.830   7.100   0.635
14535TIP3    H243563   2.820   7.150   0.778
14536TIP3   OH243564   1.059   2.520   4.344
14536TIP3    H143565   1.103   2.442   4.309
14536TIP3    H243566   1.101   2.594   4.301
14537TIP3   OH243567   4.023   7.658   2.299
14537TIP3    H143568   4.063   7.572   2.286
14537TIP3    H243569   4.096   7.714   2.325
14538TIP3   OH243570   0.267   1.244   1.345
14538TIP3    H143571   0.252   1.275   1.256
14538TIP3    H243572   0.232   1.312   1.401
14539TIP3   OH243573   4.824   1.158   1.946
14539TIP3    H143574   4.854   1.248   1.932
14539TIP3    H243575   4.900   1.112   1.981
14540TIP3   OH243576   5.330   7.212   0.083
14540TIP3    H143577   5.331   7.116   0.090
14540TIP3    H243578   5.245   7.232   0.045
14541TIP3   OH243579   6.147   2.142   5.924
14541TIP3    H143580   6.098   2.146   6.006
14541TIP3    H243581   6.175   2.051   5.917
14542TIP3   OH243582   0.676   0.737   0.942
14542TIP3    H143583   0.702   0.726   0.850
14542TIP3    H243584   0.580   0.737   0.940
14543TIP3   OH243585   4.734   0.093   5.777
14543TIP3    H143586   4.649   0.052   5.791
14543TIP3    H243587   4.787   0.062   5.850
14544TIP3   OH243588   5.253   7.017   0.535
14544TIP3    H143589   5.306   7.084   0.492
14544TIP3    H243590   5.202   7.065   0.600
14545TIP3   OH243591   1.903   6.851   5.659
14545TIP3    H143592   1.979   6.839   5.603
14545TIP3    H243593   1.877   6.942   5.647
14546TIP3   OH243594   1.100   3.811   3.251
14546TIP3    H143595   1.070   3.763   3.174
14546TIP3    H243596   1.021   3.825   3.303
14547TIP3   OH243597   4.191   3.496   4.179
14547TIP3    H143598   4.132   3.543   4.120
14547TIP3    H243599   4.220   3.561   4.242
14548TIP3   OH243600   5.856   3.960   3.123
14548TIP3    H143601   5.811   3.878   3.103
14548TIP3    H243602   5.944   3.934   3.150
14549TIP3   OH243603   3.217   5.092   3.287
14549TIP3    H143604   3.252   5.041   3.359
14549TIP3    H243605   3.281   5.082   3.217
14550TIP3   OH243606   5.434   0.951   1.519
14550TIP3    H143607   5.366   0.997   1.568
14550TIP3    H243608   5.472   1.019   1.463
14551TIP3   OH243609   3.411   2.229   3.493
14551TIP3    H143610   3.458   2.312   3.505
14551TIP3    H243611   3.479   2.162   3.499
14552TIP3   OH243612   5.383   4.154   5.307
14552TIP3    H143613   5.444   4.195   5.246
14552TIP3    H243614   5.301   4.203   5.295
14553TIP3   OH243615   3.072   6.743   0.191
14553TIP3    H143616   3.096   6.655   0.217
14553TIP3    H243617   3.052   6.788   0.273
14554TIP3   OH243618   1.657   1.419   0.053
14554TIP3    H143619   1.603   1.441   0.129
14554TIP3    H243620   1.611   1.347   0.010
14555TIP3   OH243621   5.175   5.029   4.117
14555TIP3    H143622   5.216   4.944   4.132
14555TIP3    H243623   5.116   5.014   4.043
14556TIP3   OH243624   6.782   1.911   1.577
14556TIP3    H143625   6.832   1.829   1.575
14556TIP3    H243626   6.808   1.957   1.496
14557TIP3   OH243627   2.353   6.831   0.963
14557TIP3    H143628   2.381   6.835   0.871
14557TIP3    H243629   2.308   6.915   0.977
14558TIP3   OH243630   5.711   5.079   4.841
14558TIP3    H143631   5.684   5.028   4.764
14558TIP3    H243632   5.641   5.064   4.905
14559TIP3   OH243633   5.998   3.659   0.941
14559TIP3    H143634   5.991   3.718   1.015
14559TIP3    H243635   5.913   3.664   0.897
14560TIP3   OH243636   4.549   5.346   2.450
14560TIP3    H143637   4.487   5.365   2.380
14560TIP3    H243638   4.511   5.388   2.528
14561TIP3   OH243639   8.220   1.148   6.511
14561TIP3    H143640   8.143   1.092   6.525
14561TIP3    H243641   8.226   1.158   6.416
14562TIP3   OH243642   7.386   6.018   0.635
14562TIP3    H143643   7.300   6.024   0.678
14562TIP3    H243644   7.448   6.044   0.703
14563TIP3   OH243645   0.315   7.112   2.315
14563TIP3    H143646   0.372   7.180   2.279
14563TIP3    H243647   0.232   7.157   2.332
14564TIP3   OH243648   4.933   7.561   4.373
14564TIP3    H143649   5.023   7.589   4.388
14564TIP3    H243650   4.936   7.513   4.290
14565TIP3   OH243651   0.921   1.793   1.618
14565TIP3    H143652   0.888   1.773   1.531
14565TIP3    H243653   1.005   1.837   1.603
14566TIP3   OH243654   5.254   2.537   1.919
14566TIP3    H143655   5.164   2.556   1.890
14566TIP3    H243656   5.287   2.620   1.952
14567TIP3   OH243657   3.527   6.122   3.292
14567TIP3    H143658   3.585   6.052   3.263
14567TIP3    H243659   3.452   6.118   3.232
14568TIP3   OH243660   0.399   1.659   0.580
14568TIP3    H143661   0.390   1.612   0.663
14568TIP3    H243662   0.457   1.604   0.527
14569TIP3   OH243663   0.259   5.719   6.676
14569TIP3    H143664   0.311   5.710   6.597
14569TIP3    H243665   0.188   5.655   6.665
14570TIP3   OH243666   3.412   2.620   0.511
14570TIP3    H143667   3.380   2.559   0.578
14570TIP3    H243668   3.379   2.705   0.539
14571TIP3   OH243669   7.301   5.733   5.729
14571TIP3    H143670   7.333   5.802   5.671
14571TIP3    H243671   7.366   5.728   5.799
14572TIP3   OH243672   7.821   6.945   6.603
14572TIP3    H143673   7.748   6.944   6.664
14572TIP3    H243674   7.781   6.937   6.517
14573TIP3   OH243675   1.053   6.203   1.716
14573TIP3    H143676   1.038   6.185   1.623
14573TIP3    H243677   1.149   6.208   1.724
14574TIP3   OH243678   6.832   4.911   1.178
14574TIP3    H143679   6.817   4.993   1.224
14574TIP3    H243680   6.919   4.919   1.139
14575TIP3   OH243681   0.090   2.591   2.580
14575TIP3    H143682   0.134   2.636   2.652
14575TIP3    H243683  -0.003   2.603   2.597
14576TIP3   OH243684   2.388   2.456   5.029
14576TIP3    H143685   2.336   2.431   5.105
14576TIP3    H243686   2.346   2.411   4.955
14577TIP3   OH243687   2.836   7.328   0.271
14577TIP3    H143688   2.860   7.292   0.186
14577TIP3    H243689   2.861   7.420   0.266
14578TIP3   OH243690   2.815   6.329   1.571
14578TIP3    H143691   2.896   6.345   1.620
14578TIP3    H243692   2.844   6.286   1.491
14579TIP3   OH243693   3.682   0.919   3.396
14579TIP3    H143694   3.680   0.999   3.344
14579TIP3    H243695   3.589   0.896   3.407
14580TIP3   OH243696   1.143   2.484   1.365
14580TIP3    H143697   1.108   2.417   1.306
14580TIP3    H243698   1.220   2.443   1.405
14581TIP3   OH243699   4.740   6.712   5.318
14581TIP3    H143700   4.820   6.661   5.305
14581TIP3    H243701   4.671   6.660   5.277
14582TIP3   OH243702   0.493   7.328   6.145
14582TIP3    H143703   0.491   7.421   6.166
14582TIP3    H243704   0.493   7.325   6.049
14583TIP3   OH243705   6.563   6.818   3.657
14583TIP3    H143706   6.483   6.805   3.606
14583TIP3    H243707   6.623   6.750   3.626
14584TIP3   OH243708   4.466   7.048   2.581
14584TIP3    H143709   4.562   7.055   2.580
14584TIP3    H243710   4.436   7.118   2.522
14585TIP3   OH243711   2.770   2.033   6.631
14585TIP3    H143712   2.762   2.015   6.537
14585TIP3    H243713   2.827   2.109   6.637
14586TIP3   OH243714   5.326   5.419   0.499
14586TIP3    H143715   5.270   5.469   0.557
14586TIP3    H243716   5.388   5.483   0.463
14587TIP3   OH243717   0.072   0.573   1.343
14587TIP3    H143718  -0.011   0.585   1.297
14587TIP3    H243719   0.138   0.598   1.279
14588TIP3   OH243720   0.803   5.831   3.087
14588TIP3    H143721   0.817   5.808   2.995
14588TIP3    H243722   0.708   5.837   3.097
14589TIP3   OH243723   4.168   6.968   6.065
14589TIP3    H143724   4.252   6.936   6.096
14589TIP3    H243725   4.148   7.043   6.121
14590TIP3   OH243726   4.404   7.421   4.270
14590TIP3    H143727   4.452   7.437   4.351
14590TIP3    H243728   4.322   7.469   4.282
14591TIP3   OH243729   2.191   5.573   0.878
14591TIP3    H143730   2.274   5.589   0.834
14591TIP3    H243731   2.215   5.565   0.971
14592TIP3   OH243732   5.586   5.408   6.482
14592TIP3    H143733   5.660   5.407   6.421
14592TIP3    H243734   5.512   5.378   6.429
14593TIP3   OH243735   1.049   6.527   6.509
14593TIP3    H143736   1.032   6.512   6.602
14593TIP3    H243737   0.963   6.522   6.467
14594TIP3   OH243738   0.092   3.782   0.247
14594TIP3    H143739   0.050   3.833   0.177
14594TIP3    H243740   0.164   3.736   0.203
14595TIP3   OH243741   6.315   4.806   4.625
14595TIP3    H143742   6.327   4.739   4.558
14595TIP3    H243743   6.221   4.827   4.620
14596TIP3   OH243744   2.536   1.340   0.401
14596TIP3    H143745   2.597   1.268   0.416
14596TIP3    H243746   2.449   1.299   0.407
14597TIP3   OH243747   6.889   6.459   5.046
14597TIP3    H143748   6.850   6.524   4.988
14597TIP3    H243749   6.817   6.397   5.065
14598TIP3   OH243750   0.313   0.367   1.234
14598TIP3    H143751   0.330   0.404   1.320
14598TIP3    H243752   0.318   0.272   1.247
14599TIP3   OH243753   6.055   0.745   6.629
14599TIP3    H143754   6.093   0.676   6.575
14599TIP3    H243755   6.126   0.808   6.642
14600TIP3   OH243756   7.937   3.749   2.379
14600TIP3    H143757   7.900   3.723   2.464
14600TIP3    H243758   8.000   3.818   2.401
14601TIP3   OH243759   5.686   5.438   0.359
14601TIP3    H143760   5.656   5.438   0.269
14601TIP3    H243761   5.671   5.528   0.390
14602TIP3   OH243762   1.756   5.306   0.557
14602TIP3    H143763   1.789   5.336   0.472
14602TIP3    H243764   1.825   5.328   0.619
14603TIP3   OH243765   7.418   2.638   4.411
14603TIP3    H143766   7.414   2.711   4.349
14603TIP3    H243767   7.422   2.560   4.356
14604TIP3   OH243768   7.286   0.259   6.449
14604TIP3    H143769   7.370   0.239   6.409
14604TIP3    H243770   7.266   0.349   6.422
14605TIP3   OH243771   1.235   6.049   6.071
14605TIP3    H143772   1.302   6.090   6.016
14605TIP3    H243773   1.243   5.956   6.054
14606TIP3   OH243774   1.775   3.175   2.168
14606TIP3    H143775   1.790   3.227   2.089
14606TIP3    H243776   1.824   3.094   2.153
14607TIP3   OH243777   4.708   4.844   5.209
14607TIP3    H143778   4.626   4.855   5.160
14607TIP3    H243779   4.775   4.879   5.151
14608TIP3   OH243780   7.818   7.216   1.958
14608TIP3    H143781   7.846   7.180   1.874
14608TIP3    H243782   7.740   7.165   1.982
14609TIP3   OH243783   7.802   6.814   1.701
14609TIP3    H143784   7.810   6.826   1.795
14609TIP3    H243785   7.816   6.901   1.664
14610TIP3   OH243786   7.267   3.389   2.193
14610TIP3    H143787   7.190   3.435   2.225
14610TIP3    H243788   7.292   3.435   2.113
14611TIP3   OH243789   1.724   0.517   0.479
14611TIP3    H143790   1.741   0.609   0.458
14611TIP3    H243791   1.785   0.497   0.550
14612TIP3   OH243792   6.106   6.011   5.942
14612TIP3    H143793   6.088   6.029   6.034
14612TIP3    H243794   6.023   6.023   5.898
14613TIP3   OH243795   0.626   5.176   2.003
14613TIP3    H143796   0.633   5.263   1.964
14613TIP3    H243797   0.570   5.127   1.944
14614TIP3   OH243798   2.803   6.753   3.443
14614TIP3    H143799   2.842   6.666   3.442
14614TIP3    H243800   2.878   6.813   3.444
14615TIP3   OH243801   6.391   3.679   5.987
14615TIP3    H143802   6.318   3.621   6.011
14615TIP3    H243803   6.454   3.670   6.059
14616TIP3   OH243804   6.383   5.175   5.257
14616TIP3    H143805   6.326   5.149   5.184
14616TIP3    H243806   6.367   5.268   5.269
14617TIP3   OH243807   4.934   6.858   6.682
14617TIP3    H143808   4.928   6.934   6.740
14617TIP3    H243809   4.947   6.896   6.595
14618TIP3   OH243810   5.455   6.342   0.157
14618TIP3    H143811   5.392   6.401   0.198
14618TIP3    H243812   5.523   6.400   0.123
14619TIP3   OH243813   3.646   5.414   0.516
14619TIP3    H143814   3.608   5.334   0.479
14619TIP3    H243815   3.681   5.387   0.601
14620TIP3   OH243816   4.897   4.106   2.860
14620TIP3    H143817   4.871   4.033   2.804
14620TIP3    H243818   4.983   4.082   2.893
14621TIP3   OH243819   0.222   7.791   3.153
14621TIP3    H143820   0.153   7.817   3.214
14621TIP3    H243821   0.198   7.703   3.125
14622TIP3   OH243822   5.777   6.945   3.659
14622TIP3    H143823   5.794   6.969   3.568
14622TIP3    H243824   5.864   6.934   3.698
14623TIP3   OH243825   7.310   7.327   2.823
14623TIP3    H143826   7.272   7.378   2.894
14623TIP3    H243827   7.237   7.274   2.790
14624TIP3   OH243828   4.682   0.217   4.654
14624TIP3    H143829   4.665   0.154   4.584
14624TIP3    H243830   4.727   0.166   4.721
14625TIP3   OH243831   5.218   4.166   2.941
14625TIP3    H143832   5.263   4.175   2.857
14625TIP3    H243833   5.246   4.081   2.974
14626TIP3   OH243834   1.468   1.807   3.421
14626TIP3    H143835   1.480   1.838   3.511
14626TIP3    H243836   1.432   1.719   3.430
14627TIP3   OH243837   1.883   1.292   0.126
14627TIP3    H143838   1.914   1.350   0.196
14627TIP3    H243839   1.793   1.321   0.110
14628TIP3   OH243840   3.558   2.889   1.650
14628TIP3    H143841   3.601   2.809   1.619
14628TIP3    H243842   3.484   2.858   1.703
14629TIP3   OH243843   7.764   3.611   6.390
14629TIP3    H143844   7.766   3.707   6.386
14629TIP3    H243845   7.790   3.583   6.303
14630TIP3   OH243846   3.102   0.483   5.626
14630TIP3    H143847   3.115   0.570   5.664
14630TIP3    H243848   3.007   0.472   5.622
14631TIP3   OH243849   6.483   2.068   2.024
14631TIP3    H143850   6.576   2.049   2.032
14631TIP3    H243851   6.442   2.020   2.096
14632TIP3   OH243852   5.131   2.895   4.100
14632TIP3    H143853   5.103   2.857   4.018
14632TIP3    H243854   5.051   2.929   4.141
14633TIP3   OH243855   2.039   7.771   2.203
14633TIP3    H143856   2.028   7.864   2.185
14633TIP3    H243857   2.025   7.729   2.118
14634TIP3   OH243858   2.823   7.495   2.489
14634TIP3    H143859   2.874   7.483   2.408
14634TIP3    H243860   2.866   7.568   2.533
14635TIP3   OH243861   1.089   4.883   1.561
14635TIP3    H143862   1.105   4.903   1.653
14635TIP3    H243863   1.164   4.918   1.514
14636TIP3   OH243864   4.898   1.588   2.167
14636TIP3    H143865   4.925   1.659   2.225
14636TIP3    H243866   4.846   1.530   2.223
14637TIP3   OH243867   0.402   3.507   1.298
14637TIP3    H143868   0.497   3.498   1.290
14637TIP3    H243869   0.390   3.579   1.360
14638TIP3   OH243870   4.676   1.520   4.738
14638TIP3    H143871   4.677   1.562   4.652
14638TIP3    H243872   4.761   1.541   4.776
14639TIP3   OH243873   7.737   0.432   6.534
14639TIP3    H143874   7.809   0.457   6.476
14639TIP3    H243875   7.750   0.338   6.549
14640TIP3   OH243876   1.842   4.676   3.075
14640TIP3    H143877   1.923   4.652   3.120
14640TIP3    H243878   1.854   4.768   3.052
14641TIP3   OH243879   1.972   6.136   4.743
14641TIP3    H143880   2.004   6.062   4.690
14641TIP3    H243881   2.048   6.165   4.793
14642TIP3   OH243882   1.931   6.235   4.054
14642TIP3    H143883   1.890   6.167   4.001
14642TIP3    H243884   1.903   6.317   4.013
14643TIP3   OH243885   2.018   0.941   3.604
14643TIP3    H143886   1.923   0.955   3.609
14643TIP3    H243887   2.040   0.898   3.687
14644TIP3   OH243888   4.056   2.086   1.065
14644TIP3    H143889   3.976   2.137   1.052
14644TIP3    H243890   4.121   2.128   1.009
14645TIP3   OH243891   6.774   4.347   6.639
14645TIP3    H143892   6.852   4.401   6.629
14645TIP3    H243893   6.795   4.286   6.709
14646TIP3   OH243894   3.781   1.801   2.570
14646TIP3    H143895   3.702   1.766   2.610
14646TIP3    H243896   3.812   1.867   2.632
14647TIP3   OH243897   4.372   2.540   4.532
14647TIP3    H143898   4.388   2.517   4.624
14647TIP3    H243899   4.277   2.536   4.523
14648TIP3   OH243900   3.181   7.596   2.472
14648TIP3    H143901   3.195   7.652   2.395
14648TIP3    H243902   3.254   7.616   2.530
14649TIP3   OH243903   7.601   1.949   4.925
14649TIP3    H143904   7.515   1.919   4.953
14649TIP3    H243905   7.583   2.017   4.860
14650TIP3   OH243906   6.779   4.624   3.734
14650TIP3    H143907   6.842   4.614   3.805
14650TIP3    H243908   6.755   4.534   3.710
14651TIP3   OH243909   1.890   7.686   2.850
14651TIP3    H143910   1.890   7.705   2.944
14651TIP3    H243911   1.797   7.681   2.827
14652TIP3   OH243912   3.480   3.200   2.593
14652TIP3    H143913   3.422   3.127   2.617
14652TIP3    H243914   3.433   3.278   2.621
14653TIP3   OH243915   2.595   2.698   5.502
14653TIP3    H143916   2.663   2.761   5.478
14653TIP3    H243917   2.548   2.682   5.420
14654TIP3   OH243918   6.976   2.212   0.833
14654TIP3    H143919   6.929   2.295   0.841
14654TIP3    H243920   6.906   2.146   0.831
14655TIP3   OH243921   5.962   4.978   1.787
14655TIP3    H143922   5.939   5.054   1.840
14655TIP3    H243923   6.037   4.940   1.833
14656TIP3   OH243924   5.362   4.428   4.255
14656TIP3    H143925   5.456   4.411   4.259
14656TIP3    H243926   5.341   4.469   4.339
14657TIP3   OH243927   4.208   3.546   4.759
14657TIP3    H143928   4.244   3.466   4.722
14657TIP3    H243929   4.162   3.588   4.687
14658TIP3   OH243930   3.048   4.145   1.260
14658TIP3    H143931   3.141   4.154   1.282
14658TIP3    H243932   3.046   4.139   1.164
14659TIP3   OH243933   1.579   4.845   1.682
14659TIP3    H143934   1.546   4.865   1.595
14659TIP3    H243935   1.523   4.774   1.714
14660TIP3   OH243936   7.512   6.254   4.761
14660TIP3    H143937   7.601   6.220   4.770
14660TIP3    H243938   7.481   6.221   4.677
14661TIP3   OH243939   3.721   2.049   1.130
14661TIP3    H143940   3.790   2.110   1.103
14661TIP3    H243941   3.641   2.088   1.096
14662TIP3   OH243942   0.836   0.082   1.165
14662TIP3    H143943   0.854   0.099   1.258
14662TIP3    H243944   0.897   0.013   1.141
14663TIP3   OH243945   4.360   2.880   4.795
14663TIP3    H143946   4.317   2.896   4.879
14663TIP3    H243947   4.290   2.845   4.739
14664TIP3   OH243948   1.749   3.153   2.890
14664TIP3    H143949   1.693   3.231   2.886
14664TIP3    H243950   1.798   3.163   2.971
14665TIP3   OH243951   3.479   2.022   6.741
14665TIP3    H143952   3.441   2.064   6.664
14665TIP3    H243953   3.478   1.928   6.719
14666TIP3   OH243954   8.000   7.119   1.776
14666TIP3    H143955   7.939   7.112   1.702
14666TIP3    H243956   8.072   7.061   1.753
14667TIP3   OH243957   4.280   6.197   6.351
14667TIP3    H143958   4.347   6.187   6.283
14667TIP3    H243959   4.215   6.255   6.311
14668TIP3   OH243960   7.576   0.169   6.627
14668TIP3    H143961   7.510   0.224   6.668
14668TIP3    H243962   7.564   0.183   6.533
14669TIP3   OH243963   4.925   3.125   3.788
14669TIP3    H143964   4.941   3.094   3.698
14669TIP3    H243965   4.906   3.218   3.778
14670TIP3   OH243966   0.948   7.580   0.304
14670TIP3    H143967   0.911   7.497   0.276
14670TIP3    H243968   0.914   7.594   0.392
14671TIP3   OH243969   1.132   5.831   4.588
14671TIP3    H143970   1.122   5.793   4.500
14671TIP3    H243971   1.075   5.908   4.588
14672TIP3   OH243972   5.261   5.154   1.643
14672TIP3    H143973   5.303   5.137   1.728
14672TIP3    H243974   5.293   5.240   1.617
14673TIP3   OH243975   3.806   3.050   2.027
14673TIP3    H143976   3.724   3.001   2.035
14673TIP3    H243977   3.819   3.061   1.933
14674TIP3   OH243978   1.470   6.415   0.228
14674TIP3    H143979   1.442   6.457   0.147
14674TIP3    H243980   1.494   6.326   0.201
14675TIP3   OH243981   1.815   1.698   0.181
14675TIP3    H143982   1.828   1.658   0.095
14675TIP3    H243983   1.899   1.686   0.226
14676TIP3   OH243984   3.129   5.257   5.222
14676TIP3    H143985   3.111   5.332   5.165
14676TIP3    H243986   3.053   5.200   5.211
14677TIP3   OH243987   7.960   6.660   2.453
14677TIP3    H143988   7.879   6.676   2.406
14677TIP3    H243989   7.995   6.748   2.471
14678TIP3   OH243990   3.822   3.086   3.506
14678TIP3    H143991   3.796   2.995   3.490
14678TIP3    H243992   3.741   3.136   3.499
14679TIP3   OH243993   8.250   2.236   0.722
14679TIP3    H143994   8.177   2.291   0.693
14679TIP3    H243995   8.259   2.255   0.815
14680TIP3   OH243996   6.729   2.786   0.571
14680TIP3    H143997   6.795   2.718   0.559
14680TIP3    H243998   6.771   2.866   0.538
14681TIP3   OH243999   3.675   2.769   4.577
14681TIP3    H144000   3.724   2.732   4.504
14681TIP3    H244001   3.722   2.740   4.655
14682TIP3   OH244002   4.324   7.483   3.369
14682TIP3    H144003   4.338   7.567   3.412
14682TIP3    H244004   4.366   7.419   3.428
14683TIP3   OH244005   6.258   7.781   5.422
14683TIP3    H144006   6.321   7.712   5.442
14683TIP3    H244007   6.213   7.797   5.505
14684TIP3   OH244008   6.906   5.026   2.654
14684TIP3    H144009   6.857   5.040   2.574
14684TIP3    H244010   6.844   5.045   2.724
14685TIP3   OH244011   2.082   5.272   3.362
14685TIP3    H144012   2.140   5.264   3.437
14685TIP3    H244013   2.044   5.360   3.370
14686TIP3   OH244014   5.372   6.595   6.759
14686TIP3    H144015   5.284   6.592   6.724
14686TIP3    H244016   5.397   6.688   6.753
14687TIP3   OH244017   0.594   1.480   0.466
14687TIP3    H144018   0.549   1.421   0.405
14687TIP3    H244019   0.650   1.534   0.411
14688TIP3   OH244020   4.460   5.222   4.560
14688TIP3    H144021   4.496   5.232   4.472
14688TIP3    H244022   4.379   5.172   4.548
14689TIP3   OH244023   1.864   0.945   4.853
14689TIP3    H144024   1.911   0.938   4.936
14689TIP3    H244025   1.829   1.034   4.852
14690TIP3   OH244026   3.684   2.445   2.699
14690TIP3    H144027   3.662   2.352   2.711
14690TIP3    H244028   3.682   2.458   2.604
14691TIP3   OH244029   2.741   4.109   1.083
14691TIP3    H144030   2.721   4.023   1.047
14691TIP3    H244031   2.662   4.161   1.064
14692TIP3   OH244032   4.377   5.439   2.272
14692TIP3    H144033   4.371   5.368   2.208
14692TIP3    H244034   4.375   5.519   2.220
14693TIP3   OH244035   4.538   2.294   5.314
14693TIP3    H144036   4.524   2.344   5.233
14693TIP3    H244037   4.627   2.262   5.307
14694TIP3   OH244038   5.794   1.498   2.856
14694TIP3    H144039   5.821   1.482   2.946
14694TIP3    H244040   5.757   1.587   2.857
14695TIP3   OH244041   3.516   1.391   6.581
14695TIP3    H144042   3.562   1.464   6.540
14695TIP3    H244043   3.447   1.368   6.518
14696TIP3   OH244044  -0.001   0.842   2.251
14696TIP3    H144045   0.023   0.933   2.265
14696TIP3    H244046   0.017   0.799   2.334
14697TIP3   OH244047   4.159   2.627   0.299
14697TIP3    H144048   4.212   2.705   0.315
14697TIP3    H244049   4.172   2.573   0.378
14698TIP3   OH244050   1.740   5.937   6.405
14698TIP3    H144051   1.666   5.969   6.353
14698TIP3    H244052   1.772   5.861   6.356
14699TIP3   OH244053   7.883   0.825   3.152
14699TIP3    H144054   7.823   0.899   3.139
14699TIP3    H244055   7.872   0.802   3.244
14700TIP3   OH244056   8.218   0.851   5.701
14700TIP3    H144057   8.212   0.942   5.730
14700TIP3    H244058   8.290   0.814   5.753
14701TIP3   OH244059   5.081   0.815   6.273
14701TIP3    H144060   5.024   0.886   6.303
14701TIP3    H244061   5.048   0.794   6.186
14702TIP3   OH244062   0.511   6.474   3.224
14702TIP3    H144063   0.476   6.562   3.240
14702TIP3    H244064   0.605   6.482   3.239
14703TIP3   OH244065   5.821   1.234   5.523
14703TIP3    H144066   5.784   1.322   5.513
14703TIP3    H244067   5.827   1.201   5.434
14704TIP3   OH244068   2.462   2.428   4.177
14704TIP3    H144069   2.512   2.441   4.096
14704TIP3    H244070   2.435   2.517   4.203
14705TIP3   OH244071   5.919   4.396   3.612
14705TIP3    H144072   5.997   4.414   3.665
14705TIP3    H244073   5.881   4.483   3.596
14706TIP3   OH244074   6.057   3.357   6.738
14706TIP3    H144075   6.016   3.271   6.737
14706TIP3    H244076   6.088   3.370   6.648
14707TIP3   OH244077   0.696   0.116   4.043
14707TIP3    H144078   0.702   0.170   3.964
14707TIP3    H244079   0.650   0.171   4.106
14708TIP3   OH244080   7.365   1.540   1.049
14708TIP3    H144081   7.420   1.584   1.114
14708TIP3    H244082   7.325   1.611   0.999
14709TIP3   OH244083   3.032   5.649   3.849
14709TIP3    H144084   3.070   5.577   3.900
14709TIP3    H244085   2.944   5.618   3.826
14710TIP3   OH244086   5.960   7.069   5.451
14710TIP3    H144087   6.018   7.048   5.524
14710TIP3    H244088   5.933   6.984   5.416
14711TIP3   OH244089   5.160   7.584   3.150
14711TIP3    H144090   5.096   7.589   3.079
14711TIP3    H244091   5.245   7.581   3.105
14712TIP3   OH244092   5.575   1.731   1.949
14712TIP3    H144093   5.582   1.769   1.862
14712TIP3    H244094   5.502   1.779   1.990
14713TIP3   OH244095   1.021   6.000   4.323
14713TIP3    H144096   0.952   6.036   4.378
14713TIP3    H244097   1.087   6.069   4.320
14714TIP3   OH244098   4.265   6.605   5.269
14714TIP3    H144099   4.240   6.551   5.344
14714TIP3    H244100   4.192   6.594   5.207
14715TIP3   OH244101   4.853   3.599   3.445
14715TIP3    H144102   4.900   3.611   3.362
14715TIP3    H244103   4.920   3.566   3.505
14716TIP3   OH244104   0.221   1.394   1.115
14716TIP3    H144105   0.191   1.337   1.045
14716TIP3    H244106   0.142   1.418   1.163
14717TIP3   OH244107   1.913   7.116   4.636
14717TIP3    H144108   2.000   7.143   4.605
14717TIP3    H244109   1.871   7.196   4.665
14718TIP3   OH244110   0.838   5.160   5.845
14718TIP3    H144111   0.827   5.066   5.830
14718TIP3    H244112   0.773   5.181   5.913
14719TIP3   OH244113   3.370   2.083   5.127
14719TIP3    H144114   3.400   2.055   5.041
14719TIP3    H244115   3.276   2.101   5.115
14720TIP3   OH244116   3.846   5.873   3.490
14720TIP3    H144117   3.939   5.866   3.468
14720TIP3    H244118   3.828   5.794   3.542
14721TIP3   OH244119   6.938   4.898   0.834
14721TIP3    H144120   6.895   4.876   0.751
14721TIP3    H244121   6.959   4.814   0.874
14722TIP3   OH244122   3.892   2.229   2.657
14722TIP3    H144123   3.969   2.276   2.625
14722TIP3    H244124   3.831   2.230   2.584
14723TIP3   OH244125   6.929   3.963   0.670
14723TIP3    H144126   7.009   3.938   0.624
14723TIP3    H244127   6.886   4.025   0.610
14724TIP3   OH244128   2.425   3.438   0.128
14724TIP3    H144129   2.347   3.490   0.114
14724TIP3    H244130   2.457   3.464   0.214
14725TIP3   OH244131   6.322   6.495   1.263
14725TIP3    H144132   6.356   6.414   1.303
14725TIP3    H244133   6.242   6.514   1.311
14726TIP3   OH244134   1.181   1.311   6.134
14726TIP3    H144135   1.110   1.247   6.145
14726TIP3    H244136   1.162   1.380   6.196
14727TIP3   OH244137   5.731   1.702   4.261
14727TIP3    H144138   5.762   1.634   4.202
14727TIP3    H244139   5.702   1.655   4.339
14728TIP3   OH244140   7.450   2.748   5.742
14728TIP3    H144141   7.452   2.770   5.835
14728TIP3    H244142   7.490   2.661   5.737
14729TIP3   OH244143   5.262   4.901   2.234
14729TIP3    H144144   5.196   4.965   2.260
14729TIP3    H244145   5.212   4.833   2.188
14730TIP3   OH244146   1.366   1.350   3.648
14730TIP3    H144147   1.293   1.401   3.684
14730TIP3    H244148   1.363   1.267   3.694
14731TIP3   OH244149   7.153   3.381   5.357
14731TIP3    H144150   7.073   3.422   5.325
14731TIP3    H244151   7.123   3.322   5.426
14732TIP3   OH244152   7.586   7.664   5.254
14732TIP3    H144153   7.633   7.747   5.268
14732TIP3    H244154   7.508   7.672   5.309
14733TIP3   OH244155   3.465   1.920   1.307
14733TIP3    H144156   3.443   1.829   1.285
14733TIP3    H244157   3.440   1.970   1.229
14734TIP3   OH244158   5.884   3.373   0.380
14734TIP3    H144159   5.875   3.297   0.322
14734TIP3    H244160   5.976   3.372   0.406
14735TIP3   OH244161   7.230   3.697   5.287
14735TIP3    H144162   7.139   3.716   5.307
14735TIP3    H244163   7.255   3.628   5.348
14736TIP3   OH244164   1.302   4.674   2.819
14736TIP3    H144165   1.392   4.675   2.785
14736TIP3    H244166   1.310   4.703   2.910
14737TIP3   OH244167   5.835   4.636   2.122
14737TIP3    H144168   5.866   4.720   2.089
14737TIP3    H244169   5.835   4.646   2.217
14738TIP3   OH244170   5.327   2.264   6.278
14738TIP3    H144171   5.266   2.334   6.305
14738TIP3    H244172   5.412   2.307   6.273
14739TIP3   OH244173   1.410   1.116   3.825
14739TIP3    H144174   1.445   1.156   3.905
14739TIP3    H244175   1.438   1.024   3.830
14740TIP3   OH244176   8.120   0.083   2.131
14740TIP3    H144177   8.201   0.126   2.104
14740TIP3    H244178   8.087   0.137   2.203
14741TIP3   OH244179   3.786   1.869   4.855
14741TIP3    H144180   3.855   1.934   4.868
14741TIP3    H244181   3.754   1.850   4.943
14742TIP3   OH244182   3.840   7.723   0.890
14742TIP3    H144183   3.812   7.699   0.802
14742TIP3    H244184   3.758   7.738   0.938
14743TIP3   OH244185   7.478   4.442   2.657
14743TIP3    H144186   7.539   4.382   2.700
14743TIP3    H244187   7.458   4.507   2.723
14744TIP3   OH244188   0.467   2.827   5.910
14744TIP3    H144189   0.484   2.745   5.957
14744TIP3    H244190   0.532   2.827   5.839
14745TIP3   OH244191   1.644   0.534   3.401
14745TIP3    H144192   1.727   0.574   3.427
14745TIP3    H244193   1.589   0.608   3.375
14746TIP3   OH244194   0.918   6.137   2.377
14746TIP3    H144195   0.975   6.202   2.417
14746TIP3    H244196   0.935   6.146   2.283
14747TIP3   OH244197   5.682   4.841   6.584
14747TIP3    H144198   5.763   4.886   6.608
14747TIP3    H244199   5.711   4.755   6.553
14748TIP3   OH244200   2.391   3.012   0.760
14748TIP3    H144201   2.482   2.987   0.742
14748TIP3    H244202   2.396   3.064   0.840
14749TIP3   OH244203   6.417   1.415   6.055
14749TIP3    H144204   6.492   1.400   5.996
14749TIP3    H244205   6.457   1.446   6.137
14750TIP3   OH244206   2.845   2.907   3.663
14750TIP3    H144207   2.849   2.959   3.743
14750TIP3    H244208   2.841   2.816   3.693
14751TIP3   OH244209   5.831   7.339   5.429
14751TIP3    H144210   5.910   7.388   5.409
14751TIP3    H244211   5.861   7.248   5.438
14752TIP3   OH244212   1.043   0.498   1.053
14752TIP3    H144213   1.139   0.497   1.061
14752TIP3    H244214   1.013   0.549   1.128
14753TIP3   OH244215   7.368   0.567   0.139
14753TIP3    H144216   7.340   0.558   0.048
14753TIP3    H244217   7.336   0.487   0.182
14754TIP3   OH244218   4.829   3.043   2.955
14754TIP3    H144219   4.750   2.988   2.951
14754TIP3    H244220   4.890   3.001   2.895
14755TIP3   OH244221   4.558   6.502   2.108
14755TIP3    H144222   4.592   6.415   2.088
14755TIP3    H244223   4.557   6.507   2.203
14756TIP3   OH244224   1.822   0.603   2.942
14756TIP3    H144225   1.773   0.684   2.927
14756TIP3    H244226   1.754   0.538   2.960
14757TIP3   OH244227   1.149   6.985   3.048
14757TIP3    H144228   1.099   7.040   2.989
14757TIP3    H244229   1.134   7.022   3.135
14758TIP3   OH244230   0.992   1.891   3.049
14758TIP3    H144231   1.084   1.914   3.062
14758TIP3    H244232   0.994   1.809   3.000
14759TIP3   OH244233   4.559   4.855   2.775
14759TIP3    H144234   4.590   4.932   2.727
14759TIP3    H244235   4.507   4.892   2.847
14760TIP3   OH244236   8.112   4.272   5.447
14760TIP3    H144237   8.141   4.344   5.503
14760TIP3    H244238   8.163   4.283   5.366
14761TIP3   OH244239   8.203   2.197   5.548
14761TIP3    H144240   8.225   2.112   5.509
14761TIP3    H244241   8.178   2.252   5.475
14762TIP3   OH244242   2.175   2.903   2.122
14762TIP3    H144243   2.260   2.858   2.122
14762TIP3    H244244   2.196   2.992   2.094
14763TIP3   OH244245   1.124   5.663   4.807
14763TIP3    H144246   1.132   5.720   4.730
14763TIP3    H244247   1.035   5.679   4.839
14764TIP3   OH244248   5.509   2.201   2.544
14764TIP3    H144249   5.482   2.264   2.477
14764TIP3    H244250   5.441   2.134   2.543
14765TIP3   OH244251   6.703   2.110   2.812
14765TIP3    H144252   6.746   2.119   2.727
14765TIP3    H244253   6.750   2.170   2.870
14766TIP3   OH244254   7.370   4.188   6.541
14766TIP3    H144255   7.276   4.179   6.524
14766TIP3    H244256   7.380   4.276   6.575
14767TIP3   OH244257   3.794   3.814   3.563
14767TIP3    H144258   3.870   3.842   3.614
14767TIP3    H244259   3.820   3.826   3.472
14768TIP3   OH244260   8.180   5.069   3.992
14768TIP3    H144261   8.224   5.151   3.972
14768TIP3    H244262   8.159   5.076   4.085
14769TIP3   OH244263   5.909   7.492   2.335
14769TIP3    H144264   5.874   7.506   2.247
14769TIP3    H244265   5.943   7.578   2.361
14770TIP3   OH244266   8.116   0.665   5.962
14770TIP3    H144267   8.163   0.748   5.957
14770TIP3    H244268   8.042   0.682   6.021
14771TIP3   OH244269   6.593   7.652   6.559
14771TIP3    H144270   6.592   7.568   6.605
14771TIP3    H244271   6.604   7.629   6.467
14772TIP3   OH244272   7.127   3.654   1.585
14772TIP3    H144273   7.070   3.636   1.659
14772TIP3    H244274   7.105   3.743   1.558
14773TIP3   OH244275   1.816   6.025   3.213
14773TIP3    H144276   1.851   5.945   3.253
14773TIP3    H244277   1.739   6.046   3.266
14774TIP3   OH244278   5.100   4.790   3.518
14774TIP3    H144279   5.192   4.775   3.501
14774TIP3    H244280   5.098   4.876   3.561
14775TIP3   OH244281   5.628   6.182   2.277
14775TIP3    H144282   5.626   6.090   2.248
14775TIP3    H244283   5.701   6.185   2.339
14776TIP3   OH244284   1.141   0.864   4.245
14776TIP3    H144285   1.197   0.856   4.168
14776TIP3    H244286   1.063   0.812   4.224
14777TIP3   OH244287   5.070   0.946   4.403
14777TIP3    H144288   5.090   1.034   4.434
14777TIP3    H244289   5.151   0.916   4.361
14778TIP3   OH244290   6.373   5.003   1.403
14778TIP3    H144291   6.285   5.020   1.435
14778TIP3    H244292   6.405   4.932   1.460
14779TIP3   OH244293   5.614   1.950   5.660
14779TIP3    H144294   5.704   1.980   5.668
14779TIP3    H244295   5.582   1.948   5.750
14780TIP3   OH244296   1.867   4.444   4.405
14780TIP3    H144297   1.904   4.368   4.450
14780TIP3    H244298   1.943   4.490   4.368
14781TIP3   OH244299   7.138   2.060   1.005
14781TIP3    H144300   7.204   2.069   0.937
14781TIP3    H244301   7.066   2.115   0.977
14782TIP3   OH244302   2.995   3.446   6.195
14782TIP3    H144303   2.948   3.510   6.248
14782TIP3    H244304   2.947   3.364   6.209
14783TIP3   OH244305   0.366   7.626   3.709
14783TIP3    H144306   0.370   7.530   3.707
14783TIP3    H244307   0.282   7.646   3.749
14784TIP3   OH244308   4.180   5.383   5.532
14784TIP3    H144309   4.087   5.387   5.552
14784TIP3    H244310   4.210   5.301   5.571
14785TIP3   OH244311   3.647   7.107   0.805
14785TIP3    H144312   3.605   7.024   0.784
14785TIP3    H244313   3.719   7.083   0.864
14786TIP3   OH244314   0.119   6.990   4.832
14786TIP3    H144315   0.131   6.905   4.788
14786TIP3    H244316   0.202   7.006   4.876
14787TIP3   OH244317   7.556   6.678   2.920
14787TIP3    H144318   7.640   6.666   2.964
14787TIP3    H244319   7.571   6.748   2.857
14788TIP3   OH244320   0.334   7.779   5.850
14788TIP3    H144321   0.365   7.764   5.939
14788TIP3    H244322   0.331   7.874   5.841
14789TIP3   OH244323   1.762   3.475   0.314
14789TIP3    H144324   1.857   3.479   0.320
14789TIP3    H244325   1.744   3.399   0.258
14790TIP3   OH244326   5.924   3.967   4.934
14790TIP3    H144327   5.978   3.979   5.012
14790TIP3    H244328   5.844   3.926   4.966
14791TIP3   OH244329   2.785   5.266   2.692
14791TIP3    H144330   2.711   5.316   2.727
14791TIP3    H244331   2.836   5.243   2.770
14792TIP3   OH244332   0.961   4.020   4.873
14792TIP3    H144333   0.979   3.930   4.898
14792TIP3    H244334   1.005   4.073   4.940
14793TIP3   OH244335   1.583   3.528   3.136
14793TIP3    H144336   1.577   3.572   3.221
14793TIP3    H244337   1.519   3.458   3.141
14794TIP3   OH244338   4.580   4.475   4.223
14794TIP3    H144339   4.640   4.401   4.232
14794TIP3    H244340   4.563   4.503   4.313
14795TIP3   OH244341   1.670   1.333   3.435
14795TIP3    H144342   1.692   1.252   3.479
14795TIP3    H244343   1.677   1.400   3.503
14796TIP3   OH244344   2.262   5.547   3.352
14796TIP3    H144345   2.352   5.518   3.336
14796TIP3    H244346   2.262   5.571   3.445
14797TIP3   OH244347   2.233   1.004   4.489
14797TIP3    H144348   2.150   1.051   4.502
14797TIP3    H244349   2.215   0.944   4.416
14798TIP3   OH244350   4.137   5.652   6.638
14798TIP3    H144351   4.102   5.578   6.590
14798TIP3    H244352   4.068   5.676   6.700
14799TIP3   OH244353   8.090   6.535   6.630
14799TIP3    H144354   8.155   6.602   6.652
14799TIP3    H244355   8.007   6.570   6.662
14800TIP3   OH244356   8.202   5.440   2.094
14800TIP3    H144357   8.151   5.447   2.014
14800TIP3    H244358   8.244   5.525   2.104
14801TIP3   OH244359   1.411   0.679   0.358
14801TIP3    H144360   1.380   0.769   0.349
14801TIP3    H244361   1.335   0.625   0.336
14802TIP3   OH244362   8.263   2.386   1.623
14802TIP3    H144363   8.243   2.348   1.708
14802TIP3    H244364   8.302   2.471   1.644
14803TIP3   OH244365   3.106   6.772   4.032
14803TIP3    H144366   3.100   6.700   3.970
14803TIP3    H244367   3.100   6.730   4.118
14804TIP3   OH244368   4.306   0.628   1.620
14804TIP3    H144369   4.230   0.591   1.666
14804TIP3    H244370   4.290   0.610   1.528
14805TIP3   OH244371   4.735   2.892   5.179
14805TIP3    H144372   4.641   2.906   5.188
14805TIP3    H244373   4.757   2.931   5.094
14806TIP3   OH244374   3.184   4.719   4.031
14806TIP3    H144375   3.264   4.684   3.991
14806TIP3    H244376   3.149   4.646   4.082
14807TIP3   OH244377   1.271   1.042   4.784
14807TIP3    H144378   1.350   0.992   4.764
14807TIP3    H244379   1.243   1.009   4.869
14808TIP3   OH244380   7.992   7.650   6.544
14808TIP3    H144381   8.026   7.582   6.486
14808TIP3    H244382   7.915   7.611   6.586
14809TIP3   OH244383   0.700   7.100   0.733
14809TIP3    H144384   0.744   7.169   0.783
14809TIP3    H244385   0.761   7.027   0.735
14810TIP3   OH244386   7.718   3.466   4.926
14810TIP3    H144387   7.765   3.505   5.000
14810TIP3    H244388   7.787   3.439   4.865
14811TIP3   OH244389   4.717   1.521   4.208
14811TIP3    H144390   4.649   1.549   4.146
14811TIP3    H244391   4.799   1.530   4.159
14812TIP3   OH244392   1.985   4.419   6.216
14812TIP3    H144393   2.050   4.358   6.251
14812TIP3    H244394   1.906   4.402   6.267
14813TIP3   OH244395   0.521   7.004   3.456
14813TIP3    H144396   0.510   6.983   3.364
14813TIP3    H244397   0.438   7.043   3.482
14814TIP3   OH244398   7.583   3.234   3.509
14814TIP3    H144399   7.659   3.179   3.525
14814TIP3    H244400   7.575   3.287   3.589
14815TIP3   OH244401   4.251   0.795   4.333
14815TIP3    H144402   4.283   0.861   4.394
14815TIP3    H244403   4.328   0.772   4.280
14816TIP3   OH244404   2.311   7.658   4.173
14816TIP3    H144405   2.366   7.605   4.115
14816TIP3    H244406   2.374   7.701   4.232
14817TIP3   OH244407   4.806   7.223   6.221
14817TIP3    H144408   4.720   7.260   6.200
14817TIP3    H244409   4.799   7.197   6.313
14818TIP3   OH244410   6.291   1.775   5.954
14818TIP3    H144411   6.324   1.834   6.022
14818TIP3    H244412   6.368   1.756   5.900
14819TIP3   OH244413   1.132   0.278   6.606
14819TIP3    H144414   1.094   0.333   6.538
14819TIP3    H244415   1.060   0.222   6.635
14820TIP3   OH244416   1.983   1.987   1.910
14820TIP3    H144417   2.030   1.944   1.839
14820TIP3    H244418   1.890   1.976   1.888
14821TIP3   OH244419   6.080   3.304   2.595
14821TIP3    H144420   6.094   3.231   2.535
14821TIP3    H244421   6.047   3.264   2.675
14822TIP3   OH244422   2.301   6.938   2.401
14822TIP3    H144423   2.279   6.961   2.311
14822TIP3    H244424   2.340   6.851   2.395
14823TIP3   OH244425   0.595   7.097   2.797
14823TIP3    H144426   0.537   7.156   2.748
14823TIP3    H244427   0.676   7.147   2.807
14824TIP3   OH244428   1.177   1.299   4.776
14824TIP3    H144429   1.110   1.311   4.708
14824TIP3    H244430   1.196   1.205   4.773
14825TIP3   OH244431   2.204   2.921   0.523
14825TIP3    H144432   2.118   2.953   0.550
14825TIP3    H244433   2.266   2.981   0.564
14826TIP3   OH244434   4.587   4.095   6.403
14826TIP3    H144435   4.527   4.064   6.471
14826TIP3    H244436   4.664   4.126   6.451
14827TIP3   OH244437   6.770   2.810  -0.002
14827TIP3    H144438   6.692   2.859  -0.028
14827TIP3    H244439   6.797   2.851   0.080
14828TIP3   OH244440   7.193   0.503   3.229
14828TIP3    H144441   7.173   0.591   3.258
14828TIP3    H244442   7.134   0.487   3.156
14829TIP3   OH244443   8.280   4.594   3.182
14829TIP3    H144444   8.329   4.641   3.114
14829TIP3    H244445   8.188   4.603   3.154
14830TIP3   OH244446   5.002   0.648   2.732
14830TIP3    H144447   4.922   0.690   2.762
14830TIP3    H244448   4.977   0.600   2.654
14831TIP3   OH244449   6.154   5.102   4.724
14831TIP3    H144450   6.089   5.080   4.658
14831TIP3    H244451   6.107   5.154   4.788
14832TIP3   OH244452   7.051   3.485   2.337
14832TIP3    H144453   7.053   3.407   2.392
14832TIP3    H244454   6.959   3.495   2.312
14833TIP3   OH244455   4.779   3.865   1.634
14833TIP3    H144456   4.722   3.820   1.571
14833TIP3    H244457   4.828   3.795   1.677
14834TIP3   OH244458   0.089   4.013   3.470
14834TIP3    H144459   0.122   4.099   3.443
14834TIP3    H244460   0.149   3.986   3.541
14835TIP3   OH244461   6.460   6.581   1.926
14835TIP3    H144462   6.444   6.523   1.851
14835TIP3    H244463   6.388   6.562   1.986
14836TIP3   OH244464   1.060   4.898   4.759
14836TIP3    H144465   1.117   4.894   4.835
14836TIP3    H244466   1.006   4.975   4.773
14837TIP3   OH244467   5.585   2.665   2.231
14837TIP3    H144468   5.549   2.750   2.205
14837TIP3    H244469   5.654   2.648   2.167
   8.28988   7.81576   6.76865   0.00000   0.00000  -2.76329   0.00000  -2.76329  -3.90789
