* SET NIONTYPES = 1
* SET NPOSTOT = 66
* SET NNEGTOT = 65
* SET NIONTOT = 131
*  DATE:     6/13/26      7:38:56      CREATED BY USER: charmm-gui
*
       131  EXT
         1         1  LIT       LIT            17.3116782109       15.4011918891       48.8600127215  IONS      1               1.0000000000
         2         2  LIT       LIT           -47.4645987784       -9.2050318271      -18.8432145891  IONS      2               1.0000000000
         3         3  LIT       LIT           -42.7366021385       -9.6485061663       -9.2463222445  IONS      3               1.0000000000
         4         4  LIT       LIT            32.1112524753        9.4838241268       21.4177997144  IONS      4               1.0000000000
         5         5  LIT       LIT           -21.5649096444       15.7361978782       44.4992488073  IONS      5               1.0000000000
         6         6  LIT       LIT             8.3865957721       25.8732733434        4.9789495794  IONS      6               1.0000000000
         7         7  LIT       LIT             2.1793886811       47.9847042797      -11.9160467026  IONS      7               1.0000000000
         8         8  LIT       LIT           -40.2439077312        8.3342679206        1.3862495656  IONS      8               1.0000000000
         9         9  LIT       LIT           -36.6668544163       24.5989522293       12.1208280073  IONS      9               1.0000000000
        10        10  LIT       LIT           -19.3888084720      -10.1233249860       31.5322347993  IONS      10              1.0000000000
        11        11  LIT       LIT           -15.7573511572      -23.1658736738      -13.8994276286  IONS      11              1.0000000000
        12        12  LIT       LIT            27.5087006598       37.8784037835        6.6671912107  IONS      12              1.0000000000
        13        13  LIT       LIT            19.2144656917       -9.8981792668        8.6624207591  IONS      13              1.0000000000
        14        14  LIT       LIT            49.4486625300       -3.1312956668        4.1124877819  IONS      14              1.0000000000
        15        15  LIT       LIT           -21.3899088972        6.8219141586       14.2775454735  IONS      15              1.0000000000
        16        16  LIT       LIT           -37.1940992659      -30.4966494519        9.8358039344  IONS      16              1.0000000000
        17        17  LIT       LIT           -36.2818325452        1.8508436198      -30.7280510181  IONS      17              1.0000000000
        18        18  LIT       LIT            14.5949677020      -19.1688527231       45.9279081081  IONS      18              1.0000000000
        19        19  LIT       LIT            30.3516836483      -11.5800527074       20.7655897142  IONS      19              1.0000000000
        20        20  LIT       LIT            24.3892201770       27.5783350664       16.7226334726  IONS      20              1.0000000000
        21        21  LIT       LIT            -0.1292036036      -24.4324458092      -13.5858337599  IONS      21              1.0000000000
        22        22  LIT       LIT            25.6677213746        0.5534685006       47.6013177947  IONS      22              1.0000000000
        23        23  LIT       LIT           -47.1220832866      -17.8430974941      -18.0697642680  IONS      23              1.0000000000
        24        24  LIT       LIT            26.0516827570       34.2000725695       18.8092682860  IONS      24              1.0000000000
        25        25  LIT       LIT            38.3106519909       22.6483676432       14.5079548126  IONS      25              1.0000000000
        26        26  LIT       LIT            28.7058341922       14.5709940052       -0.0580609807  IONS      26              1.0000000000
        27        27  LIT       LIT            38.3403441233        3.0190577172       32.4876831641  IONS      27              1.0000000000
        28        28  LIT       LIT           -33.5840624106      -17.1973607850       38.6909526805  IONS      28              1.0000000000
        29        29  LIT       LIT            -1.1289127868        5.4006308431        4.4869833359  IONS      29              1.0000000000
        30        30  LIT       LIT           -13.7968289231      -47.1180107328       -1.1024110567  IONS      30              1.0000000000
        31        31  LIT       LIT            25.8470912617       21.2253924336      -18.1016137850  IONS      31              1.0000000000
        32        32  LIT       LIT           -45.2786708519       18.8484585544       -0.9891758572  IONS      32              1.0000000000
        33        33  LIT       LIT            14.3694116018      -50.5084474170      -22.9739863193  IONS      33              1.0000000000
        34        34  LIT       LIT           -46.1462568525       -5.0755387340       -7.0677044868  IONS      34              1.0000000000
        35        35  LIT       LIT            37.6107915985       29.9088652925      -27.3939019374  IONS      35              1.0000000000
        36        36  LIT       LIT            10.5047199840       27.7750579561      -30.8403981817  IONS      36              1.0000000000
        37        37  LIT       LIT           -14.8146050899      -26.5526429021      -29.9129910308  IONS      37              1.0000000000
        38        38  LIT       LIT           -16.3519443890       19.8276183781      -47.9135565105  IONS      38              1.0000000000
        39        39  LIT       LIT            22.5679685097       24.4687642233       28.5408325581  IONS      39              1.0000000000
        40        40  LIT       LIT           -10.0391672613      -43.0438147525        8.0648693183  IONS      40              1.0000000000
        41        41  LIT       LIT             7.5230485294      -15.2813193771       18.6050270033  IONS      41              1.0000000000
        42        42  LIT       LIT            18.2955637369       21.6545455833       -4.6239465944  IONS      42              1.0000000000
        43        43  LIT       LIT           -22.3360840301       17.2546956205      -20.1672365756  IONS      43              1.0000000000
        44        44  LIT       LIT            -6.2640035630      -33.1273253171       15.7268142852  IONS      44              1.0000000000
        45        45  LIT       LIT           -12.7210309464      -26.2996936995       13.0681075874  IONS      45              1.0000000000
        46        46  LIT       LIT            -8.2288555174       38.3984881775      -16.6599074027  IONS      46              1.0000000000
        47        47  LIT       LIT            17.3744819723       34.3521083717       23.9862765674  IONS      47              1.0000000000
        48        48  LIT       LIT           -43.9291358083        0.5019594397       14.4179961109  IONS      48              1.0000000000
        49        49  LIT       LIT            10.6539741047      -27.8251995181       -1.9734545463  IONS      49              1.0000000000
        50        50  LIT       LIT             1.6394271878       20.0146500019      -24.4138904747  IONS      50              1.0000000000
        51        51  LIT       LIT            28.4245700261       19.5801403904      -33.9354928841  IONS      51              1.0000000000
        52        52  LIT       LIT           -29.4426174653      -37.0951850520       -6.0512177791  IONS      52              1.0000000000
        53        53  LIT       LIT           -10.5987917686      -36.8031265926      -25.2929677072  IONS      53              1.0000000000
        54        54  LIT       LIT             6.4143992539      -43.2332495798      -36.6838452164  IONS      54              1.0000000000
        55        55  LIT       LIT             6.6900441276       35.8547313886       27.4048206975  IONS      55              1.0000000000
        56        56  LIT       LIT            29.3814367021       28.4828174943       -2.6406399914  IONS      56              1.0000000000
        57        57  LIT       LIT            -8.1330169488       21.5539062122       25.0273115677  IONS      57              1.0000000000
        58        58  LIT       LIT            18.5410444537       48.4033362712      -16.3324101907  IONS      58              1.0000000000
        59        59  LIT       LIT            21.6327442761        1.3971204423      -16.7393342212  IONS      59              1.0000000000
        60        60  LIT       LIT            26.6615916988       33.8784063904      -14.1745861685  IONS      60              1.0000000000
        61        61  LIT       LIT           -14.9564489627       -9.1467952973       26.0112550198  IONS      61              1.0000000000
        62        62  LIT       LIT            19.1600833581       35.1793742471       23.1145291394  IONS      62              1.0000000000
        63        63  LIT       LIT            35.8200070268      -12.9593305556       -5.7664925762  IONS      63              1.0000000000
        64        64  LIT       LIT            22.8079526138       13.0219155932       29.9348202136  IONS      64              1.0000000000
        65        65  LIT       LIT            36.7045589279       16.3736656516       -1.1801356261  IONS      65              1.0000000000
        66        66  LIT       LIT            11.5438977035       34.8029896942      -11.7043328333  IONS      66              1.0000000000
        67        67  CLA       CLA             2.8318692173      -36.5813687422      -37.0062514816  IONS      67             -1.0000000000
        68        68  CLA       CLA            12.3430181705       39.2535724770       25.5112965485  IONS      68             -1.0000000000
        69        69  CLA       CLA            11.5456319827        9.3035355883       15.2237100859  IONS      69             -1.0000000000
        70        70  CLA       CLA            10.9251838451      -19.7378100919       14.5850324575  IONS      70             -1.0000000000
        71        71  CLA       CLA            41.7595565130      -23.3877856037      -12.1459643528  IONS      71             -1.0000000000
        72        72  CLA       CLA            17.1367319301       32.1303760538       10.4453566977  IONS      72             -1.0000000000
        73        73  CLA       CLA           -34.4944376923       -5.6646010136      -34.0772356738  IONS      73             -1.0000000000
        74        74  CLA       CLA           -17.0624607822       23.8287482309        4.5968862362  IONS      74             -1.0000000000
        75        75  CLA       CLA            14.9735249508       19.9223459750       25.1312840618  IONS      75             -1.0000000000
        76        76  CLA       CLA           -41.9072172720      -11.5683099752      -25.9400728500  IONS      76             -1.0000000000
        77        77  CLA       CLA            -8.1699546331      -31.7173721252      -24.8502927578  IONS      77             -1.0000000000
        78        78  CLA       CLA            -5.2021962675       -0.9402982904       48.0976921763  IONS      78             -1.0000000000
        79        79  CLA       CLA            19.8433542308      -13.5010836048       22.6000683927  IONS      79             -1.0000000000
        80        80  CLA       CLA            26.2590809283       11.1010646828       29.1849812098  IONS      80             -1.0000000000
        81        81  CLA       CLA           -15.1939695888       14.2476255674       48.5474893319  IONS      81             -1.0000000000
        82        82  CLA       CLA            20.2552322810       26.3960106977       37.4141900289  IONS      82             -1.0000000000
        83        83  CLA       CLA             9.2041519436       36.4611256969       -5.5326046969  IONS      83             -1.0000000000
        84        84  CLA       CLA           -11.3924577752      -18.6094032979      -13.8588549735  IONS      84             -1.0000000000
        85        85  CLA       CLA           -22.5010027040       27.1948066837      -36.2708609681  IONS      85             -1.0000000000
        86        86  CLA       CLA            44.8804711419       -6.4771923252       15.0008567271  IONS      86             -1.0000000000
        87        87  CLA       CLA            34.0300248068      -33.6148687008       27.0615435948  IONS      87             -1.0000000000
        88        88  CLA       CLA            23.2603531328       17.5234629093       20.7799643696  IONS      88             -1.0000000000
        89        89  CLA       CLA             0.2265465051       -2.3051810129       22.2795465034  IONS      89             -1.0000000000
        90        90  CLA       CLA           -12.4377295206       20.5509778061       44.4691016690  IONS      90             -1.0000000000
        91        91  CLA       CLA            32.2564011108       -3.0795994254      -30.1460314864  IONS      91             -1.0000000000
        92        92  CLA       CLA           -29.5166444796       -7.8877576023      -30.6666592653  IONS      92             -1.0000000000
        93        93  CLA       CLA            27.0032936123      -17.9011412412        4.4692365196  IONS      93             -1.0000000000
        94        94  CLA       CLA            34.3846717030       15.0642661110       19.8873486095  IONS      94             -1.0000000000
        95        95  CLA       CLA            53.0985136234       -8.4531801873       23.0097793232  IONS      95             -1.0000000000
        96        96  CLA       CLA            -8.9822582220       17.8956398290       18.7833129734  IONS      96             -1.0000000000
        97        97  CLA       CLA            15.1444236763      -36.0566163648      -35.0647003673  IONS      97             -1.0000000000
        98        98  CLA       CLA            15.0874179980      -19.6260367723      -47.2778512283  IONS      98             -1.0000000000
        99        99  CLA       CLA           -14.2794271263      -31.5451228817       16.0522775096  IONS      99             -1.0000000000
       100       100  CLA       CLA            -4.2351738907       32.0112007697        9.4493042510  IONS      100            -1.0000000000
       101       101  CLA       CLA            44.5712059828       -0.5932326967        5.3855881370  IONS      101            -1.0000000000
       102       102  CLA       CLA            -2.7490498966      -47.1999693112        1.3902628534  IONS      102            -1.0000000000
       103       103  CLA       CLA           -26.7117509652      -39.7911845114       -7.1340087678  IONS      103            -1.0000000000
       104       104  CLA       CLA            37.6454651225      -18.6893426104        2.2937824101  IONS      104            -1.0000000000
       105       105  CLA       CLA            -6.1518683915       34.4110624314       42.9385999344  IONS      105            -1.0000000000
       106       106  CLA       CLA            -4.3791800016       19.9515880376       37.7045790095  IONS      106            -1.0000000000
       107       107  CLA       CLA           -17.6938626422      -13.9725527004       34.0596654716  IONS      107            -1.0000000000
       108       108  CLA       CLA            17.1458982142       50.5790572514      -18.5678444989  IONS      108            -1.0000000000
       109       109  CLA       CLA            22.9503479939       36.3689402237       21.0547589771  IONS      109            -1.0000000000
       110       110  CLA       CLA            19.9717049825      -46.0185527095       -2.3410157083  IONS      110            -1.0000000000
       111       111  CLA       CLA            24.5436150942       27.6067934178      -10.6798885043  IONS      111            -1.0000000000
       112       112  CLA       CLA             7.5934207526       18.4819137215        5.2413352155  IONS      112            -1.0000000000
       113       113  CLA       CLA            36.2762815492       19.6594633944        6.9098073408  IONS      113            -1.0000000000
       114       114  CLA       CLA             3.8406102055      -35.4677516654       13.7834027486  IONS      114            -1.0000000000
       115       115  CLA       CLA            -4.1883734978      -31.8633230150      -44.9776637866  IONS      115            -1.0000000000
       116       116  CLA       CLA            -8.3215824544      -11.4037514501      -32.5882097263  IONS      116            -1.0000000000
       117       117  CLA       CLA           -47.0721276827       -4.6021332842        4.6805132081  IONS      117            -1.0000000000
       118       118  CLA       CLA            32.6037977778       13.7680598659        2.7426207138  IONS      118            -1.0000000000
       119       119  CLA       CLA           -21.8565445815      -22.1876817848      -10.0442637283  IONS      119            -1.0000000000
       120       120  CLA       CLA           -22.7234451835       15.9664162456       17.0843265135  IONS      120            -1.0000000000
       121       121  CLA       CLA            32.3431300880       36.3990490409        7.9992790555  IONS      121            -1.0000000000
       122       122  CLA       CLA           -26.3186996463       19.1156315090       -7.3139044288  IONS      122            -1.0000000000
       123       123  CLA       CLA           -10.9902924776       18.7235063051       30.8558190999  IONS      123            -1.0000000000
       124       124  CLA       CLA           -48.5154729343      -15.0341874453      -16.5761460114  IONS      124            -1.0000000000
       125       125  CLA       CLA           -36.8115982169       12.7265445871        2.0090083966  IONS      125            -1.0000000000
       126       126  CLA       CLA            33.5160544340      -41.7101431179        0.0790055289  IONS      126            -1.0000000000
       127       127  CLA       CLA           -15.3806643946       -1.8883408702       28.4738647665  IONS      127            -1.0000000000
       128       128  CLA       CLA           -38.1715553950      -45.5095611837        0.7411342063  IONS      128            -1.0000000000
       129       129  CLA       CLA            18.1538175408      -20.8060699866       -8.1363250320  IONS      129            -1.0000000000
       130       130  CLA       CLA            32.9457104964      -16.7280158366       21.5672813905  IONS      130            -1.0000000000
       131       131  CLA       CLA            11.6251303845       29.3710098529       30.8767774542  IONS      131            -1.0000000000
