Title t= 121.00000 step= 60500
29212
    1ASP      N    1   2.211   1.357   1.991
    1ASP    HT1    2   2.230   1.445   2.043
    1ASP    HT2    3   2.132   1.364   1.925
    1ASP    HT3    4   2.297   1.343   1.934
    1ASP     CA    5   2.186   1.239   2.079
    1ASP     HA    6   2.137   1.168   2.014
    1ASP     CB    7   2.318   1.175   2.139
    1ASP    HB1    8   2.286   1.085   2.196
    1ASP    HB2    9   2.379   1.246   2.200
    1ASP     CG   10   2.401   1.123   2.016
    1ASP    OD1   11   2.342   1.098   1.910
    1ASP    OD2   12   2.524   1.097   2.034
    1ASP      C   13   2.095   1.283   2.196
    1ASP      O   14   2.105   1.402   2.237
    2GLY      N   15   1.999   1.202   2.250
    2GLY     HN   16   1.987   1.111   2.210
    2GLY     CA   17   1.891   1.250   2.341
    2GLY    HA1   18   1.946   1.313   2.410
    2GLY    HA2   19   1.846   1.169   2.397
    2GLY      C   20   1.785   1.330   2.274
    2GLY      O   21   1.795   1.383   2.163
    3ASP      N   22   1.671   1.349   2.343
    3ASP     HN   23   1.661   1.325   2.439
    3ASP     CA   24   1.565   1.429   2.278
    3ASP     HA   25   1.576   1.412   2.172
    3ASP     CB   26   1.427   1.366   2.324
    3ASP    HB1   27   1.341   1.410   2.268
    3ASP    HB2   28   1.408   1.401   2.428
    3ASP     CG   29   1.413   1.218   2.292
    3ASP    OD1   30   1.325   1.144   2.347
    3ASP    OD2   31   1.468   1.173   2.187
    3ASP      C   32   1.563   1.577   2.295
    3ASP      O   33   1.639   1.644   2.367
    4GLY      N   34   1.469   1.638   2.230
    4GLY     HN   35   1.405   1.576   2.185
    4GLY     CA   36   1.457   1.779   2.221
    4GLY    HA1   37   1.388   1.791   2.138
    4GLY    HA2   38   1.556   1.818   2.200
    4GLY      C   39   1.378   1.842   2.341
    4GLY      O   40   1.341   1.768   2.432
    5PRO      N   41   1.355   1.969   2.337
    5PRO     CD   42   1.415   2.061   2.243
    5PRO    HD1   43   1.353   2.072   2.151
    5PRO    HD2   44   1.520   2.037   2.219
    5PRO     CA   45   1.270   2.037   2.433
    5PRO     HA   46   1.315   2.026   2.531
    5PRO     CB   47   1.281   2.187   2.385
    5PRO    HB1   48   1.285   2.255   2.473
    5PRO    HB2   49   1.198   2.211   2.315
    5PRO     CG   50   1.415   2.193   2.313
    5PRO    HG1   51   1.417   2.278   2.241
    5PRO    HG2   52   1.500   2.210   2.382
    5PRO      C   53   1.127   1.989   2.439
    5PRO      O   54   1.059   1.993   2.336
    6GLY      N   55   1.074   1.954   2.557
    6GLY     HN   56   1.131   1.966   2.639
    6GLY     CA   57   0.932   1.926   2.575
    6GLY    HA1   58   0.931   1.833   2.629
    6GLY    HA2   59   0.885   1.922   2.478
    6GLY      C   60   0.846   2.026   2.654
    6GLY      O   61   0.891   2.111   2.734
    7ASP      N   62   0.713   2.008   2.649
    7ASP     HN   63   0.675   1.941   2.585
    7ASP     CA   64   0.621   2.068   2.750
    7ASP     HA   65   0.632   2.175   2.739
    7ASP     CB   66   0.467   2.031   2.731
    7ASP    HB1   67   0.394   2.082   2.797
    7ASP    HB2   68   0.446   1.923   2.743
    7ASP     CG   69   0.413   2.046   2.588
    7ASP    OD1   70   0.302   2.007   2.556
    7ASP    OD2   71   0.492   2.088   2.497
    7ASP      C   72   0.663   2.043   2.898
    7ASP      O   73   0.700   1.921   2.921
    8PRO      N   74   0.662   2.138   2.993
    8PRO     CD   75   0.598   2.268   2.980
    8PRO    HD1   76   0.488   2.254   2.973
    8PRO    HD2   77   0.624   2.316   2.883
    8PRO     CA   78   0.716   2.125   3.131
    8PRO     HA   79   0.822   2.134   3.114
    8PRO     CB   80   0.647   2.246   3.205
    8PRO    HB1   81   0.709   2.260   3.296
    8PRO    HB2   82   0.548   2.220   3.247
    8PRO     CG   83   0.643   2.353   3.100
    8PRO    HG1   84   0.568   2.433   3.112
    8PRO    HG2   85   0.744   2.400   3.096
    8PRO      C   86   0.683   2.001   3.206
    8PRO      O   87   0.566   1.964   3.205
    9GLY      N   88   0.779   1.929   3.264
    9GLY     HN   89   0.872   1.964   3.254
    9GLY     CA   90   0.757   1.807   3.340
    9GLY    HA1   91   0.844   1.747   3.322
    9GLY    HA2   92   0.658   1.768   3.320
    9GLY      C   93   0.749   1.821   3.489
    9GLY      O   94   0.804   1.913   3.549
   10ASP      N   95   0.681   1.723   3.557
   10ASP     HN   96   0.642   1.645   3.509
   10ASP     CA   97   0.677   1.720   3.702
   10ASP     HA   98   0.645   1.817   3.737
   10ASP     CB   99   0.574   1.623   3.756
   10ASP    HB1  100   0.564   1.615   3.866
   10ASP    HB2  101   0.604   1.522   3.722
   10ASP     CG  102   0.435   1.644   3.696
   10ASP    OD1  103   0.387   1.754   3.649
   10ASP    OD2  104   0.357   1.543   3.694
   10ASP      C  105   0.813   1.692   3.772
   10ASP      O  106   0.904   1.636   3.711
   11GLY      N  107   0.811   1.716   3.904
   11GLY     HN  108   0.727   1.755   3.940
   11GLY     CA  109   0.922   1.697   3.997
   11GLY    HA1  110   0.958   1.597   3.979
   11GLY    HA2  111   0.875   1.707   4.094
   11GLY      C  112   1.023   1.806   3.983
   11GLY    OT1  113   1.142   1.780   3.981
   11GLY    OT2  114   0.986   1.925   3.983
   12LIT    LIT  115   4.818   6.246   1.322
   13LIT    LIT  116   5.064   6.122   0.692
   14LIT    LIT  117   7.094   6.044   1.215
   15LIT    LIT  118   1.423   6.803   2.429
   16LIT    LIT  119   1.187   1.970   4.012
   17LIT    LIT  120   3.913   6.273   2.773
   18LIT    LIT  121   2.830   3.119   3.328
   19LIT    LIT  122   1.831   4.776   0.633
   20LIT    LIT  123   0.205   1.730   4.247
   21LIT    LIT  124   2.133   0.016   3.371
   22LIT    LIT  125   4.444   1.438   5.087
   23LIT    LIT  126   6.821   0.116   1.082
   24LIT    LIT  127   6.804   4.191   4.627
   25LIT    LIT  128   0.318   2.099   2.381
   26LIT    LIT  129   0.214   1.663   3.621
   27LIT    LIT  130   3.579   0.273   3.398
   28LIT    LIT  131   1.099   5.335   5.408
   29LIT    LIT  132   6.525   3.558   3.985
   30LIT    LIT  133   6.585   3.197   2.213
   31LIT    LIT  134   4.898   1.878   2.261
   32LIT    LIT  135   1.228   6.544   5.541
   33LIT    LIT  136   3.474   4.344   1.752
   34LIT    LIT  137   5.727   1.403   4.405
   35LIT    LIT  138   1.017   1.483   2.461
   36LIT    LIT  139   5.969   6.786   2.615
   37LIT    LIT  140   0.288   4.547   0.563
   38LIT    LIT  141   4.185   5.859   0.738
   39LIT    LIT  142   2.512   1.029   1.841
   40LIT    LIT  143   2.739   6.191   1.875
   41LIT    LIT  144   1.287   1.488   3.892
   42LIT    LIT  145   1.321   1.027   2.198
   43CLA    CLA  146   2.649   6.074   2.043
   44CLA    CLA  147   3.633   0.824   4.146
   45CLA    CLA  148   2.348   4.030   4.041
   46CLA    CLA  149   6.092   3.508   0.708
   47CLA    CLA  150   0.668   1.726   2.234
   48CLA    CLA  151   4.423   6.179   1.529
   49CLA    CLA  152   2.720   5.057   3.593
   50CLA    CLA  153   1.801   3.626   1.578
   51CLA    CLA  154   6.044   2.483   1.892
   52CLA    CLA  155   3.329   4.106   2.892
   53CLA    CLA  156   1.809   2.292   3.507
   54CLA    CLA  157   3.836   2.051   1.127
   55CLA    CLA  158   5.726   2.737   5.462
   56CLA    CLA  159   6.925   0.907   4.319
   57CLA    CLA  160   5.355   3.829   4.342
   58CLA    CLA  161   3.665   4.284   1.643
   59CLA    CLA  162   5.674   1.394   3.121
   60CLA    CLA  163   0.291   6.064   3.848
   61CLA    CLA  164   6.225   6.747   1.422
   62CLA    CLA  165   0.323   0.830   2.359
   63CLA    CLA  166   1.814   4.196   5.234
   64CLA    CLA  167   4.232   4.512   0.116
   65CLA    CLA  168   0.518   4.260   4.725
   66CLA    CLA  169   1.481   6.092   3.164
   67CLA    CLA  170   6.184   1.767   1.971
   68CLA    CLA  171   0.291   1.085   0.820
   69CLA    CLA  172   3.352   3.755   3.947
   70TIP3   OH2  173   3.099   1.096   5.429
   70TIP3    H1  174   3.135   1.146   5.502
   70TIP3    H2  175   3.172   1.040   5.401
   71TIP3   OH2  176   5.684   0.192   0.152
   71TIP3    H1  177   5.678   0.115   0.209
   71TIP3    H2  178   5.720   0.158   0.070
   72TIP3   OH2  179   7.058   3.145   5.353
   72TIP3    H1  180   7.045   3.234   5.323
   72TIP3    H2  181   7.146   3.122   5.323
   73TIP3   OH2  182   6.225   4.212   4.667
   73TIP3    H1  183   6.220   4.116   4.668
   73TIP3    H2  184   6.265   4.235   4.752
   74TIP3   OH2  185   3.523   5.703   5.898
   74TIP3    H1  186   3.546   5.791   5.868
   74TIP3    H2  187   3.483   5.661   5.821
   75TIP3   OH2  188   5.017   2.972   0.884
   75TIP3    H1  189   4.977   2.965   0.797
   75TIP3    H2  190   5.070   2.893   0.893
   76TIP3   OH2  191   7.196   3.423   0.365
   76TIP3    H1  192   7.110   3.423   0.408
   76TIP3    H2  193   7.175   3.405   0.273
   77TIP3   OH2  194   3.777   1.468   0.368
   77TIP3    H1  195   3.800   1.390   0.419
   77TIP3    H2  196   3.699   1.442   0.319
   78TIP3   OH2  197   3.239   5.965   4.447
   78TIP3    H1  198   3.306   5.926   4.503
   78TIP3    H2  199   3.173   5.997   4.507
   79TIP3   OH2  200   7.071   3.897   4.076
   79TIP3    H1  201   7.093   3.927   3.988
   79TIP3    H2  202   7.148   3.916   4.128
   80TIP3   OH2  203   3.738   1.649   1.720
   80TIP3    H1  204   3.691   1.626   1.640
   80TIP3    H2  205   3.736   1.570   1.773
   81TIP3   OH2  206   0.249   3.854   2.946
   81TIP3    H1  207   0.168   3.886   2.905
   81TIP3    H2  208   0.248   3.893   3.034
   82TIP3   OH2  209   3.677   3.806   4.855
   82TIP3    H1  210   3.754   3.835   4.902
   82TIP3    H2  211   3.696   3.826   4.763
   83TIP3   OH2  212   3.148   5.553   5.508
   83TIP3    H1  213   3.155   5.480   5.447
   83TIP3    H2  214   3.173   5.630   5.456
   84TIP3   OH2  215   6.427   1.906   3.315
   84TIP3    H1  216   6.473   1.990   3.319
   84TIP3    H2  217   6.485   1.850   3.264
   85TIP3   OH2  218   4.219   6.704   3.674
   85TIP3    H1  219   4.127   6.681   3.682
   85TIP3    H2  220   4.263   6.654   3.743
   86TIP3   OH2  221   0.424   0.611   1.756
   86TIP3    H1  222   0.420   0.699   1.794
   86TIP3    H2  223   0.398   0.553   1.828
   87TIP3   OH2  224   5.527   6.134   2.359
   87TIP3    H1  225   5.502   6.185   2.283
   87TIP3    H2  226   5.469   6.165   2.429
   88TIP3   OH2  227   1.787   5.664   5.059
   88TIP3    H1  228   1.759   5.725   4.990
   88TIP3    H2  229   1.857   5.711   5.105
   89TIP3   OH2  230   5.536   4.827   2.554
   89TIP3    H1  231   5.493   4.762   2.499
   89TIP3    H2  232   5.482   4.833   2.633
   90TIP3   OH2  233   0.533   4.800   5.110
   90TIP3    H1  234   0.615   4.768   5.073
   90TIP3    H2  235   0.558   4.834   5.196
   91TIP3   OH2  236   3.415   2.582   5.208
   91TIP3    H1  237   3.450   2.493   5.206
   91TIP3    H2  238   3.377   2.590   5.296
   92TIP3   OH2  239   0.736   5.716   0.639
   92TIP3    H1  240   0.676   5.780   0.600
   92TIP3    H2  241   0.715   5.633   0.596
   93TIP3   OH2  242   0.316   5.599   3.067
   93TIP3    H1  243   0.396   5.602   3.013
   93TIP3    H2  244   0.303   5.690   3.095
   94TIP3   OH2  245   1.039   0.663   5.936
   94TIP3    H1  246   0.947   0.684   5.952
   94TIP3    H2  247   1.053   0.686   5.845
   95TIP3   OH2  248   1.539   3.174   4.419
   95TIP3    H1  249   1.541   3.228   4.341
   95TIP3    H2  250   1.623   3.127   4.417
   96TIP3   OH2  251   6.447   6.559   2.445
   96TIP3    H1  252   6.369   6.578   2.391
   96TIP3    H2  253   6.470   6.644   2.483
   97TIP3   OH2  254   2.986   5.593   4.126
   97TIP3    H1  255   2.968   5.516   4.071
   97TIP3    H2  256   2.899   5.623   4.152
   98TIP3   OH2  257   0.605   3.982   1.800
   98TIP3    H1  258   0.614   3.889   1.779
   98TIP3    H2  259   0.512   3.993   1.819
   99TIP3   OH2  260   1.920   4.617   3.822
   99TIP3    H1  261   1.859   4.548   3.798
   99TIP3    H2  262   1.878   4.698   3.792
  100TIP3   OH2  263   5.250   4.713   5.083
  100TIP3    H1  264   5.307   4.766   5.138
  100TIP3    H2  265   5.164   4.720   5.123
  101TIP3   OH2  266   4.726   4.019   3.003
  101TIP3    H1  267   4.673   4.046   3.078
  101TIP3    H2  268   4.757   4.102   2.965
  102TIP3   OH2  269   3.063   1.583   0.106
  102TIP3    H1  270   3.003   1.517   0.141
  102TIP3    H2  271   3.032   1.665   0.144
  103TIP3   OH2  272   7.105   1.976   0.771
  103TIP3    H1  273   7.182   1.935   0.808
  103TIP3    H2  274   7.056   1.904   0.731
  104TIP3   OH2  275   5.332   3.178   5.549
  104TIP3    H1  276   5.271   3.185   5.475
  104TIP3    H2  277   5.327   3.087   5.576
  105TIP3   OH2  278   6.794   3.985   2.653
  105TIP3    H1  279   6.806   3.935   2.572
  105TIP3    H2  280   6.849   4.063   2.640
  106TIP3   OH2  281   6.779   0.832   5.654
  106TIP3    H1  282   6.741   0.914   5.622
  106TIP3    H2  283   6.751   0.827   5.746
  107TIP3   OH2  284   0.452   5.840   5.394
  107TIP3    H1  285   0.492   5.806   5.473
  107TIP3    H2  286   0.378   5.782   5.377
  108TIP3   OH2  287   3.439   5.092   3.042
  108TIP3    H1  288   3.480   5.046   3.115
  108TIP3    H2  289   3.469   5.045   2.964
  109TIP3   OH2  290   0.595   4.518   4.237
  109TIP3    H1  291   0.604   4.575   4.313
  109TIP3    H2  292   0.683   4.484   4.222
  110TIP3   OH2  293   6.330   6.707   3.380
  110TIP3    H1  294   6.314   6.787   3.330
  110TIP3    H2  295   6.259   6.649   3.354
  111TIP3   OH2  296   6.329   3.320   0.783
  111TIP3    H1  297   6.271   3.396   0.773
  111TIP3    H2  298   6.377   3.337   0.864
  112TIP3   OH2  299   6.080   1.346   5.534
  112TIP3    H1  300   6.116   1.309   5.615
  112TIP3    H2  301   6.145   1.410   5.506
  113TIP3   OH2  302   0.969   5.425   2.449
  113TIP3    H1  303   0.903   5.356   2.450
  113TIP3    H2  304   0.972   5.454   2.358
  114TIP3   OH2  305   1.948   0.625   5.746
  114TIP3    H1  306   2.029   0.638   5.795
  114TIP3    H2  307   1.970   0.649   5.656
  115TIP3   OH2  308   1.768   6.587   2.029
  115TIP3    H1  309   1.746   6.547   1.945
  115TIP3    H2  310   1.806   6.672   2.006
  116TIP3   OH2  311   1.091   0.162   4.545
  116TIP3    H1  312   1.014   0.138   4.596
  116TIP3    H2  313   1.104   0.088   4.486
  117TIP3   OH2  314   4.348   6.147   2.801
  117TIP3    H1  315   4.417   6.104   2.851
  117TIP3    H2  316   4.356   6.240   2.824
  118TIP3   OH2  317   5.989   1.709   0.792
  118TIP3    H1  318   5.906   1.721   0.839
  118TIP3    H2  319   6.043   1.659   0.854
  119TIP3   OH2  320   2.570   0.073   1.844
  119TIP3    H1  321   2.556   0.102   1.754
  119TIP3    H2  322   2.497   0.110   1.893
  120TIP3   OH2  323   0.756   1.627   5.061
  120TIP3    H1  324   0.727   1.535   5.066
  120TIP3    H2  325   0.768   1.653   5.152
  121TIP3   OH2  326   0.881   5.123   1.186
  121TIP3    H1  327   0.823   5.083   1.122
  121TIP3    H2  328   0.936   5.051   1.217
  122TIP3   OH2  329   6.155   3.932   2.761
  122TIP3    H1  330   6.076   3.937   2.815
  122TIP3    H2  331   6.127   3.885   2.682
  123TIP3   OH2  332   2.126   4.963   0.782
  123TIP3    H1  333   2.103   5.008   0.863
  123TIP3    H2  334   2.165   5.032   0.727
  124TIP3   OH2  335   6.794   0.258   0.959
  124TIP3    H1  336   6.714   0.298   0.924
  124TIP3    H2  337   6.862   0.282   0.896
  125TIP3   OH2  338   5.892   2.777   1.850
  125TIP3    H1  339   5.829   2.755   1.918
  125TIP3    H2  340   5.955   2.705   1.851
  126TIP3   OH2  341   0.305   4.784   3.282
  126TIP3    H1  342   0.257   4.789   3.200
  126TIP3    H2  343   0.346   4.870   3.291
  127TIP3   OH2  344   0.698   2.675   5.467
  127TIP3    H1  345   0.688   2.590   5.509
  127TIP3    H2  346   0.617   2.722   5.486
  128TIP3   OH2  347   2.418   1.195   4.400
  128TIP3    H1  348   2.388   1.191   4.491
  128TIP3    H2  349   2.383   1.115   4.360
  129TIP3   OH2  350   0.827   1.183   0.232
  129TIP3    H1  351   0.820   1.121   0.305
  129TIP3    H2  352   0.844   1.128   0.156
  130TIP3   OH2  353   6.098   0.381   1.731
  130TIP3    H1  354   6.072   0.462   1.686
  130TIP3    H2  355   6.067   0.391   1.820
  131TIP3   OH2  356   6.450   0.595   4.818
  131TIP3    H1  357   6.360   0.561   4.821
  131TIP3    H2  358   6.440   0.683   4.782
  132TIP3   OH2  359   6.447   3.182   3.213
  132TIP3    H1  360   6.406   3.197   3.298
  132TIP3    H2  361   6.483   3.267   3.189
  133TIP3   OH2  362   1.170   2.607   3.876
  133TIP3    H1  363   1.228   2.534   3.896
  133TIP3    H2  364   1.089   2.566   3.845
  134TIP3   OH2  365   2.217   2.438   0.216
  134TIP3    H1  366   2.179   2.361   0.258
  134TIP3    H2  367   2.280   2.402   0.154
  135TIP3   OH2  368   2.685   6.217   4.126
  135TIP3    H1  369   2.670   6.156   4.199
  135TIP3    H2  370   2.780   6.219   4.116
  136TIP3   OH2  371   2.763   4.516   3.665
  136TIP3    H1  372   2.826   4.508   3.737
  136TIP3    H2  373   2.793   4.454   3.599
  137TIP3   OH2  374   2.594   5.661   5.630
  137TIP3    H1  375   2.607   5.572   5.660
  137TIP3    H2  376   2.681   5.690   5.602
  138TIP3   OH2  377   5.894   0.704   3.275
  138TIP3    H1  378   5.878   0.659   3.193
  138TIP3    H2  379   5.808   0.735   3.302
  139TIP3   OH2  380   5.640   2.206   4.330
  139TIP3    H1  381   5.709   2.270   4.347
  139TIP3    H2  382   5.656   2.178   4.240
  140TIP3   OH2  383   3.805   5.851   4.606
  140TIP3    H1  384   3.888   5.898   4.597
  140TIP3    H2  385   3.738   5.919   4.608
  141TIP3   OH2  386   0.157   5.715   4.351
  141TIP3    H1  387   0.239   5.739   4.309
  141TIP3    H2  388   0.179   5.706   4.444
  142TIP3   OH2  389   0.436   5.843   3.701
  142TIP3    H1  390   0.382   5.910   3.743
  142TIP3    H2  391   0.485   5.890   3.635
  143TIP3   OH2  392   5.787   6.419   2.406
  143TIP3    H1  393   5.709   6.417   2.351
  143TIP3    H2  394   5.858   6.390   2.349
  144TIP3   OH2  395   1.920   2.534   1.817
  144TIP3    H1  396   2.000   2.566   1.776
  144TIP3    H2  397   1.917   2.441   1.794
  145TIP3   OH2  398   4.498   5.350   4.329
  145TIP3    H1  399   4.413   5.308   4.317
  145TIP3    H2  400   4.532   5.314   4.411
  146TIP3   OH2  401   4.534   5.246   5.056
  146TIP3    H1  402   4.622   5.265   5.024
  146TIP3    H2  403   4.506   5.327   5.098
  147TIP3   OH2  404   2.528   5.008   0.806
  147TIP3    H1  405   2.509   5.024   0.713
  147TIP3    H2  406   2.517   5.093   0.847
  148TIP3   OH2  407   3.861   1.373   1.147
  148TIP3    H1  408   3.933   1.330   1.102
  148TIP3    H2  409   3.790   1.378   1.082
  149TIP3   OH2  410   5.654   2.156   4.066
  149TIP3    H1  411   5.647   2.110   3.983
  149TIP3    H2  412   5.747   2.172   4.077
  150TIP3   OH2  413   0.455   5.656   2.716
  150TIP3    H1  414   0.414   5.570   2.727
  150TIP3    H2  415   0.536   5.651   2.767
  151TIP3   OH2  416   7.118   1.575   4.010
  151TIP3    H1  417   7.165   1.508   4.059
  151TIP3    H2  418   7.040   1.530   3.978
  152TIP3   OH2  419   1.216   6.236   3.890
  152TIP3    H1  420   1.274   6.305   3.859
  152TIP3    H2  421   1.147   6.282   3.939
  153TIP3   OH2  422   1.149   3.551   2.842
  153TIP3    H1  423   1.178   3.567   2.753
  153TIP3    H2  424   1.136   3.638   2.880
  154TIP3   OH2  425   0.803   5.513   3.737
  154TIP3    H1  426   0.774   5.456   3.808
  154TIP3    H2  427   0.723   5.537   3.690
  155TIP3   OH2  428   4.365   5.745   4.431
  155TIP3    H1  429   4.403   5.827   4.463
  155TIP3    H2  430   4.412   5.726   4.350
  156TIP3   OH2  431   1.816   3.058   3.741
  156TIP3    H1  432   1.829   3.126   3.807
  156TIP3    H2  433   1.827   3.103   3.657
  157TIP3   OH2  434   6.163   3.595   5.294
  157TIP3    H1  435   6.135   3.510   5.328
  157TIP3    H2  436   6.128   3.658   5.357
  158TIP3   OH2  437   2.034   5.854   1.761
  158TIP3    H1  438   2.117   5.880   1.721
  158TIP3    H2  439   1.967   5.878   1.697
  159TIP3   OH2  440   5.266   0.179   1.441
  159TIP3    H1  441   5.273   0.084   1.435
  159TIP3    H2  442   5.355   0.211   1.428
  160TIP3   OH2  443   0.412   3.374   0.748
  160TIP3    H1  444   0.464   3.344   0.674
  160TIP3    H2  445   0.427   3.309   0.816
  161TIP3   OH2  446   6.443   2.857   1.076
  161TIP3    H1  447   6.522   2.906   1.100
  161TIP3    H2  448   6.446   2.852   0.980
  162TIP3   OH2  449   3.695   0.515   4.931
  162TIP3    H1  450   3.687   0.506   4.836
  162TIP3    H2  451   3.782   0.550   4.945
  163TIP3   OH2  452   2.697   0.399   4.836
  163TIP3    H1  453   2.761   0.360   4.776
  163TIP3    H2  454   2.653   0.324   4.876
  164TIP3   OH2  455   4.565   5.480   2.629
  164TIP3    H1  456   4.589   5.572   2.646
  164TIP3    H2  457   4.641   5.430   2.661
  165TIP3   OH2  458   3.364   5.552   0.421
  165TIP3    H1  459   3.340   5.623   0.481
  165TIP3    H2  460   3.280   5.515   0.394
  166TIP3   OH2  461   3.836   6.330   5.309
  166TIP3    H1  462   3.828   6.272   5.384
  166TIP3    H2  463   3.849   6.271   5.234
  167TIP3   OH2  464   5.556   2.325   1.150
  167TIP3    H1  465   5.475   2.370   1.175
  167TIP3    H2  466   5.585   2.370   1.070
  168TIP3   OH2  467   4.418   4.665   2.716
  168TIP3    H1  468   4.443   4.690   2.805
  168TIP3    H2  469   4.323   4.665   2.717
  169TIP3   OH2  470   4.994   4.728   3.916
  169TIP3    H1  471   5.024   4.655   3.970
  169TIP3    H2  472   5.045   4.721   3.835
  170TIP3   OH2  473   5.981   0.755   0.673
  170TIP3    H1  474   6.008   0.846   0.662
  170TIP3    H2  475   5.950   0.750   0.764
  171TIP3   OH2  476   5.644   6.741   0.622
  171TIP3    H1  477   5.711   6.793   0.577
  171TIP3    H2  478   5.671   6.650   0.610
  172TIP3   OH2  479   4.093   3.180   4.497
  172TIP3    H1  480   4.133   3.258   4.459
  172TIP3    H2  481   4.133   3.172   4.584
  173TIP3   OH2  482   6.576   1.018   5.322
  173TIP3    H1  483   6.663   1.039   5.355
  173TIP3    H2  484   6.590   0.948   5.258
  174TIP3   OH2  485   0.445   5.533   2.401
  174TIP3    H1  486   0.511   5.541   2.470
  174TIP3    H2  487   0.477   5.462   2.345
  175TIP3   OH2  488   5.123   6.137   2.101
  175TIP3    H1  489   5.032   6.123   2.126
  175TIP3    H2  490   5.174   6.098   2.172
  176TIP3   OH2  491   0.474   2.489   5.648
  176TIP3    H1  492   0.446   2.578   5.668
  176TIP3    H2  493   0.401   2.452   5.598
  177TIP3   OH2  494   3.470   5.424   3.339
  177TIP3    H1  495   3.498   5.343   3.381
  177TIP3    H2  496   3.384   5.442   3.376
  178TIP3   OH2  497   2.420   4.535   2.689
  178TIP3    H1  498   2.490   4.478   2.719
  178TIP3    H2  499   2.436   4.618   2.734
  179TIP3   OH2  500   6.604   1.669   0.541
  179TIP3    H1  501   6.679   1.631   0.495
  179TIP3    H2  502   6.637   1.688   0.629
  180TIP3   OH2  503   1.427   2.171   1.884
  180TIP3    H1  504   1.515   2.140   1.906
  180TIP3    H2  505   1.435   2.266   1.885
  181TIP3   OH2  506   5.182   6.696   2.916
  181TIP3    H1  507   5.270   6.676   2.947
  181TIP3    H2  508   5.143   6.748   2.985
  182TIP3   OH2  509   0.552   1.257   1.868
  182TIP3    H1  510   0.518   1.225   1.951
  182TIP3    H2  511   0.501   1.209   1.802
  183TIP3   OH2  512   4.695   1.619   2.530
  183TIP3    H1  513   4.627   1.673   2.488
  183TIP3    H2  514   4.661   1.603   2.618
  184TIP3   OH2  515   1.819   0.500   1.525
  184TIP3    H1  516   1.838   0.458   1.609
  184TIP3    H2  517   1.734   0.465   1.499
  185TIP3   OH2  518   5.011   4.120   3.740
  185TIP3    H1  519   5.027   4.071   3.821
  185TIP3    H2  520   5.049   4.206   3.757
  186TIP3   OH2  521   3.123   1.781   1.401
  186TIP3    H1  522   3.174   1.784   1.320
  186TIP3    H2  523   3.069   1.860   1.398
  187TIP3   OH2  524   6.647   4.591   4.510
  187TIP3    H1  525   6.728   4.573   4.462
  187TIP3    H2  526   6.676   4.631   4.592
  188TIP3   OH2  527   3.379   2.039   5.846
  188TIP3    H1  528   3.468   2.020   5.815
  188TIP3    H2  529   3.327   1.965   5.814
  189TIP3   OH2  530   6.565   1.886   3.086
  189TIP3    H1  531   6.554   1.808   3.031
  189TIP3    H2  532   6.597   1.953   3.026
  190TIP3   OH2  533   6.778   5.312   5.800
  190TIP3    H1  534   6.781   5.344   5.890
  190TIP3    H2  535   6.773   5.217   5.808
  191TIP3   OH2  536   2.077   3.717   1.289
  191TIP3    H1  537   2.078   3.812   1.279
  191TIP3    H2  538   2.151   3.687   1.236
  192TIP3   OH2  539   0.595   6.701   2.176
  192TIP3    H1  540   0.589   6.638   2.247
  192TIP3    H2  541   0.516   6.686   2.124
  193TIP3   OH2  542   5.001   0.899   4.068
  193TIP3    H1  543   4.987   0.804   4.078
  193TIP3    H2  544   5.007   0.912   3.974
  194TIP3   OH2  545   2.436   6.611   0.501
  194TIP3    H1  546   2.407   6.599   0.592
  194TIP3    H2  547   2.509   6.550   0.491
  195TIP3   OH2  548   1.709   1.834   1.479
  195TIP3    H1  549   1.696   1.745   1.510
  195TIP3    H2  550   1.798   1.834   1.444
  196TIP3   OH2  551   2.608   2.688   0.300
  196TIP3    H1  552   2.595   2.683   0.205
  196TIP3    H2  553   2.521   2.710   0.334
  197TIP3   OH2  554   6.533   4.505   2.625
  197TIP3    H1  555   6.628   4.498   2.631
  197TIP3    H2  556   6.501   4.424   2.664
  198TIP3   OH2  557   1.739   5.165   4.405
  198TIP3    H1  558   1.691   5.198   4.329
  198TIP3    H2  559   1.677   5.173   4.477
  199TIP3   OH2  560   6.257   1.110   3.786
  199TIP3    H1  561   6.168   1.076   3.780
  199TIP3    H2  562   6.313   1.033   3.775
  200TIP3   OH2  563   4.356   0.573   4.266
  200TIP3    H1  564   4.273   0.535   4.293
  200TIP3    H2  565   4.334   0.661   4.237
  201TIP3   OH2  566   3.683   3.328   4.091
  201TIP3    H1  567   3.623   3.264   4.051
  201TIP3    H2  568   3.625   3.395   4.128
  202TIP3   OH2  569   1.384   1.285   0.904
  202TIP3    H1  570   1.468   1.262   0.942
  202TIP3    H2  571   1.352   1.358   0.958
  203TIP3   OH2  572   6.230   3.278   3.056
  203TIP3    H1  573   6.297   3.293   2.988
  203TIP3    H2  574   6.280   3.275   3.138
  204TIP3   OH2  575   2.360   1.807   2.270
  204TIP3    H1  576   2.433   1.841   2.218
  204TIP3    H2  577   2.397   1.733   2.318
  205TIP3   OH2  578   4.013   1.813   3.922
  205TIP3    H1  579   3.985   1.899   3.891
  205TIP3    H2  580   3.938   1.756   3.904
  206TIP3   OH2  581   0.537   4.877   4.603
  206TIP3    H1  582   0.595   4.821   4.655
  206TIP3    H2  583   0.577   4.964   4.608
  207TIP3   OH2  584   2.046   0.605   4.482
  207TIP3    H1  585   2.017   0.695   4.495
  207TIP3    H2  586   1.964   0.554   4.482
  208TIP3   OH2  587   3.572   3.812   0.395
  208TIP3    H1  588   3.651   3.767   0.364
  208TIP3    H2  589   3.582   3.902   0.364
  209TIP3   OH2  590   4.866   0.826   5.850
  209TIP3    H1  591   4.890   0.755   5.909
  209TIP3    H2  592   4.912   0.902   5.885
  210TIP3   OH2  593   1.365   4.451   2.542
  210TIP3    H1  594   1.435   4.469   2.604
  210TIP3    H2  595   1.305   4.526   2.550
  211TIP3   OH2  596   6.211   1.367   0.704
  211TIP3    H1  597   6.238   1.440   0.650
  211TIP3    H2  598   6.229   1.289   0.651
  212TIP3   OH2  599   0.359   5.859   4.783
  212TIP3    H1  600   0.341   5.796   4.713
  212TIP3    H2  601   0.447   5.835   4.814
  213TIP3   OH2  602   2.450   3.607   3.826
  213TIP3    H1  603   2.543   3.630   3.834
  213TIP3    H2  604   2.449   3.534   3.765
  214TIP3   OH2  605   0.432   0.691   1.468
  214TIP3    H1  606   0.478   0.630   1.411
  214TIP3    H2  607   0.441   0.653   1.556
  215TIP3   OH2  608   6.980   0.922   3.995
  215TIP3    H1  609   6.900   0.971   3.975
  215TIP3    H2  610   6.969   0.895   4.086
  216TIP3   OH2  611   6.350   0.725   2.829
  216TIP3    H1  612   6.312   0.643   2.862
  216TIP3    H2  613   6.335   0.788   2.899
  217TIP3   OH2  614   1.863   1.517   0.149
  217TIP3    H1  615   1.812   1.498   0.071
  217TIP3    H2  616   1.881   1.430   0.187
  218TIP3   OH2  617   5.044   4.394   0.141
  218TIP3    H1  618   5.078   4.314   0.181
  218TIP3    H2  619   4.951   4.376   0.128
  219TIP3   OH2  620   4.350   1.869   0.408
  219TIP3    H1  621   4.275   1.814   0.386
  219TIP3    H2  622   4.336   1.894   0.499
  220TIP3   OH2  623   3.993   4.758   5.355
  220TIP3    H1  624   3.907   4.799   5.350
  220TIP3    H2  625   3.999   4.706   5.274
  221TIP3   OH2  626   5.172   0.892   0.665
  221TIP3    H1  627   5.182   0.914   0.572
  221TIP3    H2  628   5.233   0.820   0.680
  222TIP3   OH2  629   5.404   1.327   4.746
  222TIP3    H1  630   5.431   1.324   4.838
  222TIP3    H2  631   5.359   1.411   4.737
  223TIP3   OH2  632   2.995   1.017   3.938
  223TIP3    H1  633   2.956   0.954   3.998
  223TIP3    H2  634   3.056   0.965   3.885
  224TIP3   OH2  635   3.335   6.025   0.709
  224TIP3    H1  636   3.256   6.044   0.659
  224TIP3    H2  637   3.302   5.996   0.795
  225TIP3   OH2  638   3.806   1.162   5.049
  225TIP3    H1  639   3.831   1.184   4.959
  225TIP3    H2  640   3.724   1.114   5.040
  226TIP3   OH2  641   4.278   1.169   5.340
  226TIP3    H1  642   4.241   1.130   5.261
  226TIP3    H2  643   4.264   1.103   5.408
  227TIP3   OH2  644   3.728   0.447   1.917
  227TIP3    H1  645   3.709   0.384   1.848
  227TIP3    H2  646   3.707   0.532   1.879
  228TIP3   OH2  647   5.276   3.739   1.745
  228TIP3    H1  648   5.264   3.817   1.800
  228TIP3    H2  649   5.287   3.774   1.657
  229TIP3   OH2  650   1.185   5.096   1.730
  229TIP3    H1  651   1.136   5.028   1.684
  229TIP3    H2  652   1.220   5.152   1.660
  230TIP3   OH2  653   3.590   1.011   2.649
  230TIP3    H1  654   3.532   1.064   2.704
  230TIP3    H2  655   3.677   1.024   2.687
  231TIP3   OH2  656   5.214   2.717   1.392
  231TIP3    H1  657   5.227   2.626   1.364
  231TIP3    H2  658   5.154   2.754   1.327
  232TIP3   OH2  659   0.855   3.480   5.030
  232TIP3    H1  660   0.836   3.574   5.031
  232TIP3    H2  661   0.951   3.475   5.032
  233TIP3   OH2  662   5.967   4.314   1.579
  233TIP3    H1  663   6.032   4.244   1.581
  233TIP3    H2  664   5.946   4.325   1.486
  234TIP3   OH2  665   2.748   3.117   1.609
  234TIP3    H1  666   2.776   3.196   1.656
  234TIP3    H2  667   2.796   3.046   1.651
  235TIP3   OH2  668   5.845   0.136   1.625
  235TIP3    H1  669   5.870   0.059   1.574
  235TIP3    H2  670   5.927   0.180   1.644
  236TIP3   OH2  671   2.455   1.676   3.528
  236TIP3    H1  672   2.370   1.716   3.550
  236TIP3    H2  673   2.513   1.703   3.599
  237TIP3   OH2  674   4.581   4.731   3.703
  237TIP3    H1  675   4.609   4.696   3.787
  237TIP3    H2  676   4.660   4.731   3.649
  238TIP3   OH2  677   0.075   0.761   4.600
  238TIP3    H1  678   0.167   0.736   4.612
  238TIP3    H2  679   0.075   0.812   4.519
  239TIP3   OH2  680   4.102   4.260   5.404
  239TIP3    H1  681   4.029   4.272   5.343
  239TIP3    H2  682   4.099   4.168   5.428
  240TIP3   OH2  683   5.203   2.294   1.032
  240TIP3    H1  684   5.186   2.278   1.125
  240TIP3    H2  685   5.244   2.214   1.001
  241TIP3   OH2  686   1.988   5.938   2.742
  241TIP3    H1  687   2.061   5.877   2.732
  241TIP3    H2  688   1.969   5.938   2.836
  242TIP3   OH2  689   2.778   2.932   4.458
  242TIP3    H1  690   2.761   2.996   4.526
  242TIP3    H2  691   2.864   2.896   4.480
  243TIP3   OH2  692   0.798   3.263   0.598
  243TIP3    H1  693   0.716   3.247   0.551
  243TIP3    H2  694   0.788   3.351   0.635
  244TIP3   OH2  695   5.590   5.932   2.154
  244TIP3    H1  696   5.641   5.963   2.079
  244TIP3    H2  697   5.594   6.005   2.217
  245TIP3   OH2  698   1.096   4.697   3.740
  245TIP3    H1  699   1.109   4.759   3.668
  245TIP3    H2  700   1.043   4.745   3.804
  246TIP3   OH2  701   2.302   0.596   0.233
  246TIP3    H1  702   2.304   0.692   0.232
  246TIP3    H2  703   2.219   0.574   0.191
  247TIP3   OH2  704   5.310   1.877   4.373
  247TIP3    H1  705   5.311   1.786   4.402
  247TIP3    H2  706   5.344   1.875   4.284
  248TIP3   OH2  707   1.956   1.115   0.072
  248TIP3    H1  708   1.952   1.034   0.123
  248TIP3    H2  709   2.043   1.150   0.090
  249TIP3   OH2  710   3.057   5.975   1.267
  249TIP3    H1  711   3.039   5.995   1.175
  249TIP3    H2  712   2.991   5.909   1.290
  250TIP3   OH2  713   4.599   0.558   1.327
  250TIP3    H1  714   4.682   0.583   1.367
  250TIP3    H2  715   4.593   0.463   1.339
  251TIP3   OH2  716   5.696   5.006   2.411
  251TIP3    H1  717   5.645   4.941   2.459
  251TIP3    H2  718   5.642   5.085   2.412
  252TIP3   OH2  719   2.848   0.083   4.507
  252TIP3    H1  720   2.915   0.131   4.556
  252TIP3    H2  721   2.845   0.126   4.422
  253TIP3   OH2  722   4.874   2.701   1.722
  253TIP3    H1  723   4.782   2.682   1.703
  253TIP3    H2  724   4.874   2.789   1.758
  254TIP3   OH2  725   1.440   2.366   0.347
  254TIP3    H1  726   1.449   2.294   0.410
  254TIP3    H2  727   1.441   2.323   0.261
  255TIP3   OH2  728   4.335   5.257   1.193
  255TIP3    H1  729   4.345   5.250   1.288
  255TIP3    H2  730   4.300   5.345   1.179
  256TIP3   OH2  731   2.512   0.721   1.262
  256TIP3    H1  732   2.540   0.763   1.344
  256TIP3    H2  733   2.564   0.763   1.194
  257TIP3   OH2  734   5.766   0.045   0.631
  257TIP3    H1  735   5.844   0.024   0.579
  257TIP3    H2  736   5.693   0.016   0.576
  258TIP3   OH2  737   3.418   5.024   4.714
  258TIP3    H1  738   3.398   4.998   4.804
  258TIP3    H2  739   3.479   5.098   4.724
  259TIP3   OH2  740   3.315   3.524   3.743
  259TIP3    H1  741   3.326   3.588   3.814
  259TIP3    H2  742   3.246   3.561   3.688
  260TIP3   OH2  743   5.361   2.905   5.047
  260TIP3    H1  744   5.334   2.987   5.089
  260TIP3    H2  745   5.278   2.862   5.025
  261TIP3   OH2  746   2.235   1.689   5.785
  261TIP3    H1  747   2.240   1.717   5.694
  261TIP3    H2  748   2.312   1.633   5.798
  262TIP3   OH2  749   1.510   0.485   1.528
  262TIP3    H1  750   1.530   0.562   1.580
  262TIP3    H2  751   1.447   0.515   1.463
  263TIP3   OH2  752   6.718   2.377   2.201
  263TIP3    H1  753   6.745   2.285   2.190
  263TIP3    H2  754   6.623   2.373   2.208
  264TIP3   OH2  755   2.442   5.678   2.828
  264TIP3    H1  756   2.448   5.703   2.920
  264TIP3    H2  757   2.433   5.583   2.830
  265TIP3   OH2  758   4.109   1.437   2.066
  265TIP3    H1  759   4.060   1.463   1.988
  265TIP3    H2  760   4.077   1.495   2.135
  266TIP3   OH2  761   0.978   1.650   2.350
  266TIP3    H1  762   0.886   1.676   2.343
  266TIP3    H2  763   1.015   1.669   2.264
  267TIP3   OH2  764   2.413   2.080   4.052
  267TIP3    H1  765   2.339   2.126   4.012
  267TIP3    H2  766   2.472   2.150   4.081
  268TIP3   OH2  767   4.831   4.122   1.972
  268TIP3    H1  768   4.787   4.176   1.906
  268TIP3    H2  769   4.901   4.178   2.006
  269TIP3   OH2  770   6.753   5.435   0.352
  269TIP3    H1  771   6.682   5.446   0.290
  269TIP3    H2  772   6.788   5.348   0.333
  270TIP3   OH2  773   4.596   2.246   2.773
  270TIP3    H1  774   4.671   2.278   2.724
  270TIP3    H2  775   4.570   2.319   2.830
  271TIP3   OH2  776   6.418   2.779   5.578
  271TIP3    H1  777   6.420   2.851   5.515
  271TIP3    H2  778   6.381   2.705   5.530
  272TIP3   OH2  779   3.291   5.873   2.632
  272TIP3    H1  780   3.381   5.841   2.632
  272TIP3    H2  781   3.255   5.843   2.716
  273TIP3   OH2  782   1.527   4.980   1.945
  273TIP3    H1  783   1.599   4.920   1.926
  273TIP3    H2  784   1.554   5.024   2.026
  274TIP3   OH2  785   1.179   1.606   3.792
  274TIP3    H1  786   1.149   1.634   3.706
  274TIP3    H2  787   1.128   1.661   3.853
  275TIP3   OH2  788   4.120   4.931   0.529
  275TIP3    H1  789   4.030   4.962   0.518
  275TIP3    H2  790   4.113   4.836   0.523
  276TIP3   OH2  791   3.594   1.492   4.952
  276TIP3    H1  792   3.505   1.508   4.981
  276TIP3    H2  793   3.586   1.423   4.886
  277TIP3   OH2  794   2.364   3.052   0.767
  277TIP3    H1  795   2.357   3.137   0.811
  277TIP3    H2  796   2.456   3.028   0.775
  278TIP3   OH2  797   3.587   4.188   3.268
  278TIP3    H1  798   3.516   4.228   3.318
  278TIP3    H2  799   3.654   4.168   3.333
  279TIP3   OH2  800   6.248   1.210   3.474
  279TIP3    H1  801   6.153   1.209   3.465
  279TIP3    H2  802   6.270   1.121   3.502
  280TIP3   OH2  803   1.807   6.704   3.653
  280TIP3    H1  804   1.806   6.609   3.651
  280TIP3    H2  805   1.715   6.730   3.658
  281TIP3   OH2  806   1.030   6.255   2.713
  281TIP3    H1  807   1.077   6.206   2.781
  281TIP3    H2  808   1.049   6.209   2.632
  282TIP3   OH2  809   5.070   1.984   3.900
  282TIP3    H1  810   5.089   2.011   3.990
  282TIP3    H2  811   5.156   1.966   3.862
  283TIP3   OH2  812   3.638   3.181   2.113
  283TIP3    H1  813   3.564   3.240   2.104
  283TIP3    H2  814   3.607   3.097   2.077
  284TIP3   OH2  815   3.145   1.951   3.303
  284TIP3    H1  816   3.134   1.989   3.390
  284TIP3    H2  817   3.132   1.857   3.315
  285TIP3   OH2  818   4.107   6.492   4.299
  285TIP3    H1  819   4.040   6.427   4.321
  285TIP3    H2  820   4.121   6.480   4.205
  286TIP3   OH2  821   6.793   1.463   2.770
  286TIP3    H1  822   6.882   1.428   2.778
  286TIP3    H2  823   6.749   1.402   2.711
  287TIP3   OH2  824   5.372   3.405   2.482
  287TIP3    H1  825   5.333   3.362   2.558
  287TIP3    H2  826   5.333   3.492   2.481
  288TIP3   OH2  827   6.004   3.391   1.138
  288TIP3    H1  828   6.021   3.485   1.141
  288TIP3    H2  829   6.045   3.357   1.218
  289TIP3   OH2  830   3.696   6.111   2.133
  289TIP3    H1  831   3.685   6.063   2.215
  289TIP3    H2  832   3.607   6.135   2.107
  290TIP3   OH2  833   4.790   0.100   0.509
  290TIP3    H1  834   4.715   0.110   0.568
  290TIP3    H2  835   4.813   0.007   0.516
  291TIP3   OH2  836   7.146   4.514   1.737
  291TIP3    H1  837   7.136   4.442   1.799
  291TIP3    H2  838   7.238   4.513   1.712
  292TIP3   OH2  839   5.759   0.529   4.709
  292TIP3    H1  840   5.807   0.600   4.752
  292TIP3    H2  841   5.704   0.574   4.645
  293TIP3   OH2  842   4.595   1.948   0.760
  293TIP3    H1  843   4.681   1.909   0.770
  293TIP3    H2  844   4.592   1.979   0.670
  294TIP3   OH2  845   6.202   2.358   4.533
  294TIP3    H1  846   6.140   2.294   4.499
  294TIP3    H2  847   6.236   2.402   4.455
  295TIP3   OH2  848   7.057   4.553   2.683
  295TIP3    H1  849   7.089   4.588   2.600
  295TIP3    H2  850   7.031   4.630   2.733
  296TIP3   OH2  851   4.880   3.992   1.295
  296TIP3    H1  852   4.964   3.995   1.342
  296TIP3    H2  853   4.894   4.045   1.217
  297TIP3   OH2  854   4.684   4.012   0.278
  297TIP3    H1  855   4.616   3.962   0.324
  297TIP3    H2  856   4.644   4.033   0.193
  298TIP3   OH2  857   5.557   3.302   2.073
  298TIP3    H1  858   5.516   3.224   2.108
  298TIP3    H2  859   5.646   3.274   2.050
  299TIP3   OH2  860   1.235   0.257   1.385
  299TIP3    H1  861   1.248   0.166   1.412
  299TIP3    H2  862   1.270   0.261   1.296
  300TIP3   OH2  863   6.576   1.922   0.373
  300TIP3    H1  864   6.496   1.964   0.403
  300TIP3    H2  865   6.579   1.838   0.419
  301TIP3   OH2  866   4.597   1.439   0.385
  301TIP3    H1  867   4.502   1.437   0.369
  301TIP3    H2  868   4.616   1.531   0.402
  302TIP3   OH2  869   2.868   4.763   2.984
  302TIP3    H1  870   2.896   4.788   3.073
  302TIP3    H2  871   2.928   4.811   2.926
  303TIP3   OH2  872   6.099   4.022   0.058
  303TIP3    H1  873   6.161   3.997  -0.011
  303TIP3    H2  874   6.100   3.948   0.119
  304TIP3   OH2  875   6.842   1.550   3.904
  304TIP3    H1  876   6.796   1.473   3.937
  304TIP3    H2  877   6.787   1.624   3.929
  305TIP3   OH2  878   4.894   5.098   1.463
  305TIP3    H1  879   4.911   5.007   1.437
  305TIP3    H2  880   4.804   5.097   1.495
  306TIP3   OH2  881   3.080   6.180   4.323
  306TIP3    H1  882   3.077   6.222   4.237
  306TIP3    H2  883   3.131   6.100   4.309
  307TIP3   OH2  884   5.868   4.007   4.144
  307TIP3    H1  885   5.796   3.951   4.175
  307TIP3    H2  886   5.826   4.090   4.122
  308TIP3   OH2  887   1.879   2.276   1.708
  308TIP3    H1  888   1.923   2.229   1.779
  308TIP3    H2  889   1.927   2.250   1.629
  309TIP3   OH2  890   3.680   6.102   1.743
  309TIP3    H1  891   3.652   6.148   1.664
  309TIP3    H2  892   3.644   6.013   1.733
  310TIP3   OH2  893   6.580   6.551   3.375
  310TIP3    H1  894   6.498   6.600   3.367
  310TIP3    H2  895   6.568   6.474   3.320
  311TIP3   OH2  896   3.195   5.840   3.241
  311TIP3    H1  897   3.201   5.811   3.333
  311TIP3    H2  898   3.232   5.767   3.191
  312TIP3   OH2  899   4.267   6.018   2.589
  312TIP3    H1  900   4.289   6.057   2.674
  312TIP3    H2  901   4.288   5.925   2.599
  313TIP3   OH2  902   1.557   5.548   4.364
  313TIP3    H1  903   1.639   5.542   4.413
  313TIP3    H2  904   1.572   5.500   4.283
  314TIP3   OH2  905   1.597   0.174   3.941
  314TIP3    H1  906   1.571   0.093   3.898
  314TIP3    H2  907   1.540   0.241   3.903
  315TIP3   OH2  908   2.754   5.575   3.669
  315TIP3    H1  909   2.755   5.654   3.616
  315TIP3    H2  910   2.787   5.506   3.611
  316TIP3   OH2  911   5.294   0.046   5.854
  316TIP3    H1  912   5.298  -0.049   5.855
  316TIP3    H2  913   5.209   0.067   5.892
  317TIP3   OH2  914   5.809   0.289   4.629
  317TIP3    H1  915   5.801   0.372   4.676
  317TIP3    H2  916   5.733   0.288   4.570
  318TIP3   OH2  917   5.412   3.290   0.098
  318TIP3    H1  918   5.366   3.287   0.182
  318TIP3    H2  919   5.414   3.383   0.075
  319TIP3   OH2  920   1.305   0.785   0.798
  319TIP3    H1  921   1.251   0.778   0.720
  319TIP3    H2  922   1.348   0.871   0.790
  320TIP3   OH2  923   3.301   5.201   5.847
  320TIP3    H1  924   3.335   5.138   5.911
  320TIP3    H2  925   3.277   5.277   5.900
  321TIP3   OH2  926   3.546   1.546   1.185
  321TIP3    H1  927   3.526   1.465   1.138
  321TIP3    H2  928   3.499   1.539   1.268
  322TIP3   OH2  929   2.071   2.850   5.395
  322TIP3    H1  930   2.016   2.812   5.464
  322TIP3    H2  931   2.107   2.774   5.349
  323TIP3   OH2  932   0.818   5.924   0.375
  323TIP3    H1  933   0.779   5.928   0.287
  323TIP3    H2  934   0.857   6.011   0.388
  324TIP3   OH2  935   1.579   0.125   5.805
  324TIP3    H1  936   1.532   0.183   5.865
  324TIP3    H2  937   1.668   0.121   5.840
  325TIP3   OH2  938   1.937   4.681   2.064
  325TIP3    H1  939   1.877   4.626   2.116
  325TIP3    H2  940   1.944   4.762   2.114
  326TIP3   OH2  941   3.962   1.741   2.828
  326TIP3    H1  942   3.871   1.729   2.858
  326TIP3    H2  943   4.015   1.726   2.906
  327TIP3   OH2  944   1.650   0.306   2.210
  327TIP3    H1  945   1.706   0.357   2.268
  327TIP3    H2  946   1.705   0.290   2.132
  328TIP3   OH2  947   4.183   2.847   4.489
  328TIP3    H1  948   4.258   2.792   4.465
  328TIP3    H2  949   4.172   2.906   4.415
  329TIP3   OH2  950   4.808   4.926   0.579
  329TIP3    H1  951   4.730   4.967   0.617
  329TIP3    H2  952   4.786   4.913   0.487
  330TIP3   OH2  953   4.221   2.470   2.324
  330TIP3    H1  954   4.275   2.448   2.400
  330TIP3    H2  955   4.254   2.556   2.295
  331TIP3   OH2  956   1.694   0.924   4.056
  331TIP3    H1  957   1.705   0.989   3.987
  331TIP3    H2  958   1.767   0.939   4.116
  332TIP3   OH2  959   5.837   1.546   4.796
  332TIP3    H1  960   5.793   1.590   4.869
  332TIP3    H2  961   5.770   1.542   4.727
  333TIP3   OH2  962   0.794  -0.006   2.775
  333TIP3    H1  963   0.782   0.075   2.727
  333TIP3    H2  964   0.824   0.021   2.862
  334TIP3   OH2  965   6.547   5.327   2.456
  334TIP3    H1  966   6.494   5.364   2.385
  334TIP3    H2  967   6.573   5.402   2.508
  335TIP3   OH2  968   4.723   5.522   3.788
  335TIP3    H1  969   4.741   5.485   3.875
  335TIP3    H2  970   4.773   5.604   3.786
  336TIP3   OH2  971   5.629   6.335   1.678
  336TIP3    H1  972   5.570   6.396   1.634
  336TIP3    H2  973   5.683   6.298   1.607
  337TIP3   OH2  974   0.851   1.013   2.272
  337TIP3    H1  975   0.945   1.031   2.268
  337TIP3    H2  976   0.822   1.048   2.356
  338TIP3   OH2  977   0.212   4.616   3.501
  338TIP3    H1  978   0.256   4.675   3.440
  338TIP3    H2  979   0.162   4.673   3.559
  339TIP3   OH2  980   0.829   6.611   1.903
  339TIP3    H1  981   0.866   6.687   1.947
  339TIP3    H2  982   0.840   6.539   1.965
  340TIP3   OH2  983   4.045   1.710   5.426
  340TIP3    H1  984   4.084   1.634   5.382
  340TIP3    H2  985   4.008   1.762   5.354
  341TIP3   OH2  986   1.786   1.708   1.852
  341TIP3    H1  987   1.772   1.625   1.808
  341TIP3    H2  988   1.705   1.757   1.838
  342TIP3   OH2  989   5.274   3.753   4.766
  342TIP3    H1  990   5.223   3.681   4.728
  342TIP3    H2  991   5.325   3.788   4.693
  343TIP3   OH2  992   5.491   1.231   1.566
  343TIP3    H1  993   5.577   1.196   1.588
  343TIP3    H2  994   5.488   1.318   1.605
  344TIP3   OH2  995   6.383   1.455   2.621
  344TIP3    H1  996   6.301   1.469   2.573
  344TIP3    H2  997   6.394   1.534   2.673
  345TIP3   OH2  998   2.348   1.412   0.437
  345TIP3    H1  999   2.304   1.496   0.452
  345TIP3    H2 1000   2.429   1.435   0.391
  346TIP3   OH2 1001   0.041   0.960   3.199
  346TIP3    H1 1002   0.017   0.869   3.182
  346TIP3    H2 1003  -0.017   1.011   3.143
  347TIP3   OH2 1004   2.878   5.352   3.555
  347TIP3    H1 1005   2.957   5.347   3.609
  347TIP3    H2 1006   2.847   5.262   3.549
  348TIP3   OH2 1007   4.531   3.606   5.341
  348TIP3    H1 1008   4.529   3.650   5.426
  348TIP3    H2 1009   4.623   3.583   5.328
  349TIP3   OH2 1010   6.841   5.046   1.538
  349TIP3    H1 1011   6.792   4.964   1.547
  349TIP3    H2 1012   6.814   5.098   1.614
  350TIP3   OH2 1013   2.959   2.872   4.648
  350TIP3    H1 1014   2.961   2.793   4.701
  350TIP3    H2 1015   2.939   2.942   4.710
  351TIP3   OH2 1016   4.861   1.343   4.273
  351TIP3    H1 1017   4.895   1.273   4.217
  351TIP3    H2 1018   4.820   1.297   4.346
  352TIP3   OH2 1019   2.778   5.473   3.218
  352TIP3    H1 1020   2.803   5.539   3.283
  352TIP3    H2 1021   2.806   5.510   3.134
  353TIP3   OH2 1022   5.390   1.935  -0.019
  353TIP3    H1 1023   5.465   1.937   0.041
  353TIP3    H2 1024   5.317   1.966   0.034
  354TIP3   OH2 1025   6.824   2.719   0.449
  354TIP3    H1 1026   6.848   2.810   0.465
  354TIP3    H2 1027   6.827   2.678   0.536
  355TIP3   OH2 1028   0.268   2.350   3.901
  355TIP3    H1 1029   0.185   2.348   3.852
  355TIP3    H2 1030   0.295   2.442   3.897
  356TIP3   OH2 1031   2.054   2.664   3.381
  356TIP3    H1 1032   2.089   2.591   3.331
  356TIP3    H2 1033   2.119   2.734   3.370
  357TIP3   OH2 1034   0.907   2.216   4.743
  357TIP3    H1 1035   0.825   2.197   4.698
  357TIP3    H2 1036   0.936   2.132   4.778
  358TIP3   OH2 1037   5.734   1.471   4.228
  358TIP3    H1 1038   5.795   1.518   4.171
  358TIP3    H2 1039   5.693   1.406   4.172
  359TIP3   OH2 1040   1.259   5.214   0.876
  359TIP3    H1 1041   1.312   5.175   0.945
  359TIP3    H2 1042   1.225   5.139   0.827
  360TIP3   OH2 1043   2.013   1.047   1.764
  360TIP3    H1 1044   2.075   0.979   1.791
  360TIP3    H2 1045   1.951   1.053   1.838
  361TIP3   OH2 1046   2.394   3.009   0.476
  361TIP3    H1 1047   2.342   3.057   0.411
  361TIP3    H2 1048   2.366   3.045   0.560
  362TIP3   OH2 1049   1.507   0.035   3.082
  362TIP3    H1 1050   1.488  -0.017   3.004
  362TIP3    H2 1051   1.586   0.085   3.058
  363TIP3   OH2 1052   2.662   4.204   3.709
  363TIP3    H1 1053   2.649   4.299   3.701
  363TIP3    H2 1054   2.625   4.182   3.795
  364TIP3   OH2 1055   2.024   4.292   5.737
  364TIP3    H1 1056   1.973   4.289   5.656
  364TIP3    H2 1057   2.086   4.220   5.729
  365TIP3   OH2 1058   0.683   3.754   1.020
  365TIP3    H1 1059   0.709   3.704   1.098
  365TIP3    H2 1060   0.621   3.697   0.975
  366TIP3   OH2 1061   5.386   3.101   3.809
  366TIP3    H1 1062   5.336   3.107   3.727
  366TIP3    H2 1063   5.449   3.030   3.793
  367TIP3   OH2 1064   4.192   4.959   3.939
  367TIP3    H1 1065   4.125   4.943   4.005
  367TIP3    H2 1066   4.183   4.885   3.878
  368TIP3   OH2 1067   6.433   5.529   4.696
  368TIP3    H1 1068   6.525   5.502   4.704
  368TIP3    H2 1069   6.432   5.619   4.731
  369TIP3   OH2 1070   2.388   6.323   0.943
  369TIP3    H1 1071   2.362   6.233   0.925
  369TIP3    H2 1072   2.370   6.335   1.036
  370TIP3   OH2 1073   5.616   0.361   2.995
  370TIP3    H1 1074   5.703   0.327   3.016
  370TIP3    H2 1075   5.555   0.303   3.041
  371TIP3   OH2 1076   0.948   3.829   0.352
  371TIP3    H1 1077   1.010   3.855   0.420
  371TIP3    H2 1078   1.003   3.803   0.278
  372TIP3   OH2 1079   0.664   4.404   1.227
  372TIP3    H1 1080   0.731   4.402   1.296
  372TIP3    H2 1081   0.582   4.414   1.275
  373TIP3   OH2 1082   5.189   4.656   0.596
  373TIP3    H1 1083   5.273   4.676   0.554
  373TIP3    H2 1084   5.165   4.570   0.560
  374TIP3   OH2 1085   6.018   1.286   0.370
  374TIP3    H1 1086   6.069   1.367   0.368
  374TIP3    H2 1087   6.074   1.222   0.325
  375TIP3   OH2 1088   2.547   5.525   1.167
  375TIP3    H1 1089   2.524   5.509   1.259
  375TIP3    H2 1090   2.510   5.611   1.149
  376TIP3   OH2 1091   1.479   5.201   3.485
  376TIP3    H1 1092   1.388   5.229   3.497
  376TIP3    H2 1093   1.501   5.229   3.396
  377TIP3   OH2 1094   1.317   2.588   4.634
  377TIP3    H1 1095   1.396   2.536   4.619
  377TIP3    H2 1096   1.249   2.523   4.653
  378TIP3   OH2 1097   0.576   3.680   3.903
  378TIP3    H1 1098   0.495   3.642   3.938
  378TIP3    H2 1099   0.641   3.666   3.972
  379TIP3   OH2 1100   6.998   5.036   5.348
  379TIP3    H1 1101   7.002   5.054   5.442
  379TIP3    H2 1102   7.086   5.004   5.327
  380TIP3   OH2 1103   5.245   4.298   2.419
  380TIP3    H1 1104   5.173   4.255   2.464
  380TIP3    H2 1105   5.249   4.255   2.333
  381TIP3   OH2 1106   4.047   2.901   1.639
  381TIP3    H1 1107   4.129   2.938   1.607
  381TIP3    H2 1108   4.072   2.817   1.677
  382TIP3   OH2 1109   4.402   0.788   3.618
  382TIP3    H1 1110   4.346   0.850   3.571
  382TIP3    H2 1111   4.347   0.757   3.690
  383TIP3   OH2 1112   2.185   6.424   3.683
  383TIP3    H1 1113   2.241   6.492   3.645
  383TIP3    H2 1114   2.162   6.457   3.770
  384TIP3   OH2 1115   6.168   0.306   0.777
  384TIP3    H1 1116   6.147   0.278   0.688
  384TIP3    H2 1117   6.261   0.330   0.773
  385TIP3   OH2 1118   7.161   6.231   1.171
  385TIP3    H1 1119   7.104   6.306   1.183
  385TIP3    H2 1120   7.250   6.267   1.170
  386TIP3   OH2 1121   5.643   6.736   5.394
  386TIP3    H1 1122   5.646   6.807   5.457
  386TIP3    H2 1123   5.726   6.690   5.406
  387TIP3   OH2 1124   1.069   4.982   3.109
  387TIP3    H1 1125   1.161   4.959   3.092
  387TIP3    H2 1126   1.062   4.978   3.205
  388TIP3   OH2 1127   4.307   3.986   1.581
  388TIP3    H1 1128   4.365   3.942   1.518
  388TIP3    H2 1129   4.351   4.069   1.600
  389TIP3   OH2 1130   1.321   1.436   1.822
  389TIP3    H1 1131   1.290   1.488   1.896
  389TIP3    H2 1132   1.312   1.494   1.746
  390TIP3   OH2 1133   7.143   0.493   4.265
  390TIP3    H1 1134   7.139   0.535   4.179
  390TIP3    H2 1135   7.096   0.553   4.323
  391TIP3   OH2 1136   1.895   1.538   0.456
  391TIP3    H1 1137   1.807   1.510   0.481
  391TIP3    H2 1138   1.887   1.561   0.363
  392TIP3   OH2 1139   2.920   5.208   5.310
  392TIP3    H1 1140   3.008   5.244   5.296
  392TIP3    H2 1141   2.865   5.255   5.248
  393TIP3   OH2 1142   2.767   2.956   4.195
  393TIP3    H1 1143   2.769   3.052   4.193
  393TIP3    H2 1144   2.774   2.934   4.287
  394TIP3   OH2 1145   4.475   1.574   4.669
  394TIP3    H1 1146   4.510   1.516   4.601
  394TIP3    H2 1147   4.387   1.596   4.638
  395TIP3   OH2 1148   6.188   4.551   3.957
  395TIP3    H1 1149   6.133   4.496   4.012
  395TIP3    H2 1150   6.274   4.550   4.000
  396TIP3   OH2 1151   5.032   1.683   0.051
  396TIP3    H1 1152   5.040   1.677  -0.044
  396TIP3    H2 1153   5.115   1.723   0.079
  397TIP3   OH2 1154   1.369   1.648   1.301
  397TIP3    H1 1155   1.361   1.699   1.381
  397TIP3    H2 1156   1.445   1.684   1.257
  398TIP3   OH2 1157   0.445   1.798   4.590
  398TIP3    H1 1158   0.447   1.883   4.547
  398TIP3    H2 1159   0.403   1.815   4.675
  399TIP3   OH2 1160   2.231   0.023   1.705
  399TIP3    H1 1161   2.215  -0.037   1.778
  399TIP3    H2 1162   2.282   0.094   1.743
  400TIP3   OH2 1163   0.847   0.561   1.514
  400TIP3    H1 1164   0.934   0.550   1.477
  400TIP3    H2 1165   0.808   0.473   1.509
  401TIP3   OH2 1166   6.653   0.432   4.796
  401TIP3    H1 1167   6.672   0.432   4.703
  401TIP3    H2 1168   6.585   0.499   4.807
  402TIP3   OH2 1169   3.513   2.403   1.368
  402TIP3    H1 1170   3.503   2.491   1.332
  402TIP3    H2 1171   3.521   2.346   1.292
  403TIP3   OH2 1172   1.684   3.377   0.783
  403TIP3    H1 1173   1.609   3.318   0.786
  403TIP3    H2 1174   1.751   3.328   0.736
  404TIP3   OH2 1175   1.182   4.337   3.439
  404TIP3    H1 1176   1.153   4.409   3.495
  404TIP3    H2 1177   1.102   4.305   3.396
  405TIP3   OH2 1178   1.307   3.940   2.447
  405TIP3    H1 1179   1.270   3.985   2.523
  405TIP3    H2 1180   1.262   3.856   2.444
  406TIP3   OH2 1181   4.501   6.119   0.560
  406TIP3    H1 1182   4.580   6.071   0.582
  406TIP3    H2 1183   4.476   6.087   0.473
  407TIP3   OH2 1184   5.260   1.934   1.432
  407TIP3    H1 1185   5.331   1.870   1.437
  407TIP3    H2 1186   5.253   1.968   1.521
  408TIP3   OH2 1187   0.650   3.943   2.103
  408TIP3    H1 1188   0.580   3.883   2.076
  408TIP3    H2 1189   0.680   3.982   2.021
  409TIP3   OH2 1190   0.693   4.727   0.151
  409TIP3    H1 1191   0.622   4.723   0.087
  409TIP3    H2 1192   0.772   4.711   0.100
  410TIP3   OH2 1193   0.558   3.731   1.702
  410TIP3    H1 1194   0.477   3.689   1.675
  410TIP3    H2 1195   0.609   3.662   1.743
  411TIP3   OH2 1196   3.821   4.703   0.697
  411TIP3    H1 1197   3.897   4.725   0.642
  411TIP3    H2 1198   3.761   4.657   0.638
  412TIP3   OH2 1199   0.260   6.348   3.208
  412TIP3    H1 1200   0.273   6.331   3.114
  412TIP3    H2 1201   0.338   6.396   3.235
  413TIP3   OH2 1202   5.808   4.430   2.902
  413TIP3    H1 1203   5.719   4.458   2.923
  413TIP3    H2 1204   5.811   4.428   2.806
  414TIP3   OH2 1205   2.134   0.076   1.233
  414TIP3    H1 1206   2.129   0.108   1.323
  414TIP3    H2 1207   2.193   0.137   1.189
  415TIP3   OH2 1208   5.094   2.065   5.157
  415TIP3    H1 1209   5.059   1.995   5.211
  415TIP3    H2 1210   5.128   2.021   5.080
  416TIP3   OH2 1211   5.304   3.617   0.248
  416TIP3    H1 1212   5.312   3.713   0.250
  416TIP3    H2 1213   5.210   3.601   0.252
  417TIP3   OH2 1214   0.769   3.976   0.165
  417TIP3    H1 1215   0.823   3.924   0.225
  417TIP3    H2 1216   0.777   3.930   0.081
  418TIP3   OH2 1217   6.717   4.247   4.452
  418TIP3    H1 1218   6.749   4.323   4.403
  418TIP3    H2 1219   6.621   4.252   4.444
  419TIP3   OH2 1220   1.018   6.655   1.705
  419TIP3    H1 1221   1.028   6.749   1.689
  419TIP3    H2 1222   0.934   6.647   1.750
  420TIP3   OH2 1223   5.840   3.802   3.141
  420TIP3    H1 1224   5.931   3.809   3.170
  420TIP3    H2 1225   5.804   3.890   3.151
  421TIP3   OH2 1226   0.026   3.198   4.751
  421TIP3    H1 1227   0.012   3.152   4.668
  421TIP3    H2 1228   0.073   3.135   4.805
  422TIP3   OH2 1229   0.985   6.111   0.485
  422TIP3    H1 1230   1.039   6.032   0.494
  422TIP3    H2 1231   0.917   6.102   0.551
  423TIP3   OH2 1232   5.585   1.216   2.845
  423TIP3    H1 1233   5.653   1.223   2.779
  423TIP3    H2 1234   5.629   1.237   2.928
  424TIP3   OH2 1235   6.142   4.614   2.745
  424TIP3    H1 1236   6.060   4.652   2.777
  424TIP3    H2 1237   6.116   4.552   2.677
  425TIP3   OH2 1238   0.894   4.768   2.784
  425TIP3    H1 1239   0.817   4.722   2.751
  425TIP3    H2 1240   0.952   4.777   2.708
  426TIP3   OH2 1241   5.166   1.074   4.217
  426TIP3    H1 1242   5.130   1.006   4.159
  426TIP3    H2 1243   5.120   1.061   4.300
  427TIP3   OH2 1244   5.729   6.490   0.550
  427TIP3    H1 1245   5.693   6.407   0.583
  427TIP3    H2 1246   5.820   6.489   0.580
  428TIP3   OH2 1247   0.261   6.831   2.955
  428TIP3    H1 1248   0.351   6.800   2.957
  428TIP3    H2 1249   0.208   6.752   2.951
  429TIP3   OH2 1250   6.908   1.526   3.390
  429TIP3    H1 1251   6.846   1.587   3.430
  429TIP3    H2 1252   6.854   1.466   3.339
  430TIP3   OH2 1253   1.484   5.614   4.007
  430TIP3    H1 1254   1.503   5.624   3.914
  430TIP3    H2 1255   1.569   5.600   4.048
  431TIP3   OH2 1256   0.751   3.476   0.059
  431TIP3    H1 1257   0.733   3.425   0.138
  431TIP3    H2 1258   0.673   3.464   0.005
  432TIP3   OH2 1259   0.516   0.832   0.972
  432TIP3    H1 1260   0.496   0.890   0.899
  432TIP3    H2 1261   0.607   0.851   0.994
  433TIP3   OH2 1262   3.727   0.113   1.649
  433TIP3    H1 1263   3.660   0.179   1.669
  433TIP3    H2 1264   3.687   0.059   1.581
  434TIP3   OH2 1265   3.812   0.948   3.476
  434TIP3    H1 1266   3.843   1.038   3.460
  434TIP3    H2 1267   3.833   0.901   3.395
  435TIP3   OH2 1268   3.176   2.091   5.416
  435TIP3    H1 1269   3.252   2.035   5.400
  435TIP3    H2 1270   3.183   2.159   5.349
  436TIP3   OH2 1271   5.969   3.288   0.883
  436TIP3    H1 1272   5.971   3.326   0.971
  436TIP3    H2 1273   6.000   3.357   0.826
  437TIP3   OH2 1274   4.936   3.111   0.654
  437TIP3    H1 1275   4.928   3.146   0.566
  437TIP3    H2 1276   5.026   3.134   0.681
  438TIP3   OH2 1277   3.500   0.635   0.259
  438TIP3    H1 1278   3.478   0.695   0.331
  438TIP3    H2 1279   3.480   0.684   0.180
  439TIP3   OH2 1280   5.163   1.841   0.402
  439TIP3    H1 1281   5.157   1.876   0.313
  439TIP3    H2 1282   5.101   1.893   0.453
  440TIP3   OH2 1283   6.316   4.274   3.810
  440TIP3    H1 1284   6.364   4.350   3.844
  440TIP3    H2 1285   6.253   4.313   3.749
  441TIP3   OH2 1286   4.334   2.210   4.716
  441TIP3    H1 1287   4.402   2.277   4.702
  441TIP3    H2 1288   4.260   2.241   4.663
  442TIP3   OH2 1289   1.596   5.953   5.372
  442TIP3    H1 1290   1.657   6.003   5.427
  442TIP3    H2 1291   1.637   5.867   5.364
  443TIP3   OH2 1292   4.319   4.675   3.816
  443TIP3    H1 1293   4.252   4.729   3.774
  443TIP3    H2 1294   4.401   4.704   3.776
  444TIP3   OH2 1295   6.460   1.432   3.016
  444TIP3    H1 1296   6.487   1.364   2.954
  444TIP3    H2 1297   6.369   1.451   2.993
  445TIP3   OH2 1298   4.161   4.220   2.835
  445TIP3    H1 1299   4.108   4.210   2.755
  445TIP3    H2 1300   4.139   4.144   2.888
  446TIP3   OH2 1301   6.470   0.704   3.236
  446TIP3    H1 1302   6.420   0.675   3.160
  446TIP3    H2 1303   6.418   0.677   3.312
  447TIP3   OH2 1304   4.248   4.488   5.073
  447TIP3    H1 1305   4.297   4.568   5.088
  447TIP3    H2 1306   4.207   4.500   4.987
  448TIP3   OH2 1307   6.249   5.021   1.995
  448TIP3    H1 1308   6.277   4.948   2.050
  448TIP3    H2 1309   6.176   5.061   2.042
  449TIP3   OH2 1310   1.541   1.084   5.182
  449TIP3    H1 1311   1.620   1.111   5.230
  449TIP3    H2 1312   1.551   0.990   5.170
  450TIP3   OH2 1313   1.199   4.244   2.068
  450TIP3    H1 1314   1.208   4.175   2.134
  450TIP3    H2 1315   1.285   4.247   2.026
  451TIP3   OH2 1316   6.034   6.038   0.536
  451TIP3    H1 1317   5.996   5.972   0.478
  451TIP3    H2 1318   6.127   6.039   0.514
  452TIP3   OH2 1319   3.724   1.119   4.133
  452TIP3    H1 1320   3.708   1.030   4.099
  452TIP3    H2 1321   3.693   1.116   4.223
  453TIP3   OH2 1322   3.037   6.268   3.223
  453TIP3    H1 1323   3.060   6.348   3.271
  453TIP3    H2 1324   2.993   6.300   3.144
  454TIP3   OH2 1325   2.298   4.066   1.821
  454TIP3    H1 1326   2.371   4.127   1.805
  454TIP3    H2 1327   2.282   4.024   1.736
  455TIP3   OH2 1328   4.116   5.859   4.819
  455TIP3    H1 1329   4.047   5.799   4.847
  455TIP3    H2 1330   4.141   5.906   4.898
  456TIP3   OH2 1331   4.540   0.363   4.247
  456TIP3    H1 1332   4.585   0.370   4.332
  456TIP3    H2 1333   4.476   0.434   4.248
  457TIP3   OH2 1334   3.838   1.499   0.884
  457TIP3    H1 1335   3.755   1.451   0.892
  457TIP3    H2 1336   3.905   1.430   0.878
  458TIP3   OH2 1337   3.646   2.967   1.729
  458TIP3    H1 1338   3.594   2.954   1.650
  458TIP3    H2 1339   3.726   3.010   1.698
  459TIP3   OH2 1340   0.357   1.699   2.930
  459TIP3    H1 1341   0.319   1.671   3.013
  459TIP3    H2 1342   0.333   1.629   2.868
  460TIP3   OH2 1343   0.825   3.981   5.548
  460TIP3    H1 1344   0.859   4.063   5.584
  460TIP3    H2 1345   0.770   3.946   5.619
  461TIP3   OH2 1346   3.469   1.702   0.564
  461TIP3    H1 1347   3.550   1.715   0.515
  461TIP3    H2 1348   3.444   1.790   0.592
  462TIP3   OH2 1349   0.340   5.503   0.378
  462TIP3    H1 1350   0.335   5.415   0.341
  462TIP3    H2 1351   0.279   5.502   0.452
  463TIP3   OH2 1352   4.869   1.836   3.789
  463TIP3    H1 1353   4.902   1.746   3.784
  463TIP3    H2 1354   4.940   1.886   3.829
  464TIP3   OH2 1355   3.511   4.516   3.736
  464TIP3    H1 1356   3.595   4.522   3.781
  464TIP3    H2 1357   3.477   4.430   3.760
  465TIP3   OH2 1358   6.159   4.397   5.104
  465TIP3    H1 1359   6.194   4.348   5.029
  465TIP3    H2 1360   6.138   4.484   5.069
  466TIP3   OH2 1361   2.471   6.070   4.055
  466TIP3    H1 1362   2.411   6.145   4.056
  466TIP3    H2 1363   2.558   6.110   4.046
  467TIP3   OH2 1364   7.144   1.641   1.557
  467TIP3    H1 1365   7.154   1.619   1.650
  467TIP3    H2 1366   7.054   1.673   1.549
  468TIP3   OH2 1367   2.801   0.391   4.578
  468TIP3    H1 1368   2.744   0.349   4.514
  468TIP3    H2 1369   2.889   0.360   4.555
  469TIP3   OH2 1370   5.158   6.295   5.229
  469TIP3    H1 1371   5.217   6.265   5.298
  469TIP3    H2 1372   5.205   6.278   5.148
  470TIP3   OH2 1373   1.797   5.303   3.109
  470TIP3    H1 1374   1.859   5.332   3.042
  470TIP3    H2 1375   1.841   5.229   3.152
  471TIP3   OH2 1376   7.053   0.622   3.765
  471TIP3    H1 1377   7.047   0.693   3.701
  471TIP3    H2 1378   7.012   0.547   3.723
  472TIP3   OH2 1379   5.837   6.291   4.822
  472TIP3    H1 1380   5.818   6.367   4.767
  472TIP3    H2 1381   5.899   6.239   4.771
  473TIP3   OH2 1382   0.739   1.561   5.779
  473TIP3    H1 1383   0.761   1.586   5.869
  473TIP3    H2 1384   0.759   1.467   5.775
  474TIP3   OH2 1385   6.725   4.020   4.633
  474TIP3    H1 1386   6.665   3.972   4.578
  474TIP3    H2 1387   6.770   3.953   4.684
  475TIP3   OH2 1388   4.716   4.337   1.047
  475TIP3    H1 1389   4.689   4.300   1.130
  475TIP3    H2 1390   4.728   4.431   1.065
  476TIP3   OH2 1391   0.443   1.362   2.498
  476TIP3    H1 1392   0.382   1.292   2.473
  476TIP3    H2 1393   0.479   1.392   2.415
  477TIP3   OH2 1394   5.574   5.568   3.196
  477TIP3    H1 1395   5.622   5.634   3.246
  477TIP3    H2 1396   5.489   5.608   3.179
  478TIP3   OH2 1397   1.856   0.156   2.577
  478TIP3    H1 1398   1.836   0.237   2.624
  478TIP3    H2 1399   1.951   0.149   2.580
  479TIP3   OH2 1400   2.205   4.501   4.246
  479TIP3    H1 1401   2.283   4.553   4.264
  479TIP3    H2 1402   2.150   4.558   4.191
  480TIP3   OH2 1403   5.570   6.001   3.498
  480TIP3    H1 1404   5.640   6.020   3.559
  480TIP3    H2 1405   5.577   6.069   3.431
  481TIP3   OH2 1406   3.012   1.685   0.464
  481TIP3    H1 1407   3.093   1.634   0.461
  481TIP3    H2 1408   3.005   1.723   0.377
  482TIP3   OH2 1409   6.951   1.737   2.520
  482TIP3    H1 1410   6.877   1.677   2.510
  482TIP3    H2 1411   7.019   1.684   2.561
  483TIP3   OH2 1412   4.894   5.602   4.133
  483TIP3    H1 1413   4.895   5.666   4.063
  483TIP3    H2 1414   4.940   5.526   4.097
  484TIP3   OH2 1415   0.644   5.237   0.488
  484TIP3    H1 1416   0.681   5.215   0.402
  484TIP3    H2 1417   0.694   5.314   0.516
  485TIP3   OH2 1418   1.190   4.983   5.102
  485TIP3    H1 1419   1.197   4.995   5.007
  485TIP3    H2 1420   1.200   4.888   5.114
  486TIP3   OH2 1421   5.856   3.905   0.822
  486TIP3    H1 1422   5.825   3.830   0.771
  486TIP3    H2 1423   5.844   3.980   0.764
  487TIP3   OH2 1424   7.196   6.152   2.258
  487TIP3    H1 1425   7.169   6.072   2.212
  487TIP3    H2 1426   7.115   6.199   2.274
  488TIP3   OH2 1427   2.547   0.684   3.436
  488TIP3    H1 1428   2.500   0.652   3.359
  488TIP3    H2 1429   2.552   0.609   3.495
  489TIP3   OH2 1430   6.020   2.850   5.124
  489TIP3    H1 1431   6.010   2.821   5.033
  489TIP3    H2 1432   5.967   2.789   5.175
  490TIP3   OH2 1433   7.076   1.210   1.563
  490TIP3    H1 1434   6.996   1.173   1.599
  490TIP3    H2 1435   7.140   1.201   1.633
  491TIP3   OH2 1436   5.139   6.471   3.200
  491TIP3    H1 1437   5.170   6.392   3.156
  491TIP3    H2 1438   5.077   6.511   3.140
  492TIP3   OH2 1439   2.823   4.904   1.023
  492TIP3    H1 1440   2.886   4.901   0.951
  492TIP3    H2 1441   2.820   4.996   1.050
  493TIP3   OH2 1442   1.797   0.551   1.249
  493TIP3    H1 1443   1.821   0.471   1.203
  493TIP3    H2 1444   1.832   0.539   1.338
  494TIP3   OH2 1445   2.885   0.897   2.619
  494TIP3    H1 1446   2.897   0.903   2.714
  494TIP3    H2 1447   2.793   0.876   2.607
  495TIP3   OH2 1448   4.775   6.505   2.615
  495TIP3    H1 1449   4.853   6.449   2.611
  495TIP3    H2 1450   4.801   6.577   2.673
  496TIP3   OH2 1451   0.634   6.057   4.153
  496TIP3    H1 1452   0.654   6.108   4.231
  496TIP3    H2 1453   0.705   5.993   4.146
  497TIP3   OH2 1454   4.964   2.556   0.004
  497TIP3    H1 1455   5.011   2.593   0.078
  497TIP3    H2 1456   4.905   2.491   0.042
  498TIP3   OH2 1457   3.769   4.840   1.618
  498TIP3    H1 1458   3.718   4.830   1.538
  498TIP3    H2 1459   3.850   4.881   1.589
  499TIP3   OH2 1460   2.467   5.724   4.144
  499TIP3    H1 1461   2.403   5.700   4.076
  499TIP3    H2 1462   2.538   5.765   4.096
  500TIP3   OH2 1463   4.575   3.060   0.032
  500TIP3    H1 1464   4.594   2.999  -0.039
  500TIP3    H2 1465   4.574   3.006   0.111
  501TIP3   OH2 1466   1.654   1.661   4.921
  501TIP3    H1 1467   1.672   1.737   4.866
  501TIP3    H2 1468   1.579   1.618   4.880
  502TIP3   OH2 1469   0.367   3.946   0.445
  502TIP3    H1 1470   0.334   3.955   0.534
  502TIP3    H2 1471   0.436   4.012   0.438
  503TIP3   OH2 1472   3.045   2.815   2.859
  503TIP3    H1 1473   3.017   2.758   2.931
  503TIP3    H2 1474   3.130   2.781   2.832
  504TIP3   OH2 1475   3.891   6.143   5.077
  504TIP3    H1 1476   3.972   6.121   5.031
  504TIP3    H2 1477   3.826   6.084   5.040
  505TIP3   OH2 1478   6.099   0.548   2.020
  505TIP3    H1 1479   6.047   0.609   2.071
  505TIP3    H2 1480   6.048   0.467   2.020
  506TIP3   OH2 1481   2.260   5.884   3.870
  506TIP3    H1 1482   2.261   5.795   3.905
  506TIP3    H2 1483   2.318   5.934   3.928
  507TIP3   OH2 1484   3.705   0.291   5.137
  507TIP3    H1 1485   3.681   0.211   5.090
  507TIP3    H2 1486   3.679   0.362   5.079
  508TIP3   OH2 1487   6.785   2.605   2.820
  508TIP3    H1 1488   6.695   2.578   2.842
  508TIP3    H2 1489   6.810   2.547   2.748
  509TIP3   OH2 1490   5.320   0.085   2.245
  509TIP3    H1 1491   5.357   0.163   2.204
  509TIP3    H2 1492   5.351   0.012   2.191
  510TIP3   OH2 1493   2.680   5.416   5.744
  510TIP3    H1 1494   2.751   5.368   5.702
  510TIP3    H2 1495   2.605   5.356   5.740
  511TIP3   OH2 1496   5.896   3.575   1.404
  511TIP3    H1 1497   5.961   3.505   1.408
  511TIP3    H2 1498   5.814   3.531   1.384
  512TIP3   OH2 1499   2.909   3.454   1.024
  512TIP3    H1 1500   2.884   3.488   1.110
  512TIP3    H2 1501   2.916   3.532   0.969
  513TIP3   OH2 1502   0.277   0.364   3.024
  513TIP3    H1 1503   0.367   0.372   3.057
  513TIP3    H2 1504   0.247   0.455   3.016
  514TIP3   OH2 1505   0.539   3.800   5.514
  514TIP3    H1 1506   0.532   3.893   5.493
  514TIP3    H2 1507   0.584   3.762   5.440
  515TIP3   OH2 1508   1.432   2.583   2.261
  515TIP3    H1 1509   1.525   2.563   2.246
  515TIP3    H2 1510   1.407   2.637   2.186
  516TIP3   OH2 1511   3.092   0.056   3.119
  516TIP3    H1 1512   3.037   0.056   3.040
  516TIP3    H2 1513   3.160  -0.010   3.100
  517TIP3   OH2 1514   1.670   3.559   0.571
  517TIP3    H1 1515   1.763   3.553   0.549
  517TIP3    H2 1516   1.655   3.487   0.633
  518TIP3   OH2 1517   7.007   6.182   2.614
  518TIP3    H1 1518   7.083   6.127   2.596
  518TIP3    H2 1519   6.938   6.119   2.636
  519TIP3   OH2 1520   5.656   3.354   3.637
  519TIP3    H1 1521   5.576   3.381   3.682
  519TIP3    H2 1522   5.627   3.292   3.570
  520TIP3   OH2 1523   5.079   5.887   4.154
  520TIP3    H1 1524   5.070   5.859   4.245
  520TIP3    H2 1525   5.098   5.807   4.105
  521TIP3   OH2 1526   1.035   3.133   1.925
  521TIP3    H1 1527   0.991   3.173   1.850
  521TIP3    H2 1528   1.115   3.185   1.935
  522TIP3   OH2 1529   0.111   0.946   2.833
  522TIP3    H1 1530   0.043   1.004   2.867
  522TIP3    H2 1531   0.069   0.898   2.761
  523TIP3   OH2 1532   4.559   3.928   5.283
  523TIP3    H1 1533   4.524   3.970   5.204
  523TIP3    H2 1534   4.504   3.850   5.294
  524TIP3   OH2 1535   2.474   4.642   0.509
  524TIP3    H1 1536   2.453   4.549   0.502
  524TIP3    H2 1537   2.408   4.676   0.570
  525TIP3   OH2 1538   2.293   2.217   5.331
  525TIP3    H1 1539   2.294   2.123   5.313
  525TIP3    H2 1540   2.212   2.248   5.292
  526TIP3   OH2 1541   2.415   1.839   4.379
  526TIP3    H1 1542   2.474   1.826   4.304
  526TIP3    H2 1543   2.456   1.789   4.450
  527TIP3   OH2 1544   0.260   3.904   2.107
  527TIP3    H1 1545   0.319   3.948   2.169
  527TIP3    H2 1546   0.219   3.834   2.159
  528TIP3   OH2 1547   3.545   1.971   3.775
  528TIP3    H1 1548   3.573   1.897   3.830
  528TIP3    H2 1549   3.590   1.957   3.692
  529TIP3   OH2 1550   5.368   4.276   4.845
  529TIP3    H1 1551   5.357   4.371   4.854
  529TIP3    H2 1552   5.310   4.252   4.772
  530TIP3   OH2 1553   3.794   5.550   4.344
  530TIP3    H1 1554   3.835   5.626   4.387
  530TIP3    H2 1555   3.825   5.555   4.253
  531TIP3   OH2 1556   5.686   4.739   5.231
  531TIP3    H1 1557   5.764   4.710   5.182
  531TIP3    H2 1558   5.664   4.823   5.192
  532TIP3   OH2 1559   2.732   5.080   5.032
  532TIP3    H1 1560   2.761   5.161   5.074
  532TIP3    H2 1561   2.810   5.024   5.031
  533TIP3   OH2 1562   1.462   1.019   1.523
  533TIP3    H1 1563   1.438   1.102   1.482
  533TIP3    H2 1564   1.462   0.956   1.451
  534TIP3   OH2 1565   3.615   6.335   4.755
  534TIP3    H1 1566   3.537   6.373   4.794
  534TIP3    H2 1567   3.685   6.353   4.818
  535TIP3   OH2 1568   5.754   5.821   1.534
  535TIP3    H1 1569   5.720   5.733   1.545
  535TIP3    H2 1570   5.710   5.874   1.600
  536TIP3   OH2 1571   6.123   0.140   1.532
  536TIP3    H1 1572   6.189   0.090   1.582
  536TIP3    H2 1573   6.121   0.225   1.575
  537TIP3   OH2 1574   5.704   1.399   0.638
  537TIP3    H1 1575   5.784   1.391   0.692
  537TIP3    H2 1576   5.734   1.437   0.556
  538TIP3   OH2 1577   3.007   6.360   1.399
  538TIP3    H1 1578   3.047   6.428   1.452
  538TIP3    H2 1579   3.065   6.285   1.408
  539TIP3   OH2 1580   5.827   1.044   0.887
  539TIP3    H1 1581   5.776   1.106   0.938
  539TIP3    H2 1582   5.886   1.099   0.835
  540TIP3   OH2 1583   6.947   6.437   3.506
  540TIP3    H1 1584   7.013   6.378   3.543
  540TIP3    H2 1585   6.869   6.421   3.559
  541TIP3   OH2 1586   0.659   1.913   0.901
  541TIP3    H1 1587   0.639   1.964   0.823
  541TIP3    H2 1588   0.687   1.978   0.966
  542TIP3   OH2 1589   4.220   3.820   1.772
  542TIP3    H1 1590   4.251   3.888   1.712
  542TIP3    H2 1591   4.265   3.740   1.743
  543TIP3   OH2 1592   0.542   3.171   1.761
  543TIP3    H1 1593   0.509   3.254   1.795
  543TIP3    H2 1594   0.554   3.117   1.839
  544TIP3   OH2 1595   4.181   6.783   1.425
  544TIP3    H1 1596   4.270   6.772   1.458
  544TIP3    H2 1597   4.153   6.869   1.457
  545TIP3   OH2 1598   0.476   4.059   5.375
  545TIP3    H1 1599   0.407   4.007   5.334
  545TIP3    H2 1600   0.479   4.140   5.322
  546TIP3   OH2 1601   5.656   3.998   3.014
  546TIP3    H1 1602   5.688   4.034   2.932
  546TIP3    H2 1603   5.640   4.075   3.070
  547TIP3   OH2 1604   2.719   5.340   2.838
  547TIP3    H1 1605   2.763   5.414   2.879
  547TIP3    H2 1606   2.771   5.264   2.864
  548TIP3   OH2 1607   3.926   5.017   5.282
  548TIP3    H1 1608   3.935   5.056   5.369
  548TIP3    H2 1609   3.843   4.972   5.284
  549TIP3   OH2 1610   0.696   5.131   4.673
  549TIP3    H1 1611   0.643   5.086   4.739
  549TIP3    H2 1612   0.749   5.193   4.724
  550TIP3   OH2 1613   1.815   0.435   4.052
  550TIP3    H1 1614   1.907   0.443   4.026
  550TIP3    H2 1615   1.766   0.436   3.970
  551TIP3   OH2 1616   1.845   5.198   5.518
  551TIP3    H1 1617   1.886   5.282   5.494
  551TIP3    H2 1618   1.821   5.209   5.610
  552TIP3   OH2 1619   2.420   0.753   2.649
  552TIP3    H1 1620   2.512   0.726   2.650
  552TIP3    H2 1621   2.409   0.807   2.727
  553TIP3   OH2 1622   5.892   0.771   0.010
  553TIP3    H1 1623   5.797   0.766   0.019
  553TIP3    H2 1624   5.923   0.686   0.043
  554TIP3   OH2 1625   2.942   1.941   4.544
  554TIP3    H1 1626   2.894   1.967   4.465
  554TIP3    H2 1627   3.028   1.982   4.535
  555TIP3   OH2 1628   4.920   5.737   3.793
  555TIP3    H1 1629   4.885   5.825   3.810
  555TIP3    H2 1630   4.967   5.746   3.710
  556TIP3   OH2 1631   1.558   5.257   1.874
  556TIP3    H1 1632   1.584   5.172   1.910
  556TIP3    H2 1633   1.622   5.319   1.910
  557TIP3   OH2 1634   3.750   0.209   5.409
  557TIP3    H1 1635   3.798   0.188   5.328
  557TIP3    H2 1636   3.659   0.188   5.388
  558TIP3   OH2 1637   3.318   5.790   3.754
  558TIP3    H1 1638   3.224   5.808   3.757
  558TIP3    H2 1639   3.356   5.848   3.820
  559TIP3   OH2 1640   5.260   0.568   0.762
  559TIP3    H1 1641   5.344   0.525   0.783
  559TIP3    H2 1642   5.280   0.622   0.685
  560TIP3   OH2 1643   2.968   4.032   0.364
  560TIP3    H1 1644   2.947   4.039   0.271
  560TIP3    H2 1645   2.941   3.943   0.388
  561TIP3   OH2 1646   1.958   4.080   3.846
  561TIP3    H1 1647   1.984   4.019   3.915
  561TIP3    H2 1648   1.864   4.067   3.836
  562TIP3   OH2 1649   5.889   4.448   3.174
  562TIP3    H1 1650   5.983   4.432   3.180
  562TIP3    H2 1651   5.868   4.439   3.081
  563TIP3   OH2 1652   1.666   4.125   2.112
  563TIP3    H1 1653   1.614   4.122   2.192
  563TIP3    H2 1654   1.749   4.083   2.135
  564TIP3   OH2 1655   5.710   0.681   0.571
  564TIP3    H1 1656   5.803   0.705   0.575
  564TIP3    H2 1657   5.690   0.679   0.477
  565TIP3   OH2 1658   0.843   1.556   5.531
  565TIP3    H1 1659   0.939   1.558   5.535
  565TIP3    H2 1660   0.815   1.576   5.620
  566TIP3   OH2 1661   4.695   1.285   1.357
  566TIP3    H1 1662   4.635   1.213   1.339
  566TIP3    H2 1663   4.772   1.266   1.304
  567TIP3   OH2 1664   4.189   0.221   0.529
  567TIP3    H1 1665   4.132   0.239   0.455
  567TIP3    H2 1666   4.130   0.192   0.599
  568TIP3   OH2 1667   4.572   1.917   1.699
  568TIP3    H1 1668   4.495   1.861   1.688
  568TIP3    H2 1669   4.608   1.891   1.784
  569TIP3   OH2 1670   1.205   5.239   3.485
  569TIP3    H1 1671   1.163   5.305   3.430
  569TIP3    H2 1672   1.132   5.188   3.521
  570TIP3   OH2 1673   3.958   5.275   2.511
  570TIP3    H1 1674   3.923   5.332   2.443
  570TIP3    H2 1675   4.028   5.225   2.468
  571TIP3   OH2 1676   3.395   5.532   5.149
  571TIP3    H1 1677   3.391   5.442   5.119
  571TIP3    H2 1678   3.461   5.531   5.219
  572TIP3   OH2 1679   1.732   5.908   4.918
  572TIP3    H1 1680   1.687   5.971   4.973
  572TIP3    H2 1681   1.687   5.912   4.833
  573TIP3   OH2 1682   0.705   2.537   5.788
  573TIP3    H1 1683   0.625   2.500   5.750
  573TIP3    H2 1684   0.774   2.513   5.726
  574TIP3   OH2 1685   5.659   5.688   0.030
  574TIP3    H1 1686   5.711   5.618  -0.008
  574TIP3    H2 1687   5.684   5.689   0.123
  575TIP3   OH2 1688   2.402   5.504   0.058
  575TIP3    H1 1689   2.356   5.440   0.003
  575TIP3    H2 1690   2.491   5.507   0.021
  576TIP3   OH2 1691   2.682   1.383   1.233
  576TIP3    H1 1692   2.628   1.462   1.226
  576TIP3    H2 1693   2.626   1.320   1.279
  577TIP3   OH2 1694   5.757   3.773   2.642
  577TIP3    H1 1695   5.820   3.726   2.696
  577TIP3    H2 1696   5.686   3.710   2.628
  578TIP3   OH2 1697   0.226   5.683   3.890
  578TIP3    H1 1698   0.158   5.749   3.880
  578TIP3    H2 1699   0.295   5.727   3.940
  579TIP3   OH2 1700   2.953   2.718   1.521
  579TIP3    H1 1701   2.932   2.631   1.487
  579TIP3    H2 1702   3.030   2.705   1.576
  580TIP3   OH2 1703   3.510   1.848   0.271
  580TIP3    H1 1704   3.569   1.803   0.332
  580TIP3    H2 1705   3.509   1.939   0.301
  581TIP3   OH2 1706   4.218   5.764   2.142
  581TIP3    H1 1707   4.157   5.690   2.148
  581TIP3    H2 1708   4.162   5.842   2.149
  582TIP3   OH2 1709   5.350   5.710   5.695
  582TIP3    H1 1710   5.434   5.713   5.740
  582TIP3    H2 1711   5.333   5.616   5.683
  583TIP3   OH2 1712   4.479   0.674   5.714
  583TIP3    H1 1713   4.550   0.640   5.769
  583TIP3    H2 1714   4.413   0.605   5.716
  584TIP3   OH2 1715   1.127   6.446   2.134
  584TIP3    H1 1716   1.114   6.427   2.227
  584TIP3    H2 1717   1.041   6.430   2.094
  585TIP3   OH2 1718   2.553   3.638   0.101
  585TIP3    H1 1719   2.576   3.584   0.176
  585TIP3    H2 1720   2.505   3.580   0.043
  586TIP3   OH2 1721   3.715   4.605   5.830
  586TIP3    H1 1722   3.674   4.540   5.888
  586TIP3    H2 1723   3.763   4.553   5.766
  587TIP3   OH2 1724   1.724   5.191   3.875
  587TIP3    H1 1725   1.714   5.102   3.841
  587TIP3    H2 1726   1.818   5.202   3.889
  588TIP3   OH2 1727   5.917   5.884   0.341
  588TIP3    H1 1728   5.852   5.915   0.278
  588TIP3    H2 1729   5.984   5.842   0.288
  589TIP3   OH2 1730   3.104   3.451   2.387
  589TIP3    H1 1731   3.067   3.432   2.301
  589TIP3    H2 1732   3.144   3.538   2.377
  590TIP3   OH2 1733   6.644   5.449   0.111
  590TIP3    H1 1734   6.554   5.478   0.104
  590TIP3    H2 1735   6.647   5.365   0.065
  591TIP3   OH2 1736   3.876   2.691   2.772
  591TIP3    H1 1737   3.840   2.665   2.687
  591TIP3    H2 1738   3.933   2.764   2.752
  592TIP3   OH2 1739   0.260   5.849   5.035
  592TIP3    H1 1740   0.306   5.863   4.952
  592TIP3    H2 1741   0.263   5.754   5.047
  593TIP3   OH2 1742   2.689   2.944   3.749
  593TIP3    H1 1743   2.700   2.851   3.770
  593TIP3    H2 1744   2.777   2.981   3.758
  594TIP3   OH2 1745   7.223   3.186   3.072
  594TIP3    H1 1746   7.148   3.214   3.124
  594TIP3    H2 1747   7.208   3.224   2.985
  595TIP3   OH2 1748   1.091   0.912   0.931
  595TIP3    H1 1749   1.060   0.913   1.021
  595TIP3    H2 1750   1.174   0.865   0.933
  596TIP3   OH2 1751   0.239   6.682   4.236
  596TIP3    H1 1752   0.234   6.652   4.327
  596TIP3    H2 1753   0.330   6.709   4.224
  597TIP3   OH2 1754   0.182   6.429   0.138
  597TIP3    H1 1755   0.217   6.348   0.176
  597TIP3    H2 1756   0.165   6.486   0.213
  598TIP3   OH2 1757   2.470   3.657   3.044
  598TIP3    H1 1758   2.381   3.637   3.071
  598TIP3    H2 1759   2.482   3.750   3.063
  599TIP3   OH2 1760   1.825   3.692   4.239
  599TIP3    H1 1761   1.823   3.598   4.225
  599TIP3    H2 1762   1.895   3.705   4.304
  600TIP3   OH2 1763   4.118   4.777   4.356
  600TIP3    H1 1764   4.072   4.803   4.436
  600TIP3    H2 1765   4.087   4.838   4.289
  601TIP3   OH2 1766   0.695   2.552   1.267
  601TIP3    H1 1767   0.746   2.577   1.343
  601TIP3    H2 1768   0.622   2.501   1.303
  602TIP3   OH2 1769   1.333   5.786   1.843
  602TIP3    H1 1770   1.376   5.820   1.764
  602TIP3    H2 1771   1.314   5.695   1.822
  603TIP3   OH2 1772   3.679   2.892   5.711
  603TIP3    H1 1773   3.585   2.907   5.722
  603TIP3    H2 1774   3.686   2.839   5.631
  604TIP3   OH2 1775   6.541   3.444   4.677
  604TIP3    H1 1776   6.564   3.351   4.663
  604TIP3    H2 1777   6.473   3.442   4.744
  605TIP3   OH2 1778   2.096   6.363   1.082
  605TIP3    H1 1779   2.063   6.366   0.992
  605TIP3    H2 1780   2.035   6.419   1.131
  606TIP3   OH2 1781   6.283   2.601   5.381
  606TIP3    H1 1782   6.230   2.661   5.434
  606TIP3    H2 1783   6.219   2.539   5.345
  607TIP3   OH2 1784   0.980   0.853   4.739
  607TIP3    H1 1785   0.930   0.808   4.670
  607TIP3    H2 1786   1.070   0.822   4.727
  608TIP3   OH2 1787   0.205   3.786   4.397
  608TIP3    H1 1788   0.225   3.693   4.405
  608TIP3    H2 1789   0.215   3.820   4.486
  609TIP3   OH2 1790   3.384   3.233   4.764
  609TIP3    H1 1791   3.436   3.298   4.717
  609TIP3    H2 1792   3.294   3.249   4.737
  610TIP3   OH2 1793   3.561   3.885   1.053
  610TIP3    H1 1794   3.646   3.896   1.010
  610TIP3    H2 1795   3.567   3.799   1.096
  611TIP3   OH2 1796   6.411   4.332   2.802
  611TIP3    H1 1797   6.356   4.298   2.732
  611TIP3    H2 1798   6.365   4.410   2.833
  612TIP3   OH2 1799   2.145   5.675   0.569
  612TIP3    H1 1800   2.087   5.690   0.495
  612TIP3    H2 1801   2.199   5.754   0.573
  613TIP3   OH2 1802   4.827   1.202   3.858
  613TIP3    H1 1803   4.817   1.191   3.953
  613TIP3    H2 1804   4.862   1.119   3.827
  614TIP3   OH2 1805   0.150   6.601   1.752
  614TIP3    H1 1806   0.167   6.683   1.798
  614TIP3    H2 1807   0.072   6.565   1.794
  615TIP3   OH2 1808   5.261   4.797   0.809
  615TIP3    H1 1809   5.344   4.757   0.834
  615TIP3    H2 1810   5.232   4.747   0.733
  616TIP3   OH2 1811   6.774   2.971   0.088
  616TIP3    H1 1812   6.797   2.882   0.113
  616TIP3    H2 1813   6.699   2.994   0.142
  617TIP3   OH2 1814   5.152   1.192   1.289
  617TIP3    H1 1815   5.200   1.119   1.327
  617TIP3    H2 1816   5.088   1.151   1.231
  618TIP3   OH2 1817   4.898   6.471   3.866
  618TIP3    H1 1818   4.827   6.441   3.923
  618TIP3    H2 1819   4.969   6.409   3.882
  619TIP3   OH2 1820   2.682   2.034   2.061
  619TIP3    H1 1821   2.657   1.944   2.043
  619TIP3    H2 1822   2.771   2.042   2.026
  620TIP3   OH2 1823   2.569   2.686   4.393
  620TIP3    H1 1824   2.638   2.743   4.425
  620TIP3    H2 1825   2.510   2.676   4.468
  621TIP3   OH2 1826   0.828   1.279   5.840
  621TIP3    H1 1827   0.762   1.255   5.906
  621TIP3    H2 1828   0.892   1.330   5.889
  622TIP3   OH2 1829   4.948   2.361   0.959
  622TIP3    H1 1830   4.912   2.336   1.044
  622TIP3    H2 1831   5.036   2.324   0.958
  623TIP3   OH2 1832   5.540   2.465   4.812
  623TIP3    H1 1833   5.462   2.468   4.756
  623TIP3    H2 1834   5.611   2.494   4.755
  624TIP3   OH2 1835   2.760   4.792   1.282
  624TIP3    H1 1836   2.780   4.839   1.201
  624TIP3    H2 1837   2.691   4.844   1.324
  625TIP3   OH2 1838   4.958   3.729   0.606
  625TIP3    H1 1839   4.986   3.640   0.628
  625TIP3    H2 1840   4.976   3.780   0.685
  626TIP3   OH2 1841   2.340   6.626   5.099
  626TIP3    H1 1842   2.352   6.536   5.127
  626TIP3    H2 1843   2.253   6.627   5.058
  627TIP3   OH2 1844   2.872   3.261   5.541
  627TIP3    H1 1845   2.937   3.302   5.598
  627TIP3    H2 1846   2.921   3.195   5.492
  628TIP3   OH2 1847   6.227   6.487   5.629
  628TIP3    H1 1848   6.240   6.446   5.544
  628TIP3    H2 1849   6.133   6.482   5.643
  629TIP3   OH2 1850   0.522   6.689   4.237
  629TIP3    H1 1851   0.520   6.693   4.142
  629TIP3    H2 1852   0.513   6.596   4.257
  630TIP3   OH2 1853   0.054   2.462   1.612
  630TIP3    H1 1854  -0.037   2.432   1.622
  630TIP3    H2 1855   0.106   2.383   1.617
  631TIP3   OH2 1856   3.732   3.485   0.142
  631TIP3    H1 1857   3.740   3.390   0.134
  631TIP3    H2 1858   3.695   3.513   0.058
  632TIP3   OH2 1859   6.763   0.619   4.259
  632TIP3    H1 1860   6.675   0.651   4.238
  632TIP3    H2 1861   6.818   0.697   4.255
  633TIP3   OH2 1862   6.943   3.538   1.228
  633TIP3    H1 1863   6.992   3.456   1.219
  633TIP3    H2 1864   6.966   3.589   1.151
  634TIP3   OH2 1865   4.460   3.430   4.610
  634TIP3    H1 1866   4.400   3.470   4.673
  634TIP3    H2 1867   4.404   3.400   4.539
  635TIP3   OH2 1868   4.907   4.091   4.832
  635TIP3    H1 1869   4.853   4.116   4.757
  635TIP3    H2 1870   4.863   4.131   4.907
  636TIP3   OH2 1871   4.143   3.645   3.379
  636TIP3    H1 1872   4.176   3.721   3.332
  636TIP3    H2 1873   4.222   3.600   3.410
  637TIP3   OH2 1874   2.774   3.175   0.059
  637TIP3    H1 1875   2.854   3.141   0.019
  637TIP3    H2 1876   2.710   3.106   0.046
  638TIP3   OH2 1877   0.376   2.037   3.622
  638TIP3    H1 1878   0.393   1.954   3.577
  638TIP3    H2 1879   0.444   2.041   3.690
  639TIP3   OH2 1880   4.779   2.818   5.525
  639TIP3    H1 1881   4.725   2.748   5.487
  639TIP3    H2 1882   4.813   2.780   5.606
  640TIP3   OH2 1883   5.204   1.881   3.051
  640TIP3    H1 1884   5.225   1.835   2.969
  640TIP3    H2 1885   5.142   1.824   3.095
  641TIP3   OH2 1886   6.374   1.494   1.710
  641TIP3    H1 1887   6.280   1.504   1.697
  641TIP3    H2 1888   6.385   1.484   1.804
  642TIP3   OH2 1889   0.080   3.039   2.637
  642TIP3    H1 1890   0.060   3.129   2.611
  642TIP3    H2 1891  -0.002   2.991   2.626
  643TIP3   OH2 1892   0.183   0.171   0.641
  643TIP3    H1 1893   0.169   0.227   0.565
  643TIP3    H2 1894   0.266   0.202   0.679
  644TIP3   OH2 1895   1.241   5.034   3.829
  644TIP3    H1 1896   1.282   4.967   3.774
  644TIP3    H2 1897   1.297   5.111   3.820
  645TIP3   OH2 1898   6.518   0.685   1.292
  645TIP3    H1 1899   6.607   0.668   1.321
  645TIP3    H2 1900   6.463   0.669   1.369
  646TIP3   OH2 1901   0.913   5.476   0.235
  646TIP3    H1 1902   0.967   5.406   0.198
  646TIP3    H2 1903   0.925   5.549   0.175
  647TIP3   OH2 1904   2.452   2.094   5.778
  647TIP3    H1 1905   2.404   2.031   5.725
  647TIP3    H2 1906   2.523   2.043   5.818
  648TIP3   OH2 1907   5.517   2.536   2.245
  648TIP3    H1 1908   5.433   2.528   2.200
  648TIP3    H2 1909   5.518   2.464   2.307
  649TIP3   OH2 1910   1.130   6.158   5.474
  649TIP3    H1 1911   1.175   6.234   5.509
  649TIP3    H2 1912   1.190   6.085   5.490
  650TIP3   OH2 1913   0.976   0.722   5.657
  650TIP3    H1 1914   0.904   0.762   5.607
  650TIP3    H2 1915   0.976   0.630   5.629
  651TIP3   OH2 1916   1.484   1.791   3.823
  651TIP3    H1 1917   1.548   1.817   3.757
  651TIP3    H2 1918   1.534   1.739   3.886
  652TIP3   OH2 1919   5.945   5.853   5.429
  652TIP3    H1 1920   5.982   5.874   5.515
  652TIP3    H2 1921   5.948   5.936   5.381
  653TIP3   OH2 1922   6.353   4.611   4.533
  653TIP3    H1 1923   6.339   4.699   4.567
  653TIP3    H2 1924   6.441   4.614   4.495
  654TIP3   OH2 1925   0.653   3.212   4.447
  654TIP3    H1 1926   0.667   3.162   4.367
  654TIP3    H2 1927   0.646   3.303   4.418
  655TIP3   OH2 1928   4.794   5.372   5.701
  655TIP3    H1 1929   4.888   5.365   5.721
  655TIP3    H2 1930   4.792   5.413   5.614
  656TIP3   OH2 1931   4.702   6.337   2.279
  656TIP3    H1 1932   4.644   6.270   2.316
  656TIP3    H2 1933   4.662   6.420   2.306
  657TIP3   OH2 1934   5.807   3.880   4.573
  657TIP3    H1 1935   5.820   3.874   4.668
  657TIP3    H2 1936   5.767   3.796   4.549
  658TIP3   OH2 1937   3.066   5.256   4.176
  658TIP3    H1 1938   3.158   5.271   4.200
  658TIP3    H2 1939   3.059   5.161   4.168
  659TIP3   OH2 1940   5.422   6.088   4.260
  659TIP3    H1 1941   5.437   6.007   4.212
  659TIP3    H2 1942   5.405   6.061   4.350
  660TIP3   OH2 1943   2.081   3.975   3.608
  660TIP3    H1 1944   2.021   3.982   3.682
  660TIP3    H2 1945   2.147   3.911   3.637
  661TIP3   OH2 1946   4.210   2.043   5.230
  661TIP3    H1 1947   4.196   2.124   5.279
  661TIP3    H2 1948   4.190   2.066   5.140
  662TIP3   OH2 1949   0.184   2.661   1.723
  662TIP3    H1 1950   0.135   2.721   1.779
  662TIP3    H2 1951   0.116   2.616   1.672
  663TIP3   OH2 1952   6.578   6.274   2.198
  663TIP3    H1 1953   6.574   6.193   2.248
  663TIP3    H2 1954   6.561   6.247   2.108
  664TIP3   OH2 1955   7.047   0.867   5.530
  664TIP3    H1 1956   7.044   0.807   5.604
  664TIP3    H2 1957   7.131   0.911   5.537
  665TIP3   OH2 1958   3.484   0.433   3.330
  665TIP3    H1 1959   3.456   0.415   3.240
  665TIP3    H2 1960   3.419   0.495   3.364
  666TIP3   OH2 1961   2.891   0.820   4.096
  666TIP3    H1 1962   2.916   0.826   4.189
  666TIP3    H2 1963   2.837   0.741   4.091
  667TIP3   OH2 1964   3.272   6.393   2.774
  667TIP3    H1 1965   3.307   6.303   2.778
  667TIP3    H2 1966   3.281   6.425   2.863
  668TIP3   OH2 1967   3.273   6.784   1.295
  668TIP3    H1 1968   3.272   6.722   1.221
  668TIP3    H2 1969   3.355   6.764   1.341
  669TIP3   OH2 1970   3.361   4.456   2.381
  669TIP3    H1 1971   3.285   4.413   2.344
  669TIP3    H2 1972   3.413   4.485   2.305
  670TIP3   OH2 1973   6.166   5.461   1.735
  670TIP3    H1 1974   6.080   5.425   1.714
  670TIP3    H2 1975   6.222   5.385   1.747
  671TIP3   OH2 1976   2.413   3.944   3.076
  671TIP3    H1 1977   2.501   3.979   3.057
  671TIP3    H2 1978   2.353   4.006   3.034
  672TIP3   OH2 1979   3.683   3.644   0.814
  672TIP3    H1 1980   3.643   3.695   0.743
  672TIP3    H2 1981   3.707   3.709   0.880
  673TIP3   OH2 1982   1.443   1.583   1.588
  673TIP3    H1 1983   1.401   1.669   1.589
  673TIP3    H2 1984   1.525   1.597   1.540
  674TIP3   OH2 1985   6.302   4.641   3.714
  674TIP3    H1 1986   6.380   4.590   3.736
  674TIP3    H2 1987   6.237   4.615   3.780
  675TIP3   OH2 1988   6.125   6.664   1.998
  675TIP3    H1 1989   6.176   6.683   1.919
  675TIP3    H2 1990   6.043   6.711   1.985
  676TIP3   OH2 1991   3.671   4.864   2.041
  676TIP3    H1 1992   3.699   4.799   2.105
  676TIP3    H2 1993   3.676   4.948   2.087
  677TIP3   OH2 1994   6.486   6.119   1.990
  677TIP3    H1 1995   6.399   6.083   1.969
  677TIP3    H2 1996   6.542   6.042   2.001
  678TIP3   OH2 1997   3.228   3.155   3.604
  678TIP3    H1 1998   3.215   3.077   3.659
  678TIP3    H2 1999   3.217   3.122   3.514
  679TIP3   OH2 2000   1.513   5.387   5.409
  679TIP3    H1 2001   1.424   5.423   5.413
  679TIP3    H2 2002   1.500   5.294   5.390
  680TIP3   OH2 2003   0.622   4.565   2.348
  680TIP3    H1 2004   0.686   4.579   2.278
  680TIP3    H2 2005   0.547   4.618   2.322
  681TIP3   OH2 2006   5.732   3.449   1.171
  681TIP3    H1 2007   5.721   3.355   1.182
  681TIP3    H2 2008   5.809   3.457   1.115
  682TIP3   OH2 2009   2.202   2.827   2.865
  682TIP3    H1 2010   2.286   2.814   2.910
  682TIP3    H2 2011   2.214   2.906   2.813
  683TIP3   OH2 2012   0.882   4.679   1.344
  683TIP3    H1 2013   0.810   4.697   1.405
  683TIP3    H2 2014   0.904   4.587   1.359
  684TIP3   OH2 2015   2.891   6.180   5.741
  684TIP3    H1 2016   2.856   6.100   5.779
  684TIP3    H2 2017   2.918   6.155   5.652
  685TIP3   OH2 2018   2.962   3.403   0.257
  685TIP3    H1 2019   2.984   3.316   0.224
  685TIP3    H2 2020   3.046   3.440   0.285
  686TIP3   OH2 2021   0.397   3.330   2.142
  686TIP3    H1 2022   0.330   3.265   2.161
  686TIP3    H2 2023   0.477   3.280   2.130
  687TIP3   OH2 2024   3.570   2.686   3.320
  687TIP3    H1 2025   3.528   2.616   3.369
  687TIP3    H2 2026   3.558   2.764   3.374
  688TIP3   OH2 2027   2.565   6.696   3.064
  688TIP3    H1 2028   2.656   6.668   3.070
  688TIP3    H2 2029   2.531   6.653   2.985
  689TIP3   OH2 2030   3.595   1.074   1.341
  689TIP3    H1 2031   3.517   1.107   1.386
  689TIP3    H2 2032   3.588   1.110   1.253
  690TIP3   OH2 2033   4.269   1.558   2.711
  690TIP3    H1 2034   4.328   1.621   2.753
  690TIP3    H2 2035   4.309   1.542   2.626
  691TIP3   OH2 2036   4.224   4.606   1.980
  691TIP3    H1 2037   4.297   4.648   2.025
  691TIP3    H2 2038   4.147   4.630   2.031
  692TIP3   OH2 2039   5.691   5.638   5.058
  692TIP3    H1 2040   5.763   5.678   5.107
  692TIP3    H2 2041   5.703   5.544   5.072
  693TIP3   OH2 2042   6.018   4.744   4.568
  693TIP3    H1 2043   6.090   4.801   4.541
  693TIP3    H2 2044   6.057   4.656   4.568
  694TIP3   OH2 2045   0.924   2.171   4.330
  694TIP3    H1 2046   1.018   2.184   4.345
  694TIP3    H2 2047   0.902   2.234   4.261
  695TIP3   OH2 2048   3.973   6.751   4.958
  695TIP3    H1 2049   3.940   6.696   5.028
  695TIP3    H2 2050   4.037   6.809   5.000
  696TIP3   OH2 2051   4.101   4.158   0.223
  696TIP3    H1 2052   4.086   4.227   0.288
  696TIP3    H2 2053   4.179   4.113   0.254
  697TIP3   OH2 2054   5.983   4.670   5.262
  697TIP3    H1 2055   5.941   4.754   5.279
  697TIP3    H2 2056   6.050   4.663   5.330
  698TIP3   OH2 2057   3.052   3.108   5.172
  698TIP3    H1 2058   2.989   3.111   5.099
  698TIP3    H2 2059   3.010   3.159   5.241
  699TIP3   OH2 2060   0.319   5.486   3.680
  699TIP3    H1 2061   0.254   5.476   3.610
  699TIP3    H2 2062   0.285   5.557   3.733
  700TIP3   OH2 2063   6.181   4.422   3.167
  700TIP3    H1 2064   6.156   4.399   3.078
  700TIP3    H2 2065   6.190   4.338   3.212
  701TIP3   OH2 2066   4.056   5.824   2.761
  701TIP3    H1 2067   4.121   5.774   2.712
  701TIP3    H2 2068   4.107   5.887   2.811
  702TIP3   OH2 2069   2.517   3.028   4.648
  702TIP3    H1 2070   2.603   3.071   4.647
  702TIP3    H2 2071   2.508   2.997   4.739
  703TIP3   OH2 2072   4.563   3.204   2.432
  703TIP3    H1 2073   4.507   3.276   2.461
  703TIP3    H2 2074   4.546   3.134   2.494
  704TIP3   OH2 2075   3.885   6.313   4.384
  704TIP3    H1 2076   3.851   6.393   4.424
  704TIP3    H2 2077   3.879   6.246   4.452
  705TIP3   OH2 2078   4.894   0.632   2.828
  705TIP3    H1 2079   4.843   0.705   2.863
  705TIP3    H2 2080   4.829   0.568   2.801
  706TIP3   OH2 2081   1.815   5.806   1.265
  706TIP3    H1 2082   1.803   5.745   1.192
  706TIP3    H2 2083   1.759   5.880   1.244
  707TIP3   OH2 2084   0.333   0.646   4.327
  707TIP3    H1 2085   0.277   0.600   4.389
  707TIP3    H2 2086   0.282   0.651   4.246
  708TIP3   OH2 2087   7.029   3.519   1.487
  708TIP3    H1 2088   7.046   3.611   1.508
  708TIP3    H2 2089   6.967   3.522   1.415
  709TIP3   OH2 2090   4.601   4.892   5.328
  709TIP3    H1 2091   4.672   4.829   5.341
  709TIP3    H2 2092   4.562   4.904   5.415
  710TIP3   OH2 2093   4.654   0.114   4.688
  710TIP3    H1 2094   4.561   0.135   4.683
  710TIP3    H2 2095   4.695   0.171   4.623
  711TIP3   OH2 2096   4.407   6.597   2.524
  711TIP3    H1 2097   4.467   6.577   2.452
  711TIP3    H2 2098   4.347   6.522   2.527
  712TIP3   OH2 2099   0.594   0.483   1.362
  712TIP3    H1 2100   0.586   0.446   1.274
  712TIP3    H2 2101   0.638   0.415   1.413
  713TIP3   OH2 2102   0.962   4.148   5.207
  713TIP3    H1 2103   1.024   4.210   5.168
  713TIP3    H2 2104   0.912   4.201   5.269
  714TIP3   OH2 2105   0.418   6.706   1.593
  714TIP3    H1 2106   0.346   6.751   1.638
  714TIP3    H2 2107   0.463   6.659   1.664
  715TIP3   OH2 2108   6.562   3.929   1.914
  715TIP3    H1 2109   6.518   3.845   1.930
  715TIP3    H2 2110   6.580   3.964   2.001
  716TIP3   OH2 2111   0.187   2.593   2.597
  716TIP3    H1 2112   0.201   2.651   2.522
  716TIP3    H2 2113   0.242   2.629   2.666
  717TIP3   OH2 2114   4.815   1.412   4.811
  717TIP3    H1 2115   4.873   1.341   4.788
  717TIP3    H2 2116   4.761   1.427   4.733
  718TIP3   OH2 2117   3.946   1.179   2.429
  718TIP3    H1 2118   3.941   1.272   2.407
  718TIP3    H2 2119   4.021   1.172   2.488
  719TIP3   OH2 2120   2.198   0.680   5.091
  719TIP3    H1 2121   2.110   0.648   5.075
  719TIP3    H2 2122   2.202   0.696   5.185
  720TIP3   OH2 2123   6.565   0.053   0.390
  720TIP3    H1 2124   6.659   0.071   0.401
  720TIP3    H2 2125   6.533   0.039   0.479
  721TIP3   OH2 2126   0.521   6.419   5.826
  721TIP3    H1 2127   0.495   6.372   5.905
  721TIP3    H2 2128   0.614   6.438   5.839
  722TIP3   OH2 2129   6.456   3.827   1.558
  722TIP3    H1 2130   6.520   3.896   1.542
  722TIP3    H2 2131   6.379   3.873   1.592
  723TIP3   OH2 2132   2.539   2.370   1.004
  723TIP3    H1 2133   2.526   2.465   1.006
  723TIP3    H2 2134   2.614   2.357   0.947
  724TIP3   OH2 2135   5.349   5.052   1.055
  724TIP3    H1 2136   5.313   5.123   1.108
  724TIP3    H2 2137   5.411   5.096   0.996
  725TIP3   OH2 2138   3.489   6.462   5.542
  725TIP3    H1 2139   3.416   6.427   5.594
  725TIP3    H2 2140   3.449   6.526   5.484
  726TIP3   OH2 2141   1.625   2.512   3.999
  726TIP3    H1 2142   1.637   2.574   3.926
  726TIP3    H2 2143   1.589   2.565   4.070
  727TIP3   OH2 2144   4.571   0.973   3.903
  727TIP3    H1 2145   4.538   1.062   3.890
  727TIP3    H2 2146   4.588   0.967   3.997
  728TIP3   OH2 2147   2.880   0.814   4.393
  728TIP3    H1 2148   2.953   0.839   4.449
  728TIP3    H2 2149   2.820   0.889   4.398
  729TIP3   OH2 2150   3.285   6.571   5.390
  729TIP3    H1 2151   3.239   6.595   5.470
  729TIP3    H2 2152   3.242   6.491   5.360
  730TIP3   OH2 2153   6.161   5.866   3.128
  730TIP3    H1 2154   6.255   5.860   3.146
  730TIP3    H2 2155   6.154   5.855   3.034
  731TIP3   OH2 2156   2.221   6.448   4.501
  731TIP3    H1 2157   2.154   6.516   4.506
  731TIP3    H2 2158   2.304   6.496   4.502
  732TIP3   OH2 2159   2.771   2.215   1.613
  732TIP3    H1 2160   2.698   2.166   1.651
  732TIP3    H2 2161   2.732   2.297   1.582
  733TIP3   OH2 2162   4.096   5.055   2.425
  733TIP3    H1 2163   4.042   4.977   2.408
  733TIP3    H2 2164   4.142   5.070   2.343
  734TIP3   OH2 2165   7.049   0.706   2.860
  734TIP3    H1 2166   7.010   0.697   2.773
  734TIP3    H2 2167   6.976   0.730   2.916
  735TIP3   OH2 2168   3.300   1.661   1.652
  735TIP3    H1 2169   3.312   1.746   1.692
  735TIP3    H2 2170   3.214   1.665   1.610
  736TIP3   OH2 2171   6.379   4.088   0.904
  736TIP3    H1 2172   6.288   4.096   0.935
  736TIP3    H2 2173   6.384   4.149   0.830
  737TIP3   OH2 2174   4.048   5.974   3.708
  737TIP3    H1 2175   4.042   6.067   3.728
  737TIP3    H2 2176   3.957   5.946   3.696
  738TIP3   OH2 2177   2.049   2.363   2.238
  738TIP3    H1 2178   2.119   2.418   2.203
  738TIP3    H2 2179   2.071   2.275   2.208
  739TIP3   OH2 2180   2.681   3.321   3.702
  739TIP3    H1 2181   2.719   3.267   3.771
  739TIP3    H2 2182   2.594   3.344   3.734
  740TIP3   OH2 2183   1.891   3.578   0.833
  740TIP3    H1 2184   1.869   3.666   0.802
  740TIP3    H2 2185   1.806   3.535   0.843
  741TIP3   OH2 2186   0.008   4.259   4.469
  741TIP3    H1 2187   0.053   4.338   4.440
  741TIP3    H2 2188   0.071   4.189   4.453
  742TIP3   OH2 2189   0.148   4.430   3.810
  742TIP3    H1 2190   0.205   4.480   3.869
  742TIP3    H2 2191   0.060   4.458   3.832
  743TIP3   OH2 2192   0.704   0.830   0.018
  743TIP3    H1 2193   0.614   0.816  -0.011
  743TIP3    H2 2194   0.743   0.742   0.018
  744TIP3   OH2 2195   2.624   0.938   0.222
  744TIP3    H1 2196   2.595   0.966   0.135
  744TIP3    H2 2197   2.673   0.857   0.207
  745TIP3   OH2 2198   0.477   4.253   2.673
  745TIP3    H1 2199   0.396   4.208   2.697
  745TIP3    H2 2200   0.490   4.232   2.581
  746TIP3   OH2 2201   6.677   4.688   4.781
  746TIP3    H1 2202   6.658   4.769   4.734
  746TIP3    H2 2203   6.599   4.672   4.835
  747TIP3   OH2 2204   4.015   0.131   3.508
  747TIP3    H1 2205   4.001   0.062   3.442
  747TIP3    H2 2206   4.098   0.171   3.483
  748TIP3   OH2 2207   4.189   6.351   1.200
  748TIP3    H1 2208   4.170   6.263   1.233
  748TIP3    H2 2209   4.119   6.368   1.137
  749TIP3   OH2 2210   4.264   5.096   1.730
  749TIP3    H1 2211   4.246   5.177   1.682
  749TIP3    H2 2212   4.298   5.125   1.814
  750TIP3   OH2 2213   4.737   6.778   2.173
  750TIP3    H1 2214   4.781   6.858   2.145
  750TIP3    H2 2215   4.654   6.779   2.127
  751TIP3   OH2 2216   5.188   6.268   0.739
  751TIP3    H1 2217   5.206   6.234   0.827
  751TIP3    H2 2218   5.252   6.339   0.728
  752TIP3   OH2 2219   5.307   0.106   4.135
  752TIP3    H1 2220   5.261   0.094   4.052
  752TIP3    H2 2221   5.388   0.055   4.126
  753TIP3   OH2 2222   1.129   0.513   2.533
  753TIP3    H1 2223   1.192   0.453   2.493
  753TIP3    H2 2224   1.052   0.508   2.477
  754TIP3   OH2 2225   2.597   4.502   5.073
  754TIP3    H1 2226   2.538   4.513   5.147
  754TIP3    H2 2227   2.547   4.450   5.010
  755TIP3   OH2 2228   0.584   3.469   4.469
  755TIP3    H1 2229   0.631   3.543   4.430
  755TIP3    H2 2230   0.603   3.476   4.563
  756TIP3   OH2 2231   3.453   0.357   0.110
  756TIP3    H1 2232   3.436   0.449   0.093
  756TIP3    H2 2233   3.377   0.311   0.074
  757TIP3   OH2 2234   3.955   1.945   0.830
  757TIP3    H1 2235   3.966   2.011   0.761
  757TIP3    H2 2236   3.943   1.996   0.910
  758TIP3   OH2 2237   3.238   5.064   0.590
  758TIP3    H1 2238   3.314   5.076   0.648
  758TIP3    H2 2239   3.184   5.141   0.604
  759TIP3   OH2 2240   1.441   4.016   0.371
  759TIP3    H1 2241   1.414   4.084   0.309
  759TIP3    H2 2242   1.458   4.063   0.452
  760TIP3   OH2 2243   3.223   6.346   4.858
  760TIP3    H1 2244   3.269   6.325   4.939
  760TIP3    H2 2245   3.238   6.440   4.845
  761TIP3   OH2 2246   2.514   3.221   2.227
  761TIP3    H1 2247   2.506   3.178   2.142
  761TIP3    H2 2248   2.437   3.278   2.232
  762TIP3   OH2 2249   2.836   0.224   5.501
  762TIP3    H1 2250   2.826   0.316   5.476
  762TIP3    H2 2251   2.928   0.215   5.524
  763TIP3   OH2 2252   2.603   5.940   3.644
  763TIP3    H1 2253   2.523   5.891   3.663
  763TIP3    H2 2254   2.580   5.996   3.571
  764TIP3   OH2 2255   5.735   1.970   1.743
  764TIP3    H1 2256   5.771   1.929   1.821
  764TIP3    H2 2257   5.682   2.043   1.776
  765TIP3   OH2 2258   5.296   1.734   2.518
  765TIP3    H1 2259   5.245   1.751   2.597
  765TIP3    H2 2260   5.387   1.728   2.548
  766TIP3   OH2 2261   1.753   4.059   1.484
  766TIP3    H1 2262   1.677   4.018   1.527
  766TIP3    H2 2263   1.778   4.130   1.542
  767TIP3   OH2 2264   1.719   1.995   2.377
  767TIP3    H1 2265   1.738   1.945   2.298
  767TIP3    H2 2266   1.759   2.081   2.362
  768TIP3   OH2 2267   2.733   0.952   0.738
  768TIP3    H1 2268   2.796   0.909   0.681
  768TIP3    H2 2269   2.786   1.002   0.800
  769TIP3   OH2 2270   4.598   6.541   5.866
  769TIP3    H1 2271   4.637   6.458   5.838
  769TIP3    H2 2272   4.534   6.561   5.799
  770TIP3   OH2 2273   0.270   2.696   0.784
  770TIP3    H1 2274   0.235   2.785   0.780
  770TIP3    H2 2275   0.206   2.647   0.837
  771TIP3   OH2 2276   6.187   2.721   0.228
  771TIP3    H1 2277   6.223   2.806   0.253
  771TIP3    H2 2278   6.159   2.682   0.311
  772TIP3   OH2 2279   6.761   4.666   3.862
  772TIP3    H1 2280   6.856   4.674   3.872
  772TIP3    H2 2281   6.745   4.688   3.770
  773TIP3   OH2 2282   3.415   3.803   2.869
  773TIP3    H1 2283   3.353   3.787   2.798
  773TIP3    H2 2284   3.395   3.891   2.899
  774TIP3   OH2 2285   5.334   0.563   2.049
  774TIP3    H1 2286   5.327   0.550   2.143
  774TIP3    H2 2287   5.301   0.652   2.034
  775TIP3   OH2 2288   3.919   1.529   4.683
  775TIP3    H1 2289   3.908   1.608   4.630
  775TIP3    H2 2290   3.944   1.461   4.621
  776TIP3   OH2 2291   4.433   6.351   0.428
  776TIP3    H1 2292   4.490   6.323   0.356
  776TIP3    H2 2293   4.421   6.272   0.481
  777TIP3   OH2 2294  -0.027   1.070   0.151
  777TIP3    H1 2295  -0.097   1.014   0.116
  777TIP3    H2 2296   0.031   1.010   0.196
  778TIP3   OH2 2297   1.311   0.555   5.271
  778TIP3    H1 2298   1.306   0.567   5.366
  778TIP3    H2 2299   1.249   0.484   5.253
  779TIP3   OH2 2300   6.919   1.790   2.948
  779TIP3    H1 2301   6.825   1.805   2.958
  779TIP3    H2 2302   6.947   1.854   2.882
  780TIP3   OH2 2303   0.481   3.920   0.945
  780TIP3    H1 2304   0.456   3.978   1.016
  780TIP3    H2 2305   0.571   3.895   0.965
  781TIP3   OH2 2306   3.869   5.015   5.842
  781TIP3    H1 2307   3.859   5.108   5.863
  781TIP3    H2 2308   3.785   4.989   5.804
  782TIP3   OH2 2309   0.548   6.179   1.460
  782TIP3    H1 2310   0.582   6.089   1.456
  782TIP3    H2 2311   0.462   6.170   1.502
  783TIP3   OH2 2312   0.038   0.180   2.056
  783TIP3    H1 2313   0.104   0.240   2.022
  783TIP3    H2 2314  -0.046   0.222   2.037
  784TIP3   OH2 2315   0.961   3.872   2.809
  784TIP3    H1 2316   0.910   3.934   2.756
  784TIP3    H2 2317   0.902   3.797   2.822
  785TIP3   OH2 2318   1.285   1.577   0.991
  785TIP3    H1 2319   1.282   1.571   1.086
  785TIP3    H2 2320   1.211   1.632   0.967
  786TIP3   OH2 2321   2.286   3.213   1.828
  786TIP3    H1 2322   2.256   3.189   1.740
  786TIP3    H2 2323   2.205   3.221   1.879
  787TIP3   OH2 2324   5.141   4.098   4.697
  787TIP3    H1 2325   5.059   4.135   4.731
  787TIP3    H2 2326   5.122   4.083   4.604
  788TIP3   OH2 2327   4.717   0.323   4.475
  788TIP3    H1 2328   4.791   0.317   4.416
  788TIP3    H2 2329   4.749   0.374   4.550
  789TIP3   OH2 2330   2.139   4.736   0.441
  789TIP3    H1 2331   2.182   4.718   0.525
  789TIP3    H2 2332   2.069   4.671   0.435
  790TIP3   OH2 2333   6.615   1.144   5.693
  790TIP3    H1 2334   6.599   1.201   5.769
  790TIP3    H2 2335   6.529   1.126   5.658
  791TIP3   OH2 2336   0.417   2.905   5.202
  791TIP3    H1 2337   0.499   2.943   5.235
  791TIP3    H2 2338   0.436   2.886   5.110
  792TIP3   OH2 2339   6.617   3.352   0.407
  792TIP3    H1 2340   6.603   3.401   0.488
  792TIP3    H2 2341   6.533   3.358   0.361
  793TIP3   OH2 2342   5.683   2.388   0.824
  793TIP3    H1 2343   5.686   2.476   0.860
  793TIP3    H2 2344   5.690   2.400   0.730
  794TIP3   OH2 2345   6.891   0.119   0.135
  794TIP3    H1 2346   6.954   0.182   0.170
  794TIP3    H2 2347   6.833   0.100   0.209
  795TIP3   OH2 2348   5.413   5.010   5.739
  795TIP3    H1 2349   5.422   5.002   5.834
  795TIP3    H2 2350   5.472   4.944   5.703
  796TIP3   OH2 2351   3.356   0.019   2.088
  796TIP3    H1 2352   3.326   0.038   2.178
  796TIP3    H2 2353   3.450   0.002   2.097
  797TIP3   OH2 2354   5.457   1.011   2.697
  797TIP3    H1 2355   5.496   1.097   2.711
  797TIP3    H2 2356   5.528   0.949   2.713
  798TIP3   OH2 2357   7.119   1.728   5.055
  798TIP3    H1 2358   7.073   1.743   5.138
  798TIP3    H2 2359   7.211   1.742   5.077
  799TIP3   OH2 2360   5.842   2.074   0.185
  799TIP3    H1 2361   5.764   2.065   0.241
  799TIP3    H2 2362   5.858   1.986   0.152
  800TIP3   OH2 2363   1.551   3.690   5.173
  800TIP3    H1 2364   1.508   3.709   5.256
  800TIP3    H2 2365   1.597   3.608   5.188
  801TIP3   OH2 2366   6.242   5.376   4.891
  801TIP3    H1 2367   6.318   5.429   4.868
  801TIP3    H2 2368   6.190   5.432   4.949
  802TIP3   OH2 2369   3.831   4.488   5.636
  802TIP3    H1 2370   3.801   4.429   5.567
  802TIP3    H2 2371   3.877   4.432   5.698
  803TIP3   OH2 2372   2.040   5.684   4.389
  803TIP3    H1 2373   2.012   5.731   4.311
  803TIP3    H2 2374   2.128   5.653   4.368
  804TIP3   OH2 2375   6.466   2.874   1.617
  804TIP3    H1 2376   6.381   2.830   1.613
  804TIP3    H2 2377   6.486   2.896   1.526
  805TIP3   OH2 2378   5.640   5.599   5.372
  805TIP3    H1 2379   5.552   5.569   5.347
  805TIP3    H2 2380   5.634   5.695   5.368
  806TIP3   OH2 2381   4.201   4.139   1.827
  806TIP3    H1 2382   4.197   4.217   1.772
  806TIP3    H2 2383   4.139   4.078   1.786
  807TIP3   OH2 2384   5.491   3.208   2.935
  807TIP3    H1 2385   5.558   3.169   2.879
  807TIP3    H2 2386   5.539   3.269   2.991
  808TIP3   OH2 2387   3.571   4.353   0.549
  808TIP3    H1 2388   3.538   4.275   0.504
  808TIP3    H2 2389   3.665   4.339   0.557
  809TIP3   OH2 2390   0.632   1.643   1.444
  809TIP3    H1 2391   0.666   1.595   1.368
  809TIP3    H2 2392   0.633   1.735   1.417
  810TIP3   OH2 2393   5.504   0.077   5.242
  810TIP3    H1 2394   5.544   0.067   5.156
  810TIP3    H2 2395   5.437   0.144   5.230
  811TIP3   OH2 2396   0.608   5.819   5.147
  811TIP3    H1 2397   0.696   5.823   5.185
  811TIP3    H2 2398   0.550   5.805   5.222
  812TIP3   OH2 2399   1.074   3.907   5.107
  812TIP3    H1 2400   1.153   3.920   5.054
  812TIP3    H2 2401   1.040   3.995   5.122
  813TIP3   OH2 2402   3.797   4.689   3.635
  813TIP3    H1 2403   3.769   4.613   3.585
  813TIP3    H2 2404   3.830   4.750   3.569
  814TIP3   OH2 2405   3.428   5.955   3.936
  814TIP3    H1 2406   3.517   5.934   3.965
  814TIP3    H2 2407   3.384   5.988   4.014
  815TIP3   OH2 2408   5.663   0.821   1.024
  815TIP3    H1 2409   5.678   0.834   0.931
  815TIP3    H2 2410   5.570   0.796   1.030
  816TIP3   OH2 2411   6.652   1.928   3.542
  816TIP3    H1 2412   6.643   1.875   3.463
  816TIP3    H2 2413   6.699   2.007   3.512
  817TIP3   OH2 2414   4.497   0.194   3.726
  817TIP3    H1 2415   4.512   0.221   3.816
  817TIP3    H2 2416   4.584   0.170   3.694
  818TIP3   OH2 2417   6.836   0.479   0.449
  818TIP3    H1 2418   6.891   0.527   0.511
  818TIP3    H2 2419   6.808   0.545   0.385
  819TIP3   OH2 2420   6.219   3.257   4.158
  819TIP3    H1 2421   6.212   3.308   4.239
  819TIP3    H2 2422   6.204   3.166   4.186
  820TIP3   OH2 2423   3.833   6.457   1.389
  820TIP3    H1 2424   3.794   6.533   1.347
  820TIP3    H2 2425   3.923   6.484   1.411
  821TIP3   OH2 2426   6.500   2.496   5.683
  821TIP3    H1 2427   6.587   2.510   5.647
  821TIP3    H2 2428   6.470   2.583   5.709
  822TIP3   OH2 2429   3.097   3.897   1.887
  822TIP3    H1 2430   3.033   3.943   1.942
  822TIP3    H2 2431   3.064   3.807   1.883
  823TIP3   OH2 2432   2.934   4.958   4.503
  823TIP3    H1 2433   2.914   4.938   4.412
  823TIP3    H2 2434   2.848   4.961   4.546
  824TIP3   OH2 2435   5.497   4.654   2.198
  824TIP3    H1 2436   5.523   4.569   2.164
  824TIP3    H2 2437   5.481   4.639   2.291
  825TIP3   OH2 2438   2.443   0.278   2.646
  825TIP3    H1 2439   2.529   0.274   2.689
  825TIP3    H2 2440   2.388   0.327   2.707
  826TIP3   OH2 2441   4.300   5.164   5.240
  826TIP3    H1 2442   4.292   5.191   5.149
  826TIP3    H2 2443   4.320   5.070   5.236
  827TIP3   OH2 2444   7.218   6.373   4.953
  827TIP3    H1 2445   7.158   6.303   4.926
  827TIP3    H2 2446   7.304   6.344   4.922
  828TIP3   OH2 2447   5.543   0.542   0.772
  828TIP3    H1 2448   5.567   0.495   0.851
  828TIP3    H2 2449   5.624   0.547   0.721
  829TIP3   OH2 2450   6.502   3.481   0.982
  829TIP3    H1 2451   6.576   3.465   1.041
  829TIP3    H2 2452   6.467   3.566   1.009
  830TIP3   OH2 2453   2.124   2.612   4.812
  830TIP3    H1 2454   2.147   2.561   4.890
  830TIP3    H2 2455   2.205   2.613   4.761
  831TIP3   OH2 2456   1.704   1.229   0.142
  831TIP3    H1 2457   1.673   1.235   0.233
  831TIP3    H2 2458   1.783   1.176   0.147
  832TIP3   OH2 2459   5.323   1.031   5.451
  832TIP3    H1 2460   5.390   0.964   5.445
  832TIP3    H2 2461   5.269   1.006   5.525
  833TIP3   OH2 2462   6.126   5.931   4.786
  833TIP3    H1 2463   6.147   5.891   4.870
  833TIP3    H2 2464   6.115   5.858   4.726
  834TIP3   OH2 2465   0.401   4.416   3.594
  834TIP3    H1 2466   0.336   4.485   3.606
  834TIP3    H2 2467   0.421   4.417   3.500
  835TIP3   OH2 2468   0.754   5.981   3.624
  835TIP3    H1 2469   0.697   6.008   3.696
  835TIP3    H2 2470   0.764   6.060   3.570
  836TIP3   OH2 2471   2.166   0.426   1.919
  836TIP3    H1 2472   2.132   0.455   2.004
  836TIP3    H2 2473   2.240   0.483   1.902
  837TIP3   OH2 2474   4.696   6.616   4.580
  837TIP3    H1 2475   4.607   6.608   4.615
  837TIP3    H2 2476   4.706   6.710   4.565
  838TIP3   OH2 2477   5.178   0.612   0.505
  838TIP3    H1 2478   5.188   0.526   0.465
  838TIP3    H2 2479   5.085   0.633   0.494
  839TIP3   OH2 2480   3.165   2.977   2.320
  839TIP3    H1 2481   3.144   2.891   2.355
  839TIP3    H2 2482   3.107   2.988   2.244
  840TIP3   OH2 2483   5.365   5.033   2.373
  840TIP3    H1 2484   5.279   5.008   2.339
  840TIP3    H2 2485   5.355   5.029   2.468
  841TIP3   OH2 2486   5.631   1.647   4.942
  841TIP3    H1 2487   5.594   1.698   4.870
  841TIP3    H2 2488   5.556   1.628   4.999
  842TIP3   OH2 2489   2.787   0.096   3.215
  842TIP3    H1 2490   2.856   0.029   3.208
  842TIP3    H2 2491   2.764   0.117   3.125
  843TIP3   OH2 2492   4.305   0.189   2.922
  843TIP3    H1 2493   4.275   0.264   2.973
  843TIP3    H2 2494   4.311   0.118   2.986
  844TIP3   OH2 2495   6.722   5.860   0.041
  844TIP3    H1 2496   6.723   5.827  -0.049
  844TIP3    H2 2497   6.669   5.796   0.089
  845TIP3   OH2 2498   6.782   6.089   5.157
  845TIP3    H1 2499   6.818   6.009   5.195
  845TIP3    H2 2500   6.723   6.058   5.087
  846TIP3   OH2 2501   0.194   6.538   1.153
  846TIP3    H1 2502   0.204   6.459   1.207
  846TIP3    H2 2503   0.107   6.570   1.174
  847TIP3   OH2 2504   4.318   4.747   3.477
  847TIP3    H1 2505   4.259   4.700   3.418
  847TIP3    H2 2506   4.363   4.677   3.525
  848TIP3   OH2 2507   0.889   0.483   1.940
  848TIP3    H1 2508   0.970   0.433   1.951
  848TIP3    H2 2509   0.844   0.474   2.024
  849TIP3   OH2 2510   1.630   1.336   5.497
  849TIP3    H1 2511   1.593   1.359   5.583
  849TIP3    H2 2512   1.665   1.247   5.510
  850TIP3   OH2 2513   7.004   1.532   2.145
  850TIP3    H1 2514   7.091   1.514   2.180
  850TIP3    H2 2515   7.004   1.626   2.127
  851TIP3   OH2 2516   0.102   4.597   0.574
  851TIP3    H1 2517   0.022   4.552   0.603
  851TIP3    H2 2518   0.071   4.680   0.537
  852TIP3   OH2 2519   6.327   2.118   1.903
  852TIP3    H1 2520   6.388   2.086   1.836
  852TIP3    H2 2521   6.338   2.057   1.976
  853TIP3   OH2 2522   6.201   4.873   0.642
  853TIP3    H1 2523   6.188   4.903   0.552
  853TIP3    H2 2524   6.114   4.844   0.670
  854TIP3   OH2 2525   7.104   4.244   3.868
  854TIP3    H1 2526   7.178   4.215   3.921
  854TIP3    H2 2527   7.032   4.251   3.931
  855TIP3   OH2 2528   3.380   0.771   2.520
  855TIP3    H1 2529   3.450   0.760   2.456
  855TIP3    H2 2530   3.329   0.845   2.488
  856TIP3   OH2 2531   3.942   5.830   1.219
  856TIP3    H1 2532   3.887   5.755   1.195
  856TIP3    H2 2533   3.880   5.900   1.239
  857TIP3   OH2 2534   0.293  -0.038   1.888
  857TIP3    H1 2535   0.228  -0.019   1.821
  857TIP3    H2 2536   0.256  -0.001   1.968
  858TIP3   OH2 2537   7.209   0.132   3.454
  858TIP3    H1 2538   7.166   0.216   3.472
  858TIP3    H2 2539   7.267   0.119   3.529
  859TIP3   OH2 2540   1.757   4.450   0.415
  859TIP3    H1 2541   1.753   4.367   0.368
  859TIP3    H2 2542   1.761   4.425   0.507
  860TIP3   OH2 2543   2.776   1.618   4.750
  860TIP3    H1 2544   2.788   1.636   4.656
  860TIP3    H2 2545   2.860   1.585   4.779
  861TIP3   OH2 2546   1.804   4.910   1.676
  861TIP3    H1 2547   1.750   4.968   1.623
  861TIP3    H2 2548   1.845   4.851   1.614
  862TIP3   OH2 2549   4.607   2.691   1.679
  862TIP3    H1 2550   4.582   2.781   1.661
  862TIP3    H2 2551   4.615   2.650   1.593
  863TIP3   OH2 2552   5.510   3.627   2.341
  863TIP3    H1 2553   5.419   3.605   2.324
  863TIP3    H2 2554   5.539   3.561   2.403
  864TIP3   OH2 2555   5.917   6.497   0.971
  864TIP3    H1 2556   5.878   6.546   1.043
  864TIP3    H2 2557   5.842   6.471   0.916
  865TIP3   OH2 2558   1.414   1.082   3.952
  865TIP3    H1 2559   1.479   1.146   3.977
  865TIP3    H2 2560   1.409   1.021   4.026
  866TIP3   OH2 2561   0.957   2.459   4.216
  866TIP3    H1 2562   0.941   2.551   4.194
  866TIP3    H2 2563   0.875   2.415   4.193
  867TIP3   OH2 2564   4.468   4.812   3.262
  867TIP3    H1 2565   4.426   4.885   3.216
  867TIP3    H2 2566   4.428   4.811   3.348
  868TIP3   OH2 2567   3.770   5.107   2.170
  868TIP3    H1 2568   3.734   5.098   2.258
  868TIP3    H2 2569   3.731   5.187   2.136
  869TIP3   OH2 2570   1.360   2.909   0.909
  869TIP3    H1 2571   1.314   2.963   0.845
  869TIP3    H2 2572   1.387   2.970   0.978
  870TIP3   OH2 2573   6.205   2.448   2.451
  870TIP3    H1 2574   6.161   2.527   2.482
  870TIP3    H2 2575   6.135   2.385   2.435
  871TIP3   OH2 2576   5.503   0.093   2.868
  871TIP3    H1 2577   5.470   0.152   2.800
  871TIP3    H2 2578   5.488   0.005   2.834
  872TIP3   OH2 2579   2.255   2.515   5.835
  872TIP3    H1 2580   2.238   2.422   5.825
  872TIP3    H2 2581   2.306   2.538   5.757
  873TIP3   OH2 2582   6.968   6.702   1.001
  873TIP3    H1 2583   6.960   6.767   1.070
  873TIP3    H2 2584   7.030   6.637   1.035
  874TIP3   OH2 2585   3.774   1.623   1.326
  874TIP3    H1 2586   3.703   1.624   1.262
  874TIP3    H2 2587   3.751   1.553   1.387
  875TIP3   OH2 2588   4.105   2.251   3.387
  875TIP3    H1 2589   4.057   2.174   3.416
  875TIP3    H2 2590   4.040   2.305   3.342
  876TIP3   OH2 2591   4.233   6.821   2.043
  876TIP3    H1 2592   4.229   6.828   1.948
  876TIP3    H2 2593   4.159   6.766   2.067
  877TIP3   OH2 2594   2.609   2.669   2.954
  877TIP3    H1 2595   2.656   2.591   2.982
  877TIP3    H2 2596   2.528   2.668   3.005
  878TIP3   OH2 2597   6.059   2.553   3.781
  878TIP3    H1 2598   6.060   2.622   3.715
  878TIP3    H2 2599   5.992   2.492   3.750
  879TIP3   OH2 2600   4.812   4.608   1.499
  879TIP3    H1 2601   4.821   4.596   1.594
  879TIP3    H2 2602   4.718   4.617   1.486
  880TIP3   OH2 2603   3.800   0.550   4.367
  880TIP3    H1 2604   3.713   0.511   4.368
  880TIP3    H2 2605   3.790   0.631   4.318
  881TIP3   OH2 2606   4.454   3.097   3.336
  881TIP3    H1 2607   4.445   3.092   3.431
  881TIP3    H2 2608   4.549   3.094   3.321
  882TIP3   OH2 2609   6.414   4.531   3.230
  882TIP3    H1 2610   6.380   4.573   3.309
  882TIP3    H2 2611   6.335   4.503   3.182
  883TIP3   OH2 2612   3.761   6.587   3.944
  883TIP3    H1 2613   3.794   6.632   4.022
  883TIP3    H2 2614   3.750   6.496   3.972
  884TIP3   OH2 2615   0.036   2.480   0.346
  884TIP3    H1 2616   0.080   2.468   0.431
  884TIP3    H2 2617  -0.047   2.521   0.368
  885TIP3   OH2 2618   1.493   3.805   0.548
  885TIP3    H1 2619   1.452   3.835   0.629
  885TIP3    H2 2620   1.485   3.879   0.488
  886TIP3   OH2 2621   2.327   2.342   3.464
  886TIP3    H1 2622   2.326   2.310   3.554
  886TIP3    H2 2623   2.246   2.310   3.426
  887TIP3   OH2 2624   3.644   0.591   2.551
  887TIP3    H1 2625   3.737   0.587   2.572
  887TIP3    H2 2626   3.638   0.563   2.459
  888TIP3   OH2 2627   0.740   4.501   0.754
  888TIP3    H1 2628   0.665   4.559   0.772
  888TIP3    H2 2629   0.723   4.423   0.806
  889TIP3   OH2 2630   4.789   6.818   5.831
  889TIP3    H1 2631   4.882   6.800   5.819
  889TIP3    H2 2632   4.749   6.796   5.747
  890TIP3   OH2 2633   0.209   5.016   0.355
  890TIP3    H1 2634   0.233   5.048   0.442
  890TIP3    H2 2635   0.162   5.090   0.315
  891TIP3   OH2 2636   5.740   0.175   2.185
  891TIP3    H1 2637   5.662   0.162   2.132
  891TIP3    H2 2638   5.731   0.264   2.220
  892TIP3   OH2 2639   6.265   4.378   0.527
  892TIP3    H1 2640   6.299   4.322   0.458
  892TIP3    H2 2641   6.332   4.375   0.595
  893TIP3   OH2 2642   0.925   4.092   3.725
  893TIP3    H1 2643   0.952   4.000   3.722
  893TIP3    H2 2644   0.842   4.093   3.678
  894TIP3   OH2 2645   1.179   2.893   3.997
  894TIP3    H1 2646   1.183   2.972   4.051
  894TIP3    H2 2647   1.118   2.835   4.043
  895TIP3   OH2 2648   1.092   2.176   2.923
  895TIP3    H1 2649   1.021   2.171   2.859
  895TIP3    H2 2650   1.086   2.265   2.958
  896TIP3   OH2 2651   0.215   4.157   2.723
  896TIP3    H1 2652   0.161   4.086   2.687
  896TIP3    H2 2653   0.158   4.234   2.718
  897TIP3   OH2 2654   6.920   1.914   4.302
  897TIP3    H1 2655   6.873   1.889   4.222
  897TIP3    H2 2656   6.952   1.832   4.338
  898TIP3   OH2 2657   6.340   6.043   0.505
  898TIP3    H1 2658   6.344   6.123   0.452
  898TIP3    H2 2659   6.428   6.035   0.543
  899TIP3   OH2 2660   3.457   3.194   0.363
  899TIP3    H1 2661   3.521   3.130   0.395
  899TIP3    H2 2662   3.476   3.274   0.412
  900TIP3   OH2 2663   6.715   6.085   0.977
  900TIP3    H1 2664   6.716   6.063   1.070
  900TIP3    H2 2665   6.686   6.176   0.974
  901TIP3   OH2 2666   4.828   0.660   3.828
  901TIP3    H1 2667   4.768   0.728   3.796
  901TIP3    H2 2668   4.868   0.625   3.748
  902TIP3   OH2 2669   2.438   0.341   5.096
  902TIP3    H1 2670   2.464   0.252   5.073
  902TIP3    H2 2671   2.418   0.383   5.012
  903TIP3   OH2 2672   0.320   2.211   0.985
  903TIP3    H1 2673   0.284   2.193   0.898
  903TIP3    H2 2674   0.269   2.156   1.044
  904TIP3   OH2 2675   2.336   0.586   0.712
  904TIP3    H1 2676   2.397   0.594   0.639
  904TIP3    H2 2677   2.352   0.664   0.765
  905TIP3   OH2 2678   1.092   2.091   5.584
  905TIP3    H1 2679   1.095   2.186   5.597
  905TIP3    H2 2680   1.160   2.057   5.641
  906TIP3   OH2 2681   0.793   2.820   5.740
  906TIP3    H1 2682   0.723   2.767   5.776
  906TIP3    H2 2683   0.750   2.900   5.709
  907TIP3   OH2 2684   3.163   2.571   0.860
  907TIP3    H1 2685   3.086   2.598   0.810
  907TIP3    H2 2686   3.179   2.481   0.832
  908TIP3   OH2 2687   5.494   5.651   3.608
  908TIP3    H1 2688   5.455   5.716   3.666
  908TIP3    H2 2689   5.588   5.661   3.621
  909TIP3   OH2 2690   6.272   4.617   3.435
  909TIP3    H1 2691   6.177   4.618   3.426
  909TIP3    H2 2692   6.288   4.613   3.529
  910TIP3   OH2 2693   5.063   3.037   4.553
  910TIP3    H1 2694   4.984   3.062   4.504
  910TIP3    H2 2695   5.029   2.995   4.632
  911TIP3   OH2 2696   6.707   4.741   4.112
  911TIP3    H1 2697   6.707   4.696   4.028
  911TIP3    H2 2698   6.800   4.759   4.129
  912TIP3   OH2 2699   5.531   6.316   4.151
  912TIP3    H1 2700   5.624   6.305   4.134
  912TIP3    H2 2701   5.503   6.230   4.185
  913TIP3   OH2 2702   6.109   1.631   3.700
  913TIP3    H1 2703   6.072   1.542   3.701
  913TIP3    H2 2704   6.164   1.632   3.622
  914TIP3   OH2 2705   5.541   2.047   1.206
  914TIP3    H1 2706   5.481   1.994   1.153
  914TIP3    H2 2707   5.531   2.136   1.173
  915TIP3   OH2 2708   0.429   1.666   3.269
  915TIP3    H1 2709   0.347   1.620   3.256
  915TIP3    H2 2710   0.492   1.598   3.292
  916TIP3   OH2 2711   2.539   0.765   1.525
  916TIP3    H1 2712   2.465   0.726   1.572
  916TIP3    H2 2713   2.616   0.735   1.573
  917TIP3   OH2 2714   3.899   0.181   3.991
  917TIP3    H1 2715   3.836   0.199   4.061
  917TIP3    H2 2716   3.962   0.253   3.997
  918TIP3   OH2 2717   4.800   5.794   5.070
  918TIP3    H1 2718   4.867   5.850   5.112
  918TIP3    H2 2719   4.718   5.818   5.114
  919TIP3   OH2 2720   3.562   5.656   3.212
  919TIP3    H1 2721   3.585   5.715   3.284
  919TIP3    H2 2722   3.522   5.581   3.255
  920TIP3   OH2 2723   0.830   2.191   5.693
  920TIP3    H1 2724   0.894   2.136   5.647
  920TIP3    H2 2725   0.860   2.191   5.784
  921TIP3   OH2 2726   0.255   6.225   4.419
  921TIP3    H1 2727   0.224   6.314   4.432
  921TIP3    H2 2728   0.248   6.185   4.506
  922TIP3   OH2 2729   1.427   5.032   1.065
  922TIP3    H1 2730   1.500   5.095   1.065
  922TIP3    H2 2731   1.409   5.016   1.158
  923TIP3   OH2 2732   2.092   3.845   3.217
  923TIP3    H1 2733   2.171   3.804   3.254
  923TIP3    H2 2734   2.028   3.774   3.213
  924TIP3   OH2 2735   5.962   2.343   1.418
  924TIP3    H1 2736   6.000   2.258   1.391
  924TIP3    H2 2737   5.869   2.334   1.399
  925TIP3   OH2 2738   1.312   4.365   5.850
  925TIP3    H1 2739   1.265   4.448   5.857
  925TIP3    H2 2740   1.246   4.298   5.868
  926TIP3   OH2 2741   1.395   1.653   4.777
  926TIP3    H1 2742   1.333   1.725   4.789
  926TIP3    H2 2743   1.340   1.576   4.764
  927TIP3   OH2 2744   7.031   0.330   0.197
  927TIP3    H1 2745   7.037   0.414   0.244
  927TIP3    H2 2746   7.102   0.332   0.134
  928TIP3   OH2 2747   1.096   2.483   2.199
  928TIP3    H1 2748   1.178   2.522   2.229
  928TIP3    H2 2749   1.034   2.498   2.271
  929TIP3   OH2 2750   6.052   2.682   5.539
  929TIP3    H1 2751   6.056   2.696   5.634
  929TIP3    H2 2752   5.984   2.743   5.510
  930TIP3   OH2 2753   6.187   4.212   0.279
  930TIP3    H1 2754   6.187   4.162   0.197
  930TIP3    H2 2755   6.149   4.153   0.343
  931TIP3   OH2 2756   6.485   2.947   5.332
  931TIP3    H1 2757   6.510   3.009   5.264
  931TIP3    H2 2758   6.394   2.969   5.353
  932TIP3   OH2 2759   4.477   3.481   2.234
  932TIP3    H1 2760   4.446   3.521   2.152
  932TIP3    H2 2761   4.534   3.409   2.206
  933TIP3   OH2 2762   2.321   3.293   5.162
  933TIP3    H1 2763   2.398   3.235   5.164
  933TIP3    H2 2764   2.352   3.376   5.196
  934TIP3   OH2 2765   0.745   0.995   1.451
  934TIP3    H1 2766   0.742   0.918   1.507
  934TIP3    H2 2767   0.663   0.993   1.402
  935TIP3   OH2 2768   4.123   4.279   5.720
  935TIP3    H1 2769   4.116   4.282   5.625
  935TIP3    H2 2770   4.217   4.286   5.738
  936TIP3   OH2 2771   5.196   4.232   5.565
  936TIP3    H1 2772   5.224   4.208   5.477
  936TIP3    H2 2773   5.115   4.281   5.551
  937TIP3   OH2 2774   6.223   4.283   1.309
  937TIP3    H1 2775   6.273   4.213   1.267
  937TIP3    H2 2776   6.132   4.259   1.294
  938TIP3   OH2 2777   0.971   0.681   4.089
  938TIP3    H1 2778   1.041   0.710   4.031
  938TIP3    H2 2779   0.917   0.759   4.102
  939TIP3   OH2 2780   1.783   3.175   1.089
  939TIP3    H1 2781   1.767   3.082   1.073
  939TIP3    H2 2782   1.705   3.219   1.053
  940TIP3   OH2 2783   7.140   0.387   1.018
  940TIP3    H1 2784   7.113   0.469   1.061
  940TIP3    H2 2785   7.229   0.404   0.989
  941TIP3   OH2 2786   4.464   1.631   5.123
  941TIP3    H1 2787   4.514   1.683   5.061
  941TIP3    H2 2788   4.442   1.692   5.194
  942TIP3   OH2 2789   3.248   1.242   5.062
  942TIP3    H1 2790   3.341   1.236   5.084
  942TIP3    H2 2791   3.235   1.177   4.994
  943TIP3   OH2 2792   0.816   0.897   4.072
  943TIP3    H1 2793   0.774   0.938   3.996
  943TIP3    H2 2794   0.827   0.967   4.135
  944TIP3   OH2 2795   6.878   0.035   2.901
  944TIP3    H1 2796   6.936   0.019   2.827
  944TIP3    H2 2797   6.936   0.046   2.976
  945TIP3   OH2 2798   2.503   3.115   4.036
  945TIP3    H1 2799   2.515   3.050   4.105
  945TIP3    H2 2800   2.484   3.064   3.957
  946TIP3   OH2 2801   6.626   1.755   2.115
  946TIP3    H1 2802   6.699   1.765   2.176
  946TIP3    H2 2803   6.561   1.703   2.162
  947TIP3   OH2 2804   1.974   6.548   4.174
  947TIP3    H1 2805   1.967   6.606   4.098
  947TIP3    H2 2806   2.062   6.562   4.208
  948TIP3   OH2 2807   1.637   6.700   5.721
  948TIP3    H1 2808   1.668   6.611   5.706
  948TIP3    H2 2809   1.665   6.749   5.643
  949TIP3   OH2 2810   4.323   6.613   3.056
  949TIP3    H1 2811   4.330   6.607   3.152
  949TIP3    H2 2812   4.391   6.675   3.031
  950TIP3   OH2 2813   1.147   5.513   5.340
  950TIP3    H1 2814   1.211   5.502   5.270
  950TIP3    H2 2815   1.156   5.605   5.366
  951TIP3   OH2 2816   3.928   2.999   3.337
  951TIP3    H1 2817   4.012   3.039   3.315
  951TIP3    H2 2818   3.912   2.936   3.267
  952TIP3   OH2 2819   3.165   5.897   5.694
  952TIP3    H1 2820   3.114   5.844   5.756
  952TIP3    H2 2821   3.207   5.963   5.749
  953TIP3   OH2 2822   7.091   4.015   4.374
  953TIP3    H1 2823   7.162   4.014   4.310
  953TIP3    H2 2824   7.131   4.051   4.453
  954TIP3   OH2 2825   2.441   3.242   4.884
  954TIP3    H1 2826   2.393   3.271   4.806
  954TIP3    H2 2827   2.520   3.295   4.885
  955TIP3   OH2 2828   3.126   0.849   2.463
  955TIP3    H1 2829   3.032   0.840   2.454
  955TIP3    H2 2830   3.144   0.827   2.554
  956TIP3   OH2 2831   4.510   1.203   0.635
  956TIP3    H1 2832   4.445   1.238   0.575
  956TIP3    H2 2833   4.594   1.225   0.595
  957TIP3   OH2 2834   3.803   6.631   0.213
  957TIP3    H1 2835   3.805   6.541   0.245
  957TIP3    H2 2836   3.894   6.658   0.212
  958TIP3   OH2 2837   3.992   5.161   3.697
  958TIP3    H1 2838   3.969   5.254   3.697
  958TIP3    H2 2839   4.088   5.160   3.692
  959TIP3   OH2 2840   6.851   1.585   0.440
  959TIP3    H1 2841   6.924   1.645   0.450
  959TIP3    H2 2842   6.889   1.506   0.402
  960TIP3   OH2 2843   3.622   4.642   5.354
  960TIP3    H1 2844   3.537   4.631   5.310
  960TIP3    H2 2845   3.643   4.554   5.386
  961TIP3   OH2 2846   5.391   0.955   4.402
  961TIP3    H1 2847   5.327   1.020   4.374
  961TIP3    H2 2848   5.431   0.993   4.481
  962TIP3   OH2 2849   3.758   4.261   5.814
  962TIP3    H1 2850   3.692   4.199   5.780
  962TIP3    H2 2851   3.710   4.315   5.876
  963TIP3   OH2 2852   6.613   1.342   0.931
  963TIP3    H1 2853   6.698   1.299   0.928
  963TIP3    H2 2854   6.630   1.427   0.973
  964TIP3   OH2 2855   4.664   5.182   4.493
  964TIP3    H1 2856   4.628   5.182   4.582
  964TIP3    H2 2857   4.729   5.253   4.494
  965TIP3   OH2 2858   5.717   3.879   4.864
  965TIP3    H1 2859   5.664   3.936   4.810
  965TIP3    H2 2860   5.666   3.867   4.944
  966TIP3   OH2 2861   1.192   0.443   3.243
  966TIP3    H1 2862   1.114   0.469   3.192
  966TIP3    H2 2863   1.265   0.485   3.197
  967TIP3   OH2 2864   2.640   4.381   2.402
  967TIP3    H1 2865   2.627   4.475   2.392
  967TIP3    H2 2866   2.732   4.372   2.426
  968TIP3   OH2 2867   4.623   4.129   3.222
  968TIP3    H1 2868   4.611   4.087   3.307
  968TIP3    H2 2869   4.614   4.223   3.239
  969TIP3   OH2 2870   6.333   2.027   5.222
  969TIP3    H1 2871   6.304   2.101   5.275
  969TIP3    H2 2872   6.262   2.011   5.161
  970TIP3   OH2 2873   0.033   5.133   3.255
  970TIP3    H1 2874  -0.031   5.065   3.274
  970TIP3    H2 2875  -0.012   5.215   3.273
  971TIP3   OH2 2876   4.131   5.218   4.651
  971TIP3    H1 2877   4.141   5.282   4.580
  971TIP3    H2 2878   4.037   5.207   4.661
  972TIP3   OH2 2879   3.449   0.377   4.002
  972TIP3    H1 2880   3.527   0.342   4.045
  972TIP3    H2 2881   3.457   0.472   4.012
  973TIP3   OH2 2882   0.172   4.808   5.763
  973TIP3    H1 2883   0.134   4.720   5.757
  973TIP3    H2 2884   0.211   4.811   5.850
  974TIP3   OH2 2885   5.664   3.376   2.387
  974TIP3    H1 2886   5.575   3.357   2.414
  974TIP3    H2 2887   5.714   3.298   2.410
  975TIP3   OH2 2888   6.767   3.745   2.165
  975TIP3    H1 2889   6.730   3.687   2.098
  975TIP3    H2 2890   6.708   3.820   2.167
  976TIP3   OH2 2891   3.504   3.143   3.996
  976TIP3    H1 2892   3.532   3.133   3.905
  976TIP3    H2 2893   3.414   3.111   3.997
  977TIP3   OH2 2894   0.855   4.295   5.404
  977TIP3    H1 2895   0.784   4.357   5.390
  977TIP3    H2 2896   0.862   4.286   5.499
  978TIP3   OH2 2897   6.006   6.276   3.305
  978TIP3    H1 2898   5.950   6.337   3.352
  978TIP3    H2 2899   6.095   6.303   3.328
  979TIP3   OH2 2900   2.585   5.937   5.144
  979TIP3    H1 2901   2.558   5.992   5.218
  979TIP3    H2 2902   2.513   5.945   5.081
  980TIP3   OH2 2903   3.269   6.132   3.474
  980TIP3    H1 2904   3.179   6.154   3.496
  980TIP3    H2 2905   3.309   6.108   3.558
  981TIP3   OH2 2906   3.403   1.982   5.314
  981TIP3    H1 2907   3.385   1.900   5.267
  981TIP3    H2 2908   3.485   1.966   5.361
  982TIP3   OH2 2909   4.707   6.615   5.210
  982TIP3    H1 2910   4.690   6.709   5.218
  982TIP3    H2 2911   4.629   6.580   5.165
  983TIP3   OH2 2912   5.962   4.947   1.325
  983TIP3    H1 2913   5.965   4.972   1.417
  983TIP3    H2 2914   5.978   4.853   1.324
  984TIP3   OH2 2915   6.052   0.424   4.501
  984TIP3    H1 2916   6.014   0.492   4.557
  984TIP3    H2 2917   6.084   0.357   4.561
  985TIP3   OH2 2918   2.638   2.920   0.017
  985TIP3    H1 2919   2.580   2.850   0.047
  985TIP3    H2 2920   2.726   2.882   0.020
  986TIP3   OH2 2921   4.583   0.855   5.868
  986TIP3    H1 2922   4.677   0.835   5.863
  986TIP3    H2 2923   4.546   0.814   5.790
  987TIP3   OH2 2924   5.562   4.802   5.607
  987TIP3    H1 2925   5.634   4.772   5.551
  987TIP3    H2 2926   5.604   4.822   5.691
  988TIP3   OH2 2927   4.186   4.908   5.215
  988TIP3    H1 2928   4.184   4.888   5.309
  988TIP3    H2 2929   4.102   4.951   5.197
  989TIP3   OH2 2930   6.966   2.419   3.327
  989TIP3    H1 2931   6.922   2.385   3.249
  989TIP3    H2 2932   7.009   2.343   3.366
  990TIP3   OH2 2933   2.373   6.284   0.599
  990TIP3    H1 2934   2.320   6.350   0.555
  990TIP3    H2 2935   2.376   6.312   0.690
  991TIP3   OH2 2936   3.714   5.862   0.124
  991TIP3    H1 2937   3.809   5.857   0.123
  991TIP3    H2 2938   3.688   5.819   0.205
  992TIP3   OH2 2939   2.275   0.214   4.012
  992TIP3    H1 2940   2.330   0.263   3.951
  992TIP3    H2 2941   2.336   0.185   4.080
  993TIP3   OH2 2942   2.425   2.667   3.527
  993TIP3    H1 2943   2.395   2.695   3.441
  993TIP3    H2 2944   2.513   2.704   3.535
  994TIP3   OH2 2945   5.574   0.039   4.507
  994TIP3    H1 2946   5.622   0.042   4.590
  994TIP3    H2 2947   5.586  -0.051   4.475
  995TIP3   OH2 2948   3.436   0.660   3.827
  995TIP3    H1 2949   3.387   0.682   3.906
  995TIP3    H2 2950   3.371   0.620   3.769
  996TIP3   OH2 2951   4.463   1.784   5.714
  996TIP3    H1 2952   4.496   1.795   5.804
  996TIP3    H2 2953   4.540   1.754   5.665
  997TIP3   OH2 2954   3.985   5.848   0.065
  997TIP3    H1 2955   3.987   5.862  -0.030
  997TIP3    H2 2956   4.064   5.891   0.097
  998TIP3   OH2 2957   5.079   5.510   3.139
  998TIP3    H1 2958   5.096   5.426   3.181
  998TIP3    H2 2959   5.067   5.571   3.212
  999TIP3   OH2 2960   7.147   0.546   0.706
  999TIP3    H1 2961   7.121   0.634   0.733
  999TIP3    H2 2962   7.157   0.553   0.611
 1000TIP3   OH2 2963   2.767   2.227   0.929
 1000TIP3    H1 2964   2.792   2.137   0.948
 1000TIP3    H2 2965   2.838   2.260   0.873
 1001TIP3   OH2 2966   6.936   2.990   0.739
 1001TIP3    H1 2967   6.891   3.070   0.712
 1001TIP3    H2 2968   6.965   2.950   0.657
 1002TIP3   OH2 2969   0.622   0.729   4.316
 1002TIP3    H1 2970   0.655   0.710   4.228
 1002TIP3    H2 2971   0.528   0.744   4.304
 1003TIP3   OH2 2972   1.254   0.847   5.473
 1003TIP3    H1 2973   1.350   0.839   5.473
 1003TIP3    H2 2974   1.232   0.863   5.565
 1004TIP3   OH2 2975   4.671   3.922   0.708
 1004TIP3    H1 2976   4.745   3.981   0.717
 1004TIP3    H2 2977   4.634   3.916   0.796
 1005TIP3   OH2 2978   2.251   3.646   5.637
 1005TIP3    H1 2979   2.233   3.698   5.559
 1005TIP3    H2 2980   2.291   3.566   5.604
 1006TIP3   OH2 2981   2.457   3.769   5.939
 1006TIP3    H1 2982   2.543   3.729   5.932
 1006TIP3    H2 2983   2.452   3.830   5.865
 1007TIP3   OH2 2984   0.481   1.464   1.235
 1007TIP3    H1 2985   0.477   1.449   1.140
 1007TIP3    H2 2986   0.443   1.386   1.274
 1008TIP3   OH2 2987   0.853   6.419   2.120
 1008TIP3    H1 2988   0.813   6.406   2.206
 1008TIP3    H2 2989   0.822   6.346   2.068
 1009TIP3   OH2 2990   3.699   4.717   4.697
 1009TIP3    H1 2991   3.754   4.742   4.624
 1009TIP3    H2 2992   3.648   4.642   4.665
 1010TIP3   OH2 2993   7.181   5.307   4.134
 1010TIP3    H1 2994   7.269   5.344   4.135
 1010TIP3    H2 2995   7.137   5.347   4.209
 1011TIP3   OH2 2996   7.080   6.734   5.711
 1011TIP3    H1 2997   7.083   6.774   5.624
 1011TIP3    H2 2998   6.988   6.711   5.724
 1012TIP3   OH2 2999   6.709   3.408   3.386
 1012TIP3    H1 3000   6.644   3.441   3.448
 1012TIP3    H2 3001   6.785   3.386   3.440
 1013TIP3   OH2 3002   6.182   1.453   5.004
 1013TIP3    H1 3003   6.122   1.509   5.055
 1013TIP3    H2 3004   6.269   1.479   5.034
 1014TIP3   OH2 3005   7.165   4.842   0.159
 1014TIP3    H1 3006   7.087   4.810   0.114
 1014TIP3    H2 3007   7.207   4.900   0.097
 1015TIP3   OH2 3008   4.989   5.644   2.667
 1015TIP3    H1 3009   4.910   5.684   2.630
 1015TIP3    H2 3010   4.967   5.629   2.759
 1016TIP3   OH2 3011   3.869   0.906   3.161
 1016TIP3    H1 3012   3.791   0.956   3.134
 1016TIP3    H2 3013   3.930   0.917   3.088
 1017TIP3   OH2 3014   4.483   4.089   1.872
 1017TIP3    H1 3015   4.520   4.169   1.910
 1017TIP3    H2 3016   4.393   4.112   1.850
 1018TIP3   OH2 3017   1.517   5.998   1.374
 1018TIP3    H1 3018   1.576   6.008   1.299
 1018TIP3    H2 3019   1.481   5.909   1.364
 1019TIP3   OH2 3020   6.005   3.391   0.249
 1019TIP3    H1 3021   5.976   3.480   0.265
 1019TIP3    H2 3022   6.052   3.366   0.328
 1020TIP3   OH2 3023   6.934   2.924   1.021
 1020TIP3    H1 3024   6.937   2.917   0.925
 1020TIP3    H2 3025   6.962   2.838   1.052
 1021TIP3   OH2 3026   5.342   5.080   0.783
 1021TIP3    H1 3027   5.345   5.026   0.704
 1021TIP3    H2 3028   5.324   5.019   0.854
 1022TIP3   OH2 3029   5.220   1.378   3.211
 1022TIP3    H1 3030   5.273   1.414   3.140
 1022TIP3    H2 3031   5.263   1.295   3.233
 1023TIP3   OH2 3032   5.154   0.056   3.897
 1023TIP3    H1 3033   5.139   0.150   3.896
 1023TIP3    H2 3034   5.207   0.038   3.820
 1024TIP3   OH2 3035   3.992   3.711   0.535
 1024TIP3    H1 3036   4.068   3.701   0.479
 1024TIP3    H2 3037   3.918   3.714   0.475
 1025TIP3   OH2 3038   6.830   3.350   5.672
 1025TIP3    H1 3039   6.750   3.360   5.620
 1025TIP3    H2 3040   6.819   3.412   5.744
 1026TIP3   OH2 3041   5.629   5.811   3.977
 1026TIP3    H1 3042   5.675   5.893   3.993
 1026TIP3    H2 3043   5.649   5.788   3.887
 1027TIP3   OH2 3044   0.853   2.158   1.615
 1027TIP3    H1 3045   0.911   2.179   1.688
 1027TIP3    H2 3046   0.870   2.227   1.550
 1028TIP3   OH2 3047   1.487   1.758   5.173
 1028TIP3    H1 3048   1.535   1.732   5.094
 1028TIP3    H2 3049   1.407   1.707   5.171
 1029TIP3   OH2 3050   0.167   6.622   0.670
 1029TIP3    H1 3051   0.248   6.572   0.663
 1029TIP3    H2 3052   0.103   6.560   0.705
 1030TIP3   OH2 3053   7.039   2.416   1.713
 1030TIP3    H1 3054   7.066   2.397   1.803
 1030TIP3    H2 3055   6.964   2.359   1.699
 1031TIP3   OH2 3056   3.160   0.876   3.765
 1031TIP3    H1 3057   3.160   0.824   3.685
 1031TIP3    H2 3058   3.175   0.965   3.735
 1032TIP3   OH2 3059   2.957   5.174   1.847
 1032TIP3    H1 3060   2.936   5.188   1.755
 1032TIP3    H2 3061   2.997   5.256   1.876
 1033TIP3   OH2 3062   0.993   4.077   2.330
 1033TIP3    H1 3063   1.081   4.075   2.292
 1033TIP3    H2 3064   0.957   3.989   2.313
 1034TIP3   OH2 3065   3.334   4.255   0.240
 1034TIP3    H1 3066   3.278   4.197   0.188
 1034TIP3    H2 3067   3.274   4.311   0.289
 1035TIP3   OH2 3068   5.470   0.961   2.205
 1035TIP3    H1 3069   5.498   0.916   2.285
 1035TIP3    H2 3070   5.417   1.034   2.235
 1036TIP3   OH2 3071   2.127   2.260   4.283
 1036TIP3    H1 3072   2.105   2.170   4.310
 1036TIP3    H2 3073   2.189   2.249   4.212
 1037TIP3   OH2 3074   1.526   2.054   0.379
 1037TIP3    H1 3075   1.567   1.985   0.431
 1037TIP3    H2 3076   1.435   2.026   0.369
 1038TIP3   OH2 3077   2.413   4.976   4.328
 1038TIP3    H1 3078   2.324   4.980   4.294
 1038TIP3    H2 3079   2.408   5.016   4.414
 1039TIP3   OH2 3080   4.429   4.413   2.278
 1039TIP3    H1 3081   4.446   4.507   2.282
 1039TIP3    H2 3082   4.438   4.384   2.369
 1040TIP3   OH2 3083   3.374   2.012  -0.019
 1040TIP3    H1 3084   3.340   2.060   0.057
 1040TIP3    H2 3085   3.464   1.991   0.005
 1041TIP3   OH2 3086   1.680   5.068   1.475
 1041TIP3    H1 3087   1.716   5.153   1.453
 1041TIP3    H2 3088   1.592   5.087   1.509
 1042TIP3   OH2 3089   4.817   1.577   5.803
 1042TIP3    H1 3090   4.772   1.646   5.754
 1042TIP3    H2 3091   4.772   1.497   5.779
 1043TIP3   OH2 3092   2.381   0.376   2.976
 1043TIP3    H1 3093   2.454   0.437   2.965
 1043TIP3    H2 3094   2.311   0.414   2.923
 1044TIP3   OH2 3095   4.033   5.603   4.592
 1044TIP3    H1 3096   3.949   5.573   4.627
 1044TIP3    H2 3097   4.027   5.698   4.592
 1045TIP3   OH2 3098   6.663   2.611   2.022
 1045TIP3    H1 3099   6.691   2.520   2.031
 1045TIP3    H2 3100   6.599   2.609   1.951
 1046TIP3   OH2 3101   6.465   0.360   2.014
 1046TIP3    H1 3102   6.422   0.275   2.005
 1046TIP3    H2 3103   6.425   0.399   2.092
 1047TIP3   OH2 3104   1.044   4.452   3.641
 1047TIP3    H1 3105   0.977   4.410   3.695
 1047TIP3    H2 3106   1.059   4.537   3.683
 1048TIP3   OH2 3107   7.010   2.307   3.959
 1048TIP3    H1 3108   7.001   2.284   4.051
 1048TIP3    H2 3109   6.929   2.351   3.937
 1049TIP3   OH2 3110   3.529   4.552   2.833
 1049TIP3    H1 3111   3.545   4.485   2.900
 1049TIP3    H2 3112   3.502   4.503   2.756
 1050TIP3   OH2 3113   1.541   2.706   1.852
 1050TIP3    H1 3114   1.497   2.678   1.772
 1050TIP3    H2 3115   1.470   2.729   1.911
 1051TIP3   OH2 3116   3.556   4.832   1.110
 1051TIP3    H1 3117   3.601   4.750   1.093
 1051TIP3    H2 3118   3.463   4.809   1.113
 1052TIP3   OH2 3119   4.729   6.410   4.896
 1052TIP3    H1 3120   4.769   6.397   4.810
 1052TIP3    H2 3121   4.774   6.485   4.932
 1053TIP3   OH2 3122   0.505   0.903   4.702
 1053TIP3    H1 3123   0.524   0.947   4.619
 1053TIP3    H2 3124   0.576   0.932   4.760
 1054TIP3   OH2 3125   4.035   4.405   2.289
 1054TIP3    H1 3126   4.081   4.421   2.207
 1054TIP3    H2 3127   3.944   4.430   2.271
 1055TIP3   OH2 3128   1.147   1.406   4.435
 1055TIP3    H1 3129   1.223   1.357   4.405
 1055TIP3    H2 3130   1.124   1.463   4.361
 1056TIP3   OH2 3131   1.780   1.282   3.449
 1056TIP3    H1 3132   1.839   1.272   3.374
 1056TIP3    H2 3133   1.753   1.374   3.446
 1057TIP3   OH2 3134   4.753   4.376   3.860
 1057TIP3    H1 3135   4.674   4.365   3.914
 1057TIP3    H2 3136   4.722   4.366   3.770
 1058TIP3   OH2 3137   3.129   4.677   0.311
 1058TIP3    H1 3138   3.129   4.768   0.341
 1058TIP3    H2 3139   3.102   4.682   0.220
 1059TIP3   OH2 3140   0.427   0.277   1.973
 1059TIP3    H1 3141   0.454   0.196   1.931
 1059TIP3    H2 3142   0.343   0.299   1.933
 1060TIP3   OH2 3143   1.727   6.309   0.749
 1060TIP3    H1 3144   1.687   6.240   0.801
 1060TIP3    H2 3145   1.654   6.346   0.698
 1061TIP3   OH2 3146   4.589   0.939   1.619
 1061TIP3    H1 3147   4.499   0.913   1.595
 1061TIP3    H2 3148   4.580   1.028   1.652
 1062TIP3   OH2 3149   3.417   6.270   1.130
 1062TIP3    H1 3150   3.370   6.197   1.089
 1062TIP3    H2 3151   3.368   6.347   1.103
 1063TIP3   OH2 3152   1.567   3.897   1.171
 1063TIP3    H1 3153   1.585   3.817   1.221
 1063TIP3    H2 3154   1.590   3.874   1.081
 1064TIP3   OH2 3155   1.142   1.422   1.372
 1064TIP3    H1 3156   1.172   1.370   1.446
 1064TIP3    H2 3157   1.158   1.513   1.399
 1065TIP3   OH2 3158   0.514   4.744   3.710
 1065TIP3    H1 3159   0.544   4.756   3.620
 1065TIP3    H2 3160   0.508   4.832   3.746
 1066TIP3   OH2 3161   1.205   3.969   2.710
 1066TIP3    H1 3162   1.213   4.052   2.758
 1066TIP3    H2 3163   1.128   3.927   2.749
 1067TIP3   OH2 3164   6.788   3.407   5.340
 1067TIP3    H1 3165   6.764   3.418   5.248
 1067TIP3    H2 3166   6.770   3.492   5.380
 1068TIP3   OH2 3167   3.848   5.196   4.137
 1068TIP3    H1 3168   3.818   5.194   4.046
 1068TIP3    H2 3169   3.877   5.286   4.151
 1069TIP3   OH2 3170   6.602   4.912   3.616
 1069TIP3    H1 3171   6.517   4.948   3.591
 1069TIP3    H2 3172   6.603   4.915   3.712
 1070TIP3   OH2 3173   4.205   2.603   4.293
 1070TIP3    H1 3174   4.208   2.688   4.249
 1070TIP3    H2 3175   4.114   2.594   4.323
 1071TIP3   OH2 3176   3.010   3.475   1.439
 1071TIP3    H1 3177   3.029   3.509   1.526
 1071TIP3    H2 3178   3.040   3.384   1.441
 1072TIP3   OH2 3179   4.274   4.090   2.252
 1072TIP3    H1 3180   4.285   4.175   2.210
 1072TIP3    H2 3181   4.356   4.075   2.298
 1073TIP3   OH2 3182   2.103   3.269   5.648
 1073TIP3    H1 3183   2.017   3.253   5.608
 1073TIP3    H2 3184   2.092   3.352   5.695
 1074TIP3   OH2 3185   2.623   3.746   5.067
 1074TIP3    H1 3186   2.690   3.692   5.027
 1074TIP3    H2 3187   2.570   3.776   4.994
 1075TIP3   OH2 3188   0.942   4.039   4.455
 1075TIP3    H1 3189   0.877   4.035   4.525
 1075TIP3    H2 3190   0.894   4.072   4.379
 1076TIP3   OH2 3191   4.970   2.443   5.662
 1076TIP3    H1 3192   4.895   2.482   5.706
 1076TIP3    H2 3193   5.027   2.413   5.733
 1077TIP3   OH2 3194   6.523   3.427   3.176
 1077TIP3    H1 3195   6.526   3.502   3.116
 1077TIP3    H2 3196   6.598   3.440   3.234
 1078TIP3   OH2 3197   4.637   3.238   4.812
 1078TIP3    H1 3198   4.682   3.315   4.847
 1078TIP3    H2 3199   4.584   3.273   4.740
 1079TIP3   OH2 3200   1.132   2.448   5.795
 1079TIP3    H1 3201   1.182   2.454   5.877
 1079TIP3    H2 3202   1.198   2.458   5.726
 1080TIP3   OH2 3203   3.053   2.749   1.931
 1080TIP3    H1 3204   3.056   2.843   1.914
 1080TIP3    H2 3205   3.002   2.740   2.012
 1081TIP3   OH2 3206   0.623   6.006   3.255
 1081TIP3    H1 3207   0.696   5.949   3.279
 1081TIP3    H2 3208   0.558   5.991   3.324
 1082TIP3   OH2 3209   7.220   4.597   5.736
 1082TIP3    H1 3210   7.126   4.590   5.753
 1082TIP3    H2 3211   7.233   4.554   5.651
 1083TIP3   OH2 3212   2.699   1.064   1.794
 1083TIP3    H1 3213   2.748   0.985   1.772
 1083TIP3    H2 3214   2.762   1.135   1.780
 1084TIP3   OH2 3215   3.702   5.974   1.348
 1084TIP3    H1 3216   3.651   5.917   1.406
 1084TIP3    H2 3217   3.779   5.998   1.400
 1085TIP3   OH2 3218   3.103   0.034   5.144
 1085TIP3    H1 3219   3.044   0.000   5.211
 1085TIP3    H2 3220   3.096  -0.028   5.071
 1086TIP3   OH2 3221   5.668   5.308   3.196
 1086TIP3    H1 3222   5.639   5.393   3.230
 1086TIP3    H2 3223   5.591   5.252   3.201
 1087TIP3   OH2 3224   1.076   0.209   3.873
 1087TIP3    H1 3225   0.986   0.241   3.872
 1087TIP3    H2 3226   1.129   0.285   3.853
 1088TIP3   OH2 3227   2.124   5.037   0.369
 1088TIP3    H1 3228   2.140   5.122   0.410
 1088TIP3    H2 3229   2.136   4.973   0.439
 1089TIP3   OH2 3230   0.171   4.457   1.606
 1089TIP3    H1 3231   0.213   4.537   1.575
 1089TIP3    H2 3232   0.227   4.427   1.679
 1090TIP3   OH2 3233   2.653   3.309   0.685
 1090TIP3    H1 3234   2.694   3.298   0.771
 1090TIP3    H2 3235   2.679   3.231   0.636
 1091TIP3   OH2 3236   6.121   3.630   1.696
 1091TIP3    H1 3237   6.113   3.583   1.779
 1091TIP3    H2 3238   6.043   3.685   1.692
 1092TIP3   OH2 3239   1.270   3.020   4.783
 1092TIP3    H1 3240   1.270   3.104   4.737
 1092TIP3    H2 3241   1.178   2.991   4.780
 1093TIP3   OH2 3242   5.416   2.108   3.619
 1093TIP3    H1 3243   5.334   2.101   3.569
 1093TIP3    H2 3244   5.484   2.107   3.552
 1094TIP3   OH2 3245   3.578   5.265   4.152
 1094TIP3    H1 3246   3.659   5.229   4.187
 1094TIP3    H2 3247   3.571   5.228   4.064
 1095TIP3   OH2 3248   1.364   6.356   1.191
 1095TIP3    H1 3249   1.373   6.441   1.234
 1095TIP3    H2 3250   1.435   6.303   1.228
 1096TIP3   OH2 3251   1.201   6.684   4.640
 1096TIP3    H1 3252   1.196   6.757   4.578
 1096TIP3    H2 3253   1.258   6.716   4.710
 1097TIP3   OH2 3254   1.269   0.531   5.548
 1097TIP3    H1 3255   1.269   0.626   5.553
 1097TIP3    H2 3256   1.180   0.505   5.569
 1098TIP3   OH2 3257   1.014   0.236   2.326
 1098TIP3    H1 3258   0.923   0.223   2.300
 1098TIP3    H2 3259   1.058   0.155   2.302
 1099TIP3   OH2 3260   2.461   6.759   3.304
 1099TIP3    H1 3261   2.481   6.844   3.265
 1099TIP3    H2 3262   2.518   6.697   3.258
 1100TIP3   OH2 3263   2.385   1.297   1.199
 1100TIP3    H1 3264   2.400   1.324   1.289
 1100TIP3    H2 3265   2.310   1.350   1.170
 1101TIP3   OH2 3266   5.761   2.525   4.647
 1101TIP3    H1 3267   5.831   2.558   4.591
 1101TIP3    H2 3268   5.794   2.440   4.678
 1102TIP3   OH2 3269   6.367   6.481   4.456
 1102TIP3    H1 3270   6.348   6.394   4.490
 1102TIP3    H2 3271   6.461   6.493   4.474
 1103TIP3   OH2 3272   2.685   3.711   1.167
 1103TIP3    H1 3273   2.599   3.752   1.161
 1103TIP3    H2 3274   2.704   3.708   1.261
 1104TIP3   OH2 3275   3.872   5.631   1.615
 1104TIP3    H1 3276   3.875   5.560   1.551
 1104TIP3    H2 3277   3.871   5.588   1.700
 1105TIP3   OH2 3278   3.107   5.502   5.031
 1105TIP3    H1 3279   3.191   5.544   5.009
 1105TIP3    H2 3280   3.041   5.556   4.988
 1106TIP3   OH2 3281   2.628   1.402   3.454
 1106TIP3    H1 3282   2.621   1.435   3.544
 1106TIP3    H2 3283   2.603   1.310   3.461
 1107TIP3   OH2 3284   0.808   4.592   2.139
 1107TIP3    H1 3285   0.849   4.506   2.150
 1107TIP3    H2 3286   0.881   4.654   2.139
 1108TIP3   OH2 3287   6.553   4.230   5.169
 1108TIP3    H1 3288   6.559   4.294   5.239
 1108TIP3    H2 3289   6.513   4.277   5.096
 1109TIP3   OH2 3290   2.584   1.814   0.453
 1109TIP3    H1 3291   2.489   1.802   0.454
 1109TIP3    H2 3292   2.611   1.807   0.545
 1110TIP3   OH2 3293   5.655   5.189   5.793
 1110TIP3    H1 3294   5.691   5.278   5.793
 1110TIP3    H2 3295   5.597   5.187   5.716
 1111TIP3   OH2 3296   4.810   0.007   1.754
 1111TIP3    H1 3297   4.836  -0.073   1.710
 1111TIP3    H2 3298   4.826   0.076   1.690
 1112TIP3   OH2 3299   6.162   5.081   3.798
 1112TIP3    H1 3300   6.185   5.035   3.717
 1112TIP3    H2 3301   6.246   5.114   3.831
 1113TIP3   OH2 3302   1.968   0.879   5.240
 1113TIP3    H1 3303   1.910   0.949   5.211
 1113TIP3    H2 3304   1.942   0.803   5.188
 1114TIP3   OH2 3305   2.982   5.616   1.162
 1114TIP3    H1 3306   2.929   5.696   1.170
 1114TIP3    H2 3307   2.935   5.562   1.099
 1115TIP3   OH2 3308   3.406   4.971   2.274
 1115TIP3    H1 3309   3.419   4.908   2.346
 1115TIP3    H2 3310   3.398   5.056   2.318
 1116TIP3   OH2 3311   4.154   0.948   5.188
 1116TIP3    H1 3312   4.246   0.924   5.196
 1116TIP3    H2 3313   4.137   0.947   5.094
 1117TIP3   OH2 3314   4.497   0.737   0.818
 1117TIP3    H1 3315   4.560   0.745   0.747
 1117TIP3    H2 3316   4.545   0.764   0.896
 1118TIP3   OH2 3317   2.992   6.427   5.467
 1118TIP3    H1 3318   2.936   6.350   5.481
 1118TIP3    H2 3319   2.931   6.496   5.440
 1119TIP3   OH2 3320   5.685   4.279   1.967
 1119TIP3    H1 3321   5.778   4.265   1.950
 1119TIP3    H2 3322   5.641   4.242   1.890
 1120TIP3   OH2 3323   6.358   1.419   3.690
 1120TIP3    H1 3324   6.266   1.411   3.663
 1120TIP3    H2 3325   6.387   1.329   3.703
 1121TIP3   OH2 3326   3.875   1.250   0.538
 1121TIP3    H1 3327   3.931   1.245   0.615
 1121TIP3    H2 3328   3.890   1.168   0.491
 1122TIP3   OH2 3329   0.370   3.213   4.501
 1122TIP3    H1 3330   0.465   3.224   4.492
 1122TIP3    H2 3331   0.342   3.175   4.418
 1123TIP3   OH2 3332   6.945   0.183   2.511
 1123TIP3    H1 3333   6.958   0.223   2.597
 1123TIP3    H2 3334   6.851   0.164   2.508
 1124TIP3   OH2 3335   0.709   4.223   5.775
 1124TIP3    H1 3336   0.725   4.294   5.838
 1124TIP3    H2 3337   0.794   4.211   5.731
 1125TIP3   OH2 3338   3.162   1.525   1.049
 1125TIP3    H1 3339   3.076   1.523   1.007
 1125TIP3    H2 3340   3.208   1.449   1.013
 1126TIP3   OH2 3341   4.434   1.200   4.525
 1126TIP3    H1 3342   4.393   1.264   4.467
 1126TIP3    H2 3343   4.528   1.216   4.515
 1127TIP3   OH2 3344   3.597   5.095   0.412
 1127TIP3    H1 3345   3.570   5.104   0.321
 1127TIP3    H2 3346   3.581   5.181   0.451
 1128TIP3   OH2 3347   4.253   2.082   1.722
 1128TIP3    H1 3348   4.298   2.125   1.650
 1128TIP3    H2 3349   4.234   2.152   1.785
 1129TIP3   OH2 3350   5.392   4.782   1.102
 1129TIP3    H1 3351   5.426   4.772   1.191
 1129TIP3    H2 3352   5.372   4.875   1.094
 1130TIP3   OH2 3353   6.582   0.892   1.131
 1130TIP3    H1 3354   6.556   0.880   1.039
 1130TIP3    H2 3355   6.539   0.820   1.177
 1131TIP3   OH2 3356   3.051   1.303   3.881
 1131TIP3    H1 3357   3.059   1.219   3.926
 1131TIP3    H2 3358   2.970   1.341   3.916
 1132TIP3   OH2 3359   0.548   2.727   3.273
 1132TIP3    H1 3360   0.538   2.796   3.208
 1132TIP3    H2 3361   0.478   2.665   3.254
 1133TIP3   OH2 3362   2.072   1.933   5.867
 1133TIP3    H1 3363   2.144   1.926   5.804
 1133TIP3    H2 3364   1.999   1.889   5.824
 1134TIP3   OH2 3365   3.653   3.351   1.233
 1134TIP3    H1 3366   3.650   3.341   1.328
 1134TIP3    H2 3367   3.740   3.319   1.209
 1135TIP3   OH2 3368   5.238   6.201   3.256
 1135TIP3    H1 3369   5.236   6.193   3.352
 1135TIP3    H2 3370   5.222   6.112   3.225
 1136TIP3   OH2 3371   5.776   3.419   0.682
 1136TIP3    H1 3372   5.801   3.327   0.680
 1136TIP3    H2 3373   5.859   3.467   0.674
 1137TIP3   OH2 3374   5.568   1.896   5.453
 1137TIP3    H1 3375   5.502   1.935   5.394
 1137TIP3    H2 3376   5.587   1.811   5.415
 1138TIP3   OH2 3377   7.087   1.015   5.197
 1138TIP3    H1 3378   7.146   1.086   5.171
 1138TIP3    H2 3379   7.037   0.995   5.117
 1139TIP3   OH2 3380   0.686   3.832   3.435
 1139TIP3    H1 3381   0.608   3.822   3.380
 1139TIP3    H2 3382   0.758   3.802   3.380
 1140TIP3   OH2 3383   0.168   0.730   4.127
 1140TIP3    H1 3384   0.138   0.782   4.052
 1140TIP3    H2 3385   0.169   0.640   4.094
 1141TIP3   OH2 3386   3.587   3.840   0.024
 1141TIP3    H1 3387   3.656   3.889  -0.021
 1141TIP3    H2 3388   3.517   3.904   0.039
 1142TIP3   OH2 3389   3.868   5.916   5.238
 1142TIP3    H1 3390   3.846   5.938   5.329
 1142TIP3    H2 3391   3.877   6.001   5.195
 1143TIP3   OH2 3392   6.845   3.019   4.495
 1143TIP3    H1 3393   6.826   3.019   4.402
 1143TIP3    H2 3394   6.891   3.102   4.510
 1144TIP3   OH2 3395   3.821   3.585   2.648
 1144TIP3    H1 3396   3.735   3.610   2.613
 1144TIP3    H2 3397   3.877   3.575   2.571
 1145TIP3   OH2 3398   1.616   6.074   5.109
 1145TIP3    H1 3399   1.576   6.041   5.189
 1145TIP3    H2 3400   1.588   6.166   5.104
 1146TIP3   OH2 3401   0.678   4.645   0.411
 1146TIP3    H1 3402   0.677   4.663   0.317
 1146TIP3    H2 3403   0.642   4.724   0.451
 1147TIP3   OH2 3404   6.363   1.962   2.123
 1147TIP3    H1 3405   6.284   1.987   2.171
 1147TIP3    H2 3406   6.343   1.878   2.083
 1148TIP3   OH2 3407   4.889   0.606   4.440
 1148TIP3    H1 3408   4.805   0.628   4.400
 1148TIP3    H2 3409   4.913   0.522   4.402
 1149TIP3   OH2 3410   4.246   6.160   2.312
 1149TIP3    H1 3411   4.234   6.099   2.385
 1149TIP3    H2 3412   4.222   6.245   2.348
 1150TIP3   OH2 3413   4.116   1.178   3.548
 1150TIP3    H1 3414   4.075   1.109   3.601
 1150TIP3    H2 3415   4.103   1.150   3.458
 1151TIP3   OH2 3416   0.855   6.761   0.965
 1151TIP3    H1 3417   0.824   6.836   1.015
 1151TIP3    H2 3418   0.777   6.707   0.952
 1152TIP3   OH2 3419   3.424   4.942   4.983
 1152TIP3    H1 3420   3.519   4.935   4.974
 1152TIP3    H2 3421   3.407   4.924   5.076
 1153TIP3   OH2 3422   4.098   1.510  -0.005
 1153TIP3    H1 3423   4.012   1.473  -0.027
 1153TIP3    H2 3424   4.107   1.497   0.089
 1154TIP3   OH2 3425   2.411   2.976   4.942
 1154TIP3    H1 3426   2.352   2.970   4.866
 1154TIP3    H2 3427   2.444   3.066   4.939
 1155TIP3   OH2 3428   1.055   0.198   1.031
 1155TIP3    H1 3429   1.116   0.135   1.070
 1155TIP3    H2 3430   1.027   0.252   1.105
 1156TIP3   OH2 3431   3.602   0.154   3.240
 1156TIP3    H1 3432   3.684   0.112   3.215
 1156TIP3    H2 3433   3.534   0.094   3.209
 1157TIP3   OH2 3434   1.605   0.570   2.797
 1157TIP3    H1 3435   1.570   0.565   2.886
 1157TIP3    H2 3436   1.588   0.659   2.769
 1158TIP3   OH2 3437   2.395   5.325   5.726
 1158TIP3    H1 3438   2.410   5.403   5.779
 1158TIP3    H2 3439   2.366   5.258   5.788
 1159TIP3   OH2 3440   0.822   5.308   3.364
 1159TIP3    H1 3441   0.793   5.252   3.292
 1159TIP3    H2 3442   0.747   5.310   3.424
 1160TIP3   OH2 3443   0.300   0.274   4.651
 1160TIP3    H1 3444   0.321   0.320   4.570
 1160TIP3    H2 3445   0.235   0.330   4.694
 1161TIP3   OH2 3446   1.126   4.069   5.428
 1161TIP3    H1 3447   1.062   4.014   5.473
 1161TIP3    H2 3448   1.087   4.086   5.342
 1162TIP3   OH2 3449   4.278   1.398   4.981
 1162TIP3    H1 3450   4.188   1.428   4.966
 1162TIP3    H2 3451   4.288   1.323   4.923
 1163TIP3   OH2 3452   1.253   2.748   0.669
 1163TIP3    H1 3453   1.278   2.662   0.635
 1163TIP3    H2 3454   1.336   2.789   0.693
 1164TIP3   OH2 3455   5.117   5.978   0.805
 1164TIP3    H1 3456   5.185   5.938   0.751
 1164TIP3    H2 3457   5.077   5.904   0.851
 1165TIP3   OH2 3458   2.400   4.150   5.851
 1165TIP3    H1 3459   2.311   4.187   5.843
 1165TIP3    H2 3460   2.390   4.059   5.825
 1166TIP3   OH2 3461   7.142   0.114   0.983
 1166TIP3    H1 3462   7.160   0.207   0.973
 1166TIP3    H2 3463   7.178   0.091   1.069
 1167TIP3   OH2 3464   6.819   4.460   2.608
 1167TIP3    H1 3465   6.829   4.365   2.598
 1167TIP3    H2 3466   6.902   4.490   2.644
 1168TIP3   OH2 3467   0.294   5.231   4.788
 1168TIP3    H1 3468   0.295   5.137   4.770
 1168TIP3    H2 3469   0.209   5.246   4.830
 1169TIP3   OH2 3470   5.444   2.276   5.431
 1169TIP3    H1 3471   5.536   2.256   5.411
 1169TIP3    H2 3472   5.437   2.370   5.414
 1170TIP3   OH2 3473   2.621   6.611   2.023
 1170TIP3    H1 3474   2.573   6.691   2.040
 1170TIP3    H2 3475   2.555   6.547   1.996
 1171TIP3   OH2 3476   1.702   2.332   1.975
 1171TIP3    H1 3477   1.759   2.400   1.938
 1171TIP3    H2 3478   1.616   2.373   1.980
 1172TIP3   OH2 3479   5.169   0.495   3.653
 1172TIP3    H1 3480   5.218   0.575   3.673
 1172TIP3    H2 3481   5.078   0.524   3.644
 1173TIP3   OH2 3482   6.240   5.802   5.529
 1173TIP3    H1 3483   6.194   5.720   5.509
 1173TIP3    H2 3484   6.285   5.784   5.612
 1174TIP3   OH2 3485   6.619   5.591   2.579
 1174TIP3    H1 3486   6.570   5.642   2.643
 1174TIP3    H2 3487   6.694   5.645   2.555
 1175TIP3   OH2 3488   4.480   6.512   5.106
 1175TIP3    H1 3489   4.451   6.446   5.043
 1175TIP3    H2 3490   4.400   6.555   5.134
 1176TIP3   OH2 3491   3.483   0.565   4.439
 1176TIP3    H1 3492   3.491   0.648   4.485
 1176TIP3    H2 3493   3.468   0.590   4.347
 1177TIP3   OH2 3494   1.615   2.551   0.739
 1177TIP3    H1 3495   1.676   2.612   0.780
 1177TIP3    H2 3496   1.549   2.533   0.806
 1178TIP3   OH2 3497   2.563   2.597   0.049
 1178TIP3    H1 3498   2.481   2.621   0.005
 1178TIP3    H2 3499   2.539   2.524   0.106
 1179TIP3   OH2 3500   1.891   2.340   3.079
 1179TIP3    H1 3501   1.893   2.244   3.082
 1179TIP3    H2 3502   1.978   2.365   3.049
 1180TIP3   OH2 3503   6.786   6.618   2.620
 1180TIP3    H1 3504   6.756   6.563   2.548
 1180TIP3    H2 3505   6.818   6.698   2.577
 1181TIP3   OH2 3506   5.787   4.557   4.973
 1181TIP3    H1 3507   5.713   4.564   5.032
 1181TIP3    H2 3508   5.786   4.466   4.942
 1182TIP3   OH2 3509   5.957   0.293   0.264
 1182TIP3    H1 3510   5.942   0.298   0.359
 1182TIP3    H2 3511   5.872   0.267   0.228
 1183TIP3   OH2 3512   1.908   5.025   4.149
 1183TIP3    H1 3513   1.814   5.042   4.144
 1183TIP3    H2 3514   1.915   4.939   4.191
 1184TIP3   OH2 3515   3.455   4.237   5.318
 1184TIP3    H1 3516   3.435   4.267   5.230
 1184TIP3    H2 3517   3.371   4.241   5.364
 1185TIP3   OH2 3518   1.403   0.387   2.125
 1185TIP3    H1 3519   1.354   0.309   2.099
 1185TIP3    H2 3520   1.488   0.354   2.155
 1186TIP3   OH2 3521   7.140   1.618   1.848
 1186TIP3    H1 3522   7.198   1.549   1.880
 1186TIP3    H2 3523   7.061   1.608   1.901
 1187TIP3   OH2 3524   1.240   4.960   5.463
 1187TIP3    H1 3525   1.240   4.943   5.557
 1187TIP3    H2 3526   1.194   4.885   5.425
 1188TIP3   OH2 3527   6.460   5.599   1.101
 1188TIP3    H1 3528   6.458   5.526   1.162
 1188TIP3    H2 3529   6.397   5.576   1.033
 1189TIP3   OH2 3530   2.867   0.775   3.151
 1189TIP3    H1 3531   2.796   0.794   3.090
 1189TIP3    H2 3532   2.897   0.688   3.127
 1190TIP3   OH2 3533   6.716   5.533   3.547
 1190TIP3    H1 3534   6.692   5.446   3.578
 1190TIP3    H2 3535   6.652   5.592   3.589
 1191TIP3   OH2 3536   0.787   2.351   2.661
 1191TIP3    H1 3537   0.876   2.358   2.626
 1191TIP3    H2 3538   0.779   2.260   2.688
 1192TIP3   OH2 3539   5.184   1.811   4.099
 1192TIP3    H1 3540   5.243   1.885   4.089
 1192TIP3    H2 3541   5.227   1.739   4.053
 1193TIP3   OH2 3542   6.933   0.854   1.132
 1193TIP3    H1 3543   6.998   0.921   1.110
 1193TIP3    H2 3544   6.911   0.872   1.224
 1194TIP3   OH2 3545   4.693   0.043   0.229
 1194TIP3    H1 3546   4.702   0.116   0.168
 1194TIP3    H2 3547   4.719   0.078   0.314
 1195TIP3   OH2 3548   6.600   2.221   1.462
 1195TIP3    H1 3549   6.508   2.201   1.481
 1195TIP3    H2 3550   6.600   2.253   1.371
 1196TIP3   OH2 3551   5.953   1.500   0.147
 1196TIP3    H1 3552   6.015   1.453   0.091
 1196TIP3    H2 3553   5.867   1.472   0.117
 1197TIP3   OH2 3554   1.960   1.643   2.191
 1197TIP3    H1 3555   1.902   1.568   2.175
 1197TIP3    H2 3556   2.043   1.618   2.151
 1198TIP3   OH2 3557   1.365   1.009   1.081
 1198TIP3    H1 3558   1.438   1.054   1.040
 1198TIP3    H2 3559   1.303   1.079   1.103
 1199TIP3   OH2 3560   3.414   1.446   2.120
 1199TIP3    H1 3561   3.508   1.464   2.126
 1199TIP3    H2 3562   3.372   1.518   2.167
 1200TIP3   OH2 3563   0.022   2.975   1.171
 1200TIP3    H1 3564  -0.047   2.999   1.233
 1200TIP3    H2 3565   0.099   3.024   1.199
 1201TIP3   OH2 3566   2.316   5.276   0.460
 1201TIP3    H1 3567   2.368   5.352   0.488
 1201TIP3    H2 3568   2.373   5.201   0.477
 1202TIP3   OH2 3569   6.457   2.844   1.964
 1202TIP3    H1 3570   6.545   2.867   1.933
 1202TIP3    H2 3571   6.471   2.805   2.050
 1203TIP3   OH2 3572   5.160   1.080   2.012
 1203TIP3    H1 3573   5.205   1.135   1.949
 1203TIP3    H2 3574   5.124   1.140   2.077
 1204TIP3   OH2 3575   1.640   1.249   1.593
 1204TIP3    H1 3576   1.597   1.169   1.624
 1204TIP3    H2 3577   1.591   1.273   1.514
 1205TIP3   OH2 3578   4.355   0.487   0.421
 1205TIP3    H1 3579   4.415   0.438   0.365
 1205TIP3    H2 3580   4.270   0.480   0.378
 1206TIP3   OH2 3581   0.995   5.288   3.756
 1206TIP3    H1 3582   0.923   5.350   3.769
 1206TIP3    H2 3583   1.073   5.343   3.749
 1207TIP3   OH2 3584   1.074   1.882   3.659
 1207TIP3    H1 3585   1.117   1.866   3.575
 1207TIP3    H2 3586   0.991   1.833   3.653
 1208TIP3   OH2 3587   6.785   2.291   1.659
 1208TIP3    H1 3588   6.761   2.253   1.575
 1208TIP3    H2 3589   6.702   2.317   1.700
 1209TIP3   OH2 3590   3.881   5.503   2.692
 1209TIP3    H1 3591   3.897   5.413   2.666
 1209TIP3    H2 3592   3.956   5.552   2.657
 1210TIP3   OH2 3593   2.710   4.472   1.673
 1210TIP3    H1 3594   2.666   4.550   1.709
 1210TIP3    H2 3595   2.756   4.434   1.747
 1211TIP3   OH2 3596   6.636   5.883   1.965
 1211TIP3    H1 3597   6.727   5.857   1.979
 1211TIP3    H2 3598   6.589   5.800   1.956
 1212TIP3   OH2 3599   6.124   0.129   3.773
 1212TIP3    H1 3600   6.076   0.065   3.720
 1212TIP3    H2 3601   6.080   0.127   3.858
 1213TIP3   OH2 3602   4.805   5.835   2.529
 1213TIP3    H1 3603   4.827   5.907   2.587
 1213TIP3    H2 3604   4.846   5.858   2.445
 1214TIP3   OH2 3605   0.088   0.330   4.813
 1214TIP3    H1 3606   0.058   0.277   4.887
 1214TIP3    H2 3607   0.020   0.395   4.801
 1215TIP3   OH2 3608   4.460   6.331   1.997
 1215TIP3    H1 3609   4.549   6.297   1.993
 1215TIP3    H2 3610   4.406   6.255   2.018
 1216TIP3   OH2 3611   1.904   4.703   1.077
 1216TIP3    H1 3612   1.825   4.712   1.024
 1216TIP3    H2 3613   1.873   4.672   1.162
 1217TIP3   OH2 3614   2.725   0.181   2.314
 1217TIP3    H1 3615   2.637   0.218   2.319
 1217TIP3    H2 3616   2.755   0.179   2.405
 1218TIP3   OH2 3617   1.999   2.456   2.759
 1218TIP3    H1 3618   1.919   2.410   2.733
 1218TIP3    H2 3619   1.968   2.539   2.795
 1219TIP3   OH2 3620   0.804   6.027   0.673
 1219TIP3    H1 3621   0.802   6.003   0.766
 1219TIP3    H2 3622   0.775   5.948   0.627
 1220TIP3   OH2 3623   1.435   1.094   0.220
 1220TIP3    H1 3624   1.452   1.182   0.187
 1220TIP3    H2 3625   1.462   1.035   0.149
 1221TIP3   OH2 3626   5.771   1.984   3.847
 1221TIP3    H1 3627   5.687   1.939   3.852
 1221TIP3    H2 3628   5.819   1.939   3.777
 1222TIP3   OH2 3629   3.355   2.744   0.777
 1222TIP3    H1 3630   3.282   2.693   0.812
 1222TIP3    H2 3631   3.316   2.798   0.709
 1223TIP3   OH2 3632   3.849   1.622   5.159
 1223TIP3    H1 3633   3.897   1.702   5.183
 1223TIP3    H2 3634   3.763   1.653   5.132
 1224TIP3   OH2 3635   2.674   4.654   4.598
 1224TIP3    H1 3636   2.685   4.594   4.671
 1224TIP3    H2 3637   2.692   4.741   4.634
 1225TIP3   OH2 3638   4.622   3.865   0.982
 1225TIP3    H1 3639   4.695   3.804   0.991
 1225TIP3    H2 3640   4.615   3.907   1.068
 1226TIP3   OH2 3641   4.911   2.238   3.241
 1226TIP3    H1 3642   4.878   2.268   3.326
 1226TIP3    H2 3643   5.005   2.257   3.243
 1227TIP3   OH2 3644   0.996   1.955   5.902
 1227TIP3    H1 3645   0.909   1.922   5.924
 1227TIP3    H2 3646   0.997   2.044   5.938
 1228TIP3   OH2 3647   0.699   0.231   4.115
 1228TIP3    H1 3648   0.633   0.161   4.119
 1228TIP3    H2 3649   0.747   0.224   4.197
 1229TIP3   OH2 3650   2.440   6.429   0.266
 1229TIP3    H1 3651   2.398   6.488   0.328
 1229TIP3    H2 3652   2.511   6.481   0.228
 1230TIP3   OH2 3653   6.971   5.149   0.079
 1230TIP3    H1 3654   7.043   5.096   0.113
 1230TIP3    H2 3655   6.930   5.187   0.156
 1231TIP3   OH2 3656   6.016   0.984   3.796
 1231TIP3    H1 3657   6.053   0.896   3.785
 1231TIP3    H2 3658   5.943   0.972   3.857
 1232TIP3   OH2 3659   3.683   0.935   1.999
 1232TIP3    H1 3660   3.642   0.918   2.084
 1232TIP3    H2 3661   3.777   0.934   2.016
 1233TIP3   OH2 3662   3.372   4.911   4.490
 1233TIP3    H1 3663   3.294   4.862   4.513
 1233TIP3    H2 3664   3.411   4.935   4.575
 1234TIP3   OH2 3665   6.938   1.360   5.210
 1234TIP3    H1 3666   6.865   1.331   5.155
 1234TIP3    H2 3667   6.995   1.283   5.216
 1235TIP3   OH2 3668   6.777   6.567   0.798
 1235TIP3    H1 3669   6.834   6.617   0.857
 1235TIP3    H2 3670   6.718   6.633   0.762
 1236TIP3   OH2 3671   6.578   0.115   5.046
 1236TIP3    H1 3672   6.643   0.163   5.098
 1236TIP3    H2 3673   6.628   0.082   4.971
 1237TIP3   OH2 3674   3.723   2.511   0.006
 1237TIP3    H1 3675   3.706   2.485   0.097
 1237TIP3    H2 3676   3.816   2.490  -0.007
 1238TIP3   OH2 3677   0.819   1.915   5.188
 1238TIP3    H1 3678   0.772   1.976   5.243
 1238TIP3    H2 3679   0.867   1.859   5.249
 1239TIP3   OH2 3680   2.594   3.029   2.418
 1239TIP3    H1 3681   2.571   3.096   2.354
 1239TIP3    H2 3682   2.639   3.077   2.488
 1240TIP3   OH2 3683   3.879   5.697   0.467
 1240TIP3    H1 3684   3.884   5.660   0.555
 1240TIP3    H2 3685   3.937   5.641   0.414
 1241TIP3   OH2 3686   1.531   1.845   0.154
 1241TIP3    H1 3687   1.529   1.759   0.197
 1241TIP3    H2 3688   1.619   1.877   0.168
 1242TIP3   OH2 3689   1.069   4.179   2.980
 1242TIP3    H1 3690   1.023   4.096   2.975
 1242TIP3    H2 3691   1.028   4.225   3.053
 1243TIP3   OH2 3692   4.674   3.498   3.137
 1243TIP3    H1 3693   4.631   3.578   3.106
 1243TIP3    H2 3694   4.662   3.500   3.232
 1244TIP3   OH2 3695   6.587   0.830   2.652
 1244TIP3    H1 3696   6.648   0.762   2.681
 1244TIP3    H2 3697   6.502   0.787   2.650
 1245TIP3   OH2 3698   4.454   2.773   0.082
 1245TIP3    H1 3699   4.376   2.777   0.138
 1245TIP3    H2 3700   4.528   2.768   0.143
 1246TIP3   OH2 3701   3.677   3.403   0.457
 1246TIP3    H1 3702   3.755   3.353   0.485
 1246TIP3    H2 3703   3.676   3.394   0.362
 1247TIP3   OH2 3704   3.714   5.547   1.937
 1247TIP3    H1 3705   3.809   5.557   1.932
 1247TIP3    H2 3706   3.683   5.629   1.975
 1248TIP3   OH2 3707   2.625   1.808   3.691
 1248TIP3    H1 3708   2.562   1.879   3.692
 1248TIP3    H2 3709   2.684   1.826   3.765
 1249TIP3   OH2 3710   6.385   3.080   1.807
 1249TIP3    H1 3711   6.414   3.041   1.725
 1249TIP3    H2 3712   6.380   3.007   1.868
 1250TIP3   OH2 3713   2.753   1.189   2.091
 1250TIP3    H1 3714   2.681   1.137   2.055
 1250TIP3    H2 3715   2.823   1.127   2.105
 1251TIP3   OH2 3716   3.826   1.374   3.808
 1251TIP3    H1 3717   3.827   1.279   3.821
 1251TIP3    H2 3718   3.918   1.399   3.805
 1252TIP3   OH2 3719   1.927   1.533   2.984
 1252TIP3    H1 3720   1.927   1.629   2.981
 1252TIP3    H2 3721   2.017   1.508   2.963
 1253TIP3   OH2 3722   2.783   1.396   3.962
 1253TIP3    H1 3723   2.725   1.375   4.036
 1253TIP3    H2 3724   2.773   1.323   3.902
 1254TIP3   OH2 3725   2.226   4.570   1.867
 1254TIP3    H1 3726   2.286   4.564   1.793
 1254TIP3    H2 3727   2.144   4.533   1.834
 1255TIP3   OH2 3728   5.177   4.211   0.315
 1255TIP3    H1 3729   5.155   4.170   0.398
 1255TIP3    H2 3730   5.250   4.270   0.336
 1256TIP3   OH2 3731   1.369   3.970   0.810
 1256TIP3    H1 3732   1.328   3.937   0.890
 1256TIP3    H2 3733   1.300   4.020   0.766
 1257TIP3   OH2 3734   4.034   6.166   0.433
 1257TIP3    H1 3735   4.094   6.201   0.367
 1257TIP3    H2 3736   4.077   6.182   0.517
 1258TIP3   OH2 3737   3.662   1.122   0.085
 1258TIP3    H1 3738   3.626   1.210   0.100
 1258TIP3    H2 3739   3.592   1.074   0.041
 1259TIP3   OH2 3740   6.961   5.235   3.314
 1259TIP3    H1 3741   6.924   5.201   3.396
 1259TIP3    H2 3742   6.899   5.206   3.247
 1260TIP3   OH2 3743   0.533   6.046   1.762
 1260TIP3    H1 3744   0.621   6.070   1.736
 1260TIP3    H2 3745   0.535   6.048   1.858
 1261TIP3   OH2 3746   5.755   0.692   1.928
 1261TIP3    H1 3747   5.685   0.757   1.923
 1261TIP3    H2 3748   5.711   0.610   1.950
 1262TIP3   OH2 3749   2.432   2.266   2.940
 1262TIP3    H1 3750   2.465   2.313   2.863
 1262TIP3    H2 3751   2.347   2.232   2.913
 1263TIP3   OH2 3752   5.318   5.827   0.713
 1263TIP3    H1 3753   5.311   5.804   0.806
 1263TIP3    H2 3754   5.336   5.744   0.669
 1264TIP3   OH2 3755   6.419   0.503   5.769
 1264TIP3    H1 3756   6.384   0.494   5.680
 1264TIP3    H2 3757   6.514   0.514   5.755
 1265TIP3   OH2 3758   7.050   2.701   3.168
 1265TIP3    H1 3759   7.047   2.734   3.258
 1265TIP3    H2 3760   7.104   2.765   3.122
 1266TIP3   OH2 3761   3.730   0.901   1.551
 1266TIP3    H1 3762   3.701   0.970   1.492
 1266TIP3    H2 3763   3.786   0.946   1.615
 1267TIP3   OH2 3764   3.437   0.683   1.887
 1267TIP3    H1 3765   3.396   0.769   1.896
 1267TIP3    H2 3766   3.522   0.701   1.847
 1268TIP3   OH2 3767   6.458   2.491   4.576
 1268TIP3    H1 3768   6.403   2.563   4.607
 1268TIP3    H2 3769   6.406   2.413   4.593
 1269TIP3   OH2 3770   4.169   1.742   3.689
 1269TIP3    H1 3771   4.142   1.766   3.778
 1269TIP3    H2 3772   4.190   1.826   3.647
 1270TIP3   OH2 3773   3.474   5.946   3.084
 1270TIP3    H1 3774   3.493   5.917   3.174
 1270TIP3    H2 3775   3.394   5.997   3.091
 1271TIP3   OH2 3776   3.112   4.767   0.653
 1271TIP3    H1 3777   3.179   4.819   0.608
 1271TIP3    H2 3778   3.143   4.677   0.645
 1272TIP3   OH2 3779   1.793   0.687   4.764
 1272TIP3    H1 3780   1.742   0.761   4.797
 1272TIP3    H2 3781   1.798   0.702   4.669
 1273TIP3   OH2 3782   6.688   2.180   0.748
 1273TIP3    H1 3783   6.744   2.189   0.825
 1273TIP3    H2 3784   6.599   2.179   0.782
 1274TIP3   OH2 3785   7.026   4.062   2.366
 1274TIP3    H1 3786   7.059   4.075   2.454
 1274TIP3    H2 3787   7.007   4.150   2.334
 1275TIP3   OH2 3788   1.791   1.197   5.162
 1275TIP3    H1 3789   1.725   1.264   5.184
 1275TIP3    H2 3790   1.853   1.199   5.235
 1276TIP3   OH2 3791   6.028   1.276   1.019
 1276TIP3    H1 3792   5.933   1.264   1.019
 1276TIP3    H2 3793   6.060   1.219   0.950
 1277TIP3   OH2 3794   7.167   5.465   2.879
 1277TIP3    H1 3795   7.256   5.466   2.915
 1277TIP3    H2 3796   7.120   5.400   2.932
 1278TIP3   OH2 3797   3.371   0.275   4.457
 1278TIP3    H1 3798   3.373   0.250   4.365
 1278TIP3    H2 3799   3.399   0.366   4.457
 1279TIP3   OH2 3800   0.947   3.871   4.057
 1279TIP3    H1 3801   0.996   3.953   4.061
 1279TIP3    H2 3802   0.963   3.838   3.969
 1280TIP3   OH2 3803   5.984   5.915   4.251
 1280TIP3    H1 3804   5.919   5.875   4.308
 1280TIP3    H2 3805   5.933   5.955   4.180
 1281TIP3   OH2 3806   1.279   4.370   4.701
 1281TIP3    H1 3807   1.288   4.278   4.674
 1281TIP3    H2 3808   1.351   4.383   4.762
 1282TIP3   OH2 3809   5.853   2.453   5.465
 1282TIP3    H1 3810   5.791   2.523   5.487
 1282TIP3    H2 3811   5.939   2.489   5.488
 1283TIP3   OH2 3812   2.319   0.298   5.373
 1283TIP3    H1 3813   2.353   0.299   5.283
 1283TIP3    H2 3814   2.397   0.304   5.428
 1284TIP3   OH2 3815   1.257   3.648   1.588
 1284TIP3    H1 3816   1.304   3.673   1.509
 1284TIP3    H2 3817   1.165   3.645   1.561
 1285TIP3   OH2 3818   6.080   2.985   1.469
 1285TIP3    H1 3819   6.012   2.946   1.524
 1285TIP3    H2 3820   6.158   2.933   1.487
 1286TIP3   OH2 3821   3.856   4.108   2.670
 1286TIP3    H1 3822   3.844   4.074   2.582
 1286TIP3    H2 3823   3.837   4.202   2.662
 1287TIP3   OH2 3824   1.308   5.382   3.906
 1287TIP3    H1 3825   1.375   5.451   3.901
 1287TIP3    H2 3826   1.342   5.312   3.851
 1288TIP3   OH2 3827   3.105   4.181   1.839
 1288TIP3    H1 3828   3.162   4.229   1.780
 1288TIP3    H2 3829   3.077   4.105   1.789
 1289TIP3   OH2 3830   5.667   5.893   0.752
 1289TIP3    H1 3831   5.598   5.946   0.711
 1289TIP3    H2 3832   5.632   5.870   0.838
 1290TIP3   OH2 3833   1.328   1.259   4.282
 1290TIP3    H1 3834   1.414   1.219   4.296
 1290TIP3    H2 3835   1.330   1.288   4.191
 1291TIP3   OH2 3836   5.579   1.294   0.294
 1291TIP3    H1 3837   5.556   1.201   0.296
 1291TIP3    H2 3838   5.527   1.333   0.364
 1292TIP3   OH2 3839   3.283   2.506   1.162
 1292TIP3    H1 3840   3.368   2.550   1.154
 1292TIP3    H2 3841   3.226   2.551   1.100
 1293TIP3   OH2 3842   3.061   0.338   2.671
 1293TIP3    H1 3843   3.131   0.396   2.641
 1293TIP3    H2 3844   2.983   0.369   2.624
 1294TIP3   OH2 3845   6.337   5.030   5.277
 1294TIP3    H1 3846   6.271   4.989   5.222
 1294TIP3    H2 3847   6.337   5.122   5.251
 1295TIP3   OH2 3848   6.739   3.775   5.742
 1295TIP3    H1 3849   6.733   3.680   5.753
 1295TIP3    H2 3850   6.731   3.810   5.831
 1296TIP3   OH2 3851   5.613   6.098   3.145
 1296TIP3    H1 3852   5.671   6.138   3.210
 1296TIP3    H2 3853   5.662   6.022   3.113
 1297TIP3   OH2 3854   4.530   4.720   1.520
 1297TIP3    H1 3855   4.556   4.793   1.464
 1297TIP3    H2 3856   4.434   4.724   1.521
 1298TIP3   OH2 3857   6.316   3.175   5.287
 1298TIP3    H1 3858   6.392   3.194   5.231
 1298TIP3    H2 3859   6.257   3.125   5.231
 1299TIP3   OH2 3860   6.440   3.825   5.422
 1299TIP3    H1 3861   6.504   3.880   5.466
 1299TIP3    H2 3862   6.373   3.809   5.488
 1300TIP3   OH2 3863   6.898   5.647   5.573
 1300TIP3    H1 3864   6.961   5.652   5.501
 1300TIP3    H2 3865   6.952   5.642   5.652
 1301TIP3   OH2 3866   2.274   3.726   3.999
 1301TIP3    H1 3867   2.353   3.682   3.969
 1301TIP3    H2 3868   2.301   3.816   4.017
 1302TIP3   OH2 3869   2.070   1.705   1.793
 1302TIP3    H1 3870   2.088   1.798   1.799
 1302TIP3    H2 3871   1.985   1.694   1.836
 1303TIP3   OH2 3872   5.799   1.058   2.535
 1303TIP3    H1 3873   5.822   1.151   2.525
 1303TIP3    H2 3874   5.768   1.051   2.625
 1304TIP3   OH2 3875   3.972   1.855   5.201
 1304TIP3    H1 3876   3.941   1.875   5.112
 1304TIP3    H2 3877   4.064   1.879   5.200
 1305TIP3   OH2 3878   6.661   4.668   3.518
 1305TIP3    H1 3879   6.755   4.677   3.534
 1305TIP3    H2 3880   6.623   4.747   3.556
 1306TIP3   OH2 3881   1.363   3.043   5.097
 1306TIP3    H1 3882   1.392   2.954   5.079
 1306TIP3    H2 3883   1.438   3.099   5.076
 1307TIP3   OH2 3884   3.840   5.396   2.296
 1307TIP3    H1 3885   3.818   5.489   2.298
 1307TIP3    H2 3886   3.776   5.357   2.237
 1308TIP3   OH2 3887   5.325   2.493   1.863
 1308TIP3    H1 3888   5.361   2.413   1.826
 1308TIP3    H2 3889   5.242   2.506   1.816
 1309TIP3   OH2 3890   3.603   5.739   0.381
 1309TIP3    H1 3891   3.680   5.703   0.425
 1309TIP3    H2 3892   3.531   5.681   0.406
 1310TIP3   OH2 3893   1.655   4.827   2.276
 1310TIP3    H1 3894   1.681   4.738   2.254
 1310TIP3    H2 3895   1.561   4.831   2.257
 1311TIP3   OH2 3896   2.905   2.547   5.690
 1311TIP3    H1 3897   2.900   2.640   5.713
 1311TIP3    H2 3898   2.914   2.502   5.774
 1312TIP3   OH2 3899   5.264   2.818   1.041
 1312TIP3    H1 3900   5.303   2.844   0.957
 1312TIP3    H2 3901   5.303   2.733   1.061
 1313TIP3   OH2 3902   2.280   3.875   5.060
 1313TIP3    H1 3903   2.279   3.779   5.065
 1313TIP3    H2 3904   2.187   3.900   5.061
 1314TIP3   OH2 3905   5.245   3.671   3.252
 1314TIP3    H1 3906   5.174   3.713   3.205
 1314TIP3    H2 3907   5.320   3.731   3.241
 1315TIP3   OH2 3908   6.799   0.710   0.288
 1315TIP3    H1 3909   6.795   0.740   0.379
 1315TIP3    H2 3910   6.725   0.753   0.246
 1316TIP3   OH2 3911   1.911   6.517   4.752
 1316TIP3    H1 3912   1.974   6.447   4.770
 1316TIP3    H2 3913   1.825   6.477   4.767
 1317TIP3   OH2 3914   1.669   5.175   1.153
 1317TIP3    H1 3915   1.751   5.155   1.107
 1317TIP3    H2 3916   1.695   5.231   1.225
 1318TIP3   OH2 3917   0.247   1.464   4.955
 1318TIP3    H1 3918   0.277   1.483   5.044
 1318TIP3    H2 3919   0.328   1.463   4.903
 1319TIP3   OH2 3920   6.245   3.386   1.875
 1319TIP3    H1 3921   6.226   3.315   1.814
 1319TIP3    H2 3922   6.314   3.437   1.832
 1320TIP3   OH2 3923   2.239   1.800   0.708
 1320TIP3    H1 3924   2.306   1.820   0.774
 1320TIP3    H2 3925   2.186   1.880   0.703
 1321TIP3   OH2 3926   1.060   6.488   3.014
 1321TIP3    H1 3927   1.053   6.402   3.054
 1321TIP3    H2 3928   1.148   6.491   2.976
 1322TIP3   OH2 3929   4.826   3.786   2.366
 1322TIP3    H1 3930   4.874   3.856   2.410
 1322TIP3    H2 3931   4.774   3.830   2.299
 1323TIP3   OH2 3932   5.148   4.120   1.290
 1323TIP3    H1 3933   5.147   4.215   1.296
 1323TIP3    H2 3934   5.238   4.096   1.312
 1324TIP3   OH2 3935   2.489   4.402   1.960
 1324TIP3    H1 3936   2.399   4.430   1.941
 1324TIP3    H2 3937   2.513   4.347   1.885
 1325TIP3   OH2 3938   1.442   0.157   0.236
 1325TIP3    H1 3939   1.399   0.231   0.280
 1325TIP3    H2 3940   1.495   0.115   0.304
 1326TIP3   OH2 3941   3.044   5.615   0.469
 1326TIP3    H1 3942   3.040   5.534   0.418
 1326TIP3    H2 3943   2.995   5.678   0.417
 1327TIP3   OH2 3944   0.992   0.052   4.927
 1327TIP3    H1 3945   0.921   0.040   4.990
 1327TIP3    H2 3946   0.984   0.143   4.898
 1328TIP3   OH2 3947   6.299   1.936   2.698
 1328TIP3    H1 3948   6.387   1.903   2.682
 1328TIP3    H2 3949   6.292   2.015   2.643
 1329TIP3   OH2 3950   6.523   0.613   4.115
 1329TIP3    H1 3951   6.573   0.542   4.075
 1329TIP3    H2 3952   6.438   0.611   4.071
 1330TIP3   OH2 3953   3.565   6.396   2.532
 1330TIP3    H1 3954   3.505   6.325   2.555
 1330TIP3    H2 3955   3.549   6.411   2.439
 1331TIP3   OH2 3956   2.395   5.506   5.366
 1331TIP3    H1 3957   2.413   5.456   5.446
 1331TIP3    H2 3958   2.303   5.487   5.347
 1332TIP3   OH2 3959   2.877   4.966   0.134
 1332TIP3    H1 3960   2.896   5.046   0.183
 1332TIP3    H2 3961   2.956   4.950   0.082
 1333TIP3   OH2 3962   2.643   0.103   0.624
 1333TIP3    H1 3963   2.615   0.018   0.659
 1333TIP3    H2 3964   2.570   0.162   0.643
 1334TIP3   OH2 3965   2.473   3.016   3.065
 1334TIP3    H1 3966   2.468   3.058   3.151
 1334TIP3    H2 3967   2.428   3.077   3.006
 1335TIP3   OH2 3968   1.233   2.574   0.331
 1335TIP3    H1 3969   1.296   2.643   0.353
 1335TIP3    H2 3970   1.287   2.497   0.315
 1336TIP3   OH2 3971   2.342   5.871   2.092
 1336TIP3    H1 3972   2.255   5.873   2.132
 1336TIP3    H2 3973   2.384   5.951   2.124
 1337TIP3   OH2 3974   0.767   5.331   1.659
 1337TIP3    H1 3975   0.750   5.335   1.565
 1337TIP3    H2 3976   0.792   5.420   1.682
 1338TIP3   OH2 3977   4.142   4.601   4.832
 1338TIP3    H1 3978   4.120   4.688   4.798
 1338TIP3    H2 3979   4.159   4.548   4.754
 1339TIP3   OH2 3980   1.905   4.528   3.369
 1339TIP3    H1 3981   1.879   4.573   3.289
 1339TIP3    H2 3982   1.989   4.488   3.348
 1340TIP3   OH2 3983   0.627   1.675   2.867
 1340TIP3    H1 3984   0.533   1.685   2.878
 1340TIP3    H2 3985   0.660   1.764   2.858
 1341TIP3   OH2 3986   1.411   3.240   3.175
 1341TIP3    H1 3987   1.352   3.275   3.108
 1341TIP3    H2 3988   1.353   3.198   3.238
 1342TIP3   OH2 3989   3.416   0.714   2.966
 1342TIP3    H1 3990   3.496   0.696   2.918
 1342TIP3    H2 3991   3.360   0.638   2.951
 1343TIP3   OH2 3992   5.617   0.262   1.741
 1343TIP3    H1 3993   5.654   0.343   1.777
 1343TIP3    H2 3994   5.677   0.238   1.670
 1344TIP3   OH2 3995   4.536   4.058   0.510
 1344TIP3    H1 3996   4.587   4.002   0.569
 1344TIP3    H2 3997   4.560   4.147   0.535
 1345TIP3   OH2 3998   0.343   4.845   4.076
 1345TIP3    H1 3999   0.346   4.760   4.034
 1345TIP3    H2 4000   0.408   4.839   4.147
 1346TIP3   OH2 4001   6.988   2.947   5.524
 1346TIP3    H1 4002   7.001   3.016   5.458
 1346TIP3    H2 4003   6.895   2.925   5.517
 1347TIP3   OH2 4004   4.103   6.120   1.306
 1347TIP3    H1 4005   4.150   6.038   1.316
 1347TIP3    H2 4006   4.030   6.115   1.368
 1348TIP3   OH2 4007   2.888   3.887   3.884
 1348TIP3    H1 4008   2.882   3.971   3.840
 1348TIP3    H2 4009   2.928   3.906   3.969
 1349TIP3   OH2 4010   2.450   5.386   2.837
 1349TIP3    H1 4011   2.396   5.307   2.848
 1349TIP3    H2 4012   2.540   5.353   2.841
 1350TIP3   OH2 4013   2.111   1.897   2.345
 1350TIP3    H1 4014   2.194   1.858   2.316
 1350TIP3    H2 4015   2.059   1.822   2.374
 1351TIP3   OH2 4016   1.650   2.372   4.914
 1351TIP3    H1 4017   1.680   2.385   4.824
 1351TIP3    H2 4018   1.575   2.431   4.923
 1352TIP3   OH2 4019   3.696   0.613   1.479
 1352TIP3    H1 4020   3.630   0.615   1.409
 1352TIP3    H2 4021   3.703   0.704   1.508
 1353TIP3   OH2 4022   1.422   6.641   4.009
 1353TIP3    H1 4023   1.471   6.619   3.930
 1353TIP3    H2 4024   1.347   6.692   3.978
 1354TIP3   OH2 4025   6.559   1.469   1.477
 1354TIP3    H1 4026   6.528   1.467   1.386
 1354TIP3    H2 4027   6.484   1.498   1.528
 1355TIP3   OH2 4028   4.192   0.930   1.716
 1355TIP3    H1 4029   4.163   1.009   1.670
 1355TIP3    H2 4030   4.259   0.893   1.660
 1356TIP3   OH2 4031   2.522   5.063   1.933
 1356TIP3    H1 4032   2.441   5.098   1.896
 1356TIP3    H2 4033   2.519   4.969   1.915
 1357TIP3   OH2 4034   0.620   2.169   4.700
 1357TIP3    H1 4035   0.617   2.260   4.671
 1357TIP3    H2 4036   0.615   2.118   4.619
 1358TIP3   OH2 4037   1.018   5.158   2.771
 1358TIP3    H1 4038   0.988   5.249   2.778
 1358TIP3    H2 4039   0.955   5.108   2.822
 1359TIP3   OH2 4040   2.585   2.000   2.932
 1359TIP3    H1 4041   2.543   2.086   2.933
 1359TIP3    H2 4042   2.530   1.948   2.873
 1360TIP3   OH2 4043   2.591   0.603   2.402
 1360TIP3    H1 4044   2.527   0.624   2.471
 1360TIP3    H2 4045   2.537   0.578   2.327
 1361TIP3   OH2 4046   3.774   1.627   3.037
 1361TIP3    H1 4047   3.761   1.707   3.088
 1361TIP3    H2 4048   3.728   1.559   3.086
 1362TIP3   OH2 4049   2.811   3.232   4.242
 1362TIP3    H1 4050   2.829   3.251   4.334
 1362TIP3    H2 4051   2.896   3.238   4.199
 1363TIP3   OH2 4052   6.711   6.487   4.279
 1363TIP3    H1 4053   6.713   6.545   4.355
 1363TIP3    H2 4054   6.626   6.504   4.238
 1364TIP3   OH2 4055   0.521   2.836   5.841
 1364TIP3    H1 4056   0.486   2.793   5.762
 1364TIP3    H2 4057   0.500   2.929   5.828
 1365TIP3   OH2 4058   0.487   1.199   1.047
 1365TIP3    H1 4059   0.530   1.120   1.014
 1365TIP3    H2 4060   0.407   1.206   0.996
 1366TIP3   OH2 4061   5.439   6.012   4.528
 1366TIP3    H1 4062   5.512   6.036   4.584
 1366TIP3    H2 4063   5.372   5.979   4.588
 1367TIP3   OH2 4064   5.792   0.946   3.949
 1367TIP3    H1 4065   5.799   1.019   4.010
 1367TIP3    H2 4066   5.761   0.986   3.867
 1368TIP3   OH2 4067   5.369   0.748   0.987
 1368TIP3    H1 4068   5.309   0.823   0.989
 1368TIP3    H2 4069   5.348   0.704   0.904
 1369TIP3   OH2 4070   2.123   4.251   1.676
 1369TIP3    H1 4071   2.162   4.225   1.759
 1369TIP3    H2 4072   2.154   4.185   1.614
 1370TIP3   OH2 4073   7.000   3.301   3.434
 1370TIP3    H1 4074   7.071   3.364   3.447
 1370TIP3    H2 4075   6.967   3.285   3.523
 1371TIP3   OH2 4076   5.893   2.906   2.247
 1371TIP3    H1 4077   5.808   2.868   2.225
 1371TIP3    H2 4078   5.909   2.879   2.338
 1372TIP3   OH2 4079   4.130   2.024   2.047
 1372TIP3    H1 4080   4.095   2.111   2.032
 1372TIP3    H2 4081   4.082   1.967   1.987
 1373TIP3   OH2 4082   2.007   0.707   5.474
 1373TIP3    H1 4083   2.067   0.688   5.401
 1373TIP3    H2 4084   1.977   0.796   5.457
 1374TIP3   OH2 4085   0.827   5.456   0.499
 1374TIP3    H1 4086   0.829   5.450   0.404
 1374TIP3    H2 4087   0.918   5.448   0.526
 1375TIP3   OH2 4088   1.991   5.328   1.797
 1375TIP3    H1 4089   1.906   5.328   1.841
 1375TIP3    H2 4090   1.998   5.240   1.759
 1376TIP3   OH2 4091   3.247   0.761   3.170
 1376TIP3    H1 4092   3.209   0.674   3.185
 1376TIP3    H2 4093   3.315   0.746   3.104
 1377TIP3   OH2 4094   3.005   5.855   1.725
 1377TIP3    H1 4095   3.075   5.893   1.779
 1377TIP3    H2 4096   2.966   5.788   1.781
 1378TIP3   OH2 4097   0.049   2.150   1.969
 1378TIP3    H1 4098   0.021   2.090   2.037
 1378TIP3    H2 4099   0.127   2.109   1.930
 1379TIP3   OH2 4100   5.146   6.137   0.144
 1379TIP3    H1 4101   5.176   6.046   0.148
 1379TIP3    H2 4102   5.158   6.170   0.233
 1380TIP3   OH2 4103  -0.017   4.324   4.988
 1380TIP3    H1 4104   0.037   4.373   4.927
 1380TIP3    H2 4105   0.045   4.279   5.045
 1381TIP3   OH2 4106   5.964   2.898   3.658
 1381TIP3    H1 4107   5.893   2.913   3.720
 1381TIP3    H2 4108   5.938   2.820   3.608
 1382TIP3   OH2 4109   5.664   2.384   3.020
 1382TIP3    H1 4110   5.704   2.414   3.102
 1382TIP3    H2 4111   5.571   2.375   3.040
 1383TIP3   OH2 4112   2.736   6.132   1.394
 1383TIP3    H1 4113   2.678   6.055   1.397
 1383TIP3    H2 4114   2.786   6.120   1.314
 1384TIP3   OH2 4115   0.092   0.281   0.356
 1384TIP3    H1 4116   0.075   0.199   0.310
 1384TIP3    H2 4117   0.172   0.315   0.317
 1385TIP3   OH2 4118   1.601   3.302   0.402
 1385TIP3    H1 4119   1.676   3.329   0.349
 1385TIP3    H2 4120   1.641   3.257   0.477
 1386TIP3   OH2 4121   5.428   5.344   5.869
 1386TIP3    H1 4122   5.469   5.259   5.851
 1386TIP3    H2 4123   5.496   5.408   5.851
 1387TIP3   OH2 4124   6.525   2.514   2.885
 1387TIP3    H1 4125   6.505   2.424   2.911
 1387TIP3    H2 4126   6.478   2.526   2.802
 1388TIP3   OH2 4127   0.876   6.734   3.776
 1388TIP3    H1 4128   0.925   6.702   3.700
 1388TIP3    H2 4129   0.937   6.790   3.823
 1389TIP3   OH2 4130   2.870   3.707   0.863
 1389TIP3    H1 4131   2.925   3.745   0.931
 1389TIP3    H2 4132   2.795   3.766   0.855
 1390TIP3   OH2 4133   4.215   5.559   3.178
 1390TIP3    H1 4134   4.146   5.503   3.142
 1390TIP3    H2 4135   4.229   5.526   3.267
 1391TIP3   OH2 4136   3.706   4.222   1.295
 1391TIP3    H1 4137   3.611   4.215   1.307
 1391TIP3    H2 4138   3.718   4.218   1.200
 1392TIP3   OH2 4139   0.671   2.952   0.995
 1392TIP3    H1 4140   0.630   2.910   0.920
 1392TIP3    H2 4141   0.756   2.982   0.962
 1393TIP3   OH2 4142   7.105   2.999   0.061
 1393TIP3    H1 4143   7.063   2.913   0.071
 1393TIP3    H2 4144   7.130   3.002  -0.031
 1394TIP3   OH2 4145   5.612   0.791   2.771
 1394TIP3    H1 4146   5.605   0.779   2.866
 1394TIP3    H2 4147   5.549   0.728   2.734
 1395TIP3   OH2 4148   6.907   4.350   2.913
 1395TIP3    H1 4149   6.814   4.329   2.900
 1395TIP3    H2 4150   6.952   4.308   2.840
 1396TIP3   OH2 4151   6.967   1.011   4.934
 1396TIP3    H1 4152   7.010   1.045   4.855
 1396TIP3    H2 4153   6.873   1.020   4.916
 1397TIP3   OH2 4154   5.952   1.289   0.741
 1397TIP3    H1 4155   5.942   1.242   0.659
 1397TIP3    H2 4156   6.041   1.324   0.738
 1398TIP3   OH2 4157   0.163   4.130   2.300
 1398TIP3    H1 4158   0.133   4.202   2.354
 1398TIP3    H2 4159   0.188   4.062   2.362
 1399TIP3   OH2 4160   4.724   3.722   1.263
 1399TIP3    H1 4161   4.765   3.667   1.330
 1399TIP3    H2 4162   4.714   3.664   1.188
 1400TIP3   OH2 4163   4.294   5.041   3.014
 1400TIP3    H1 4164   4.287   5.073   2.924
 1400TIP3    H2 4165   4.204   5.025   3.041
 1401TIP3   OH2 4166   6.453   5.166   3.464
 1401TIP3    H1 4167   6.402   5.225   3.519
 1401TIP3    H2 4168   6.387   5.117   3.415
 1402TIP3   OH2 4169   1.964   6.390   0.852
 1402TIP3    H1 4170   1.931   6.468   0.896
 1402TIP3    H2 4171   1.890   6.360   0.798
 1403TIP3   OH2 4172   3.576   3.039   5.301
 1403TIP3    H1 4173   3.643   3.103   5.323
 1403TIP3    H2 4174   3.612   2.992   5.226
 1404TIP3   OH2 4175   2.591   6.455   3.926
 1404TIP3    H1 4176   2.537   6.376   3.937
 1404TIP3    H2 4177   2.565   6.512   3.998
 1405TIP3   OH2 4178   0.321   6.162   1.634
 1405TIP3    H1 4179   0.399   6.134   1.680
 1405TIP3    H2 4180   0.311   6.255   1.657
 1406TIP3   OH2 4181   5.319   3.315   1.724
 1406TIP3    H1 4182   5.236   3.362   1.723
 1406TIP3    H2 4183   5.386   3.384   1.724
 1407TIP3   OH2 4184   0.678   2.038   0.398
 1407TIP3    H1 4185   0.746   1.971   0.403
 1407TIP3    H2 4186   0.640   2.027   0.311
 1408TIP3   OH2 4187   1.051   5.731   0.339
 1408TIP3    H1 4188   1.034   5.718   0.432
 1408TIP3    H2 4189   0.970   5.770   0.305
 1409TIP3   OH2 4190   2.273   5.747   3.418
 1409TIP3    H1 4191   2.201   5.713   3.471
 1409TIP3    H2 4192   2.312   5.815   3.472
 1410TIP3   OH2 4193   3.619   4.833   3.802
 1410TIP3    H1 4194   3.666   4.763   3.757
 1410TIP3    H2 4195   3.533   4.835   3.760
 1411TIP3   OH2 4196   1.876   2.199   5.752
 1411TIP3    H1 4197   1.834   2.138   5.693
 1411TIP3    H2 4198   1.829   2.282   5.739
 1412TIP3   OH2 4199   6.854   5.650   2.028
 1412TIP3    H1 4200   6.942   5.655   1.990
 1412TIP3    H2 4201   6.823   5.563   2.006
 1413TIP3   OH2 4202   2.976   6.023   4.567
 1413TIP3    H1 4203   2.942   6.104   4.529
 1413TIP3    H2 4204   2.979   5.961   4.494
 1414TIP3   OH2 4205   3.568   1.868   2.831
 1414TIP3    H1 4206   3.637   1.910   2.882
 1414TIP3    H2 4207   3.487   1.890   2.877
 1415TIP3   OH2 4208   0.067   1.535   0.883
 1415TIP3    H1 4209   0.031   1.454   0.848
 1415TIP3    H2 4210   0.119   1.508   0.959
 1416TIP3   OH2 4211   5.792   4.722   3.231
 1416TIP3    H1 4212   5.808   4.632   3.203
 1416TIP3    H2 4213   5.701   4.721   3.262
 1417TIP3   OH2 4214   0.577   2.356   5.066
 1417TIP3    H1 4215   0.572   2.425   5.132
 1417TIP3    H2 4216   0.671   2.349   5.046
 1418TIP3   OH2 4217   4.920   0.067   4.282
 1418TIP3    H1 4218   5.006   0.065   4.325
 1418TIP3    H2 4219   4.929   0.006   4.209
 1419TIP3   OH2 4220   1.805   3.769   2.809
 1419TIP3    H1 4221   1.720   3.749   2.848
 1419TIP3    H2 4222   1.806   3.865   2.801
 1420TIP3   OH2 4223   6.169   6.322   4.240
 1420TIP3    H1 4224   6.109   6.273   4.296
 1420TIP3    H2 4225   6.247   6.268   4.236
 1421TIP3   OH2 4226   5.954   1.474   1.274
 1421TIP3    H1 4227   5.866   1.461   1.238
 1421TIP3    H2 4228   6.009   1.413   1.225
 1422TIP3   OH2 4229   0.557   5.010   3.817
 1422TIP3    H1 4230   0.526   5.097   3.794
 1422TIP3    H2 4231   0.606   5.021   3.898
 1423TIP3   OH2 4232   4.652   4.630   0.309
 1423TIP3    H1 4233   4.714   4.687   0.263
 1423TIP3    H2 4234   4.601   4.689   0.364
 1424TIP3   OH2 4235   3.394   6.792   3.953
 1424TIP3    H1 4236   3.423   6.802   3.862
 1424TIP3    H2 4237   3.429   6.707   3.979
 1425TIP3   OH2 4238   6.711   3.993   3.422
 1425TIP3    H1 4239   6.638   3.933   3.437
 1425TIP3    H2 4240   6.730   4.028   3.510
 1426TIP3   OH2 4241   0.984   6.510   0.593
 1426TIP3    H1 4242   1.011   6.445   0.528
 1426TIP3    H2 4243   0.900   6.477   0.625
 1427TIP3   OH2 4244   5.356   0.433   4.105
 1427TIP3    H1 4245   5.391   0.367   4.165
 1427TIP3    H2 4246   5.270   0.454   4.142
 1428TIP3   OH2 4247   6.045   3.971   3.762
 1428TIP3    H1 4248   6.058   3.900   3.824
 1428TIP3    H2 4249   6.131   4.012   3.753
 1429TIP3   OH2 4250   6.974   5.663   0.761
 1429TIP3    H1 4251   6.966   5.744   0.812
 1429TIP3    H2 4252   6.956   5.594   0.825
 1430TIP3   OH2 4253   0.046   1.058   0.608
 1430TIP3    H1 4254   0.115   1.057   0.674
 1430TIP3    H2 4255   0.051   0.973   0.566
 1431TIP3   OH2 4256   5.932   1.882   2.409
 1431TIP3    H1 4257   5.897   1.829   2.338
 1431TIP3    H2 4258   5.855   1.914   2.456
 1432TIP3   OH2 4259   5.662   3.212   3.389
 1432TIP3    H1 4260   5.583   3.228   3.338
 1432TIP3    H2 4261   5.734   3.232   3.329
 1433TIP3   OH2 4262   0.144   6.122   1.439
 1433TIP3    H1 4263   0.088   6.184   1.486
 1433TIP3    H2 4264   0.230   6.131   1.481
 1434TIP3   OH2 4265   5.237   4.086   2.202
 1434TIP3    H1 4266   5.225   4.020   2.270
 1434TIP3    H2 4267   5.241   4.035   2.121
 1435TIP3   OH2 4268   4.473   0.558   4.624
 1435TIP3    H1 4269   4.461   0.478   4.572
 1435TIP3    H2 4270   4.500   0.526   4.710
 1436TIP3   OH2 4271   2.722   5.342   5.171
 1436TIP3    H1 4272   2.690   5.394   5.097
 1436TIP3    H2 4273   2.642   5.314   5.216
 1437TIP3   OH2 4274   5.380   2.214   2.517
 1437TIP3    H1 4275   5.320   2.282   2.487
 1437TIP3    H2 4276   5.427   2.254   2.590
 1438TIP3   OH2 4277   4.410   6.030   0.309
 1438TIP3    H1 4278   4.322   6.012   0.277
 1438TIP3    H2 4279   4.446   6.093   0.246
 1439TIP3   OH2 4280   2.694   1.715   5.112
 1439TIP3    H1 4281   2.613   1.731   5.063
 1439TIP3    H2 4282   2.698   1.620   5.121
 1440TIP3   OH2 4283   6.318   5.298   4.541
 1440TIP3    H1 4284   6.365   5.367   4.588
 1440TIP3    H2 4285   6.292   5.236   4.609
 1441TIP3   OH2 4286   1.077   6.638   5.441
 1441TIP3    H1 4287   1.025   6.629   5.360
 1441TIP3    H2 4288   1.013   6.665   5.507
 1442TIP3   OH2 4289   5.950   1.803   5.681
 1442TIP3    H1 4290   5.957   1.857   5.602
 1442TIP3    H2 4291   5.897   1.728   5.654
 1443TIP3   OH2 4292   0.563   4.908   2.189
 1443TIP3    H1 4293   0.514   4.825   2.185
 1443TIP3    H2 4294   0.497   4.975   2.172
 1444TIP3   OH2 4295   0.490   0.033   4.121
 1444TIP3    H1 4296   0.430  -0.041   4.122
 1444TIP3    H2 4297   0.457   0.090   4.052
 1445TIP3   OH2 4298   0.824   3.753   5.030
 1445TIP3    H1 4299   0.778   3.836   5.022
 1445TIP3    H2 4300   0.915   3.777   5.045
 1446TIP3   OH2 4301   6.002   6.544   1.367
 1446TIP3    H1 4302   6.069   6.611   1.379
 1446TIP3    H2 4303   5.950   6.575   1.293
 1447TIP3   OH2 4304   2.050   5.570   4.897
 1447TIP3    H1 4305   2.009   5.594   4.979
 1447TIP3    H2 4306   1.990   5.600   4.829
 1448TIP3   OH2 4307   3.483   3.513   4.084
 1448TIP3    H1 4308   3.438   3.465   4.014
 1448TIP3    H2 4309   3.470   3.606   4.062
 1449TIP3   OH2 4310   2.791   2.233   2.822
 1449TIP3    H1 4311   2.704   2.237   2.784
 1449TIP3    H2 4312   2.825   2.147   2.796
 1450TIP3   OH2 4313   0.860   2.891   4.378
 1450TIP3    H1 4314   0.784   2.862   4.428
 1450TIP3    H2 4315   0.932   2.889   4.440
 1451TIP3   OH2 4316   7.198   6.482   4.465
 1451TIP3    H1 4317   7.172   6.487   4.557
 1451TIP3    H2 4318   7.167   6.396   4.436
 1452TIP3   OH2 4319   4.915   6.454   2.945
 1452TIP3    H1 4320   4.892   6.543   2.918
 1452TIP3    H2 4321   4.986   6.428   2.886
 1453TIP3   OH2 4322   4.410   6.442   1.717
 1453TIP3    H1 4323   4.406   6.361   1.665
 1453TIP3    H2 4324   4.395   6.413   1.807
 1454TIP3   OH2 4325   6.756   6.598   3.969
 1454TIP3    H1 4326   6.744   6.649   4.049
 1454TIP3    H2 4327   6.751   6.662   3.899
 1455TIP3   OH2 4328   6.001   2.136   2.725
 1455TIP3    H1 4329   5.985   2.195   2.799
 1455TIP3    H2 4330   5.942   2.167   2.656
 1456TIP3   OH2 4331   6.535   1.191   4.043
 1456TIP3    H1 4332   6.597   1.177   4.115
 1456TIP3    H2 4333   6.460   1.135   4.065
 1457TIP3   OH2 4334   1.132   3.743   2.352
 1457TIP3    H1 4335   1.069   3.802   2.310
 1457TIP3    H2 4336   1.078   3.681   2.401
 1458TIP3   OH2 4337   2.387   6.182   0.109
 1458TIP3    H1 4338   2.416   6.272   0.125
 1458TIP3    H2 4339   2.300   6.192   0.070
 1459TIP3   OH2 4340   5.990   6.076   3.785
 1459TIP3    H1 4341   5.998   6.088   3.690
 1459TIP3    H2 4342   6.073   6.110   3.820
 1460TIP3   OH2 4343   6.650   3.398   1.212
 1460TIP3    H1 4344   6.719   3.425   1.273
 1460TIP3    H2 4345   6.571   3.440   1.245
 1461TIP3   OH2 4346   5.055   4.686   1.986
 1461TIP3    H1 4347   5.080   4.600   1.951
 1461TIP3    H2 4348   5.129   4.712   2.040
 1462TIP3   OH2 4349   5.573   3.120   2.670
 1462TIP3    H1 4350   5.613   3.206   2.680
 1462TIP3    H2 4351   5.564   3.109   2.575
 1463TIP3   OH2 4352   6.740   1.788   3.302
 1463TIP3    H1 4353   6.691   1.846   3.244
 1463TIP3    H2 4354   6.734   1.702   3.261
 1464TIP3   OH2 4355   6.880   3.267   1.434
 1464TIP3    H1 4356   6.913   3.211   1.363
 1464TIP3    H2 4357   6.958   3.310   1.469
 1465TIP3   OH2 4358   3.457   5.928   3.363
 1465TIP3    H1 4359   3.397   5.876   3.415
 1465TIP3    H2 4360   3.405   6.004   3.335
 1466TIP3   OH2 4361   2.786   2.876   2.204
 1466TIP3    H1 4362   2.696   2.901   2.185
 1466TIP3    H2 4363   2.781   2.826   2.285
 1467TIP3   OH2 4364   5.731   6.376   1.226
 1467TIP3    H1 4365   5.783   6.315   1.174
 1467TIP3    H2 4366   5.796   6.422   1.280
 1468TIP3   OH2 4367   6.227   5.042   3.108
 1468TIP3    H1 4368   6.263   4.971   3.053
 1468TIP3    H2 4369   6.282   5.117   3.088
 1469TIP3   OH2 4370   5.784   5.425   3.686
 1469TIP3    H1 4371   5.826   5.380   3.613
 1469TIP3    H2 4372   5.832   5.394   3.763
 1470TIP3   OH2 4373   3.633   0.391   1.621
 1470TIP3    H1 4374   3.645   0.472   1.573
 1470TIP3    H2 4375   3.568   0.411   1.688
 1471TIP3   OH2 4376   2.304   3.633   1.124
 1471TIP3    H1 4377   2.392   3.603   1.102
 1471TIP3    H2 4378   2.254   3.622   1.043
 1472TIP3   OH2 4379   7.110   5.694   4.366
 1472TIP3    H1 4380   7.076   5.757   4.303
 1472TIP3    H2 4381   7.197   5.728   4.389
 1473TIP3   OH2 4382   3.032   0.703   5.260
 1473TIP3    H1 4383   3.125   0.685   5.263
 1473TIP3    H2 4384   2.993   0.624   5.224
 1474TIP3   OH2 4385   2.037   0.610   0.713
 1474TIP3    H1 4386   1.959   0.600   0.768
 1474TIP3    H2 4387   2.030   0.539   0.649
 1475TIP3   OH2 4388   4.313   4.052   0.346
 1475TIP3    H1 4389   4.273   3.996   0.413
 1475TIP3    H2 4390   4.398   4.076   0.381
 1476TIP3   OH2 4391   1.146   0.527   1.002
 1476TIP3    H1 4392   1.177   0.614   1.025
 1476TIP3    H2 4393   1.059   0.520   1.043
 1477TIP3   OH2 4394   2.585   2.438   2.786
 1477TIP3    H1 4395   2.631   2.422   2.703
 1477TIP3    H2 4396   2.549   2.526   2.777
 1478TIP3   OH2 4397   6.878   1.129   2.349
 1478TIP3    H1 4398   6.838   1.210   2.317
 1478TIP3    H2 4399   6.829   1.060   2.304
 1479TIP3   OH2 4400   5.966   0.528   2.827
 1479TIP3    H1 4401   5.947   0.438   2.802
 1479TIP3    H2 4402   6.051   0.524   2.870
 1480TIP3   OH2 4403   6.369   0.289   0.319
 1480TIP3    H1 4404   6.423   0.366   0.300
 1480TIP3    H2 4405   6.432   0.223   0.349
 1481TIP3   OH2 4406   6.426   2.168   0.835
 1481TIP3    H1 4407   6.377   2.228   0.891
 1481TIP3    H2 4408   6.360   2.112   0.795
 1482TIP3   OH2 4409   0.428   6.017   2.279
 1482TIP3    H1 4410   0.404   5.924   2.281
 1482TIP3    H2 4411   0.464   6.031   2.191
 1483TIP3   OH2 4412   5.255   0.547   4.524
 1483TIP3    H1 4413   5.269   0.452   4.531
 1483TIP3    H2 4414   5.165   0.555   4.493
 1484TIP3   OH2 4415   4.120   5.837   3.193
 1484TIP3    H1 4416   4.163   5.752   3.183
 1484TIP3    H2 4417   4.158   5.891   3.124
 1485TIP3   OH2 4418   2.184   1.619   0.513
 1485TIP3    H1 4419   2.101   1.658   0.482
 1485TIP3    H2 4420   2.216   1.681   0.578
 1486TIP3   OH2 4421   5.996   4.571   3.518
 1486TIP3    H1 4422   5.935   4.559   3.446
 1486TIP3    H2 4423   5.955   4.637   3.574
 1487TIP3   OH2 4424   4.851   3.692   4.618
 1487TIP3    H1 4425   4.940   3.684   4.584
 1487TIP3    H2 4426   4.862   3.733   4.704
 1488TIP3   OH2 4427   3.523   6.797   3.194
 1488TIP3    H1 4428   3.476   6.773   3.274
 1488TIP3    H2 4429   3.480   6.747   3.125
 1489TIP3   OH2 4430   4.514   3.047   1.288
 1489TIP3    H1 4431   4.591   3.096   1.259
 1489TIP3    H2 4432   4.537   2.955   1.271
 1490TIP3   OH2 4433   6.443   2.436   3.223
 1490TIP3    H1 4434   6.520   2.447   3.280
 1490TIP3    H2 4435   6.444   2.513   3.167
 1491TIP3   OH2 4436   5.149   2.725   1.947
 1491TIP3    H1 4437   5.139   2.648   1.891
 1491TIP3    H2 4438   5.069   2.727   1.999
 1492TIP3   OH2 4439   3.062   3.485   4.939
 1492TIP3    H1 4440   3.156   3.472   4.928
 1492TIP3    H2 4441   3.041   3.557   4.879
 1493TIP3   OH2 4442   3.721   0.340   4.657
 1493TIP3    H1 4443   3.747   0.268   4.600
 1493TIP3    H2 4444   3.768   0.416   4.623
 1494TIP3   OH2 4445   6.291   5.808   1.172
 1494TIP3    H1 4446   6.368   5.766   1.133
 1494TIP3    H2 4447   6.257   5.742   1.233
 1495TIP3   OH2 4448   5.562   4.243   1.706
 1495TIP3    H1 4449   5.485   4.216   1.657
 1495TIP3    H2 4450   5.577   4.334   1.679
 1496TIP3   OH2 4451   1.045   1.054   4.524
 1496TIP3    H1 4452   1.094   1.100   4.592
 1496TIP3    H2 4453   0.955   1.084   4.536
 1497TIP3   OH2 4454   3.792   6.425   4.963
 1497TIP3    H1 4455   3.855   6.442   4.893
 1497TIP3    H2 4456   3.828   6.351   5.011
 1498TIP3   OH2 4457   6.868   2.551   5.302
 1498TIP3    H1 4458   6.883   2.457   5.291
 1498TIP3    H2 4459   6.778   2.564   5.272
 1499TIP3   OH2 4460   2.206   1.125   3.100
 1499TIP3    H1 4461   2.284   1.181   3.109
 1499TIP3    H2 4462   2.221   1.054   3.162
 1500TIP3   OH2 4463   0.178   1.849   4.463
 1500TIP3    H1 4464   0.176   1.910   4.388
 1500TIP3    H2 4465   0.228   1.894   4.530
 1501TIP3   OH2 4466   5.555   2.445   3.320
 1501TIP3    H1 4467   5.603   2.496   3.385
 1501TIP3    H2 4468   5.564   2.354   3.349
 1502TIP3   OH2 4469   3.993   2.050   2.283
 1502TIP3    H1 4470   4.047   2.032   2.206
 1502TIP3    H2 4471   4.028   2.132   2.318
 1503TIP3   OH2 4472   1.933   3.219   1.323
 1503TIP3    H1 4473   1.881   3.236   1.244
 1503TIP3    H2 4474   2.024   3.233   1.296
 1504TIP3   OH2 4475   0.370   4.690   4.908
 1504TIP3    H1 4476   0.416   4.758   4.957
 1504TIP3    H2 4477   0.430   4.616   4.907
 1505TIP3   OH2 4478   2.791   5.841   2.208
 1505TIP3    H1 4479   2.734   5.911   2.177
 1505TIP3    H2 4480   2.826   5.873   2.291
 1506TIP3   OH2 4481   2.465   6.403   2.665
 1506TIP3    H1 4482   2.542   6.431   2.714
 1506TIP3    H2 4483   2.413   6.354   2.728
 1507TIP3   OH2 4484   5.338   2.794   2.332
 1507TIP3    H1 4485   5.371   2.779   2.244
 1507TIP3    H2 4486   5.395   2.742   2.388
 1508TIP3   OH2 4487   2.671   6.205   0.229
 1508TIP3    H1 4488   2.702   6.295   0.224
 1508TIP3    H2 4489   2.579   6.209   0.201
 1509TIP3   OH2 4490   3.605   0.941   2.259
 1509TIP3    H1 4491   3.666   0.896   2.318
 1509TIP3    H2 4492   3.639   1.030   2.253
 1510TIP3   OH2 4493   1.221   6.702   2.114
 1510TIP3    H1 4494   1.243   6.719   2.023
 1510TIP3    H2 4495   1.211   6.607   2.120
 1511TIP3   OH2 4496   5.954   5.099   2.650
 1511TIP3    H1 4497   6.016   5.036   2.613
 1511TIP3    H2 4498   5.976   5.102   2.743
 1512TIP3   OH2 4499   4.978   4.390   5.525
 1512TIP3    H1 4500   4.966   4.481   5.554
 1512TIP3    H2 4501   4.889   4.358   5.510
 1513TIP3   OH2 4502   6.733   6.497   5.261
 1513TIP3    H1 4503   6.699   6.535   5.342
 1513TIP3    H2 4504   6.688   6.413   5.254
 1514TIP3   OH2 4505   6.865   6.269   4.246
 1514TIP3    H1 4506   6.914   6.305   4.172
 1514TIP3    H2 4507   6.807   6.340   4.273
 1515TIP3   OH2 4508   6.480   1.300   5.179
 1515TIP3    H1 4509   6.405   1.241   5.174
 1515TIP3    H2 4510   6.528   1.271   5.257
 1516TIP3   OH2 4511   5.688   2.673   0.914
 1516TIP3    H1 4512   5.655   2.669   1.004
 1516TIP3    H2 4513   5.783   2.670   0.923
 1517TIP3   OH2 4514   5.363   5.146   5.530
 1517TIP3    H1 4515   5.453   5.163   5.501
 1517TIP3    H2 4516   5.373   5.087   5.605
 1518TIP3   OH2 4517   5.803   0.260   2.757
 1518TIP3    H1 4518   5.710   0.283   2.758
 1518TIP3    H2 4519   5.808   0.177   2.803
 1519TIP3   OH2 4520   2.457   6.414   5.430
 1519TIP3    H1 4521   2.398   6.382   5.362
 1519TIP3    H2 4522   2.543   6.381   5.404
 1520TIP3   OH2 4523   1.589   5.954   3.805
 1520TIP3    H1 4524   1.604   5.895   3.731
 1520TIP3    H2 4525   1.499   5.937   3.833
 1521TIP3   OH2 4526   1.943   1.627   3.848
 1521TIP3    H1 4527   2.037   1.638   3.865
 1521TIP3    H2 4528   1.908   1.716   3.846
 1522TIP3   OH2 4529   7.103   3.931   3.767
 1522TIP3    H1 4530   7.134   4.021   3.760
 1522TIP3    H2 4531   7.156   3.882   3.704
 1523TIP3   OH2 4532   1.907   2.693   4.102
 1523TIP3    H1 4533   1.840   2.723   4.163
 1523TIP3    H2 4534   1.877   2.726   4.017
 1524TIP3   OH2 4535   2.286   2.749   3.974
 1524TIP3    H1 4536   2.361   2.771   4.029
 1524TIP3    H2 4537   2.242   2.678   4.022
 1525TIP3   OH2 4538   5.605   1.147   0.576
 1525TIP3    H1 4539   5.642   1.233   0.596
 1525TIP3    H2 4540   5.681   1.090   0.567
 1526TIP3   OH2 4541   1.796   6.740   4.884
 1526TIP3    H1 4542   1.839   6.664   4.843
 1526TIP3    H2 4543   1.825   6.815   4.832
 1527TIP3   OH2 4544   1.959   6.728   5.285
 1527TIP3    H1 4545   1.942   6.657   5.347
 1527TIP3    H2 4546   1.883   6.727   5.227
 1528TIP3   OH2 4547   0.063   1.361   4.123
 1528TIP3    H1 4548   0.107   1.351   4.039
 1528TIP3    H2 4549   0.036   1.272   4.146
 1529TIP3   OH2 4550   1.155   2.681   1.340
 1529TIP3    H1 4551   1.122   2.613   1.281
 1529TIP3    H2 4552   1.094   2.754   1.329
 1530TIP3   OH2 4553   2.553   3.797   4.113
 1530TIP3    H1 4554   2.582   3.783   4.023
 1530TIP3    H2 4555   2.497   3.874   4.109
 1531TIP3   OH2 4556   1.825   3.423   2.687
 1531TIP3    H1 4557   1.774   3.375   2.752
 1531TIP3    H2 4558   1.760   3.450   2.621
 1532TIP3   OH2 4559   4.201   1.403   1.475
 1532TIP3    H1 4560   4.163   1.399   1.387
 1532TIP3    H2 4561   4.136   1.450   1.527
 1533TIP3   OH2 4562   1.708   2.349   2.787
 1533TIP3    H1 4563   1.729   2.307   2.870
 1533TIP3    H2 4564   1.745   2.291   2.721
 1534TIP3   OH2 4565   0.639   5.227   4.430
 1534TIP3    H1 4566   0.544   5.243   4.436
 1534TIP3    H2 4567   0.663   5.192   4.516
 1535TIP3   OH2 4568   6.925   0.821   0.523
 1535TIP3    H1 4569   7.009   0.801   0.563
 1535TIP3    H2 4570   6.928   0.916   0.506
 1536TIP3   OH2 4571   0.139   1.843   1.645
 1536TIP3    H1 4572   0.044   1.837   1.658
 1536TIP3    H2 4573   0.168   1.752   1.638
 1537TIP3   OH2 4574   6.378   3.573   3.377
 1537TIP3    H1 4575   6.417   3.540   3.458
 1537TIP3    H2 4576   6.415   3.519   3.308
 1538TIP3   OH2 4577   5.148   0.323   3.885
 1538TIP3    H1 4578   5.141   0.369   3.801
 1538TIP3    H2 4579   5.211   0.375   3.935
 1539TIP3   OH2 4580   2.347   4.389   0.533
 1539TIP3    H1 4581   2.332   4.334   0.456
 1539TIP3    H2 4582   2.360   4.327   0.605
 1540TIP3   OH2 4583   0.426   2.994   1.971
 1540TIP3    H1 4584   0.507   3.015   2.018
 1540TIP3    H2 4585   0.444   2.910   1.928
 1541TIP3   OH2 4586   2.689   3.407   2.403
 1541TIP3    H1 4587   2.641   3.345   2.348
 1541TIP3    H2 4588   2.630   3.427   2.475
 1542TIP3   OH2 4589   5.545   1.697   1.800
 1542TIP3    H1 4590   5.521   1.758   1.869
 1542TIP3    H2 4591   5.572   1.617   1.845
 1543TIP3   OH2 4592   5.793   2.658   5.164
 1543TIP3    H1 4593   5.777   2.646   5.258
 1543TIP3    H2 4594   5.715   2.622   5.122
 1544TIP3   OH2 4595   1.456   0.392   1.787
 1544TIP3    H1 4596   1.460   0.443   1.706
 1544TIP3    H2 4597   1.464   0.456   1.857
 1545TIP3   OH2 4598   1.791   6.461   2.725
 1545TIP3    H1 4599   1.852   6.535   2.730
 1545TIP3    H2 4600   1.848   6.383   2.726
 1546TIP3   OH2 4601   3.924   1.946   4.279
 1546TIP3    H1 4602   3.867   1.884   4.234
 1546TIP3    H2 4603   3.978   1.984   4.209
 1547TIP3   OH2 4604   0.659   6.402   0.297
 1547TIP3    H1 4605   0.627   6.456   0.225
 1547TIP3    H2 4606   0.699   6.463   0.358
 1548TIP3   OH2 4607   2.762   6.702   0.276
 1548TIP3    H1 4608   2.677   6.718   0.235
 1548TIP3    H2 4609   2.750   6.731   0.367
 1549TIP3   OH2 4610   5.669   0.678   4.438
 1549TIP3    H1 4611   5.697   0.612   4.375
 1549TIP3    H2 4612   5.624   0.745   4.386
 1550TIP3   OH2 4613   6.600   1.679   1.706
 1550TIP3    H1 4614   6.541   1.603   1.706
 1550TIP3    H2 4615   6.553   1.746   1.755
 1551TIP3   OH2 4616   5.800   5.778   2.276
 1551TIP3    H1 4617   5.732   5.797   2.210
 1551TIP3    H2 4618   5.753   5.780   2.359
 1552TIP3   OH2 4619   4.830   5.323   2.481
 1552TIP3    H1 4620   4.913   5.371   2.476
 1552TIP3    H2 4621   4.811   5.299   2.391
 1553TIP3   OH2 4622   1.192   6.006   2.106
 1553TIP3    H1 4623   1.201   6.099   2.126
 1553TIP3    H2 4624   1.153   6.004   2.019
 1554TIP3   OH2 4625   1.534   5.646   3.113
 1554TIP3    H1 4626   1.447   5.605   3.116
 1554TIP3    H2 4627   1.559   5.642   3.021
 1555TIP3   OH2 4628   5.509   4.307   0.184
 1555TIP3    H1 4629   5.502   4.211   0.186
 1555TIP3    H2 4630   5.461   4.336   0.261
 1556TIP3   OH2 4631   4.627   5.257   0.871
 1556TIP3    H1 4632   4.700   5.209   0.912
 1556TIP3    H2 4633   4.655   5.348   0.871
 1557TIP3   OH2 4634   2.165   6.790   1.965
 1557TIP3    H1 4635   2.219   6.719   1.929
 1557TIP3    H2 4636   2.228   6.860   1.983
 1558TIP3   OH2 4637   0.636   0.105   5.534
 1558TIP3    H1 4638   0.622   0.047   5.609
 1558TIP3    H2 4639   0.577   0.071   5.467
 1559TIP3   OH2 4640   6.330   2.030   3.887
 1559TIP3    H1 4641   6.354   2.026   3.795
 1559TIP3    H2 4642   6.296   1.943   3.907
 1560TIP3   OH2 4643   5.106   3.219   0.836
 1560TIP3    H1 4644   5.155   3.246   0.914
 1560TIP3    H2 4645   5.079   3.129   0.854
 1561TIP3   OH2 4646   4.353   2.066   5.635
 1561TIP3    H1 4647   4.388   2.103   5.553
 1561TIP3    H2 4648   4.419   2.002   5.662
 1562TIP3   OH2 4649   2.770   3.146   2.624
 1562TIP3    H1 4650   2.812   3.168   2.541
 1562TIP3    H2 4651   2.807   3.060   2.647
 1563TIP3   OH2 4652   0.350   5.283   1.949
 1563TIP3    H1 4653   0.332   5.189   1.961
 1563TIP3    H2 4654   0.438   5.286   1.911
 1564TIP3   OH2 4655   4.675   0.788   5.064
 1564TIP3    H1 4656   4.663   0.693   5.068
 1564TIP3    H2 4657   4.694   0.813   5.155
 1565TIP3   OH2 4658   3.717   4.112   4.768
 1565TIP3    H1 4659   3.724   4.026   4.727
 1565TIP3    H2 4660   3.660   4.162   4.710
 1566TIP3   OH2 4661   5.019   4.956   4.209
 1566TIP3    H1 4662   5.001   4.971   4.116
 1566TIP3    H2 4663   5.017   5.044   4.247
 1567TIP3   OH2 4664   2.063   2.420   0.945
 1567TIP3    H1 4665   2.029   2.342   0.902
 1567TIP3    H2 4666   2.030   2.493   0.893
 1568TIP3   OH2 4667   3.600   5.199   5.078
 1568TIP3    H1 4668   3.645   5.244   5.150
 1568TIP3    H2 4669   3.508   5.222   5.090
 1569TIP3   OH2 4670   1.056   1.639   2.873
 1569TIP3    H1 4671   1.013   1.718   2.906
 1569TIP3    H2 4672   1.141   1.670   2.841
 1570TIP3   OH2 4673   3.359   2.023   1.216
 1570TIP3    H1 4674   3.444   1.983   1.236
 1570TIP3    H2 4675   3.303   1.950   1.192
 1571TIP3   OH2 4676   0.931   5.668   2.617
 1571TIP3    H1 4677   0.898   5.737   2.558
 1571TIP3    H2 4678   0.959   5.598   2.558
 1572TIP3   OH2 4679   0.616   1.600   4.144
 1572TIP3    H1 4680   0.584   1.511   4.129
 1572TIP3    H2 4681   0.697   1.588   4.193
 1573TIP3   OH2 4682   6.532   2.429   1.193
 1573TIP3    H1 4683   6.578   2.476   1.124
 1573TIP3    H2 4684   6.546   2.336   1.172
 1574TIP3   OH2 4685   5.541   2.576   3.592
 1574TIP3    H1 4686   5.592   2.647   3.631
 1574TIP3    H2 4687   5.571   2.497   3.636
 1575TIP3   OH2 4688   0.541   2.903   0.230
 1575TIP3    H1 4689   0.531   2.939   0.142
 1575TIP3    H2 4690   0.483   2.827   0.231
 1576TIP3   OH2 4691   0.520   5.260   4.177
 1576TIP3    H1 4692   0.594   5.318   4.161
 1576TIP3    H2 4693   0.545   5.209   4.254
 1577TIP3   OH2 4694   4.770   3.856   2.779
 1577TIP3    H1 4695   4.678   3.832   2.766
 1577TIP3    H2 4696   4.770   3.911   2.857
 1578TIP3   OH2 4697   0.029   5.829   2.231
 1578TIP3    H1 4698  -0.052   5.879   2.245
 1578TIP3    H2 4699   0.080   5.883   2.170
 1579TIP3   OH2 4700   4.796   2.261   4.300
 1579TIP3    H1 4701   4.815   2.325   4.231
 1579TIP3    H2 4702   4.722   2.299   4.347
 1580TIP3   OH2 4703   6.776   5.425   1.725
 1580TIP3    H1 4704   6.823   5.484   1.667
 1580TIP3    H2 4705   6.732   5.482   1.787
 1581TIP3   OH2 4706   7.027   0.653   4.451
 1581TIP3    H1 4707   6.990   0.722   4.396
 1581TIP3    H2 4708   7.083   0.699   4.514
 1582TIP3   OH2 4709   0.926   3.029   0.164
 1582TIP3    H1 4710   0.955   2.950   0.210
 1582TIP3    H2 4711   0.943   3.100   0.226
 1583TIP3   OH2 4712   0.089   4.776   3.670
 1583TIP3    H1 4713   0.158   4.837   3.697
 1583TIP3    H2 4714   0.012   4.831   3.654
 1584TIP3   OH2 4715   4.920   6.019   3.684
 1584TIP3    H1 4716   4.878   6.039   3.768
 1584TIP3    H2 4717   4.852   5.976   3.633
 1585TIP3   OH2 4718   0.634   4.897   2.466
 1585TIP3    H1 4719   0.650   4.972   2.524
 1585TIP3    H2 4720   0.589   4.935   2.390
 1586TIP3   OH2 4721   4.752   5.861   2.934
 1586TIP3    H1 4722   4.766   5.802   3.009
 1586TIP3    H2 4723   4.840   5.882   2.903
 1587TIP3   OH2 4724   0.759   3.136   3.295
 1587TIP3    H1 4725   0.717   3.164   3.214
 1587TIP3    H2 4726   0.770   3.217   3.345
 1588TIP3   OH2 4727   5.304   5.570   4.946
 1588TIP3    H1 4728   5.234   5.588   4.884
 1588TIP3    H2 4729   5.270   5.500   5.002
 1589TIP3   OH2 4730   2.302   0.230   0.165
 1589TIP3    H1 4731   2.346   0.309   0.134
 1589TIP3    H2 4732   2.369   0.162   0.163
 1590TIP3   OH2 4733   3.502   6.556   4.022
 1590TIP3    H1 4734   3.577   6.583   3.969
 1590TIP3    H2 4735   3.540   6.501   4.091
 1591TIP3   OH2 4736   4.126   6.456   2.259
 1591TIP3    H1 4737   4.145   6.417   2.174
 1591TIP3    H2 4738   4.211   6.491   2.289
 1592TIP3   OH2 4739   4.987   2.233   1.670
 1592TIP3    H1 4740   4.900   2.208   1.699
 1592TIP3    H2 4741   5.046   2.198   1.736
 1593TIP3   OH2 4742   5.706   2.215   5.371
 1593TIP3    H1 4743   5.770   2.277   5.407
 1593TIP3    H2 4744   5.759   2.153   5.321
 1594TIP3   OH2 4745   5.946   1.909   2.859
 1594TIP3    H1 4746   5.953   1.937   2.950
 1594TIP3    H2 4747   5.976   1.984   2.808
 1595TIP3   OH2 4748   1.412   6.513   1.938
 1595TIP3    H1 4749   1.383   6.431   1.898
 1595TIP3    H2 4750   1.362   6.581   1.892
 1596TIP3   OH2 4751   2.277   3.889   3.754
 1596TIP3    H1 4752   2.286   3.959   3.819
 1596TIP3    H2 4753   2.299   3.809   3.803
 1597TIP3   OH2 4754   6.294   5.559   1.983
 1597TIP3    H1 4755   6.231   5.551   1.911
 1597TIP3    H2 4756   6.241   5.552   2.062
 1598TIP3   OH2 4757   1.485   3.522   5.836
 1598TIP3    H1 4758   1.538   3.598   5.860
 1598TIP3    H2 4759   1.418   3.518   5.904
 1599TIP3   OH2 4760   1.332   4.308   2.948
 1599TIP3    H1 4761   1.265   4.309   2.881
 1599TIP3    H2 4762   1.294   4.256   3.019
 1600TIP3   OH2 4763   5.475   4.648   0.523
 1600TIP3    H1 4764   5.497   4.702   0.599
 1600TIP3    H2 4765   5.525   4.685   0.451
 1601TIP3   OH2 4766   1.993   1.982   4.047
 1601TIP3    H1 4767   1.936   2.025   4.110
 1601TIP3    H2 4768   2.075   2.032   4.049
 1602TIP3   OH2 4769   3.373   6.514   0.110
 1602TIP3    H1 4770   3.438   6.504   0.041
 1602TIP3    H2 4771   3.402   6.454   0.179
 1603TIP3   OH2 4772   6.913   2.802   4.905
 1603TIP3    H1 4773   6.821   2.816   4.884
 1603TIP3    H2 4774   6.959   2.875   4.864
 1604TIP3   OH2 4775   5.381   3.609   5.244
 1604TIP3    H1 4776   5.347   3.565   5.167
 1604TIP3    H2 4777   5.355   3.700   5.234
 1605TIP3   OH2 4778   0.272   5.612   5.282
 1605TIP3    H1 4779   0.218   5.536   5.262
 1605TIP3    H2 4780   0.359   5.575   5.300
 1606TIP3   OH2 4781   4.112   4.226   3.234
 1606TIP3    H1 4782   4.187   4.210   3.177
 1606TIP3    H2 4783   4.056   4.285   3.183
 1607TIP3   OH2 4784   5.982   0.780   0.967
 1607TIP3    H1 4785   5.921   0.854   0.969
 1607TIP3    H2 4786   6.068   0.820   0.963
 1608TIP3   OH2 4787   4.987   3.382   4.658
 1608TIP3    H1 4788   4.902   3.415   4.626
 1608TIP3    H2 4789   5.028   3.343   4.581
 1609TIP3   OH2 4790   4.023   2.448   0.789
 1609TIP3    H1 4791   3.990   2.361   0.768
 1609TIP3    H2 4792   4.006   2.499   0.710
 1610TIP3   OH2 4793   3.737   2.006   0.134
 1610TIP3    H1 4794   3.726   2.060   0.213
 1610TIP3    H2 4795   3.753   1.918   0.168
 1611TIP3   OH2 4796   2.703   1.896   1.402
 1611TIP3    H1 4797   2.682   1.864   1.490
 1611TIP3    H2 4798   2.778   1.955   1.416
 1612TIP3   OH2 4799   6.561   2.127   5.693
 1612TIP3    H1 4800   6.470   2.101   5.679
 1612TIP3    H2 4801   6.597   2.059   5.749
 1613TIP3   OH2 4802   0.607   0.914   2.632
 1613TIP3    H1 4803   0.512   0.917   2.626
 1613TIP3    H2 4804   0.626   0.931   2.724
 1614TIP3   OH2 4805   3.729   6.585   5.489
 1614TIP3    H1 4806   3.648   6.548   5.525
 1614TIP3    H2 4807   3.755   6.524   5.420
 1615TIP3   OH2 4808   2.836   0.392   3.277
 1615TIP3    H1 4809   2.744   0.370   3.288
 1615TIP3    H2 4810   2.883   0.312   3.301
 1616TIP3   OH2 4811   5.128   5.886   1.948
 1616TIP3    H1 4812   5.096   5.959   2.002
 1616TIP3    H2 4813   5.215   5.914   1.919
 1617TIP3   OH2 4814   3.457   1.893   2.555
 1617TIP3    H1 4815   3.497   1.843   2.626
 1617TIP3    H2 4816   3.459   1.984   2.585
 1618TIP3   OH2 4817   3.672   2.460   5.327
 1618TIP3    H1 4818   3.701   2.497   5.244
 1618TIP3    H2 4819   3.752   2.453   5.380
 1619TIP3   OH2 4820   0.852   5.274   4.138
 1619TIP3    H1 4821   0.942   5.261   4.108
 1619TIP3    H2 4822   0.812   5.188   4.132
 1620TIP3   OH2 4823   2.528   4.061   0.480
 1620TIP3    H1 4824   2.540   4.050   0.575
 1620TIP3    H2 4825   2.447   4.013   0.461
 1621TIP3   OH2 4826   4.941   2.580   0.588
 1621TIP3    H1 4827   4.882   2.655   0.591
 1621TIP3    H2 4828   5.002   2.594   0.660
 1622TIP3   OH2 4829   5.676   3.581   2.128
 1622TIP3    H1 4830   5.671   3.486   2.121
 1622TIP3    H2 4831   5.612   3.603   2.196
 1623TIP3   OH2 4832   4.807   3.673   4.260
 1623TIP3    H1 4833   4.799   3.578   4.251
 1623TIP3    H2 4834   4.890   3.686   4.306
 1624TIP3   OH2 4835   5.939   0.685   2.433
 1624TIP3    H1 4836   5.938   0.714   2.524
 1624TIP3    H2 4837   5.859   0.722   2.395
 1625TIP3   OH2 4838   6.623   5.178   4.735
 1625TIP3    H1 4839   6.691   5.198   4.672
 1625TIP3    H2 4840   6.609   5.260   4.783
 1626TIP3   OH2 4841   6.661   5.664   2.211
 1626TIP3    H1 4842   6.723   5.648   2.283
 1626TIP3    H2 4843   6.715   5.659   2.132
 1627TIP3   OH2 4844   2.393   2.483   0.744
 1627TIP3    H1 4845   2.471   2.539   0.735
 1627TIP3    H2 4846   2.359   2.504   0.831
 1628TIP3   OH2 4847   3.275   6.436   1.752
 1628TIP3    H1 4848   3.217   6.378   1.801
 1628TIP3    H2 4849   3.349   6.452   1.812
 1629TIP3   OH2 4850   6.361   6.225   1.435
 1629TIP3    H1 4851   6.399   6.286   1.499
 1629TIP3    H2 4852   6.340   6.279   1.359
 1630TIP3   OH2 4853   1.083   6.638   0.147
 1630TIP3    H1 4854   1.052   6.617   0.236
 1630TIP3    H2 4855   1.140   6.714   0.159
 1631TIP3   OH2 4856   6.929   5.359   1.079
 1631TIP3    H1 4857   6.838   5.356   1.051
 1631TIP3    H2 4858   6.927   5.337   1.172
 1632TIP3   OH2 4859   6.325   1.904   4.776
 1632TIP3    H1 4860   6.389   1.898   4.847
 1632TIP3    H2 4861   6.251   1.950   4.815
 1633TIP3   OH2 4862   3.355   5.653   1.837
 1633TIP3    H1 4863   3.300   5.655   1.915
 1633TIP3    H2 4864   3.335   5.569   1.795
 1634TIP3   OH2 4865   1.777   2.176   5.232
 1634TIP3    H1 4866   1.746   2.122   5.160
 1634TIP3    H2 4867   1.872   2.162   5.234
 1635TIP3   OH2 4868   5.666   6.695   4.048
 1635TIP3    H1 4869   5.614   6.715   4.126
 1635TIP3    H2 4870   5.603   6.662   3.985
 1636TIP3   OH2 4871   0.991   0.550   3.104
 1636TIP3    H1 4872   0.997   0.622   3.166
 1636TIP3    H2 4873   0.924   0.577   3.041
 1637TIP3   OH2 4874   2.512   4.223   2.843
 1637TIP3    H1 4875   2.431   4.249   2.887
 1637TIP3    H2 4876   2.487   4.211   2.752
 1638TIP3   OH2 4877   4.473   3.869   5.730
 1638TIP3    H1 4878   4.488   3.941   5.669
 1638TIP3    H2 4879   4.534   3.801   5.702
 1639TIP3   OH2 4880   3.042   1.719   4.126
 1639TIP3    H1 4881   3.061   1.721   4.032
 1639TIP3    H2 4882   2.973   1.785   4.137
 1640TIP3   OH2 4883   1.545   6.735   3.767
 1640TIP3    H1 4884   1.479   6.719   3.700
 1640TIP3    H2 4885   1.509   6.808   3.818
 1641TIP3   OH2 4886   6.359   1.167   4.407
 1641TIP3    H1 4887   6.330   1.239   4.463
 1641TIP3    H2 4888   6.444   1.140   4.444
 1642TIP3   OH2 4889   7.002   0.332   4.005
 1642TIP3    H1 4890   7.055   0.285   4.069
 1642TIP3    H2 4891   7.026   0.424   4.017
 1643TIP3   OH2 4892   0.367   1.135   0.444
 1643TIP3    H1 4893   0.387   1.072   0.514
 1643TIP3    H2 4894   0.447   1.137   0.392
 1644TIP3   OH2 4895   4.304   6.425   2.869
 1644TIP3    H1 4896   4.396   6.453   2.864
 1644TIP3    H2 4897   4.268   6.474   2.943
 1645TIP3   OH2 4898   1.217   4.296   2.705
 1645TIP3    H1 4899   1.232   4.343   2.623
 1645TIP3    H2 4900   1.125   4.313   2.726
 1646TIP3   OH2 4901   4.849   2.530   4.205
 1646TIP3    H1 4902   4.850   2.569   4.118
 1646TIP3    H2 4903   4.914   2.579   4.255
 1647TIP3   OH2 4904   3.294   1.117   2.631
 1647TIP3    H1 4905   3.318   1.076   2.548
 1647TIP3    H2 4906   3.238   1.052   2.674
 1648TIP3   OH2 4907   5.057   2.919   3.081
 1648TIP3    H1 4908   5.115   2.987   3.048
 1648TIP3    H2 4909   4.970   2.959   3.081
 1649TIP3   OH2 4910   2.215   4.178   5.310
 1649TIP3    H1 4911   2.258   4.092   5.304
 1649TIP3    H2 4912   2.183   4.194   5.221
 1650TIP3   OH2 4913   3.508   1.619   0.095
 1650TIP3    H1 4914   3.547   1.656   0.016
 1650TIP3    H2 4915   3.491   1.694   0.151
 1651TIP3   OH2 4916   5.558   3.214   4.424
 1651TIP3    H1 4917   5.564   3.151   4.352
 1651TIP3    H2 4918   5.609   3.289   4.395
 1652TIP3   OH2 4919   6.955   3.890   0.054
 1652TIP3    H1 4920   7.039   3.844   0.049
 1652TIP3    H2 4921   6.892   3.830   0.014
 1653TIP3   OH2 4922   1.960   1.783   5.238
 1653TIP3    H1 4923   1.964   1.793   5.143
 1653TIP3    H2 4924   1.902   1.708   5.252
 1654TIP3   OH2 4925   0.326   6.186   5.604
 1654TIP3    H1 4926   0.275   6.110   5.575
 1654TIP3    H2 4927   0.359   6.161   5.691
 1655TIP3   OH2 4928   3.874   4.554   1.250
 1655TIP3    H1 4929   3.845   4.510   1.171
 1655TIP3    H2 4930   3.797   4.557   1.306
 1656TIP3   OH2 4931   1.780   5.364   1.992
 1656TIP3    H1 4932   1.777   5.458   2.007
 1656TIP3    H2 4933   1.806   5.327   2.076
 1657TIP3   OH2 4934   2.669   0.633   4.038
 1657TIP3    H1 4935   2.685   0.558   3.982
 1657TIP3    H2 4936   2.674   0.598   4.127
 1658TIP3   OH2 4937   5.005   1.751   3.411
 1658TIP3    H1 4938   4.944   1.707   3.471
 1658TIP3    H2 4939   4.992   1.707   3.327
 1659TIP3   OH2 4940   4.662   2.523   0.938
 1659TIP3    H1 4941   4.590   2.539   0.878
 1659TIP3    H2 4942   4.719   2.462   0.891
 1660TIP3   OH2 4943   1.587   1.966   1.699
 1660TIP3    H1 4944   1.642   1.935   1.626
 1660TIP3    H2 4945   1.648   1.982   1.770
 1661TIP3   OH2 4946   2.071   1.732   2.696
 1661TIP3    H1 4947   2.000   1.676   2.729
 1661TIP3    H2 4948   2.088   1.700   2.608
 1662TIP3   OH2 4949   0.526   3.229   0.531
 1662TIP3    H1 4950   0.517   3.133   0.536
 1662TIP3    H2 4951   0.482   3.253   0.450
 1663TIP3   OH2 4952   6.329   6.124   3.241
 1663TIP3    H1 4953   6.278   6.184   3.186
 1663TIP3    H2 4954   6.351   6.051   3.183
 1664TIP3   OH2 4955   3.477   4.525   1.810
 1664TIP3    H1 4956   3.554   4.573   1.780
 1664TIP3    H2 4957   3.443   4.578   1.883
 1665TIP3   OH2 4958   5.042   5.382   4.031
 1665TIP3    H1 4959   5.062   5.347   3.944
 1665TIP3    H2 4960   4.986   5.315   4.071
 1666TIP3   OH2 4961   5.526   2.714   1.812
 1666TIP3    H1 4962   5.475   2.634   1.822
 1666TIP3    H2 4963   5.505   2.745   1.724
 1667TIP3   OH2 4964   4.464   1.375   5.273
 1667TIP3    H1 4965   4.441   1.286   5.302
 1667TIP3    H2 4966   4.503   1.415   5.350
 1668TIP3   OH2 4967   4.983   3.439   5.534
 1668TIP3    H1 4968   5.033   3.520   5.525
 1668TIP3    H2 4969   5.033   3.374   5.485
 1669TIP3   OH2 4970   2.243   3.221   2.329
 1669TIP3    H1 4971   2.204   3.303   2.357
 1669TIP3    H2 4972   2.168   3.164   2.308
 1670TIP3   OH2 4973   3.054   3.308   4.142
 1670TIP3    H1 4974   3.064   3.306   4.047
 1670TIP3    H2 4975   3.077   3.397   4.167
 1671TIP3   OH2 4976   6.359   3.591   5.818
 1671TIP3    H1 4977   6.364   3.672   5.868
 1671TIP3    H2 4978   6.266   3.574   5.809
 1672TIP3   OH2 4979   0.417   5.103   0.604
 1672TIP3    H1 4980   0.383   5.125   0.690
 1672TIP3    H2 4981   0.463   5.182   0.575
 1673TIP3   OH2 4982   1.704   5.267   2.555
 1673TIP3    H1 4983   1.657   5.187   2.531
 1673TIP3    H2 4984   1.697   5.271   2.650
 1674TIP3   OH2 4985   0.507   3.014   3.379
 1674TIP3    H1 4986   0.490   2.926   3.413
 1674TIP3    H2 4987   0.593   3.007   3.336
 1675TIP3   OH2 4988   2.339   5.968   4.478
 1675TIP3    H1 4989   2.342   6.063   4.464
 1675TIP3    H2 4990   2.264   5.938   4.426
 1676TIP3   OH2 4991   1.717   4.830   1.333
 1676TIP3    H1 4992   1.698   4.916   1.371
 1676TIP3    H2 4993   1.657   4.770   1.378
 1677TIP3   OH2 4994   3.315   1.145   3.773
 1677TIP3    H1 4995   3.407   1.121   3.783
 1677TIP3    H2 4996   3.289   1.178   3.859
 1678TIP3   OH2 4997   2.405   3.006   3.783
 1678TIP3    H1 4998   2.364   2.936   3.731
 1678TIP3    H2 4999   2.498   2.983   3.785
 1679TIP3   OH2 5000   3.701   0.070   2.297
 1679TIP3    H1 5001   3.659   0.018   2.229
 1679TIP3    H2 5002   3.746   0.140   2.250
 1680TIP3   OH2 5003   1.851   2.667   4.798
 1680TIP3    H1 5004   1.819   2.668   4.888
 1680TIP3    H2 5005   1.946   2.653   4.807
 1681TIP3   OH2 5006   5.677   1.529   2.431
 1681TIP3    H1 5007   5.771   1.541   2.417
 1681TIP3    H2 5008   5.646   1.614   2.461
 1682TIP3   OH2 5009   6.648   0.088   1.165
 1682TIP3    H1 5010   6.634   0.169   1.214
 1682TIP3    H2 5011   6.624   0.018   1.225
 1683TIP3   OH2 5012   4.364   2.946   4.772
 1683TIP3    H1 5013   4.409   2.961   4.856
 1683TIP3    H2 5014   4.280   2.908   4.797
 1684TIP3   OH2 5015   4.442   6.422   4.564
 1684TIP3    H1 5016   4.446   6.452   4.474
 1684TIP3    H2 5017   4.486   6.337   4.564
 1685TIP3   OH2 5018   1.788   4.024   2.921
 1685TIP3    H1 5019   1.827   4.106   2.951
 1685TIP3    H2 5020   1.694   4.039   2.925
 1686TIP3   OH2 5021   5.459   2.578   2.922
 1686TIP3    H1 5022   5.450   2.666   2.885
 1686TIP3    H2 5023   5.467   2.592   3.016
 1687TIP3   OH2 5024   6.975   4.799   4.051
 1687TIP3    H1 5025   7.005   4.816   3.962
 1687TIP3    H2 5026   7.003   4.875   4.101
 1688TIP3   OH2 5027   5.910   3.239   3.296
 1688TIP3    H1 5028   5.971   3.305   3.261
 1688TIP3    H2 5029   5.964   3.160   3.303
 1689TIP3   OH2 5030   2.147   1.765   4.193
 1689TIP3    H1 5031   2.089   1.787   4.120
 1689TIP3    H2 5032   2.155   1.846   4.243
 1690TIP3   OH2 5033   6.814   1.896   2.329
 1690TIP3    H1 5034   6.829   1.980   2.373
 1690TIP3    H2 5035   6.876   1.836   2.371
 1691TIP3   OH2 5036   6.707   3.476   3.971
 1691TIP3    H1 5037   6.750   3.489   3.886
 1691TIP3    H2 5038   6.697   3.381   3.978
 1692TIP3   OH2 5039   6.038   0.142   4.616
 1692TIP3    H1 5040   5.963   0.197   4.593
 1692TIP3    H2 5041   6.028   0.128   4.711
 1693TIP3   OH2 5042   4.620   1.123   2.788
 1693TIP3    H1 5043   4.677   1.168   2.849
 1693TIP3    H2 5044   4.531   1.143   2.818
 1694TIP3   OH2 5045   0.686   6.420   1.743
 1694TIP3    H1 5046   0.722   6.499   1.784
 1694TIP3    H2 5047   0.696   6.435   1.649
 1695TIP3   OH2 5048   2.340   4.966   1.073
 1695TIP3    H1 5049   2.317   4.875   1.050
 1695TIP3    H2 5050   2.435   4.970   1.060
 1696TIP3   OH2 5051   6.967   2.746   4.116
 1696TIP3    H1 5052   6.897   2.812   4.113
 1696TIP3    H2 5053   7.047   2.796   4.101
 1697TIP3   OH2 5054   2.020   3.534   0.089
 1697TIP3    H1 5055   2.111   3.515   0.112
 1697TIP3    H2 5056   2.018   3.530  -0.006
 1698TIP3   OH2 5057   2.923   0.490   5.143
 1698TIP3    H1 5058   2.874   0.410   5.125
 1698TIP3    H2 5059   2.961   0.514   5.058
 1699TIP3   OH2 5060   3.374   6.658   2.362
 1699TIP3    H1 5061   3.438   6.690   2.299
 1699TIP3    H2 5062   3.327   6.589   2.315
 1700TIP3   OH2 5063   6.646   6.386   5.710
 1700TIP3    H1 5064   6.596   6.429   5.640
 1700TIP3    H2 5065   6.732   6.369   5.671
 1701TIP3   OH2 5066   5.870   6.580   5.402
 1701TIP3    H1 5067   5.823   6.530   5.336
 1701TIP3    H2 5068   5.926   6.516   5.447
 1702TIP3   OH2 5069   1.937   0.153   5.641
 1702TIP3    H1 5070   1.865   0.189   5.588
 1702TIP3    H2 5071   1.923   0.190   5.728
 1703TIP3   OH2 5072   5.523   6.080   1.069
 1703TIP3    H1 5073   5.513   5.995   1.026
 1703TIP3    H2 5074   5.455   6.080   1.138
 1704TIP3   OH2 5075   5.159   5.470   4.287
 1704TIP3    H1 5076   5.199   5.557   4.289
 1704TIP3    H2 5077   5.114   5.467   4.203
 1705TIP3   OH2 5078   6.834   5.196   4.564
 1705TIP3    H1 5079   6.924   5.174   4.589
 1705TIP3    H2 5080   6.842   5.226   4.474
 1706TIP3   OH2 5081   6.167   4.897   0.384
 1706TIP3    H1 5082   6.220   4.842   0.326
 1706TIP3    H2 5083   6.151   4.976   0.333
 1707TIP3   OH2 5084   0.201   1.077   4.920
 1707TIP3    H1 5085   0.281   1.095   4.969
 1707TIP3    H2 5086   0.219   1.107   4.831
 1708TIP3   OH2 5087   1.556   3.278   4.156
 1708TIP3    H1 5088   1.558   3.222   4.078
 1708TIP3    H2 5089   1.524   3.362   4.124
 1709TIP3   OH2 5090   5.995   3.141   2.990
 1709TIP3    H1 5091   5.967   3.088   3.065
 1709TIP3    H2 5092   6.078   3.180   3.018
 1710TIP3   OH2 5093   6.419   0.039   4.703
 1710TIP3    H1 5094   6.373   0.020   4.785
 1710TIP3    H2 5095   6.409   0.134   4.692
 1711TIP3   OH2 5096   1.167   1.215   1.179
 1711TIP3    H1 5097   1.162   1.151   1.251
 1711TIP3    H2 5098   1.177   1.299   1.223
 1712TIP3   OH2 5099   5.005   4.829   4.842
 1712TIP3    H1 5100   5.078   4.788   4.889
 1712TIP3    H2 5101   4.988   4.770   4.768
 1713TIP3   OH2 5102   6.337   0.682   0.478
 1713TIP3    H1 5103   6.297   0.631   0.548
 1713TIP3    H2 5104   6.377   0.617   0.421
 1714TIP3   OH2 5105   2.608   4.136   0.203
 1714TIP3    H1 5106   2.582   4.113   0.292
 1714TIP3    H2 5107   2.637   4.054   0.164
 1715TIP3   OH2 5108   4.166   0.299   4.015
 1715TIP3    H1 5109   4.239   0.264   4.065
 1715TIP3    H2 5110   4.180   0.266   3.926
 1716TIP3   OH2 5111   2.013   3.249   3.620
 1716TIP3    H1 5112   2.053   3.186   3.560
 1716TIP3    H2 5113   2.060   3.237   3.702
 1717TIP3   OH2 5114   6.183   1.790   4.190
 1717TIP3    H1 5115   6.207   1.709   4.145
 1717TIP3    H2 5116   6.120   1.832   4.131
 1718TIP3   OH2 5117   3.813   4.661   0.314
 1718TIP3    H1 5118   3.824   4.589   0.252
 1718TIP3    H2 5119   3.733   4.639   0.363
 1719TIP3   OH2 5120   5.978   1.216   2.803
 1719TIP3    H1 5121   6.030   1.171   2.870
 1719TIP3    H2 5122   5.976   1.155   2.730
 1720TIP3   OH2 5123   6.791   6.666   5.651
 1720TIP3    H1 5124   6.766   6.756   5.630
 1720TIP3    H2 5125   6.710   6.616   5.644
 1721TIP3   OH2 5126   2.008   6.296   3.242
 1721TIP3    H1 5127   2.024   6.304   3.336
 1721TIP3    H2 5128   2.086   6.252   3.209
 1722TIP3   OH2 5129   0.273   3.887   5.282
 1722TIP3    H1 5130   0.205   3.906   5.217
 1722TIP3    H2 5131   0.273   3.792   5.290
 1723TIP3   OH2 5132   2.874   4.768   0.761
 1723TIP3    H1 5133   2.940   4.781   0.693
 1723TIP3    H2 5134   2.918   4.717   0.828
 1724TIP3   OH2 5135   5.364   1.576   5.815
 1724TIP3    H1 5136   5.342   1.661   5.778
 1724TIP3    H2 5137   5.284   1.525   5.809
 1725TIP3   OH2 5138   6.768   1.276   1.506
 1725TIP3    H1 5139   6.694   1.337   1.501
 1725TIP3    H2 5140   6.728   1.190   1.516
 1726TIP3   OH2 5141   3.966   1.207   1.422
 1726TIP3    H1 5142   4.025   1.152   1.371
 1726TIP3    H2 5143   3.904   1.242   1.358
 1727TIP3   OH2 5144   5.072   5.389   0.022
 1727TIP3    H1 5145   5.016   5.432   0.087
 1727TIP3    H2 5146   5.155   5.436   0.026
 1728TIP3   OH2 5147   3.607   1.441   3.174
 1728TIP3    H1 5148   3.592   1.514   3.234
 1728TIP3    H2 5149   3.521   1.424   3.135
 1729TIP3   OH2 5150   6.552   0.285   2.587
 1729TIP3    H1 5151   6.600   0.202   2.587
 1729TIP3    H2 5152   6.567   0.321   2.499
 1730TIP3   OH2 5153   0.055   0.301   2.673
 1730TIP3    H1 5154   0.023   0.389   2.691
 1730TIP3    H2 5155   0.051   0.293   2.578
 1731TIP3   OH2 5156   5.421   2.607   1.159
 1731TIP3    H1 5157   5.364   2.558   1.219
 1731TIP3    H2 5158   5.504   2.615   1.207
 1732TIP3   OH2 5159   3.200   1.973   0.464
 1732TIP3    H1 5160   3.208   1.919   0.385
 1732TIP3    H2 5161   3.260   1.933   0.527
 1733TIP3   OH2 5162   1.987   5.145   4.783
 1733TIP3    H1 5163   2.048   5.219   4.788
 1733TIP3    H2 5164   1.962   5.141   4.691
 1734TIP3   OH2 5165   3.007   5.784   0.712
 1734TIP3    H1 5166   3.013   5.721   0.640
 1734TIP3    H2 5167   3.038   5.866   0.675
 1735TIP3   OH2 5168   0.964   6.294   0.963
 1735TIP3    H1 5169   1.012   6.377   0.963
 1735TIP3    H2 5170   0.901   6.302   0.891
 1736TIP3   OH2 5171   0.487   1.505   4.616
 1736TIP3    H1 5172   0.458   1.593   4.591
 1736TIP3    H2 5173   0.503   1.510   4.710
 1737TIP3   OH2 5174   2.462   0.771   5.276
 1737TIP3    H1 5175   2.502   0.776   5.363
 1737TIP3    H2 5176   2.478   0.857   5.238
 1738TIP3   OH2 5177   2.791   5.726   5.061
 1738TIP3    H1 5178   2.721   5.782   5.097
 1738TIP3    H2 5179   2.872   5.765   5.094
 1739TIP3   OH2 5180   3.335   2.216   0.171
 1739TIP3    H1 5181   3.260   2.244   0.223
 1739TIP3    H2 5182   3.411   2.240   0.224
 1740TIP3   OH2 5183   1.325   0.118   4.266
 1740TIP3    H1 5184   1.262   0.089   4.201
 1740TIP3    H2 5185   1.334   0.043   4.326
 1741TIP3   OH2 5186   3.884   5.710   3.761
 1741TIP3    H1 5187   3.842   5.792   3.735
 1741TIP3    H2 5188   3.885   5.713   3.857
 1742TIP3   OH2 5189   2.121   1.368   3.293
 1742TIP3    H1 5190   2.153   1.433   3.230
 1742TIP3    H2 5191   2.131   1.410   3.378
 1743TIP3   OH2 5192   0.887   2.868   1.767
 1743TIP3    H1 5193   0.979   2.880   1.790
 1743TIP3    H2 5194   0.872   2.928   1.695
 1744TIP3   OH2 5195   4.838   2.684   5.763
 1744TIP3    H1 5196   4.931   2.707   5.763
 1744TIP3    H2 5197   4.797   2.753   5.816
 1745TIP3   OH2 5198   4.256   2.729   0.274
 1745TIP3    H1 5199   4.303   2.681   0.343
 1745TIP3    H2 5200   4.216   2.804   0.319
 1746TIP3   OH2 5201   7.226   0.851   4.344
 1746TIP3    H1 5202   7.232   0.794   4.267
 1746TIP3    H2 5203   7.133   0.874   4.349
 1747TIP3   OH2 5204   1.778   1.125   0.722
 1747TIP3    H1 5205   1.763   1.112   0.629
 1747TIP3    H2 5206   1.872   1.142   0.729
 1748TIP3   OH2 5207   4.537   0.452   2.303
 1748TIP3    H1 5208   4.559   0.388   2.236
 1748TIP3    H2 5209   4.601   0.523   2.290
 1749TIP3   OH2 5210   1.556   4.200   0.562
 1749TIP3    H1 5211   1.635   4.172   0.516
 1749TIP3    H2 5212   1.587   4.266   0.625
 1750TIP3   OH2 5213   5.529   1.552   3.387
 1750TIP3    H1 5214   5.581   1.521   3.313
 1750TIP3    H2 5215   5.580   1.624   3.425
 1751TIP3   OH2 5216   0.799   0.056   5.125
 1751TIP3    H1 5217   0.829   0.055   5.216
 1751TIP3    H2 5218   0.754   0.139   5.115
 1752TIP3   OH2 5219   5.566   5.231   2.390
 1752TIP3    H1 5220   5.520   5.300   2.437
 1752TIP3    H2 5221   5.500   5.165   2.372
 1753TIP3   OH2 5222   1.578   0.794   4.377
 1753TIP3    H1 5223   1.635   0.770   4.304
 1753TIP3    H2 5224   1.498   0.744   4.361
 1754TIP3   OH2 5225   4.884   5.164   4.042
 1754TIP3    H1 5226   4.851   5.104   3.975
 1754TIP3    H2 5227   4.828   5.149   4.118
 1755TIP3   OH2 5228   0.477   0.924   0.614
 1755TIP3    H1 5229   0.562   0.945   0.652
 1755TIP3    H2 5230   0.414   0.962   0.675
 1756TIP3   OH2 5231   3.671   0.993   5.287
 1756TIP3    H1 5232   3.761   1.018   5.309
 1756TIP3    H2 5233   3.670   0.898   5.291
 1757TIP3   OH2 5234   1.068   5.296   1.196
 1757TIP3    H1 5235   1.129   5.224   1.183
 1757TIP3    H2 5236   0.982   5.259   1.178
 1758TIP3   OH2 5237   5.574   1.844   0.173
 1758TIP3    H1 5238   5.546   1.866   0.262
 1758TIP3    H2 5239   5.562   1.749   0.167
 1759TIP3   OH2 5240   1.333   1.575   3.018
 1759TIP3    H1 5241   1.410   1.529   3.052
 1759TIP3    H2 5242   1.331   1.552   2.925
 1760TIP3   OH2 5243   6.541   5.713   3.328
 1760TIP3    H1 5244   6.601   5.776   3.286
 1760TIP3    H2 5245   6.490   5.766   3.389
 1761TIP3   OH2 5246   0.469   4.184   5.644
 1761TIP3    H1 5247   0.494   4.144   5.560
 1761TIP3    H2 5248   0.551   4.220   5.679
 1762TIP3   OH2 5249   2.287   6.589   1.237
 1762TIP3    H1 5250   2.204   6.590   1.188
 1762TIP3    H2 5251   2.347   6.639   1.182
 1763TIP3   OH2 5252   6.255   5.047   1.214
 1763TIP3    H1 5253   6.182   5.065   1.154
 1763TIP3    H2 5254   6.329   5.026   1.156
 1764TIP3   OH2 5255   0.087   3.975   4.211
 1764TIP3    H1 5256   0.154   4.041   4.224
 1764TIP3    H2 5257   0.114   3.901   4.266
 1765TIP3   OH2 5258   6.733   0.578   3.244
 1765TIP3    H1 5259   6.648   0.562   3.201
 1765TIP3    H2 5260   6.716   0.561   3.337
 1766TIP3   OH2 5261   0.831   4.792   5.609
 1766TIP3    H1 5262   0.793   4.709   5.639
 1766TIP3    H2 5263   0.768   4.825   5.545
 1767TIP3   OH2 5264   2.699   3.680   3.837
 1767TIP3    H1 5265   2.762   3.631   3.784
 1767TIP3    H2 5266   2.753   3.738   3.891
 1768TIP3   OH2 5267   6.188   1.122   0.241
 1768TIP3    H1 5268   6.241   1.134   0.162
 1768TIP3    H2 5269   6.173   1.028   0.246
 1769TIP3   OH2 5270   6.297   3.860   5.643
 1769TIP3    H1 5271   6.312   3.955   5.639
 1769TIP3    H2 5272   6.213   3.851   5.688
 1770TIP3   OH2 5273   7.154   2.274   0.807
 1770TIP3    H1 5274   7.129   2.184   0.825
 1770TIP3    H2 5275   7.104   2.298   0.729
 1771TIP3   OH2 5276   0.618   2.851   0.738
 1771TIP3    H1 5277   0.708   2.867   0.709
 1771TIP3    H2 5278   0.565   2.913   0.689
 1772TIP3   OH2 5279   0.392   5.415   5.051
 1772TIP3    H1 5280   0.339   5.494   5.042
 1772TIP3    H2 5281   0.438   5.408   4.967
 1773TIP3   OH2 5282   5.448   2.953   3.227
 1773TIP3    H1 5283   5.380   3.003   3.181
 1773TIP3    H2 5284   5.410   2.934   3.313
 1774TIP3   OH2 5285   5.813   5.709   4.803
 1774TIP3    H1 5286   5.879   5.677   4.743
 1774TIP3    H2 5287   5.836   5.670   4.887
 1775TIP3   OH2 5288   1.516   2.416   4.595
 1775TIP3    H1 5289   1.607   2.446   4.602
 1775TIP3    H2 5290   1.519   2.349   4.527
 1776TIP3   OH2 5291   0.974   1.291   0.941
 1776TIP3    H1 5292   1.022   1.264   1.019
 1776TIP3    H2 5293   1.042   1.324   0.882
 1777TIP3   OH2 5294   1.968   0.836   4.142
 1777TIP3    H1 5295   2.050   0.788   4.154
 1777TIP3    H2 5296   1.996   0.927   4.128
 1778TIP3   OH2 5297   4.475   1.446   3.964
 1778TIP3    H1 5298   4.489   1.536   3.995
 1778TIP3    H2 5299   4.510   1.445   3.875
 1779TIP3   OH2 5300   3.871   4.256   1.910
 1779TIP3    H1 5301   3.868   4.285   1.819
 1779TIP3    H2 5302   3.952   4.205   1.916
 1780TIP3   OH2 5303   3.553   0.671   5.144
 1780TIP3    H1 5304   3.573   0.709   5.059
 1780TIP3    H2 5305   3.622   0.606   5.159
 1781TIP3   OH2 5306   3.993   2.974   4.267
 1781TIP3    H1 5307   3.969   3.045   4.207
 1781TIP3    H2 5308   3.987   3.013   4.354
 1782TIP3   OH2 5309   0.916   6.344   1.277
 1782TIP3    H1 5310   0.913   6.438   1.263
 1782TIP3    H2 5311   0.930   6.307   1.190
 1783TIP3   OH2 5312   2.030   6.305   2.463
 1783TIP3    H1 5313   2.019   6.387   2.415
 1783TIP3    H2 5314   2.116   6.272   2.436
 1784TIP3   OH2 5315   7.092   4.889   2.466
 1784TIP3    H1 5316   7.005   4.911   2.433
 1784TIP3    H2 5317   7.100   4.937   2.547
 1785TIP3   OH2 5318   3.841   6.675   3.136
 1785TIP3    H1 5319   3.862   6.749   3.194
 1785TIP3    H2 5320   3.865   6.705   3.049
 1786TIP3   OH2 5321   2.756   3.420   4.607
 1786TIP3    H1 5322   2.685   3.454   4.662
 1786TIP3    H2 5323   2.832   3.473   4.631
 1787TIP3   OH2 5324   6.549   4.425   4.946
 1787TIP3    H1 5325   6.631   4.454   4.985
 1787TIP3    H2 5326   6.497   4.504   4.936
 1788TIP3   OH2 5327   3.477   0.121   2.843
 1788TIP3    H1 5328   3.486   0.070   2.923
 1788TIP3    H2 5329   3.557   0.173   2.838
 1789TIP3   OH2 5330   2.619   3.554   5.816
 1789TIP3    H1 5331   2.666   3.599   5.745
 1789TIP3    H2 5332   2.567   3.487   5.773
 1790TIP3   OH2 5333   5.566   5.485   4.295
 1790TIP3    H1 5334   5.584   5.552   4.229
 1790TIP3    H2 5335   5.504   5.527   4.355
 1791TIP3   OH2 5336   4.965   6.171   3.438
 1791TIP3    H1 5337   5.022   6.172   3.361
 1791TIP3    H2 5338   4.954   6.078   3.458
 1792TIP3   OH2 5339   0.229   0.097   3.643
 1792TIP3    H1 5340   0.269   0.135   3.565
 1792TIP3    H2 5341   0.271   0.143   3.716
 1793TIP3   OH2 5342   4.872   2.954   5.792
 1793TIP3    H1 5343   4.908   2.965   5.880
 1793TIP3    H2 5344   4.904   3.029   5.743
 1794TIP3   OH2 5345   4.508   2.974   3.829
 1794TIP3    H1 5346   4.510   2.952   3.922
 1794TIP3    H2 5347   4.415   2.974   3.806
 1795TIP3   OH2 5348   4.524   6.577   4.074
 1795TIP3    H1 5349   4.460   6.620   4.018
 1795TIP3    H2 5350   4.482   6.571   4.159
 1796TIP3   OH2 5351   4.354   0.161   4.186
 1796TIP3    H1 5352   4.374   0.079   4.232
 1796TIP3    H2 5353   4.428   0.218   4.207
 1797TIP3   OH2 5354   0.142   0.005   0.860
 1797TIP3    H1 5355   0.055   0.012   0.901
 1797TIP3    H2 5356   0.135   0.060   0.782
 1798TIP3   OH2 5357   4.105   2.500   0.214
 1798TIP3    H1 5358   4.154   2.581   0.229
 1798TIP3    H2 5359   4.164   2.446   0.161
 1799TIP3   OH2 5360   3.079   6.471   3.745
 1799TIP3    H1 5361   3.018   6.448   3.815
 1799TIP3    H2 5362   3.165   6.444   3.777
 1800TIP3   OH2 5363   4.983   1.530   3.277
 1800TIP3    H1 5364   4.997   1.487   3.362
 1800TIP3    H2 5365   5.044   1.486   3.218
 1801TIP3   OH2 5366   5.179   2.087   2.375
 1801TIP3    H1 5367   5.109   2.085   2.441
 1801TIP3    H2 5368   5.253   2.128   2.420
 1802TIP3   OH2 5369   1.022   1.658   5.311
 1802TIP3    H1 5370   1.058   1.747   5.315
 1802TIP3    H2 5371   1.063   1.613   5.385
 1803TIP3   OH2 5372   1.025   1.694   0.924
 1803TIP3    H1 5373   0.950   1.693   0.864
 1803TIP3    H2 5374   1.070   1.776   0.905
 1804TIP3   OH2 5375   1.221   6.106   1.576
 1804TIP3    H1 5376   1.233   6.052   1.498
 1804TIP3    H2 5377   1.303   6.096   1.625
 1805TIP3   OH2 5378   4.525   3.841   2.649
 1805TIP3    H1 5379   4.525   3.937   2.653
 1805TIP3    H2 5380   4.449   3.819   2.595
 1806TIP3   OH2 5381   4.921   5.551   5.085
 1806TIP3    H1 5382   4.881   5.638   5.076
 1806TIP3    H2 5383   4.903   5.508   5.001
 1807TIP3   OH2 5384   2.887   2.297   4.261
 1807TIP3    H1 5385   2.822   2.273   4.195
 1807TIP3    H2 5386   2.950   2.352   4.214
 1808TIP3   OH2 5387   0.428   4.543   2.715
 1808TIP3    H1 5388   0.461   4.453   2.717
 1808TIP3    H2 5389   0.418   4.562   2.622
 1809TIP3   OH2 5390   4.733   2.038   5.559
 1809TIP3    H1 5391   4.718   2.067   5.469
 1809TIP3    H2 5392   4.700   2.111   5.613
 1810TIP3   OH2 5393   0.603   1.381   5.134
 1810TIP3    H1 5394   0.658   1.419   5.203
 1810TIP3    H2 5395   0.514   1.407   5.158
 1811TIP3   OH2 5396   0.937   5.351   5.497
 1811TIP3    H1 5397   0.905   5.441   5.497
 1811TIP3    H2 5398   0.874   5.303   5.550
 1812TIP3   OH2 5399   3.168   3.519   0.427
 1812TIP3    H1 5400   3.253   3.505   0.469
 1812TIP3    H2 5401   3.109   3.543   0.499
 1813TIP3   OH2 5402   1.258   5.597   4.491
 1813TIP3    H1 5403   1.213   5.587   4.407
 1813TIP3    H2 5404   1.351   5.605   4.467
 1814TIP3   OH2 5405   7.134   4.628   2.385
 1814TIP3    H1 5406   7.046   4.645   2.351
 1814TIP3    H2 5407   7.163   4.712   2.419
 1815TIP3   OH2 5408   0.427   5.532   2.052
 1815TIP3    H1 5409   0.442   5.440   2.029
 1815TIP3    H2 5410   0.348   5.555   2.004
 1816TIP3   OH2 5411   0.891   4.328   2.798
 1816TIP3    H1 5412   0.854   4.318   2.711
 1816TIP3    H2 5413   0.904   4.239   2.830
 1817TIP3   OH2 5414   4.476   5.504   5.205
 1817TIP3    H1 5415   4.429   5.493   5.287
 1817TIP3    H2 5416   4.529   5.583   5.218
 1818TIP3   OH2 5417   6.678   6.416   2.455
 1818TIP3    H1 5418   6.588   6.442   2.433
 1818TIP3    H2 5419   6.675   6.321   2.457
 1819TIP3   OH2 5420   6.060   3.402   3.987
 1819TIP3    H1 5421   6.127   3.351   4.034
 1819TIP3    H2 5422   6.042   3.476   4.044
 1820TIP3   OH2 5423   5.877   4.425   2.400
 1820TIP3    H1 5424   5.920   4.403   2.317
 1820TIP3    H2 5425   5.828   4.505   2.381
 1821TIP3   OH2 5426   6.182   5.715   2.406
 1821TIP3    H1 5427   6.110   5.713   2.469
 1821TIP3    H2 5428   6.139   5.721   2.320
 1822TIP3   OH2 5429   5.364   1.611   3.977
 1822TIP3    H1 5430   5.281   1.565   3.990
 1822TIP3    H2 5431   5.389   1.592   3.887
 1823TIP3   OH2 5432   4.109   6.499   1.403
 1823TIP3    H1 5433   4.156   6.582   1.408
 1823TIP3    H2 5434   4.144   6.455   1.326
 1824TIP3   OH2 5435   2.776   3.871   2.814
 1824TIP3    H1 5436   2.867   3.897   2.806
 1824TIP3    H2 5437   2.741   3.930   2.882
 1825TIP3   OH2 5438   6.833   0.108   3.336
 1825TIP3    H1 5439   6.877   0.138   3.257
 1825TIP3    H2 5440   6.829   0.013   3.327
 1826TIP3   OH2 5441   3.624   2.039   0.849
 1826TIP3    H1 5442   3.637   1.951   0.814
 1826TIP3    H2 5443   3.679   2.043   0.927
 1827TIP3   OH2 5444   5.504   3.634   0.556
 1827TIP3    H1 5445   5.493   3.549   0.598
 1827TIP3    H2 5446   5.440   3.691   0.599
 1828TIP3   OH2 5447   4.898   1.019   1.907
 1828TIP3    H1 5448   4.928   1.009   1.816
 1828TIP3    H2 5449   4.977   1.008   1.960
 1829TIP3   OH2 5450   5.795   3.500   5.341
 1829TIP3    H1 5451   5.764   3.464   5.258
 1829TIP3    H2 5452   5.868   3.443   5.366
 1830TIP3   OH2 5453   4.188   6.013   1.872
 1830TIP3    H1 5454   4.099   5.978   1.869
 1830TIP3    H2 5455   4.176   6.107   1.885
 1831TIP3   OH2 5456   2.291   4.410   4.987
 1831TIP3    H1 5457   2.272   4.322   4.954
 1831TIP3    H2 5458   2.210   4.438   5.030
 1832TIP3   OH2 5459   2.604   6.432   2.364
 1832TIP3    H1 5460   2.537   6.472   2.420
 1832TIP3    H2 5461   2.560   6.417   2.280
 1833TIP3   OH2 5462   1.582   1.802   1.223
 1833TIP3    H1 5463   1.601   1.819   1.316
 1833TIP3    H2 5464   1.624   1.875   1.177
 1834TIP3   OH2 5465   4.571   5.445   1.532
 1834TIP3    H1 5466   4.583   5.530   1.573
 1834TIP3    H2 5467   4.476   5.434   1.525
 1835TIP3   OH2 5468   2.180   2.625   4.388
 1835TIP3    H1 5469   2.268   2.594   4.411
 1835TIP3    H2 5470   2.174   2.610   4.294
 1836TIP3   OH2 5471   3.509   4.462   4.614
 1836TIP3    H1 5472   3.508   4.400   4.688
 1836TIP3    H2 5473   3.421   4.501   4.615
 1837TIP3   OH2 5474   0.383   1.418   5.521
 1837TIP3    H1 5475   0.300   1.378   5.549
 1837TIP3    H2 5476   0.390   1.497   5.574
 1838TIP3   OH2 5477   6.045   3.663   1.179
 1838TIP3    H1 5478   6.124   3.678   1.232
 1838TIP3    H2 5479   5.973   3.670   1.242
 1839TIP3   OH2 5480   2.358   6.547   0.761
 1839TIP3    H1 5481   2.318   6.633   0.773
 1839TIP3    H2 5482   2.347   6.503   0.845
 1840TIP3   OH2 5483   1.899   6.640   3.902
 1840TIP3    H1 5484   1.889   6.695   3.825
 1840TIP3    H2 5485   1.827   6.665   3.960
 1841TIP3   OH2 5486   4.906   1.693   0.966
 1841TIP3    H1 5487   4.890   1.619   0.907
 1841TIP3    H2 5488   4.829   1.696   1.023
 1842TIP3   OH2 5489   5.362   4.406   4.044
 1842TIP3    H1 5490   5.289   4.428   3.985
 1842TIP3    H2 5491   5.420   4.482   4.038
 1843TIP3   OH2 5492   3.386   6.619   2.650
 1843TIP3    H1 5493   3.377   6.525   2.664
 1843TIP3    H2 5494   3.396   6.628   2.555
 1844TIP3   OH2 5495   4.152   0.493   0.632
 1844TIP3    H1 5496   4.180   0.418   0.580
 1844TIP3    H2 5497   4.232   0.544   0.646
 1845TIP3   OH2 5498   6.490   3.864   0.538
 1845TIP3    H1 5499   6.485   3.861   0.633
 1845TIP3    H2 5500   6.432   3.793   0.509
 1846TIP3   OH2 5501   4.102   1.757   0.506
 1846TIP3    H1 5502   4.101   1.665   0.532
 1846TIP3    H2 5503   4.019   1.792   0.540
 1847TIP3   OH2 5504   2.433   5.850   4.720
 1847TIP3    H1 5505   2.422   5.771   4.667
 1847TIP3    H2 5506   2.387   5.918   4.671
 1848TIP3   OH2 5507   4.017   0.438   1.890
 1848TIP3    H1 5508   3.932   0.434   1.934
 1848TIP3    H2 5509   4.018   0.524   1.847
 1849TIP3   OH2 5510   4.927   4.697   0.661
 1849TIP3    H1 5511   5.021   4.682   0.652
 1849TIP3    H2 5512   4.913   4.784   0.622
 1850TIP3   OH2 5513   0.247   5.287   2.350
 1850TIP3    H1 5514   0.201   5.332   2.279
 1850TIP3    H2 5515   0.336   5.275   2.316
 1851TIP3   OH2 5516   0.469   4.237   2.410
 1851TIP3    H1 5517   0.471   4.147   2.378
 1851TIP3    H2 5518   0.503   4.289   2.337
 1852TIP3   OH2 5519   4.112   1.557   3.100
 1852TIP3    H1 5520   4.134   1.647   3.125
 1852TIP3    H2 5521   4.150   1.503   3.170
 1853TIP3   OH2 5522   2.268   4.179   4.842
 1853TIP3    H1 5523   2.186   4.150   4.881
 1853TIP3    H2 5524   2.241   4.229   4.765
 1854TIP3   OH2 5525   4.806   2.370   0.474
 1854TIP3    H1 5526   4.770   2.332   0.554
 1854TIP3    H2 5527   4.844   2.454   0.503
 1855TIP3   OH2 5528   2.733   3.229   3.969
 1855TIP3    H1 5529   2.731   3.300   4.033
 1855TIP3    H2 5530   2.658   3.174   3.992
 1856TIP3   OH2 5531   7.045   1.280   2.573
 1856TIP3    H1 5532   6.987   1.205   2.586
 1856TIP3    H2 5533   7.050   1.291   2.478
 1857TIP3   OH2 5534   1.955   0.237   4.864
 1857TIP3    H1 5535   1.885   0.296   4.837
 1857TIP3    H2 5536   1.983   0.271   4.949
 1858TIP3   OH2 5537   1.249   4.818   4.313
 1858TIP3    H1 5538   1.213   4.732   4.337
 1858TIP3    H2 5539   1.292   4.849   4.393
 1859TIP3   OH2 5540   5.707   4.422   0.635
 1859TIP3    H1 5541   5.623   4.460   0.612
 1859TIP3    H2 5542   5.762   4.497   0.658
 1860TIP3   OH2 5543   5.001   0.767   3.573
 1860TIP3    H1 5544   4.965   0.692   3.524
 1860TIP3    H2 5545   5.092   0.773   3.543
 1861TIP3   OH2 5546   0.247   3.632   0.720
 1861TIP3    H1 5547   0.277   3.546   0.691
 1861TIP3    H2 5548   0.153   3.632   0.701
 1862TIP3   OH2 5549   0.229   3.747   0.143
 1862TIP3    H1 5550   0.215   3.708   0.230
 1862TIP3    H2 5551   0.169   3.699   0.086
 1863TIP3   OH2 5552   0.331   5.761   2.258
 1863TIP3    H1 5553   0.363   5.725   2.175
 1863TIP3    H2 5554   0.381   5.715   2.325
 1864TIP3   OH2 5555   0.731   4.083   3.545
 1864TIP3    H1 5556   0.698   3.994   3.530
 1864TIP3    H2 5557   0.745   4.119   3.458
 1865TIP3   OH2 5558   2.174   2.658   5.222
 1865TIP3    H1 5559   2.246   2.657   5.158
 1865TIP3    H2 5560   2.144   2.568   5.226
 1866TIP3   OH2 5561   5.481   2.558   4.336
 1866TIP3    H1 5562   5.438   2.627   4.286
 1866TIP3    H2 5563   5.444   2.477   4.303
 1867TIP3   OH2 5564   5.004   5.581   5.873
 1867TIP3    H1 5565   5.089   5.613   5.905
 1867TIP3    H2 5566   5.025   5.498   5.829
 1868TIP3   OH2 5567   3.407   4.822   0.188
 1868TIP3    H1 5568   3.502   4.813   0.191
 1868TIP3    H2 5569   3.378   4.806   0.278
 1869TIP3   OH2 5570   6.714   2.323   4.034
 1869TIP3    H1 5571   6.647   2.315   4.102
 1869TIP3    H2 5572   6.667   2.310   3.952
 1870TIP3   OH2 5573   6.610   6.390   4.753
 1870TIP3    H1 5574   6.651   6.390   4.667
 1870TIP3    H2 5575   6.554   6.467   4.753
 1871TIP3   OH2 5576   0.499   3.192   3.864
 1871TIP3    H1 5577   0.456   3.272   3.834
 1871TIP3    H2 5578   0.486   3.129   3.793
 1872TIP3   OH2 5579   3.478   5.964   1.564
 1872TIP3    H1 5580   3.400   5.915   1.538
 1872TIP3    H2 5581   3.482   6.036   1.501
 1873TIP3   OH2 5582   5.276   5.521   2.964
 1873TIP3    H1 5583   5.270   5.439   2.915
 1873TIP3    H2 5584   5.204   5.517   3.026
 1874TIP3   OH2 5585   2.256   1.634   2.084
 1874TIP3    H1 5586   2.304   1.664   2.007
 1874TIP3    H2 5587   2.271   1.702   2.150
 1875TIP3   OH2 5588   2.312   2.768   0.678
 1875TIP3    H1 5589   2.398   2.727   0.677
 1875TIP3    H2 5590   2.323   2.845   0.734
 1876TIP3   OH2 5591   1.659   5.593   2.816
 1876TIP3    H1 5592   1.691   5.683   2.826
 1876TIP3    H2 5593   1.641   5.585   2.723
 1877TIP3   OH2 5594   2.369   4.892   4.615
 1877TIP3    H1 5595   2.415   4.833   4.675
 1877TIP3    H2 5596   2.359   4.974   4.664
 1878TIP3   OH2 5597   5.739   3.861   2.157
 1878TIP3    H1 5598   5.722   3.776   2.116
 1878TIP3    H2 5599   5.793   3.840   2.234
 1879TIP3   OH2 5600   1.445   2.819   4.730
 1879TIP3    H1 5601   1.395   2.758   4.677
 1879TIP3    H2 5602   1.385   2.892   4.748
 1880TIP3   OH2 5603   2.461   2.639   4.622
 1880TIP3    H1 5604   2.457   2.561   4.677
 1880TIP3    H2 5605   2.517   2.700   4.670
 1881TIP3   OH2 5606   3.652   1.976   5.749
 1881TIP3    H1 5607   3.727   2.022   5.784
 1881TIP3    H2 5608   3.658   1.887   5.785
 1882TIP3   OH2 5609   4.342   5.293   3.220
 1882TIP3    H1 5610   4.366   5.279   3.312
 1882TIP3    H2 5611   4.278   5.224   3.201
 1883TIP3   OH2 5612   5.740   4.268   3.293
 1883TIP3    H1 5613   5.773   4.343   3.244
 1883TIP3    H2 5614   5.810   4.249   3.357
 1884TIP3   OH2 5615   2.855   1.938   1.896
 1884TIP3    H1 5616   2.930   1.936   1.956
 1884TIP3    H2 5617   2.895   1.950   1.809
 1885TIP3   OH2 5618   4.537   2.687   2.340
 1885TIP3    H1 5619   4.550   2.782   2.337
 1885TIP3    H2 5620   4.540   2.665   2.433
 1886TIP3   OH2 5621   1.282   0.957   3.355
 1886TIP3    H1 5622   1.281   1.052   3.367
 1886TIP3    H2 5623   1.302   0.922   3.441
 1887TIP3   OH2 5624   0.111   2.932   2.164
 1887TIP3    H1 5625   0.102   2.889   2.079
 1887TIP3    H2 5626   0.023   2.928   2.202
 1888TIP3   OH2 5627   2.070   6.670   5.009
 1888TIP3    H1 5628   2.010   6.629   5.070
 1888TIP3    H2 5629   2.049   6.764   5.013
 1889TIP3   OH2 5630   5.966   3.868   3.430
 1889TIP3    H1 5631   6.019   3.832   3.359
 1889TIP3    H2 5632   5.894   3.805   3.440
 1890TIP3   OH2 5633   7.071   4.283   1.897
 1890TIP3    H1 5634   7.085   4.249   1.809
 1890TIP3    H2 5635   7.132   4.234   1.952
 1891TIP3   OH2 5636   5.092   0.675   1.380
 1891TIP3    H1 5637   5.082   0.766   1.353
 1891TIP3    H2 5638   5.183   0.654   1.360
 1892TIP3   OH2 5639   4.551   2.668   0.543
 1892TIP3    H1 5640   4.494   2.724   0.595
 1892TIP3    H2 5641   4.637   2.709   0.548
 1893TIP3   OH2 5642   1.472   2.599   5.766
 1893TIP3    H1 5643   1.448   2.598   5.673
 1893TIP3    H2 5644   1.393   2.631   5.811
 1894TIP3   OH2 5645   2.418   2.138   0.390
 1894TIP3    H1 5646   2.397   2.145   0.483
 1894TIP3    H2 5647   2.339   2.166   0.345
 1895TIP3   OH2 5648   4.563   0.841   0.545
 1895TIP3    H1 5649   4.567   0.804   0.457
 1895TIP3    H2 5650   4.624   0.915   0.544
 1896TIP3   OH2 5651   3.426   3.254   3.307
 1896TIP3    H1 5652   3.443   3.287   3.396
 1896TIP3    H2 5653   3.361   3.314   3.271
 1897TIP3   OH2 5654   4.111   1.459   0.736
 1897TIP3    H1 5655   4.094   1.461   0.641
 1897TIP3    H2 5656   4.111   1.551   0.762
 1898TIP3   OH2 5657   2.840   1.967   5.124
 1898TIP3    H1 5658   2.802   2.023   5.057
 1898TIP3    H2 5659   2.798   1.882   5.111
 1899TIP3   OH2 5660   2.172   4.082   5.644
 1899TIP3    H1 5661   2.106   4.052   5.582
 1899TIP3    H2 5662   2.243   4.019   5.636
 1900TIP3   OH2 5663   0.492   5.715   0.280
 1900TIP3    H1 5664   0.444   5.657   0.339
 1900TIP3    H2 5665   0.551   5.656   0.232
 1901TIP3   OH2 5666   4.178   4.307   4.484
 1901TIP3    H1 5667   4.092   4.288   4.447
 1901TIP3    H2 5668   4.172   4.397   4.515
 1902TIP3   OH2 5669   2.200   6.380   1.757
 1902TIP3    H1 5670   2.208   6.423   1.672
 1902TIP3    H2 5671   2.124   6.322   1.747
 1903TIP3   OH2 5672   5.208   6.222   1.705
 1903TIP3    H1 5673   5.135   6.282   1.719
 1903TIP3    H2 5674   5.167   6.141   1.676
 1904TIP3   OH2 5675   0.551   6.415   3.028
 1904TIP3    H1 5676   0.463   6.401   2.994
 1904TIP3    H2 5677   0.594   6.330   3.024
 1905TIP3   OH2 5678   1.610   1.792   5.425
 1905TIP3    H1 5679   1.557   1.780   5.346
 1905TIP3    H2 5680   1.672   1.719   5.423
 1906TIP3   OH2 5681   0.183   5.614   0.124
 1906TIP3    H1 5682   0.128   5.687   0.152
 1906TIP3    H2 5683   0.241   5.597   0.199
 1907TIP3   OH2 5684   0.283   0.474   5.899
 1907TIP3    H1 5685   0.254   0.399   5.950
 1907TIP3    H2 5686   0.213   0.489   5.837
 1908TIP3   OH2 5687   1.595   2.686   4.210
 1908TIP3    H1 5688   1.660   2.670   4.278
 1908TIP3    H2 5689   1.511   2.671   4.254
 1909TIP3   OH2 5690   6.126   4.040   5.372
 1909TIP3    H1 5691   6.087   4.111   5.321
 1909TIP3    H2 5692   6.214   4.031   5.336
 1910TIP3   OH2 5693   4.557   0.297   2.892
 1910TIP3    H1 5694   4.465   0.272   2.895
 1910TIP3    H2 5695   4.604   0.214   2.877
 1911TIP3   OH2 5696   5.808   5.960   4.671
 1911TIP3    H1 5697   5.740   6.028   4.670
 1911TIP3    H2 5698   5.771   5.890   4.725
 1912TIP3   OH2 5699   6.856   0.537   2.998
 1912TIP3    H1 5700   6.804   0.582   3.064
 1912TIP3    H2 5701   6.841   0.444   3.015
 1913TIP3   OH2 5702   3.604   1.372   2.435
 1913TIP3    H1 5703   3.665   1.371   2.508
 1913TIP3    H2 5704   3.520   1.396   2.473
 1914TIP3   OH2 5705   7.014   4.862   4.828
 1914TIP3    H1 5706   7.086   4.839   4.886
 1914TIP3    H2 5707   7.007   4.787   4.768
 1915TIP3   OH2 5708   4.677   3.316   3.733
 1915TIP3    H1 5709   4.609   3.320   3.800
 1915TIP3    H2 5710   4.666   3.397   3.683
 1916TIP3   OH2 5711   6.947   6.678   5.231
 1916TIP3    H1 5712   6.887   6.701   5.301
 1916TIP3    H2 5713   6.904   6.606   5.185
 1917TIP3   OH2 5714   0.521   4.621   1.794
 1917TIP3    H1 5715   0.614   4.634   1.775
 1917TIP3    H2 5716   0.519   4.550   1.857
 1918TIP3   OH2 5717   6.101   4.061   4.448
 1918TIP3    H1 5718   6.054   3.979   4.433
 1918TIP3    H2 5719   6.132   4.055   4.538
 1919TIP3   OH2 5720   1.614   4.837   0.333
 1919TIP3    H1 5721   1.587   4.922   0.367
 1919TIP3    H2 5722   1.662   4.858   0.252
 1920TIP3   OH2 5723   4.019   0.183   1.051
 1920TIP3    H1 5724   3.981   0.154   1.134
 1920TIP3    H2 5725   3.946   0.179   0.989
 1921TIP3   OH2 5726   4.386   5.603   1.188
 1921TIP3    H1 5727   4.377   5.553   1.107
 1921TIP3    H2 5728   4.310   5.661   1.188
 1922TIP3   OH2 5729   1.884   4.908   0.231
 1922TIP3    H1 5730   1.961   4.938   0.278
 1922TIP3    H2 5731   1.835   4.988   0.212
 1923TIP3   OH2 5732   5.484   1.932   0.409
 1923TIP3    H1 5733   5.507   1.862   0.471
 1923TIP3    H2 5734   5.389   1.938   0.414
 1924TIP3   OH2 5735   4.736   0.760   0.965
 1924TIP3    H1 5736   4.735   0.855   0.982
 1924TIP3    H2 5737   4.744   0.721   1.052
 1925TIP3   OH2 5738   3.063   0.237   3.333
 1925TIP3    H1 5739   3.110   0.195   3.405
 1925TIP3    H2 5740   3.061   0.170   3.264
 1926TIP3   OH2 5741   3.812   2.443   0.272
 1926TIP3    H1 5742   3.897   2.470   0.237
 1926TIP3    H2 5743   3.826   2.436   0.366
 1927TIP3   OH2 5744   2.615   6.603   5.040
 1927TIP3    H1 5745   2.521   6.617   5.045
 1927TIP3    H2 5746   2.635   6.542   5.111
 1928TIP3   OH2 5747   4.445   0.916   5.170
 1928TIP3    H1 5748   4.473   0.855   5.238
 1928TIP3    H2 5749   4.526   0.950   5.133
 1929TIP3   OH2 5750   2.661   0.247   2.798
 1929TIP3    H1 5751   2.628   0.184   2.862
 1929TIP3    H2 5752   2.729   0.295   2.845
 1930TIP3   OH2 5753   1.696   3.232   3.161
 1930TIP3    H1 5754   1.734   3.271   3.239
 1930TIP3    H2 5755   1.603   3.219   3.183
 1931TIP3   OH2 5756   4.725   2.102   2.022
 1931TIP3    H1 5757   4.630   2.090   2.014
 1931TIP3    H2 5758   4.741   2.103   2.116
 1932TIP3   OH2 5759   0.363   1.464   5.222
 1932TIP3    H1 5760   0.366   1.402   5.295
 1932TIP3    H2 5761   0.334   1.546   5.262
 1933TIP3   OH2 5762   1.769   6.424   0.031
 1933TIP3    H1 5763   1.807   6.348   0.074
 1933TIP3    H2 5764   1.825   6.497   0.056
 1934TIP3   OH2 5765   4.505   6.775   5.031
 1934TIP3    H1 5766   4.446   6.806   4.962
 1934TIP3    H2 5767   4.478   6.684   5.046
 1935TIP3   OH2 5768   0.441   4.677   0.046
 1935TIP3    H1 5769   0.400   4.623  -0.021
 1935TIP3    H2 5770   0.369   4.704   0.103
 1936TIP3   OH2 5771   1.049   4.914   1.272
 1936TIP3    H1 5772   0.986   4.844   1.289
 1936TIP3    H2 5773   1.120   4.872   1.222
 1937TIP3   OH2 5774   5.033   4.988   2.324
 1937TIP3    H1 5775   4.946   4.973   2.360
 1937TIP3    H2 5776   5.016   5.014   2.233
 1938TIP3   OH2 5777   5.492   0.254   3.394
 1938TIP3    H1 5778   5.480   0.162   3.370
 1938TIP3    H2 5779   5.407   0.282   3.427
 1939TIP3   OH2 5780   2.037   0.405   2.589
 1939TIP3    H1 5781   2.126   0.411   2.553
 1939TIP3    H2 5782   2.010   0.496   2.602
 1940TIP3   OH2 5783   5.194   3.788   3.830
 1940TIP3    H1 5784   5.236   3.739   3.900
 1940TIP3    H2 5785   5.149   3.860   3.875
 1941TIP3   OH2 5786   7.158   3.098   0.914
 1941TIP3    H1 5787   7.075   3.072   0.874
 1941TIP3    H2 5788   7.158   3.055   0.999
 1942TIP3   OH2 5789   0.201   1.555   1.683
 1942TIP3    H1 5790   0.137   1.518   1.744
 1942TIP3    H2 5791   0.285   1.523   1.715
 1943TIP3   OH2 5792   7.063   4.400   1.171
 1943TIP3    H1 5793   7.010   4.423   1.095
 1943TIP3    H2 5794   7.006   4.419   1.246
 1944TIP3   OH2 5795   0.768   5.020   0.639
 1944TIP3    H1 5796   0.696   5.062   0.591
 1944TIP3    H2 5797   0.825   5.093   0.664
 1945TIP3   OH2 5798   1.026   6.791   3.095
 1945TIP3    H1 5799   0.958   6.730   3.064
 1945TIP3    H2 5800   1.108   6.748   3.073
 1946TIP3   OH2 5801   4.576   6.147   0.972
 1946TIP3    H1 5802   4.534   6.101   1.046
 1946TIP3    H2 5803   4.527   6.229   0.965
 1947TIP3   OH2 5804   0.120   1.580   3.455
 1947TIP3    H1 5805   0.185   1.530   3.405
 1947TIP3    H2 5806   0.039   1.568   3.407
 1948TIP3   OH2 5807   7.059   1.671   4.378
 1948TIP3    H1 5808   7.132   1.690   4.318
 1948TIP3    H2 5809   7.094   1.692   4.465
 1949TIP3   OH2 5810   6.664   5.451   4.835
 1949TIP3    H1 5811   6.657   5.508   4.911
 1949TIP3    H2 5812   6.746   5.403   4.849
 1950TIP3   OH2 5813   4.075   3.706   3.770
 1950TIP3    H1 5814   4.109   3.747   3.691
 1950TIP3    H2 5815   3.987   3.741   3.780
 1951TIP3   OH2 5816   5.977   2.962   2.535
 1951TIP3    H1 5817   6.065   2.995   2.515
 1951TIP3    H2 5818   5.952   3.008   2.615
 1952TIP3   OH2 5819   6.107   5.078   4.129
 1952TIP3    H1 5820   6.179   5.029   4.168
 1952TIP3    H2 5821   6.126   5.170   4.151
 1953TIP3   OH2 5822   5.797   0.080   5.395
 1953TIP3    H1 5823   5.765   0.123   5.474
 1953TIP3    H2 5824   5.722   0.032   5.361
 1954TIP3   OH2 5825   4.731   6.076   3.901
 1954TIP3    H1 5826   4.777   6.086   3.985
 1954TIP3    H2 5827   4.649   6.124   3.913
 1955TIP3   OH2 5828   0.372   1.764   1.812
 1955TIP3    H1 5829   0.295   1.771   1.756
 1955TIP3    H2 5830   0.418   1.686   1.781
 1956TIP3   OH2 5831   5.327   3.910   1.973
 1956TIP3    H1 5832   5.416   3.944   1.986
 1956TIP3    H2 5833   5.323   3.832   2.028
 1957TIP3   OH2 5834   5.573   4.759   1.611
 1957TIP3    H1 5835   5.596   4.666   1.606
 1957TIP3    H2 5836   5.633   4.795   1.677
 1958TIP3   OH2 5837   1.482   4.157   4.774
 1958TIP3    H1 5838   1.528   4.125   4.852
 1958TIP3    H2 5839   1.439   4.079   4.738
 1959TIP3   OH2 5840   2.662   0.625   2.713
 1959TIP3    H1 5841   2.732   0.566   2.685
 1959TIP3    H2 5842   2.707   0.707   2.736
 1960TIP3   OH2 5843   3.511   4.423   4.021
 1960TIP3    H1 5844   3.584   4.372   3.984
 1960TIP3    H2 5845   3.506   4.392   4.112
 1961TIP3   OH2 5846   6.537   0.218   3.109
 1961TIP3    H1 5847   6.468   0.190   3.050
 1961TIP3    H2 5848   6.548   0.144   3.169
 1962TIP3   OH2 5849   5.980   5.693   1.159
 1962TIP3    H1 5850   5.999   5.755   1.229
 1962TIP3    H2 5851   6.043   5.622   1.172
 1963TIP3   OH2 5852   2.337   0.196   1.929
 1963TIP3    H1 5853   2.276   0.269   1.915
 1963TIP3    H2 5854   2.288   0.134   1.984
 1964TIP3   OH2 5855   0.428   5.217   1.063
 1964TIP3    H1 5856   0.451   5.306   1.039
 1964TIP3    H2 5857   0.470   5.203   1.148
 1965TIP3   OH2 5858   0.591   4.979   1.858
 1965TIP3    H1 5859   0.637   4.937   1.930
 1965TIP3    H2 5860   0.601   5.073   1.875
 1966TIP3   OH2 5861   3.184   5.033   5.484
 1966TIP3    H1 5862   3.141   4.972   5.424
 1966TIP3    H2 5863   3.233   4.978   5.544
 1967TIP3   OH2 5864   1.021   1.348   2.124
 1967TIP3    H1 5865   0.977   1.315   2.202
 1967TIP3    H2 5866   0.962   1.416   2.090
 1968TIP3   OH2 5867   4.223   0.548   2.058
 1968TIP3    H1 5868   4.193   0.497   1.983
 1968TIP3    H2 5869   4.310   0.578   2.034
 1969TIP3   OH2 5870   6.142   0.654   5.620
 1969TIP3    H1 5871   6.143   0.586   5.552
 1969TIP3    H2 5872   6.050   0.681   5.626
 1970TIP3   OH2 5873   3.134   3.707   0.241
 1970TIP3    H1 5874   3.165   3.641   0.303
 1970TIP3    H2 5875   3.056   3.744   0.283
 1971TIP3   OH2 5876   5.060   5.620   0.747
 1971TIP3    H1 5877   5.105   5.555   0.800
 1971TIP3    H2 5878   5.020   5.679   0.811
 1972TIP3   OH2 5879   5.568   5.853   0.254
 1972TIP3    H1 5880   5.479   5.856   0.288
 1972TIP3    H2 5881   5.562   5.889   0.165
 1973TIP3   OH2 5882   3.515   1.613   2.670
 1973TIP3    H1 5883   3.513   1.669   2.748
 1973TIP3    H2 5884   3.598   1.566   2.678
 1974TIP3   OH2 5885   2.298   1.178   3.500
 1974TIP3    H1 5886   2.393   1.182   3.504
 1974TIP3    H2 5887   2.271   1.262   3.463
 1975TIP3   OH2 5888   3.966   5.496   5.419
 1975TIP3    H1 5889   3.970   5.529   5.329
 1975TIP3    H2 5890   3.957   5.402   5.410
 1976TIP3   OH2 5891   6.959   1.233   4.589
 1976TIP3    H1 5892   6.990   1.323   4.596
 1976TIP3    H2 5893   6.867   1.237   4.612
 1977TIP3   OH2 5894   5.194   6.013   3.762
 1977TIP3    H1 5895   5.194   6.108   3.775
 1977TIP3    H2 5896   5.116   5.996   3.709
 1978TIP3   OH2 5897   0.304   5.541   1.236
 1978TIP3    H1 5898   0.343   5.560   1.322
 1978TIP3    H2 5899   0.338   5.610   1.179
 1979TIP3   OH2 5900   2.781   2.269   5.284
 1979TIP3    H1 5901   2.836   2.341   5.315
 1979TIP3    H2 5902   2.711   2.312   5.234
 1980TIP3   OH2 5903   3.883   3.402   0.770
 1980TIP3    H1 5904   3.828   3.477   0.748
 1980TIP3    H2 5905   3.947   3.438   0.832
 1981TIP3   OH2 5906   1.450   0.650   4.934
 1981TIP3    H1 5907   1.370   0.692   4.965
 1981TIP3    H2 5908   1.420   0.571   4.890
 1982TIP3   OH2 5909   4.012   0.669   2.384
 1982TIP3    H1 5910   4.105   0.649   2.383
 1982TIP3    H2 5911   4.008   0.763   2.366
 1983TIP3   OH2 5912   1.018   2.500   1.143
 1983TIP3    H1 5913   0.971   2.427   1.102
 1983TIP3    H2 5914   1.061   2.545   1.070
 1984TIP3   OH2 5915   3.744   2.416   1.951
 1984TIP3    H1 5916   3.800   2.442   2.024
 1984TIP3    H2 5917   3.720   2.499   1.909
 1985TIP3   OH2 5918   3.605   0.585   0.615
 1985TIP3    H1 5919   3.641   0.673   0.620
 1985TIP3    H2 5920   3.582   0.564   0.706
 1986TIP3   OH2 5921   1.195   5.535   1.867
 1986TIP3    H1 5922   1.184   5.491   1.783
 1986TIP3    H2 5923   1.255   5.478   1.915
 1987TIP3   OH2 5924   1.742   1.973   5.592
 1987TIP3    H1 5925   1.790   1.910   5.647
 1987TIP3    H2 5926   1.687   1.918   5.536
 1988TIP3   OH2 5927   6.725   0.726   3.898
 1988TIP3    H1 5928   6.670   0.655   3.864
 1988TIP3    H2 5929   6.677   0.761   3.973
 1989TIP3   OH2 5930   3.306   0.923   5.280
 1989TIP3    H1 5931   3.313   0.834   5.246
 1989TIP3    H2 5932   3.356   0.976   5.218
 1990TIP3   OH2 5933   1.105   6.682   0.427
 1990TIP3    H1 5934   1.062   6.626   0.491
 1990TIP3    H2 5935   1.080   6.771   0.453
 1991TIP3   OH2 5936   3.467   4.175   1.425
 1991TIP3    H1 5937   3.403   4.237   1.460
 1991TIP3    H2 5938   3.547   4.192   1.474
 1992TIP3   OH2 5939   4.421   5.309   0.670
 1992TIP3    H1 5940   4.511   5.287   0.694
 1992TIP3    H2 5941   4.401   5.251   0.597
 1993TIP3   OH2 5942   3.976   4.383   0.761
 1993TIP3    H1 5943   4.037   4.324   0.805
 1993TIP3    H2 5944   4.017   4.469   0.765
 1994TIP3   OH2 5945   4.047   3.469   4.141
 1994TIP3    H1 5946   3.985   3.481   4.069
 1994TIP3    H2 5947   3.992   3.437   4.213
 1995TIP3   OH2 5948   3.503   4.403   2.613
 1995TIP3    H1 5949   3.471   4.393   2.523
 1995TIP3    H2 5950   3.576   4.341   2.620
 1996TIP3   OH2 5951   2.880   2.747   0.319
 1996TIP3    H1 5952   2.789   2.716   0.314
 1996TIP3    H2 5953   2.926   2.698   0.251
 1997TIP3   OH2 5954   4.384   1.419   1.053
 1997TIP3    H1 5955   4.341   1.333   1.057
 1997TIP3    H2 5956   4.394   1.445   1.144
 1998TIP3   OH2 5957   3.801   5.654   3.371
 1998TIP3    H1 5958   3.889   5.675   3.338
 1998TIP3    H2 5959   3.755   5.620   3.294
 1999TIP3   OH2 5960   6.330   4.327   5.334
 1999TIP3    H1 5961   6.269   4.313   5.263
 1999TIP3    H2 5962   6.343   4.240   5.373
 2000TIP3   OH2 5963   2.697   4.550   2.098
 2000TIP3    H1 5964   2.620   4.493   2.093
 2000TIP3    H2 5965   2.662   4.638   2.087
 2001TIP3   OH2 5966   2.071   0.801   3.234
 2001TIP3    H1 5967   2.149   0.795   3.177
 2001TIP3    H2 5968   2.003   0.755   3.185
 2002TIP3   OH2 5969   3.784   3.922   0.917
 2002TIP3    H1 5970   3.791   3.957   0.828
 2002TIP3    H2 5971   3.874   3.909   0.946
 2003TIP3   OH2 5972   4.384   2.434   5.463
 2003TIP3    H1 5973   4.439   2.505   5.430
 2003TIP3    H2 5974   4.418   2.418   5.552
 2004TIP3   OH2 5975   3.998   1.482   4.980
 2004TIP3    H1 5976   3.940   1.517   5.048
 2004TIP3    H2 5977   3.941   1.469   4.904
 2005TIP3   OH2 5978   0.176   0.873   3.589
 2005TIP3    H1 5979   0.165   0.804   3.655
 2005TIP3    H2 5980   0.230   0.940   3.632
 2006TIP3   OH2 5981   7.117   0.934   3.569
 2006TIP3    H1 5982   7.211   0.937   3.590
 2006TIP3    H2 5983   7.099   1.021   3.531
 2007TIP3   OH2 5984   0.196   6.809   4.571
 2007TIP3    H1 5985   0.278   6.840   4.532
 2007TIP3    H2 5986   0.224   6.756   4.646
 2008TIP3   OH2 5987   5.937   5.591   5.700
 2008TIP3    H1 5988   5.903   5.677   5.721
 2008TIP3    H2 5989   5.873   5.529   5.735
 2009TIP3   OH2 5990   7.199   6.226   1.802
 2009TIP3    H1 5991   7.139   6.212   1.729
 2009TIP3    H2 5992   7.141   6.245   1.876
 2010TIP3   OH2 5993   0.546   1.005   0.215
 2010TIP3    H1 5994   0.638   1.006   0.190
 2010TIP3    H2 5995   0.532   0.921   0.257
 2011TIP3   OH2 5996   1.564   5.097   2.208
 2011TIP3    H1 5997   1.611   5.076   2.288
 2011TIP3    H2 5998   1.471   5.089   2.232
 2012TIP3   OH2 5999   3.277   2.986   4.845
 2012TIP3    H1 6000   3.297   3.079   4.834
 2012TIP3    H2 6001   3.339   2.957   4.912
 2013TIP3   OH2 6002   2.359   5.790   5.502
 2013TIP3    H1 6003   2.432   5.727   5.502
 2013TIP3    H2 6004   2.344   5.809   5.409
 2014TIP3   OH2 6005   6.162   1.001   0.930
 2014TIP3    H1 6006   6.150   0.978   0.838
 2014TIP3    H2 6007   6.224   1.075   0.928
 2015TIP3   OH2 6008   5.579   6.279   0.667
 2015TIP3    H1 6009   5.622   6.269   0.752
 2015TIP3    H2 6010   5.542   6.192   0.648
 2016TIP3   OH2 6011   6.414   0.335   1.426
 2016TIP3    H1 6012   6.318   0.342   1.425
 2016TIP3    H2 6013   6.434   0.292   1.509
 2017TIP3   OH2 6014   2.007   4.660   5.863
 2017TIP3    H1 6015   1.967   4.699   5.941
 2017TIP3    H2 6016   2.088   4.621   5.895
 2018TIP3   OH2 6017   3.316   6.147   4.683
 2018TIP3    H1 6018   3.250   6.207   4.720
 2018TIP3    H2 6019   3.362   6.113   4.760
 2019TIP3   OH2 6020   3.835   1.886   3.645
 2019TIP3    H1 6021   3.750   1.913   3.612
 2019TIP3    H2 6022   3.869   1.963   3.692
 2020TIP3   OH2 6023   5.478   0.195   2.030
 2020TIP3    H1 6024   5.459   0.110   1.992
 2020TIP3    H2 6025   5.494   0.252   1.955
 2021TIP3   OH2 6026   7.026   2.495   3.688
 2021TIP3    H1 6027   6.977   2.547   3.751
 2021TIP3    H2 6028   6.967   2.484   3.614
 2022TIP3   OH2 6029   4.993   2.316   2.745
 2022TIP3    H1 6030   5.034   2.297   2.829
 2022TIP3    H2 6031   5.011   2.409   2.731
 2023TIP3   OH2 6032   4.785   1.324   0.764
 2023TIP3    H1 6033   4.868   1.352   0.803
 2023TIP3    H2 6034   4.719   1.349   0.829
 2024TIP3   OH2 6035   0.559   2.928   2.731
 2024TIP3    H1 6036   0.482   2.984   2.744
 2024TIP3    H2 6037   0.523   2.841   2.713
 2025TIP3   OH2 6038   7.012   0.297   2.010
 2025TIP3    H1 6039   6.993   0.339   2.094
 2025TIP3    H2 6040   6.958   0.217   2.011
 2026TIP3   OH2 6041   4.693   1.829   2.746
 2026TIP3    H1 6042   4.741   1.909   2.770
 2026TIP3    H2 6043   4.733   1.760   2.799
 2027TIP3   OH2 6044   4.379   5.710   0.117
 2027TIP3    H1 6045   4.363   5.665   0.034
 2027TIP3    H2 6046   4.474   5.710   0.126
 2028TIP3   OH2 6047   3.392   0.951   4.321
 2028TIP3    H1 6048   3.316   0.921   4.272
 2028TIP3    H2 6049   3.466   0.902   4.283
 2029TIP3   OH2 6050   3.044   0.085   0.710
 2029TIP3    H1 6051   2.997   0.141   0.648
 2029TIP3    H2 6052   3.132   0.123   0.714
 2030TIP3   OH2 6053   0.679   3.827   5.733
 2030TIP3    H1 6054   0.615   3.824   5.662
 2030TIP3    H2 6055   0.628   3.850   5.810
 2031TIP3   OH2 6056   6.276   0.286   4.695
 2031TIP3    H1 6057   6.192   0.246   4.672
 2031TIP3    H2 6058   6.276   0.290   4.791
 2032TIP3   OH2 6059   2.763   3.243   5.126
 2032TIP3    H1 6060   2.789   3.318   5.179
 2032TIP3    H2 6061   2.673   3.224   5.153
 2033TIP3   OH2 6062   0.466   4.372   0.135
 2033TIP3    H1 6063   0.453   4.463   0.161
 2033TIP3    H2 6064   0.397   4.324   0.181
 2034TIP3   OH2 6065   2.222   6.529   1.541
 2034TIP3    H1 6066   2.185   6.614   1.563
 2034TIP3    H2 6067   2.251   6.537   1.450
 2035TIP3   OH2 6068   5.523   1.117   4.597
 2035TIP3    H1 6069   5.477   1.187   4.644
 2035TIP3    H2 6070   5.572   1.071   4.665
 2036TIP3   OH2 6071   5.246   3.615   1.193
 2036TIP3    H1 6072   5.291   3.551   1.246
 2036TIP3    H2 6073   5.294   3.617   1.110
 2037TIP3   OH2 6074   1.794   3.181   0.640
 2037TIP3    H1 6075   1.796   3.095   0.682
 2037TIP3    H2 6076   1.871   3.181   0.582
 2038TIP3   OH2 6077   0.317   1.438   3.936
 2038TIP3    H1 6078   0.320   1.482   3.851
 2038TIP3    H2 6079   0.384   1.370   3.931
 2039TIP3   OH2 6080   0.583   5.609   3.635
 2039TIP3    H1 6081   0.541   5.692   3.657
 2039TIP3    H2 6082   0.549   5.588   3.548
 2040TIP3   OH2 6083   4.503   1.114   3.388
 2040TIP3    H1 6084   4.567   1.146   3.324
 2040TIP3    H2 6085   4.497   1.184   3.453
 2041TIP3   OH2 6086   2.951   0.879   0.566
 2041TIP3    H1 6087   3.031   0.895   0.616
 2041TIP3    H2 6088   2.976   0.815   0.500
 2042TIP3   OH2 6089   1.786   0.853   0.815
 2042TIP3    H1 6090   1.795   0.948   0.824
 2042TIP3    H2 6091   1.742   0.841   0.731
 2043TIP3   OH2 6092   1.173   3.506   4.666
 2043TIP3    H1 6093   1.268   3.507   4.671
 2043TIP3    H2 6094   1.152   3.554   4.586
 2044TIP3   OH2 6095   3.010   0.573   4.892
 2044TIP3    H1 6096   3.033   0.483   4.872
 2044TIP3    H2 6097   2.954   0.601   4.819
 2045TIP3   OH2 6098   7.028   5.979   2.165
 2045TIP3    H1 6099   6.973   6.057   2.160
 2045TIP3    H2 6100   7.019   5.938   2.078
 2046TIP3   OH2 6101   0.269   2.597   4.450
 2046TIP3    H1 6102   0.283   2.691   4.459
 2046TIP3    H2 6103   0.190   2.579   4.501
 2047TIP3   OH2 6104   0.043   3.526   4.789
 2047TIP3    H1 6105   0.028   3.435   4.814
 2047TIP3    H2 6106   0.122   3.524   4.735
 2048TIP3   OH2 6107   3.142   4.395   0.371
 2048TIP3    H1 6108   3.052   4.364   0.378
 2048TIP3    H2 6109   3.135   4.489   0.353
 2049TIP3   OH2 6110   6.908   4.361   0.326
 2049TIP3    H1 6111   6.857   4.372   0.246
 2049TIP3    H2 6112   6.896   4.269   0.350
 2050TIP3   OH2 6113   6.743   3.049   1.625
 2050TIP3    H1 6114   6.658   3.010   1.605
 2050TIP3    H2 6115   6.740   3.136   1.585
 2051TIP3   OH2 6116   6.903   6.330   0.863
 2051TIP3    H1 6117   6.870   6.266   0.800
 2051TIP3    H2 6118   6.858   6.411   0.840
 2052TIP3   OH2 6119   0.292   1.463   0.132
 2052TIP3    H1 6120   0.219   1.402   0.127
 2052TIP3    H2 6121   0.258   1.538   0.181
 2053TIP3   OH2 6122   5.318   3.143   5.142
 2053TIP3    H1 6123   5.242   3.149   5.199
 2053TIP3    H2 6124   5.302   3.208   5.073
 2054TIP3   OH2 6125   2.215   5.470   0.813
 2054TIP3    H1 6126   2.220   5.521   0.894
 2054TIP3    H2 6127   2.160   5.523   0.755
 2055TIP3   OH2 6128   1.205   1.531   2.508
 2055TIP3    H1 6129   1.219   1.618   2.469
 2055TIP3    H2 6130   1.264   1.528   2.583
 2056TIP3   OH2 6131   4.445   2.656   5.137
 2056TIP3    H1 6132   4.520   2.627   5.189
 2056TIP3    H2 6133   4.413   2.576   5.095
 2057TIP3   OH2 6134   5.533   0.498   3.905
 2057TIP3    H1 6135   5.466   0.463   3.963
 2057TIP3    H2 6136   5.568   0.574   3.951
 2058TIP3   OH2 6137   3.999   3.941   4.499
 2058TIP3    H1 6138   4.062   3.936   4.427
 2058TIP3    H2 6139   4.053   3.951   4.577
 2059TIP3   OH2 6140   4.439   0.857   2.358
 2059TIP3    H1 6141   4.422   0.938   2.406
 2059TIP3    H2 6142   4.493   0.884   2.283
 2060TIP3   OH2 6143   4.891   2.490   4.693
 2060TIP3    H1 6144   4.812   2.517   4.646
 2060TIP3    H2 6145   4.942   2.443   4.627
 2061TIP3   OH2 6146   5.361   5.181   3.462
 2061TIP3    H1 6147   5.439   5.233   3.484
 2061TIP3    H2 6148   5.334   5.143   3.546
 2062TIP3   OH2 6149   3.052   6.545   0.553
 2062TIP3    H1 6150   3.052   6.537   0.648
 2062TIP3    H2 6151   3.106   6.472   0.522
 2063TIP3   OH2 6152   2.497   5.249   3.716
 2063TIP3    H1 6153   2.437   5.176   3.698
 2063TIP3    H2 6154   2.584   5.213   3.699
 2064TIP3   OH2 6155   0.043   0.744   5.860
 2064TIP3    H1 6156   0.089   0.720   5.941
 2064TIP3    H2 6157   0.045   0.664   5.808
 2065TIP3   OH2 6158   4.591   4.831   0.988
 2065TIP3    H1 6159   4.543   4.777   1.051
 2065TIP3    H2 6160   4.682   4.828   1.019
 2066TIP3   OH2 6161   0.188   4.273   5.137
 2066TIP3    H1 6162   0.269   4.298   5.181
 2066TIP3    H2 6163   0.139   4.222   5.202
 2067TIP3   OH2 6164   3.922   0.520   0.486
 2067TIP3    H1 6165   3.847   0.508   0.543
 2067TIP3    H2 6166   3.992   0.549   0.545
 2068TIP3   OH2 6167   2.831   6.371   1.188
 2068TIP3    H1 6168   2.785   6.454   1.203
 2068TIP3    H2 6169   2.887   6.360   1.266
 2069TIP3   OH2 6170   2.326   3.462   1.851
 2069TIP3    H1 6171   2.367   3.483   1.936
 2069TIP3    H2 6172   2.328   3.366   1.847
 2070TIP3   OH2 6173   1.492   1.422   1.173
 2070TIP3    H1 6174   1.433   1.491   1.203
 2070TIP3    H2 6175   1.579   1.460   1.181
 2071TIP3   OH2 6176   1.240   2.319   3.955
 2071TIP3    H1 6177   1.298   2.342   4.028
 2071TIP3    H2 6178   1.261   2.228   3.935
 2072TIP3   OH2 6179   0.124   6.574   2.972
 2072TIP3    H1 6180   0.054   6.555   3.034
 2072TIP3    H2 6181   0.094   6.536   2.889
 2073TIP3   OH2 6182   2.868   6.348   3.927
 2073TIP3    H1 6183   2.843   6.269   3.879
 2073TIP3    H2 6184   2.785   6.394   3.943
 2074TIP3   OH2 6185   5.101   0.505   3.275
 2074TIP3    H1 6186   5.025   0.539   3.322
 2074TIP3    H2 6187   5.092   0.540   3.186
 2075TIP3   OH2 6188   6.779   3.970   1.116
 2075TIP3    H1 6189   6.862   4.011   1.142
 2075TIP3    H2 6190   6.719   4.044   1.103
 2076TIP3   OH2 6191   5.480   3.662   3.948
 2076TIP3    H1 6192   5.477   3.639   4.041
 2076TIP3    H2 6193   5.471   3.757   3.946
 2077TIP3   OH2 6194   1.112   5.817   5.378
 2077TIP3    H1 6195   1.176   5.870   5.426
 2077TIP3    H2 6196   1.109   5.857   5.291
 2078TIP3   OH2 6197   0.866   2.654   1.461
 2078TIP3    H1 6198   0.800   2.681   1.525
 2078TIP3    H2 6199   0.913   2.735   1.439
 2079TIP3   OH2 6200   0.309   3.042   2.759
 2079TIP3    H1 6201   0.302   3.124   2.808
 2079TIP3    H2 6202   0.219   3.020   2.736
 2080TIP3   OH2 6203   6.207   6.162   1.900
 2080TIP3    H1 6204   6.248   6.191   1.818
 2080TIP3    H2 6205   6.148   6.233   1.924
 2081TIP3   OH2 6206   2.751   0.950   1.297
 2081TIP3    H1 6207   2.836   0.962   1.257
 2081TIP3    H2 6208   2.692   0.931   1.224
 2082TIP3   OH2 6209   2.504   1.469   4.439
 2082TIP3    H1 6210   2.503   1.375   4.456
 2082TIP3    H2 6211   2.592   1.498   4.465
 2083TIP3   OH2 6212   2.850   5.930   2.467
 2083TIP3    H1 6213   2.938   5.959   2.491
 2083TIP3    H2 6214   2.797   6.009   2.466
 2084TIP3   OH2 6215   0.518   2.603   2.445
 2084TIP3    H1 6216   0.546   2.512   2.444
 2084TIP3    H2 6217   0.499   2.623   2.353
 2085TIP3   OH2 6218   0.511   6.483   3.326
 2085TIP3    H1 6219   0.572   6.499   3.254
 2085TIP3    H2 6220   0.568   6.466   3.402
 2086TIP3   OH2 6221   4.055   3.488   0.983
 2086TIP3    H1 6222   4.003   3.473   1.061
 2086TIP3    H2 6223   4.060   3.583   0.974
 2087TIP3   OH2 6224   1.136   2.552   1.852
 2087TIP3    H1 6225   1.129   2.456   1.846
 2087TIP3    H2 6226   1.139   2.581   1.761
 2088TIP3   OH2 6227   1.146   1.427   5.761
 2088TIP3    H1 6228   1.165   1.352   5.816
 2088TIP3    H2 6229   1.103   1.490   5.819
 2089TIP3   OH2 6230   4.395   5.183   1.994
 2089TIP3    H1 6231   4.307   5.208   2.021
 2089TIP3    H2 6232   4.443   5.265   1.986
 2090TIP3   OH2 6233   4.315   6.797   4.851
 2090TIP3    H1 6234   4.277   6.709   4.855
 2090TIP3    H2 6235   4.310   6.821   4.758
 2091TIP3   OH2 6236   2.051   2.669   0.246
 2091TIP3    H1 6237   1.988   2.665   0.318
 2091TIP3    H2 6238   2.090   2.582   0.244
 2092TIP3   OH2 6239   4.163   5.804   3.874
 2092TIP3    H1 6240   4.088   5.789   3.932
 2092TIP3    H2 6241   4.134   5.873   3.815
 2093TIP3   OH2 6242   5.946   1.848   4.010
 2093TIP3    H1 6243   6.006   1.825   3.939
 2093TIP3    H2 6244   5.899   1.924   3.978
 2094TIP3   OH2 6245   3.119   3.121   0.253
 2094TIP3    H1 6246   3.214   3.123   0.254
 2094TIP3    H2 6247   3.095   3.088   0.339
 2095TIP3   OH2 6248   6.193   6.389   5.886
 2095TIP3    H1 6249   6.252   6.402   5.812
 2095TIP3    H2 6250   6.250   6.358   5.957
 2096TIP3   OH2 6251   4.996   3.622   0.284
 2096TIP3    H1 6252   4.991   3.718   0.281
 2096TIP3    H2 6253   4.922   3.593   0.230
 2097TIP3   OH2 6254   4.562   3.029   0.462
 2097TIP3    H1 6255   4.527   2.985   0.540
 2097TIP3    H2 6256   4.530   3.119   0.469
 2098TIP3   OH2 6257   3.543   2.414   0.260
 2098TIP3    H1 6258   3.638   2.423   0.259
 2098TIP3    H2 6259   3.514   2.468   0.333
 2099TIP3   OH2 6260   4.852   1.411   1.132
 2099TIP3    H1 6261   4.892   1.467   1.199
 2099TIP3    H2 6262   4.790   1.469   1.088
 2100TIP3   OH2 6263   2.636   2.586   3.694
 2100TIP3    H1 6264   2.702   2.557   3.631
 2100TIP3    H2 6265   2.553   2.581   3.646
 2101TIP3   OH2 6266   1.653   5.279   4.136
 2101TIP3    H1 6267   1.661   5.248   4.046
 2101TIP3    H2 6268   1.740   5.314   4.157
 2102TIP3   OH2 6269   2.900   1.409   2.473
 2102TIP3    H1 6270   2.925   1.317   2.467
 2102TIP3    H2 6271   2.980   1.454   2.499
 2103TIP3   OH2 6272   0.885   3.969   1.813
 2103TIP3    H1 6273   0.789   3.978   1.809
 2103TIP3    H2 6274   0.901   3.875   1.816
 2104TIP3   OH2 6275   3.691   4.679   1.811
 2104TIP3    H1 6276   3.738   4.729   1.745
 2104TIP3    H2 6277   3.699   4.732   1.891
 2105TIP3   OH2 6278   1.776   2.622   4.407
 2105TIP3    H1 6279   1.835   2.555   4.443
 2105TIP3    H2 6280   1.767   2.686   4.478
 2106TIP3   OH2 6281   0.130   0.458   4.061
 2106TIP3    H1 6282   0.057   0.399   4.081
 2106TIP3    H2 6283   0.202   0.399   4.037
 2107TIP3   OH2 6284   5.109   3.985   5.748
 2107TIP3    H1 6285   5.052   4.059   5.727
 2107TIP3    H2 6286   5.173   3.983   5.677
 2108TIP3   OH2 6287   3.424   2.017   3.264
 2108TIP3    H1 6288   3.349   1.960   3.274
 2108TIP3    H2 6289   3.388   2.098   3.228
 2109TIP3   OH2 6290   5.326   4.881   5.359
 2109TIP3    H1 6291   5.378   4.883   5.439
 2109TIP3    H2 6292   5.365   4.949   5.304
 2110TIP3   OH2 6293   3.464   0.155   0.480
 2110TIP3    H1 6294   3.513   0.235   0.461
 2110TIP3    H2 6295   3.456   0.154   0.575
 2111TIP3   OH2 6296   4.052   3.459   0.316
 2111TIP3    H1 6297   4.000   3.527   0.272
 2111TIP3    H2 6298   3.987   3.409   0.366
 2112TIP3   OH2 6299   4.887   3.253   0.439
 2112TIP3    H1 6300   4.810   3.301   0.408
 2112TIP3    H2 6301   4.937   3.234   0.360
 2113TIP3   OH2 6302   2.762   4.721   1.547
 2113TIP3    H1 6303   2.732   4.630   1.554
 2113TIP3    H2 6304   2.768   4.738   1.453
 2114TIP3   OH2 6305   5.105   5.209   2.600
 2114TIP3    H1 6306   5.029   5.151   2.604
 2114TIP3    H2 6307   5.081   5.276   2.537
 2115TIP3   OH2 6308   3.163   2.653   3.998
 2115TIP3    H1 6309   3.114   2.734   4.009
 2115TIP3    H2 6310   3.255   2.679   4.008
 2116TIP3   OH2 6311   5.001   6.253   5.644
 2116TIP3    H1 6312   4.988   6.279   5.735
 2116TIP3    H2 6313   5.096   6.260   5.631
 2117TIP3   OH2 6314   2.283   3.794   0.024
 2117TIP3    H1 6315   2.361   3.741   0.039
 2117TIP3    H2 6316   2.252   3.768  -0.063
 2118TIP3   OH2 6317   7.030   3.199   2.342
 2118TIP3    H1 6318   6.963   3.232   2.282
 2118TIP3    H2 6319   7.037   3.106   2.322
 2119TIP3   OH2 6320   5.533   1.785   1.529
 2119TIP3    H1 6321   5.599   1.853   1.514
 2119TIP3    H2 6322   5.534   1.772   1.624
 2120TIP3   OH2 6323   2.749   3.836   4.809
 2120TIP3    H1 6324   2.842   3.847   4.791
 2120TIP3    H2 6325   2.708   3.836   4.722
 2121TIP3   OH2 6326   6.485   0.528   2.715
 2121TIP3    H1 6327   6.500   0.447   2.666
 2121TIP3    H2 6328   6.400   0.559   2.685
 2122TIP3   OH2 6329   4.029   0.984   4.937
 2122TIP3    H1 6330   4.078   0.904   4.916
 2122TIP3    H2 6331   4.060   1.049   4.873
 2123TIP3   OH2 6332   6.572   6.117   5.764
 2123TIP3    H1 6333   6.594   6.209   5.750
 2123TIP3    H2 6334   6.654   6.070   5.749
 2124TIP3   OH2 6335   4.976   0.682   4.722
 2124TIP3    H1 6336   5.047   0.732   4.682
 2124TIP3    H2 6337   4.925   0.648   4.648
 2125TIP3   OH2 6338   3.014   6.168   4.041
 2125TIP3    H1 6339   2.981   6.251   4.008
 2125TIP3    H2 6340   3.053   6.126   3.964
 2126TIP3   OH2 6341   0.592   5.675   1.248
 2126TIP3    H1 6342   0.539   5.657   1.170
 2126TIP3    H2 6343   0.673   5.711   1.214
 2127TIP3   OH2 6344   0.350   5.200   1.590
 2127TIP3    H1 6345   0.360   5.283   1.636
 2127TIP3    H2 6346   0.430   5.192   1.537
 2128TIP3   OH2 6347   6.823   2.280   3.122
 2128TIP3    H1 6348   6.868   2.209   3.168
 2128TIP3    H2 6349   6.765   2.235   3.060
 2129TIP3   OH2 6350   3.289   4.839   5.659
 2129TIP3    H1 6351   3.248   4.837   5.746
 2129TIP3    H2 6352   3.374   4.798   5.671
 2130TIP3   OH2 6353   4.809   5.328   1.598
 2130TIP3    H1 6354   4.727   5.377   1.599
 2130TIP3    H2 6355   4.796   5.261   1.531
 2131TIP3   OH2 6356   2.983   1.648   2.710
 2131TIP3    H1 6357   3.060   1.617   2.663
 2131TIP3    H2 6358   2.999   1.625   2.801
 2132TIP3   OH2 6359   4.538   0.146   1.071
 2132TIP3    H1 6360   4.451   0.169   1.042
 2132TIP3    H2 6361   4.588   0.228   1.067
 2133TIP3   OH2 6362   3.160   5.790   0.137
 2133TIP3    H1 6363   3.084   5.760   0.186
 2133TIP3    H2 6364   3.124   5.848   0.070
 2134TIP3   OH2 6365   3.295   0.522   2.577
 2134TIP3    H1 6366   3.297   0.483   2.490
 2134TIP3    H2 6367   3.312   0.615   2.563
 2135TIP3   OH2 6368   6.299   6.523   3.680
 2135TIP3    H1 6369   6.338   6.482   3.757
 2135TIP3    H2 6370   6.308   6.617   3.695
 2136TIP3   OH2 6371   0.516   2.077   4.220
 2136TIP3    H1 6372   0.579   2.034   4.161
 2136TIP3    H2 6373   0.497   2.161   4.177
 2137TIP3   OH2 6374   3.057   4.129   4.517
 2137TIP3    H1 6375   3.052   4.094   4.428
 2137TIP3    H2 6376   3.011   4.212   4.514
 2138TIP3   OH2 6377   5.387   3.271   3.247
 2138TIP3    H1 6378   5.304   3.315   3.263
 2138TIP3    H2 6379   5.388   3.252   3.153
 2139TIP3   OH2 6380   5.555   5.808   4.822
 2139TIP3    H1 6381   5.571   5.888   4.873
 2139TIP3    H2 6382   5.626   5.749   4.847
 2140TIP3   OH2 6383   3.691   4.637   0.946
 2140TIP3    H1 6384   3.754   4.642   0.875
 2140TIP3    H2 6385   3.705   4.550   0.984
 2141TIP3   OH2 6386   2.369   1.869   5.374
 2141TIP3    H1 6387   2.366   1.775   5.361
 2141TIP3    H2 6388   2.422   1.902   5.301
 2142TIP3   OH2 6389   6.335   0.951   3.480
 2142TIP3    H1 6390   6.392   0.898   3.535
 2142TIP3    H2 6391   6.269   0.890   3.447
 2143TIP3   OH2 6392   6.929   0.090   4.182
 2143TIP3    H1 6393   7.022   0.099   4.164
 2143TIP3    H2 6394   6.911   0.160   4.246
 2144TIP3   OH2 6395   0.564   6.190   4.787
 2144TIP3    H1 6396   0.592   6.153   4.871
 2144TIP3    H2 6397   0.558   6.115   4.728
 2145TIP3   OH2 6398   2.999   0.372   1.164
 2145TIP3    H1 6399   2.989   0.406   1.252
 2145TIP3    H2 6400   2.912   0.382   1.124
 2146TIP3   OH2 6401   6.416   3.211   2.541
 2146TIP3    H1 6402   6.476   3.168   2.479
 2146TIP3    H2 6403   6.376   3.139   2.589
 2147TIP3   OH2 6404   5.614   0.274   4.999
 2147TIP3    H1 6405   5.576   0.279   4.911
 2147TIP3    H2 6406   5.544   0.305   5.057
 2148TIP3   OH2 6407   4.680   4.056   3.499
 2148TIP3    H1 6408   4.769   4.021   3.495
 2148TIP3    H2 6409   4.637   4.006   3.568
 2149TIP3   OH2 6410   0.238   5.915   5.647
 2149TIP3    H1 6411   0.190   5.922   5.730
 2149TIP3    H2 6412   0.325   5.950   5.667
 2150TIP3   OH2 6413   4.786   5.106   2.005
 2150TIP3    H1 6414   4.860   5.047   1.990
 2150TIP3    H2 6415   4.825   5.184   2.045
 2151TIP3   OH2 6416   1.703   3.719   0.195
 2151TIP3    H1 6417   1.728   3.645   0.138
 2151TIP3    H2 6418   1.619   3.692   0.233
 2152TIP3   OH2 6419   6.270   0.760   1.719
 2152TIP3    H1 6420   6.339   0.733   1.659
 2152TIP3    H2 6421   6.316   0.792   1.796
 2153TIP3   OH2 6422   3.952   3.749   4.166
 2153TIP3    H1 6423   4.007   3.795   4.230
 2153TIP3    H2 6424   3.988   3.661   4.163
 2154TIP3   OH2 6425   4.346   1.992   2.314
 2154TIP3    H1 6426   4.372   2.071   2.362
 2154TIP3    H2 6427   4.345   2.018   2.222
 2155TIP3   OH2 6428   4.209   0.264   3.768
 2155TIP3    H1 6429   4.165   0.193   3.722
 2155TIP3    H2 6430   4.300   0.259   3.739
 2156TIP3   OH2 6431   0.903   6.273   3.147
 2156TIP3    H1 6432   0.820   6.292   3.102
 2156TIP3    H2 6433   0.916   6.179   3.134
 2157TIP3   OH2 6434   1.653   1.600   3.968
 2157TIP3    H1 6435   1.659   1.608   4.064
 2157TIP3    H2 6436   1.744   1.602   3.938
 2158TIP3   OH2 6437   3.826   0.073   1.203
 2158TIP3    H1 6438   3.765   0.101   1.272
 2158TIP3    H2 6439   3.820  -0.023   1.204
 2159TIP3   OH2 6440   6.503   4.266   4.181
 2159TIP3    H1 6441   6.440   4.327   4.220
 2159TIP3    H2 6442   6.475   4.180   4.212
 2160TIP3   OH2 6443   3.109   4.558   1.389
 2160TIP3    H1 6444   3.166   4.614   1.337
 2160TIP3    H2 6445   3.170   4.507   1.444
 2161TIP3   OH2 6446   2.685   1.179   0.986
 2161TIP3    H1 6447   2.603   1.148   0.948
 2161TIP3    H2 6448   2.664   1.196   1.078
 2162TIP3   OH2 6449   3.985   1.568   1.563
 2162TIP3    H1 6450   3.911   1.569   1.502
 2162TIP3    H2 6451   4.019   1.658   1.560
 2163TIP3   OH2 6452   2.200   2.722   3.707
 2163TIP3    H1 6453   2.227   2.733   3.798
 2163TIP3    H2 6454   2.268   2.668   3.668
 2164TIP3   OH2 6455   0.369   1.225   1.329
 2164TIP3    H1 6456   0.274   1.221   1.319
 2164TIP3    H2 6457   0.401   1.150   1.278
 2165TIP3   OH2 6458   5.066   0.516   0.973
 2165TIP3    H1 6459   5.054   0.441   0.915
 2165TIP3    H2 6460   5.146   0.559   0.941
 2166TIP3   OH2 6461   0.470   0.184   1.208
 2166TIP3    H1 6462   0.464   0.135   1.126
 2166TIP3    H2 6463   0.379   0.203   1.232
 2167TIP3   OH2 6464   7.218   5.412   3.268
 2167TIP3    H1 6465   7.160   5.373   3.203
 2167TIP3    H2 6466   7.301   5.423   3.222
 2168TIP3   OH2 6467   5.679   3.989   3.795
 2168TIP3    H1 6468   5.661   3.901   3.761
 2168TIP3    H2 6469   5.770   3.985   3.824
 2169TIP3   OH2 6470   6.083   0.627   1.569
 2169TIP3    H1 6471   6.154   0.667   1.620
 2169TIP3    H2 6472   6.057   0.696   1.508
 2170TIP3   OH2 6473   2.319   4.445   1.336
 2170TIP3    H1 6474   2.387   4.512   1.343
 2170TIP3    H2 6475   2.367   4.362   1.333
 2171TIP3   OH2 6476   4.360   2.941   2.295
 2171TIP3    H1 6477   4.303   3.017   2.289
 2171TIP3    H2 6478   4.395   2.944   2.384
 2172TIP3   OH2 6479   6.792   0.554   1.307
 2172TIP3    H1 6480   6.818   0.621   1.369
 2172TIP3    H2 6481   6.874   0.526   1.266
 2173TIP3   OH2 6482   5.252   6.650   1.655
 2173TIP3    H1 6483   5.257   6.707   1.578
 2173TIP3    H2 6484   5.258   6.709   1.730
 2174TIP3   OH2 6485   5.999   2.033   4.258
 2174TIP3    H1 6486   5.967   2.076   4.178
 2174TIP3    H2 6487   6.094   2.042   4.253
 2175TIP3   OH2 6488   5.846   5.889   0.063
 2175TIP3    H1 6489   5.868   5.839  -0.015
 2175TIP3    H2 6490   5.925   5.938   0.084
 2176TIP3   OH2 6491   1.255   1.913   5.768
 2176TIP3    H1 6492   1.174   1.882   5.808
 2176TIP3    H2 6493   1.296   1.968   5.835
 2177TIP3   OH2 6494   3.333   5.280   5.049
 2177TIP3    H1 6495   3.291   5.199   5.079
 2177TIP3    H2 6496   3.307   5.288   4.957
 2178TIP3   OH2 6497   6.852   6.468   0.047
 2178TIP3    H1 6498   6.801   6.549   0.047
 2178TIP3    H2 6499   6.842   6.434  -0.042
 2179TIP3   OH2 6500   2.543   1.552   2.153
 2179TIP3    H1 6501   2.594   1.520   2.228
 2179TIP3    H2 6502   2.582   1.636   2.131
 2180TIP3   OH2 6503   7.108   3.743   1.845
 2180TIP3    H1 6504   7.040   3.740   1.777
 2180TIP3    H2 6505   7.080   3.678   1.909
 2181TIP3   OH2 6506   6.918   4.090   1.452
 2181TIP3    H1 6507   6.828   4.110   1.423
 2181TIP3    H2 6508   6.965   4.071   1.371
 2182TIP3   OH2 6509   1.838   6.188   4.676
 2182TIP3    H1 6510   1.745   6.180   4.697
 2182TIP3    H2 6511   1.849   6.131   4.600
 2183TIP3   OH2 6512   4.169   4.939   0.126
 2183TIP3    H1 6513   4.241   4.936   0.063
 2183TIP3    H2 6514   4.167   5.029   0.157
 2184TIP3   OH2 6515   6.216   0.905   1.198
 2184TIP3    H1 6516   6.258   0.826   1.164
 2184TIP3    H2 6517   6.209   0.964   1.123
 2185TIP3   OH2 6518   0.598   5.483   4.868
 2185TIP3    H1 6519   0.664   5.530   4.817
 2185TIP3    H2 6520   0.646   5.446   4.942
 2186TIP3   OH2 6521   0.367   6.744   2.009
 2186TIP3    H1 6522   0.291   6.786   1.970
 2186TIP3    H2 6523   0.436   6.752   1.943
 2187TIP3   OH2 6524   4.479   3.678   0.335
 2187TIP3    H1 6525   4.552   3.643   0.384
 2187TIP3    H2 6526   4.519   3.735   0.269
 2188TIP3   OH2 6527   4.524   1.601   0.118
 2188TIP3    H1 6528   4.514   1.560   0.031
 2188TIP3    H2 6529   4.450   1.566   0.169
 2189TIP3   OH2 6530   0.126   2.117   4.811
 2189TIP3    H1 6531   0.063   2.146   4.745
 2189TIP3    H2 6532   0.158   2.198   4.851
 2190TIP3   OH2 6533   6.919   2.311   2.564
 2190TIP3    H1 6534   7.003   2.308   2.611
 2190TIP3    H2 6535   6.905   2.221   2.535
 2191TIP3   OH2 6536   0.648   0.609   5.488
 2191TIP3    H1 6537   0.720   0.609   5.425
 2191TIP3    H2 6538   0.589   0.678   5.456
 2192TIP3   OH2 6539   5.770   4.540   1.077
 2192TIP3    H1 6540   5.675   4.530   1.089
 2192TIP3    H2 6541   5.779   4.616   1.020
 2193TIP3   OH2 6542   2.720   2.086   4.896
 2193TIP3    H1 6543   2.687   2.167   4.858
 2193TIP3    H2 6544   2.709   2.020   4.827
 2194TIP3   OH2 6545   6.274   5.384   2.749
 2194TIP3    H1 6546   6.210   5.379   2.678
 2194TIP3    H2 6547   6.321   5.467   2.733
 2195TIP3   OH2 6548   6.918   2.318   0.648
 2195TIP3    H1 6549   6.913   2.329   0.553
 2195TIP3    H2 6550   6.834   2.278   0.672
 2196TIP3   OH2 6551   6.202   6.518   1.053
 2196TIP3    H1 6552   6.191   6.436   1.100
 2196TIP3    H2 6553   6.120   6.529   1.006
 2197TIP3   OH2 6554   0.120   3.526   3.313
 2197TIP3    H1 6555   0.088   3.506   3.401
 2197TIP3    H2 6556   0.177   3.602   3.325
 2198TIP3   OH2 6557   0.971   6.596   1.161
 2198TIP3    H1 6558   0.918   6.644   1.097
 2198TIP3    H2 6559   1.049   6.570   1.113
 2199TIP3   OH2 6560   2.280   5.916   1.670
 2199TIP3    H1 6561   2.355   5.857   1.668
 2199TIP3    H2 6562   2.314   5.996   1.710
 2200TIP3   OH2 6563   6.442   3.041   4.488
 2200TIP3    H1 6564   6.517   2.982   4.497
 2200TIP3    H2 6565   6.374   3.001   4.543
 2201TIP3   OH2 6566   7.196   3.502   3.062
 2201TIP3    H1 6567   7.128   3.437   3.079
 2201TIP3    H2 6568   7.241   3.511   3.146
 2202TIP3   OH2 6569   1.528   3.131   5.645
 2202TIP3    H1 6570   1.460   3.178   5.597
 2202TIP3    H2 6571   1.483   3.088   5.718
 2203TIP3   OH2 6572   4.780   3.548   5.743
 2203TIP3    H1 6573   4.826   3.511   5.668
 2203TIP3    H2 6574   4.846   3.602   5.787
 2204TIP3   OH2 6575   4.093   2.180   0.633
 2204TIP3    H1 6576   4.087   2.272   0.605
 2204TIP3    H2 6577   4.185   2.170   0.659
 2205TIP3   OH2 6578   0.026   4.123   0.978
 2205TIP3    H1 6579   0.053   4.206   0.938
 2205TIP3    H2 6580   0.013   4.064   0.904
 2206TIP3   OH2 6581   4.004   4.671   0.496
 2206TIP3    H1 6582   3.940   4.651   0.429
 2206TIP3    H2 6583   4.079   4.616   0.475
 2207TIP3   OH2 6584   3.368   0.511   0.777
 2207TIP3    H1 6585   3.302   0.506   0.847
 2207TIP3    H2 6586   3.333   0.453   0.708
 2208TIP3   OH2 6587   1.417   3.678   2.281
 2208TIP3    H1 6588   1.477   3.732   2.332
 2208TIP3    H2 6589   1.331   3.717   2.297
 2209TIP3   OH2 6590   6.077   2.294   5.224
 2209TIP3    H1 6591   6.037   2.219   5.267
 2209TIP3    H2 6592   6.164   2.301   5.263
 2210TIP3   OH2 6593   3.354   3.499   2.709
 2210TIP3    H1 6594   3.420   3.482   2.642
 2210TIP3    H2 6595   3.329   3.412   2.740
 2211TIP3   OH2 6596   6.783   2.461   4.735
 2211TIP3    H1 6597   6.759   2.507   4.655
 2211TIP3    H2 6598   6.706   2.469   4.792
 2212TIP3   OH2 6599   4.674   4.269   5.320
 2212TIP3    H1 6600   4.638   4.353   5.349
 2212TIP3    H2 6601   4.627   4.203   5.372
 2213TIP3   OH2 6602   1.100   4.881   4.637
 2213TIP3    H1 6603   1.175   4.936   4.615
 2213TIP3    H2 6604   1.139   4.800   4.671
 2214TIP3   OH2 6605   0.952   2.878   1.320
 2214TIP3    H1 6606   0.859   2.897   1.323
 2214TIP3    H2 6607   0.982   2.913   1.236
 2215TIP3   OH2 6608   5.636   2.777   2.360
 2215TIP3    H1 6609   5.638   2.808   2.451
 2215TIP3    H2 6610   5.615   2.684   2.367
 2216TIP3   OH2 6611   7.148   6.007   0.550
 2216TIP3    H1 6612   7.074   5.946   0.541
 2216TIP3    H2 6613   7.152   6.053   0.466
 2217TIP3   OH2 6614   6.335   6.736   0.748
 2217TIP3    H1 6615   6.246   6.727   0.713
 2217TIP3    H2 6616   6.322   6.735   0.843
 2218TIP3   OH2 6617   4.222   3.995   2.587
 2218TIP3    H1 6618   4.167   4.041   2.524
 2218TIP3    H2 6619   4.162   3.973   2.659
 2219TIP3   OH2 6620   2.965   0.624   2.770
 2219TIP3    H1 6621   3.015   0.566   2.827
 2219TIP3    H2 6622   2.948   0.573   2.691
 2220TIP3   OH2 6623   1.303   4.137   3.561
 2220TIP3    H1 6624   1.250   4.210   3.528
 2220TIP3    H2 6625   1.385   4.178   3.590
 2221TIP3   OH2 6626   5.633   5.923   5.885
 2221TIP3    H1 6627   5.607   5.832   5.866
 2221TIP3    H2 6628   5.653   5.960   5.799
 2222TIP3   OH2 6629   4.535   2.780   2.894
 2222TIP3    H1 6630   4.550   2.841   2.966
 2222TIP3    H2 6631   4.450   2.806   2.858
 2223TIP3   OH2 6632   0.487   2.004   4.896
 2223TIP3    H1 6633   0.549   1.933   4.912
 2223TIP3    H2 6634   0.531   2.060   4.832
 2224TIP3   OH2 6635   6.543   4.429   3.556
 2224TIP3    H1 6636   6.581   4.507   3.518
 2224TIP3    H2 6637   6.525   4.453   3.647
 2225TIP3   OH2 6638   6.422  -0.048   5.400
 2225TIP3    H1 6639   6.514  -0.023   5.399
 2225TIP3    H2 6640   6.375   0.034   5.413
 2226TIP3   OH2 6641   6.206   4.859   2.913
 2226TIP3    H1 6642   6.124   4.907   2.902
 2226TIP3    H2 6643   6.195   4.781   2.859
 2227TIP3   OH2 6644   2.049   3.912   4.679
 2227TIP3    H1 6645   1.957   3.933   4.664
 2227TIP3    H2 6646   2.079   3.874   4.597
 2228TIP3   OH2 6647   2.927   5.929   4.090
 2228TIP3    H1 6648   2.966   6.016   4.101
 2228TIP3    H2 6649   2.951   5.882   4.170
 2229TIP3   OH2 6650   6.626   0.640   2.036
 2229TIP3    H1 6651   6.611   0.550   2.005
 2229TIP3    H2 6652   6.551   0.659   2.091
 2230TIP3   OH2 6653   3.856   5.958   5.796
 2230TIP3    H1 6654   3.914   6.026   5.831
 2230TIP3    H2 6655   3.778   5.962   5.851
 2231TIP3   OH2 6656   5.961   2.675   0.801
 2231TIP3    H1 6657   5.991   2.744   0.742
 2231TIP3    H2 6658   5.943   2.600   0.744
 2232TIP3   OH2 6659   0.745   5.101   3.185
 2232TIP3    H1 6660   0.782   5.084   3.098
 2232TIP3    H2 6661   0.800   5.050   3.244
 2233TIP3   OH2 6662   3.159   2.106   4.505
 2233TIP3    H1 6663   3.212   2.087   4.582
 2233TIP3    H2 6664   3.219   2.100   4.431
 2234TIP3   OH2 6665   6.283   2.015   2.960
 2234TIP3    H1 6666   6.280   2.009   2.865
 2234TIP3    H2 6667   6.316   1.930   2.989
 2235TIP3   OH2 6668   6.295   4.025   1.241
 2235TIP3    H1 6669   6.248   3.997   1.319
 2235TIP3    H2 6670   6.378   3.977   1.245
 2236TIP3   OH2 6671   2.283   0.048   4.883
 2236TIP3    H1 6672   2.251   0.072   4.970
 2236TIP3    H2 6673   2.234  -0.031   4.860
 2237TIP3   OH2 6674   4.401   6.138   3.745
 2237TIP3    H1 6675   4.475   6.114   3.801
 2237TIP3    H2 6676   4.429   6.218   3.701
 2238TIP3   OH2 6677   0.029   4.026   4.762
 2238TIP3    H1 6678  -0.038   4.066   4.817
 2238TIP3    H2 6679   0.097   4.092   4.754
 2239TIP3   OH2 6680   5.417   0.293   1.093
 2239TIP3    H1 6681   5.447   0.235   1.163
 2239TIP3    H2 6682   5.365   0.360   1.138
 2240TIP3   OH2 6683   3.948   0.590   4.971
 2240TIP3    H1 6684   3.961   0.684   4.961
 2240TIP3    H2 6685   4.000   0.567   5.048
 2241TIP3   OH2 6686   0.787   3.643   4.104
 2241TIP3    H1 6687   0.818   3.571   4.048
 2241TIP3    H2 6688   0.865   3.698   4.117
 2242TIP3   OH2 6689   4.844   4.436   4.240
 2242TIP3    H1 6690   4.802   4.522   4.227
 2242TIP3    H2 6691   4.787   4.375   4.194
 2243TIP3   OH2 6692   7.014   4.745   1.676
 2243TIP3    H1 6693   7.028   4.656   1.707
 2243TIP3    H2 6694   7.089   4.763   1.619
 2244TIP3   OH2 6695   3.153   6.110   1.012
 2244TIP3    H1 6696   3.197   6.026   1.004
 2244TIP3    H2 6697   3.073   6.101   0.959
 2245TIP3   OH2 6698   7.068   6.777   3.511
 2245TIP3    H1 6699   7.032   6.808   3.594
 2245TIP3    H2 6700   7.138   6.717   3.536
 2246TIP3   OH2 6701   4.306   4.094   3.651
 2246TIP3    H1 6702   4.230   4.093   3.708
 2246TIP3    H2 6703   4.283   4.157   3.582
 2247TIP3   OH2 6704   3.060   6.798   3.318
 2247TIP3    H1 6705   3.011   6.718   3.301
 2247TIP3    H2 6706   3.138   6.769   3.365
 2248TIP3   OH2 6707   0.692   3.102   2.510
 2248TIP3    H1 6708   0.735   3.031   2.560
 2248TIP3    H2 6709   0.638   3.056   2.446
 2249TIP3   OH2 6710   2.409   1.078   0.766
 2249TIP3    H1 6711   2.386   1.169   0.748
 2249TIP3    H2 6712   2.392   1.066   0.859
 2250TIP3   OH2 6713   2.023   4.359   4.083
 2250TIP3    H1 6714   2.077   4.341   4.006
 2250TIP3    H2 6715   2.086   4.370   4.154
 2251TIP3   OH2 6716   5.732   0.515   3.622
 2251TIP3    H1 6717   5.697   0.577   3.558
 2251TIP3    H2 6718   5.687   0.539   3.704
 2252TIP3   OH2 6719   0.953   2.248   0.789
 2252TIP3    H1 6720   0.947   2.328   0.737
 2252TIP3    H2 6721   0.934   2.178   0.727
 2253TIP3   OH2 6722   0.252   2.429   1.847
 2253TIP3    H1 6723   0.234   2.372   1.772
 2253TIP3    H2 6724   0.224   2.516   1.818
 2254TIP3   OH2 6725   1.179   0.755   1.446
 2254TIP3    H1 6726   1.148   0.690   1.384
 2254TIP3    H2 6727   1.156   0.719   1.532
 2255TIP3   OH2 6728   5.932   2.917   4.628
 2255TIP3    H1 6729   5.856   2.877   4.672
 2255TIP3    H2 6730   5.898   2.944   4.543
 2256TIP3   OH2 6731   4.474   2.073   5.054
 2256TIP3    H1 6732   4.404   2.014   5.083
 2256TIP3    H2 6733   4.471   2.068   4.959
 2257TIP3   OH2 6734   5.290   1.413   1.439
 2257TIP3    H1 6735   5.247   1.329   1.424
 2257TIP3    H2 6736   5.377   1.389   1.472
 2258TIP3   OH2 6737   5.157   2.305   5.814
 2258TIP3    H1 6738   5.207   2.228   5.786
 2258TIP3    H2 6739   5.103   2.273   5.886
 2259TIP3   OH2 6740   6.888   5.224   4.306
 2259TIP3    H1 6741   6.935   5.298   4.343
 2259TIP3    H2 6742   6.814   5.264   4.259
 2260TIP3   OH2 6743   1.921   0.659   2.646
 2260TIP3    H1 6744   1.872   0.741   2.639
 2260TIP3    H2 6745   1.938   0.649   2.739
 2261TIP3   OH2 6746   3.019   2.655   2.276
 2261TIP3    H1 6747   2.972   2.712   2.337
 2261TIP3    H2 6748   3.110   2.657   2.307
 2262TIP3   OH2 6749   1.684   0.464   3.799
 2262TIP3    H1 6750   1.654   0.554   3.813
 2262TIP3    H2 6751   1.605   0.413   3.786
 2263TIP3   OH2 6752   2.578   2.111   1.803
 2263TIP3    H1 6753   2.506   2.144   1.857
 2263TIP3    H2 6754   2.650   2.098   1.865
 2264TIP3   OH2 6755   1.422   4.592   0.683
 2264TIP3    H1 6756   1.375   4.515   0.714
 2264TIP3    H2 6757   1.420   4.586   0.588
 2265TIP3   OH2 6758   6.277   1.847   1.425
 2265TIP3    H1 6759   6.196   1.822   1.379
 2265TIP3    H2 6760   6.247   1.906   1.495
 2266TIP3   OH2 6761   3.127   3.247   4.647
 2266TIP3    H1 6762   3.162   3.335   4.634
 2266TIP3    H2 6763   3.100   3.219   4.559
 2267TIP3   OH2 6764   5.145   4.493   4.493
 2267TIP3    H1 6765   5.106   4.547   4.424
 2267TIP3    H2 6766   5.200   4.430   4.445
 2268TIP3   OH2 6767   1.775   6.597   5.121
 2268TIP3    H1 6768   1.778   6.502   5.114
 2268TIP3    H2 6769   1.759   6.628   5.032
 2269TIP3   OH2 6770   0.731   5.447   3.134
 2269TIP3    H1 6771   0.786   5.523   3.112
 2269TIP3    H2 6772   0.769   5.413   3.215
 2270TIP3   OH2 6773   6.161   3.302   0.478
 2270TIP3    H1 6774   6.140   3.351   0.557
 2270TIP3    H2 6775   6.219   3.231   0.508
 2271TIP3   OH2 6776   6.868   3.634   1.769
 2271TIP3    H1 6777   6.773   3.624   1.778
 2271TIP3    H2 6778   6.879   3.673   1.682
 2272TIP3   OH2 6779   0.611   3.174   2.144
 2272TIP3    H1 6780   0.591   3.208   2.231
 2272TIP3    H2 6781   0.705   3.161   2.144
 2273TIP3   OH2 6782   0.822   1.554   4.299
 2273TIP3    H1 6783   0.774   1.515   4.372
 2273TIP3    H2 6784   0.852   1.639   4.331
 2274TIP3   OH2 6785   5.581   4.462   4.486
 2274TIP3    H1 6786   5.507   4.429   4.434
 2274TIP3    H2 6787   5.544   4.533   4.538
 2275TIP3   OH2 6788   3.368   4.632   5.232
 2275TIP3    H1 6789   3.339   4.554   5.186
 2275TIP3    H2 6790   3.300   4.648   5.297
 2276TIP3   OH2 6791   4.707   5.677   0.295
 2276TIP3    H1 6792   4.693   5.763   0.254
 2276TIP3    H2 6793   4.674   5.687   0.384
 2277TIP3   OH2 6794   0.487   4.924   1.622
 2277TIP3    H1 6795   0.520   4.921   1.711
 2277TIP3    H2 6796   0.393   4.906   1.631
 2278TIP3   OH2 6797   3.101   3.666   3.129
 2278TIP3    H1 6798   3.186   3.625   3.144
 2278TIP3    H2 6799   3.096   3.681   3.035
 2279TIP3   OH2 6800   0.326   3.099   2.280
 2279TIP3    H1 6801   0.265   3.035   2.244
 2279TIP3    H2 6802   0.399   3.046   2.313
 2280TIP3   OH2 6803   3.309   0.202   5.204
 2280TIP3    H1 6804   3.220   0.168   5.205
 2280TIP3    H2 6805   3.314   0.255   5.124
 2281TIP3   OH2 6806   6.649   0.815   5.164
 2281TIP3    H1 6807   6.639   0.736   5.111
 2281TIP3    H2 6808   6.741   0.816   5.188
 2282TIP3   OH2 6809   4.929   3.006   1.801
 2282TIP3    H1 6810   4.978   3.032   1.879
 2282TIP3    H2 6811   4.840   3.038   1.817
 2283TIP3   OH2 6812   1.714   2.516   0.275
 2283TIP3    H1 6813   1.734   2.561   0.357
 2283TIP3    H2 6814   1.630   2.473   0.291
 2284TIP3   OH2 6815   3.831   2.914   1.971
 2284TIP3    H1 6816   3.923   2.902   1.993
 2284TIP3    H2 6817   3.830   2.987   1.910
 2285TIP3   OH2 6818   1.944   6.056   1.338
 2285TIP3    H1 6819   1.886   5.980   1.348
 2285TIP3    H2 6820   1.977   6.049   1.249
 2286TIP3   OH2 6821   4.454   1.486   3.088
 2286TIP3    H1 6822   4.475   1.579   3.096
 2286TIP3    H2 6823   4.405   1.465   3.168
 2287TIP3   OH2 6824   2.064   6.736   1.666
 2287TIP3    H1 6825   2.113   6.815   1.689
 2287TIP3    H2 6826   1.973   6.758   1.687
 2288TIP3   OH2 6827   5.055   5.862   4.444
 2288TIP3    H1 6828   5.123   5.798   4.425
 2288TIP3    H2 6829   5.052   5.866   4.540
 2289TIP3   OH2 6830   0.197   5.512   2.593
 2289TIP3    H1 6831   0.199   5.473   2.680
 2289TIP3    H2 6832   0.287   5.507   2.562
 2290TIP3   OH2 6833   1.558   6.367   1.613
 2290TIP3    H1 6834   1.640   6.391   1.656
 2290TIP3    H2 6835   1.527   6.291   1.661
 2291TIP3   OH2 6836   5.304   0.802   4.028
 2291TIP3    H1 6837   5.395   0.830   4.019
 2291TIP3    H2 6838   5.298   0.773   4.120
 2292TIP3   OH2 6839   1.975   1.210   5.388
 2292TIP3    H1 6840   1.933   1.147   5.446
 2292TIP3    H2 6841   1.986   1.289   5.441
 2293TIP3   OH2 6842   3.328   3.328   5.293
 2293TIP3    H1 6843   3.419   3.351   5.278
 2293TIP3    H2 6844   3.279   3.380   5.230
 2294TIP3   OH2 6845   1.018   0.015   5.627
 2294TIP3    H1 6846   0.963   0.027   5.704
 2294TIP3    H2 6847   1.068  -0.064   5.644
 2295TIP3   OH2 6848   6.688   1.922   5.837
 2295TIP3    H1 6849   6.681   1.842   5.786
 2295TIP3    H2 6850   6.764   1.908   5.894
 2296TIP3   OH2 6851   0.721   5.039   4.080
 2296TIP3    H1 6852   0.787   4.982   4.040
 2296TIP3    H2 6853   0.659   4.979   4.120
 2297TIP3   OH2 6854   4.792   5.088   3.039
 2297TIP3    H1 6855   4.703   5.121   3.032
 2297TIP3    H2 6856   4.791   5.033   3.118
 2298TIP3   OH2 6857   6.047   1.052   3.316
 2298TIP3    H1 6858   6.080   0.964   3.331
 2298TIP3    H2 6859   5.990   1.069   3.390
 2299TIP3   OH2 6860   0.448   3.417   1.854
 2299TIP3    H1 6861   0.395   3.377   1.923
 2299TIP3    H2 6862   0.410   3.504   1.841
 2300TIP3   OH2 6863   6.371   6.185   4.475
 2300TIP3    H1 6864   6.289   6.141   4.494
 2300TIP3    H2 6865   6.379   6.179   4.379
 2301TIP3   OH2 6866   0.303   2.705   5.697
 2301TIP3    H1 6867   0.255   2.770   5.747
 2301TIP3    H2 6868   0.337   2.754   5.621
 2302TIP3   OH2 6869   3.109   3.587   4.192
 2302TIP3    H1 6870   3.042   3.599   4.260
 2302TIP3    H2 6871   3.191   3.587   4.241
 2303TIP3   OH2 6872   0.097   2.208   5.652
 2303TIP3    H1 6873   0.117   2.146   5.723
 2303TIP3    H2 6874   0.003   2.199   5.639
 2304TIP3   OH2 6875   1.115   2.906   5.217
 2304TIP3    H1 6876   1.133   2.994   5.182
 2304TIP3    H2 6877   1.129   2.848   5.142
 2305TIP3   OH2 6878   2.430   2.414   4.810
 2305TIP3    H1 6879   2.434   2.319   4.801
 2305TIP3    H2 6880   2.369   2.429   4.882
 2306TIP3   OH2 6881   4.993   6.500   0.820
 2306TIP3    H1 6882   5.043   6.442   0.879
 2306TIP3    H2 6883   4.976   6.578   0.872
 2307TIP3   OH2 6884   3.926   1.103   5.305
 2307TIP3    H1 6885   4.010   1.061   5.289
 2307TIP3    H2 6886   3.893   1.125   5.217
 2308TIP3   OH2 6887   5.855   4.648   4.107
 2308TIP3    H1 6888   5.895   4.733   4.122
 2308TIP3    H2 6889   5.920   4.599   4.057
 2309TIP3   OH2 6890   7.001   4.208   4.624
 2309TIP3    H1 6891   7.068   4.250   4.569
 2309TIP3    H2 6892   7.046   4.190   4.706
 2310TIP3   OH2 6893   0.192   3.694   2.276
 2310TIP3    H1 6894   0.255   3.632   2.312
 2310TIP3    H2 6895   0.128   3.639   2.230
 2311TIP3   OH2 6896   5.374   0.530   0.063
 2311TIP3    H1 6897   5.286   0.520   0.101
 2311TIP3    H2 6898   5.375   0.618   0.026
 2312TIP3   OH2 6899   6.348   3.383   0.285
 2312TIP3    H1 6900   6.301   3.377   0.202
 2312TIP3    H2 6901   6.285   3.353   0.350
 2313TIP3   OH2 6902   5.725   0.457   0.078
 2313TIP3    H1 6903   5.689   0.498   0.000
 2313TIP3    H2 6904   5.686   0.370   0.079
 2314TIP3   OH2 6905   6.151   3.577   2.965
 2314TIP3    H1 6906   6.212   3.519   3.011
 2314TIP3    H2 6907   6.180   3.665   2.987
 2315TIP3   OH2 6908   5.357   5.527   1.087
 2315TIP3    H1 6909   5.326   5.445   1.047
 2315TIP3    H2 6910   5.410   5.498   1.161
 2316TIP3   OH2 6911   3.232   3.873   1.640
 2316TIP3    H1 6912   3.185   3.885   1.723
 2316TIP3    H2 6913   3.249   3.779   1.635
 2317TIP3   OH2 6914   4.164   2.901   1.147
 2317TIP3    H1 6915   4.069   2.907   1.153
 2317TIP3    H2 6916   4.191   2.860   1.229
 2318TIP3   OH2 6917   1.058   6.026   3.485
 2318TIP3    H1 6918   1.120   5.996   3.552
 2318TIP3    H2 6919   1.100   6.003   3.402
 2319TIP3   OH2 6920   5.336   6.644   1.970
 2319TIP3    H1 6921   5.248   6.658   1.935
 2319TIP3    H2 6922   5.322   6.619   2.061
 2320TIP3   OH2 6923   1.952   2.939   1.734
 2320TIP3    H1 6924   1.861   2.915   1.717
 2320TIP3    H2 6925   1.970   3.012   1.674
 2321TIP3   OH2 6926   2.207   1.709   3.877
 2321TIP3    H1 6927   2.257   1.749   3.806
 2321TIP3    H2 6928   2.271   1.692   3.946
 2322TIP3   OH2 6929   5.682   1.805   2.194
 2322TIP3    H1 6930   5.742   1.848   2.134
 2322TIP3    H2 6931   5.597   1.810   2.150
 2323TIP3   OH2 6932   5.645   3.001   3.568
 2323TIP3    H1 6933   5.641   2.927   3.507
 2323TIP3    H2 6934   5.690   3.070   3.519
 2324TIP3   OH2 6935   7.091   5.988   1.623
 2324TIP3    H1 6936   7.048   6.070   1.601
 2324TIP3    H2 6937   7.084   5.935   1.543
 2325TIP3   OH2 6938   5.041   3.195   1.278
 2325TIP3    H1 6939   5.100   3.185   1.352
 2325TIP3    H2 6940   4.988   3.115   1.280
 2326TIP3   OH2 6941   1.672   4.878   3.272
 2326TIP3    H1 6942   1.612   4.890   3.199
 2326TIP3    H2 6943   1.621   4.831   3.338
 2327TIP3   OH2 6944   0.942   4.067   1.220
 2327TIP3    H1 6945   1.013   4.103   1.167
 2327TIP3    H2 6946   0.978   3.987   1.257
 2328TIP3   OH2 6947   6.907   6.308   0.260
 2328TIP3    H1 6948   6.880   6.231   0.209
 2328TIP3    H2 6949   6.906   6.380   0.197
 2329TIP3   OH2 6950   2.370   0.796   0.949
 2329TIP3    H1 6951   2.389   0.832   0.862
 2329TIP3    H2 6952   2.294   0.846   0.979
 2330TIP3   OH2 6953   0.434   0.609   2.034
 2330TIP3    H1 6954   0.348   0.641   2.063
 2330TIP3    H2 6955   0.446   0.528   2.083
 2331TIP3   OH2 6956   3.736   0.752   5.413
 2331TIP3    H1 6957   3.699   0.778   5.498
 2331TIP3    H2 6958   3.696   0.667   5.394
 2332TIP3   OH2 6959   0.820   4.968   2.108
 2332TIP3    H1 6960   0.855   4.888   2.069
 2332TIP3    H2 6961   0.736   4.942   2.146
 2333TIP3   OH2 6962   0.353   6.446   1.971
 2333TIP3    H1 6963   0.342   6.535   2.004
 2333TIP3    H2 6964   0.420   6.408   2.028
 2334TIP3   OH2 6965   0.394   4.354   1.353
 2334TIP3    H1 6966   0.386   4.293   1.426
 2334TIP3    H2 6967   0.324   4.330   1.293
 2335TIP3   OH2 6968   0.982   0.699   2.720
 2335TIP3    H1 6969   1.060   0.658   2.681
 2335TIP3    H2 6970   0.921   0.710   2.647
 2336TIP3   OH2 6971   6.724   6.731   1.335
 2336TIP3    H1 6972   6.755   6.716   1.424
 2336TIP3    H2 6973   6.803   6.747   1.284
 2337TIP3   OH2 6974   5.810   4.818   5.488
 2337TIP3    H1 6975   5.891   4.863   5.465
 2337TIP3    H2 6976   5.767   4.800   5.405
 2338TIP3   OH2 6977   5.389   5.579   4.503
 2338TIP3    H1 6978   5.362   5.487   4.494
 2338TIP3    H2 6979   5.429   5.584   4.590
 2339TIP3   OH2 6980   3.795   2.271   0.804
 2339TIP3    H1 6981   3.751   2.186   0.793
 2339TIP3    H2 6982   3.799   2.284   0.898
 2340TIP3   OH2 6983   2.897   2.292   3.913
 2340TIP3    H1 6984   2.812   2.319   3.950
 2340TIP3    H2 6985   2.957   2.362   3.937
 2341TIP3   OH2 6986   5.394   3.052   1.983
 2341TIP3    H1 6987   5.413   3.006   1.902
 2341TIP3    H2 6988   5.453   3.013   2.048
 2342TIP3   OH2 6989   4.024   6.012   2.478
 2342TIP3    H1 6990   4.115   5.990   2.495
 2342TIP3    H2 6991   3.977   5.977   2.554
 2343TIP3   OH2 6992   5.158   2.053   0.107
 2343TIP3    H1 6993   5.083   2.065   0.049
 2343TIP3    H2 6994   5.169   2.138   0.151
 2344TIP3   OH2 6995   4.770   1.250   0.515
 2344TIP3    H1 6996   4.780   1.279   0.606
 2344TIP3    H2 6997   4.730   1.325   0.470
 2345TIP3   OH2 6998   2.566   2.816   3.259
 2345TIP3    H1 6999   2.660   2.804   3.266
 2345TIP3    H2 7000   2.549   2.900   3.302
 2346TIP3   OH2 7001   5.612   3.280   1.775
 2346TIP3    H1 7002   5.606   3.197   1.728
 2346TIP3    H2 7003   5.526   3.290   1.817
 2347TIP3   OH2 7004   2.924   5.929   3.282
 2347TIP3    H1 7005   3.011   5.912   3.245
 2347TIP3    H2 7006   2.865   5.927   3.208
 2348TIP3   OH2 7007   1.237   0.995   2.911
 2348TIP3    H1 7008   1.256   0.919   2.966
 2348TIP3    H2 7009   1.226   1.068   2.973
 2349TIP3   OH2 7010   6.003   5.295   3.833
 2349TIP3    H1 7011   6.061   5.355   3.881
 2349TIP3    H2 7012   6.053   5.214   3.825
 2350TIP3   OH2 7013   3.859   1.196   4.769
 2350TIP3    H1 7014   3.946   1.205   4.730
 2350TIP3    H2 7015   3.810   1.271   4.737
 2351TIP3   OH2 7016   5.535   4.521   5.179
 2351TIP3    H1 7017   5.470   4.515   5.249
 2351TIP3    H2 7018   5.586   4.599   5.200
 2352TIP3   OH2 7019   1.643   5.833   4.322
 2352TIP3    H1 7020   1.670   5.778   4.248
 2352TIP3    H2 7021   1.570   5.785   4.362
 2353TIP3   OH2 7022   0.219   6.657   4.793
 2353TIP3    H1 7023   0.275   6.671   4.870
 2353TIP3    H2 7024   0.130   6.663   4.827
 2354TIP3   OH2 7025   1.038   0.992   1.890
 2354TIP3    H1 7026   0.996   0.906   1.892
 2354TIP3    H2 7027   0.975   1.049   1.847
 2355TIP3   OH2 7028   0.069   3.260   2.252
 2355TIP3    H1 7029   0.001   3.239   2.316
 2355TIP3    H2 7030   0.045   3.209   2.175
 2356TIP3   OH2 7031   1.084   3.993   1.631
 2356TIP3    H1 7032   1.013   3.994   1.696
 2356TIP3    H2 7033   1.162   4.017   1.680
 2357TIP3   OH2 7034   4.029   2.834   0.083
 2357TIP3    H1 7035   4.042   2.769   0.014
 2357TIP3    H2 7036   4.115   2.875   0.094
 2358TIP3   OH2 7037   0.658   0.458   1.737
 2358TIP3    H1 7038   0.703   0.476   1.819
 2358TIP3    H2 7039   0.588   0.523   1.734
 2359TIP3   OH2 7040   1.249   2.718   5.874
 2359TIP3    H1 7041   1.160   2.749   5.887
 2359TIP3    H2 7042   1.261   2.652   5.943
 2360TIP3   OH2 7043   5.602   2.586   5.731
 2360TIP3    H1 7044   5.638   2.626   5.652
 2360TIP3    H2 7045   5.601   2.493   5.713
 2361TIP3   OH2 7046   3.851   0.035   3.166
 2361TIP3    H1 7047   3.917  -0.018   3.211
 2361TIP3    H2 7048   3.902   0.095   3.112
 2362TIP3   OH2 7049   3.408   6.807   2.862
 2362TIP3    H1 7050   3.398   6.741   2.794
 2362TIP3    H2 7051   3.343   6.784   2.928
 2363TIP3   OH2 7052   2.954   6.097   3.562
 2363TIP3    H1 7053   2.916   6.035   3.500
 2363TIP3    H2 7054   2.893   6.171   3.563
 2364TIP3   OH2 7055   4.538   4.799   5.588
 2364TIP3    H1 7056   4.520   4.753   5.669
 2364TIP3    H2 7057   4.632   4.819   5.591
 2365TIP3   OH2 7058   4.207   5.352   4.879
 2365TIP3    H1 7059   4.176   5.310   4.799
 2365TIP3    H2 7060   4.248   5.433   4.849
 2366TIP3   OH2 7061   0.424   1.050   1.645
 2366TIP3    H1 7062   0.398   1.078   1.557
 2366TIP3    H2 7063   0.516   1.075   1.652
 2367TIP3   OH2 7064   1.829   6.320   5.019
 2367TIP3    H1 7065   1.797   6.287   5.103
 2367TIP3    H2 7066   1.760   6.297   4.956
 2368TIP3   OH2 7067   3.138   1.650   5.116
 2368TIP3    H1 7068   3.110   1.732   5.156
 2368TIP3    H2 7069   3.068   1.588   5.138
 2369TIP3   OH2 7070   0.111   1.561   4.297
 2369TIP3    H1 7071   0.048   1.518   4.356
 2369TIP3    H2 7072   0.131   1.494   4.232
 2370TIP3   OH2 7073   6.329   0.356   1.161
 2370TIP3    H1 7074   6.362   0.384   1.247
 2370TIP3    H2 7075   6.235   0.341   1.175
 2371TIP3   OH2 7076   2.243   4.243   2.661
 2371TIP3    H1 7077   2.244   4.339   2.655
 2371TIP3    H2 7078   2.332   4.217   2.639
 2372TIP3   OH2 7079   4.722   1.779   5.597
 2372TIP3    H1 7080   4.747   1.746   5.510
 2372TIP3    H2 7081   4.715   1.874   5.585
 2373TIP3   OH2 7082   4.860   2.851   2.300
 2373TIP3    H1 7083   4.900   2.787   2.241
 2373TIP3    H2 7084   4.838   2.925   2.243
 2374TIP3   OH2 7085   6.797   1.600   4.255
 2374TIP3    H1 7086   6.796   1.509   4.225
 2374TIP3    H2 7087   6.878   1.607   4.307
 2375TIP3   OH2 7088   5.210   3.862   5.492
 2375TIP3    H1 7089   5.195   3.948   5.454
 2375TIP3    H2 7090   5.157   3.803   5.439
 2376TIP3   OH2 7091   6.211   0.527   4.933
 2376TIP3    H1 7092   6.133   0.483   4.967
 2376TIP3    H2 7093   6.209   0.614   4.973
 2377TIP3   OH2 7094   3.743   3.639   5.245
 2377TIP3    H1 7095   3.670   3.644   5.307
 2377TIP3    H2 7096   3.768   3.730   5.228
 2378TIP3   OH2 7097   4.413   4.449   3.980
 2378TIP3    H1 7098   4.392   4.542   3.980
 2378TIP3    H2 7099   4.344   4.409   3.928
 2379TIP3   OH2 7100   3.459   1.091   5.137
 2379TIP3    H1 7101   3.497   1.054   5.057
 2379TIP3    H2 7102   3.523   1.072   5.205
 2380TIP3   OH2 7103   4.148   1.854   2.439
 2380TIP3    H1 7104   4.236   1.887   2.418
 2380TIP3    H2 7105   4.089   1.909   2.388
 2381TIP3   OH2 7106   6.856   1.010   5.400
 2381TIP3    H1 7107   6.897   0.944   5.457
 2381TIP3    H2 7108   6.918   1.019   5.327
 2382TIP3   OH2 7109   6.656   4.733   3.236
 2382TIP3    H1 7110   6.631   4.707   3.325
 2382TIP3    H2 7111   6.669   4.650   3.190
 2383TIP3   OH2 7112   6.569   3.147   5.152
 2383TIP3    H1 7113   6.609   3.145   5.065
 2383TIP3    H2 7114   6.642   3.132   5.212
 2384TIP3   OH2 7115   5.931   5.074   1.554
 2384TIP3    H1 7116   5.974   5.076   1.639
 2384TIP3    H2 7117   5.843   5.041   1.572
 2385TIP3   OH2 7118   1.007   6.262   1.796
 2385TIP3    H1 7119   1.022   6.344   1.748
 2385TIP3    H2 7120   0.930   6.224   1.755
 2386TIP3   OH2 7121   0.697   2.911   1.957
 2386TIP3    H1 7122   0.678   2.819   1.973
 2386TIP3    H2 7123   0.759   2.911   1.884
 2387TIP3   OH2 7124   0.081   4.576   2.176
 2387TIP3    H1 7125   0.022   4.567   2.251
 2387TIP3    H2 7126   0.100   4.670   2.172
 2388TIP3   OH2 7127   2.038   1.072   4.071
 2388TIP3    H1 7128   1.987   1.086   3.991
 2388TIP3    H2 7129   2.036   1.157   4.116
 2389TIP3   OH2 7130   1.241   6.181   4.637
 2389TIP3    H1 7131   1.292   6.214   4.711
 2389TIP3    H2 7132   1.156   6.224   4.644
 2390TIP3   OH2 7133   1.616   5.482   5.631
 2390TIP3    H1 7134   1.570   5.433   5.563
 2390TIP3    H2 7135   1.633   5.418   5.700
 2391TIP3   OH2 7136   3.800   5.312   5.618
 2391TIP3    H1 7137   3.707   5.295   5.630
 2391TIP3    H2 7138   3.837   5.227   5.593
 2392TIP3   OH2 7139   5.265   5.300   2.803
 2392TIP3    H1 7140   5.330   5.295   2.733
 2392TIP3    H2 7141   5.186   5.260   2.765
 2393TIP3   OH2 7142   3.270   5.158   3.641
 2393TIP3    H1 7143   3.313   5.233   3.682
 2393TIP3    H2 7144   3.196   5.139   3.699
 2394TIP3   OH2 7145   2.464   5.455   1.996
 2394TIP3    H1 7146   2.389   5.416   2.041
 2394TIP3    H2 7147   2.489   5.530   2.050
 2395TIP3   OH2 7148   2.642   1.463   0.960
 2395TIP3    H1 7149   2.676   1.384   1.002
 2395TIP3    H2 7150   2.608   1.516   1.032
 2396TIP3   OH2 7151   3.591   4.093   3.538
 2396TIP3    H1 7152   3.508   4.045   3.529
 2396TIP3    H2 7153   3.657   4.033   3.505
 2397TIP3   OH2 7154   2.090   4.871   4.531
 2397TIP3    H1 7155   2.184   4.864   4.546
 2397TIP3    H2 7156   2.056   4.784   4.551
 2398TIP3   OH2 7157   3.518   5.616   3.832
 2398TIP3    H1 7158   3.449   5.682   3.833
 2398TIP3    H2 7159   3.561   5.628   3.747
 2399TIP3   OH2 7160   6.121   3.876   0.711
 2399TIP3    H1 7161   6.104   3.782   0.707
 2399TIP3    H2 7162   6.050   3.911   0.764
 2400TIP3   OH2 7163   2.411   0.410   0.409
 2400TIP3    H1 7164   2.376   0.476   0.349
 2400TIP3    H2 7165   2.431   0.335   0.353
 2401TIP3   OH2 7166   2.827   2.887   2.697
 2401TIP3    H1 7167   2.764   2.902   2.768
 2401TIP3    H2 7168   2.909   2.865   2.742
 2402TIP3   OH2 7169   0.830   3.357   0.911
 2402TIP3    H1 7170   0.910   3.394   0.949
 2402TIP3    H2 7171   0.815   3.408   0.832
 2403TIP3   OH2 7172   5.147   6.469   2.776
 2403TIP3    H1 7173   5.109   6.498   2.693
 2403TIP3    H2 7174   5.152   6.548   2.830
 2404TIP3   OH2 7175   6.153   4.648   5.484
 2404TIP3    H1 7176   6.149   4.681   5.574
 2404TIP3    H2 7177   6.174   4.555   5.494
 2405TIP3   OH2 7178   4.860   3.110   2.484
 2405TIP3    H1 7179   4.923   3.051   2.443
 2405TIP3    H2 7180   4.778   3.096   2.436
 2406TIP3   OH2 7181   1.170   2.226   1.778
 2406TIP3    H1 7182   1.117   2.229   1.859
 2406TIP3    H2 7183   1.257   2.200   1.808
 2407TIP3   OH2 7184   0.911   2.721   5.002
 2407TIP3    H1 7185   0.949   2.762   4.924
 2407TIP3    H2 7186   0.839   2.668   4.968
 2408TIP3   OH2 7187   6.647   6.207   4.538
 2408TIP3    H1 7188   6.551   6.205   4.536
 2408TIP3    H2 7189   6.673   6.182   4.449
 2409TIP3   OH2 7190   3.044   3.523   5.882
 2409TIP3    H1 7191   3.090   3.477   5.812
 2409TIP3    H2 7192   2.977   3.574   5.836
 2410TIP3   OH2 7193   0.466   2.416   4.344
 2410TIP3    H1 7194   0.535   2.482   4.343
 2410TIP3    H2 7195   0.397   2.454   4.398
 2411TIP3   OH2 7196   4.801   6.778   0.524
 2411TIP3    H1 7197   4.800   6.712   0.455
 2411TIP3    H2 7198   4.883   6.763   0.570
 2412TIP3   OH2 7199   5.905   4.223   3.825
 2412TIP3    H1 7200   5.934   4.258   3.741
 2412TIP3    H2 7201   5.905   4.129   3.813
 2413TIP3   OH2 7202   0.532   2.759   4.141
 2413TIP3    H1 7203   0.582   2.759   4.223
 2413TIP3    H2 7204   0.455   2.706   4.160
 2414TIP3   OH2 7205   3.300   2.264   4.080
 2414TIP3    H1 7206   3.294   2.192   4.016
 2414TIP3    H2 7207   3.381   2.310   4.057
 2415TIP3   OH2 7208   7.077   4.167   3.456
 2415TIP3    H1 7209   7.000   4.211   3.421
 2415TIP3    H2 7210   7.135   4.237   3.483
 2416TIP3   OH2 7211   3.651   0.856   5.648
 2416TIP3    H1 7212   3.636   0.838   5.741
 2416TIP3    H2 7213   3.567   0.892   5.618
 2417TIP3   OH2 7214   6.926   6.076   3.823
 2417TIP3    H1 7215   6.997   6.105   3.766
 2417TIP3    H2 7216   6.918   6.145   3.889
 2418TIP3   OH2 7217   4.954   5.054   1.736
 2418TIP3    H1 7218   4.895   5.118   1.774
 2418TIP3    H2 7219   4.952   5.072   1.642
 2419TIP3   OH2 7220   0.872   6.814   2.702
 2419TIP3    H1 7221   0.898   6.725   2.722
 2419TIP3    H2 7222   0.953   6.860   2.683
 2420TIP3   OH2 7223   4.378   6.310   2.559
 2420TIP3    H1 7224   4.297   6.261   2.572
 2420TIP3    H2 7225   4.446   6.244   2.556
 2421TIP3   OH2 7226   5.960   2.193   5.580
 2421TIP3    H1 7227   6.013   2.222   5.655
 2421TIP3    H2 7228   5.913   2.272   5.552
 2422TIP3   OH2 7229   3.367   0.117   4.199
 2422TIP3    H1 7230   3.353   0.087   4.110
 2422TIP3    H2 7231   3.297   0.074   4.250
 2423TIP3   OH2 7232   4.412   5.111   4.823
 2423TIP3    H1 7233   4.428   5.153   4.908
 2423TIP3    H2 7234   4.420   5.182   4.759
 2424TIP3   OH2 7235   5.182   5.100   2.997
 2424TIP3    H1 7236   5.148   5.050   2.923
 2424TIP3    H2 7237   5.230   5.173   2.958
 2425TIP3   OH2 7238   4.096   0.457   3.363
 2425TIP3    H1 7239   4.103   0.524   3.430
 2425TIP3    H2 7240   4.008   0.422   3.372
 2426TIP3   OH2 7241   1.901   0.732   3.652
 2426TIP3    H1 7242   1.918   0.682   3.732
 2426TIP3    H2 7243   1.813   0.705   3.625
 2427TIP3   OH2 7244   2.075   4.678   4.058
 2427TIP3    H1 7245   2.157   4.725   4.038
 2427TIP3    H2 7246   2.043   4.649   3.972
 2428TIP3   OH2 7247   2.192   5.898   2.970
 2428TIP3    H1 7248   2.100   5.899   2.996
 2428TIP3    H2 7249   2.233   5.834   3.029
 2429TIP3   OH2 7250   1.254   4.906   1.925
 2429TIP3    H1 7251   1.209   4.973   1.875
 2429TIP3    H2 7252   1.343   4.940   1.937
 2430TIP3   OH2 7253   3.554   0.674   0.947
 2430TIP3    H1 7254   3.600   0.594   0.922
 2430TIP3    H2 7255   3.534   0.717   0.863
 2431TIP3   OH2 7256   5.528   5.364   3.575
 2431TIP3    H1 7257   5.489   5.451   3.567
 2431TIP3    H2 7258   5.609   5.378   3.624
 2432TIP3   OH2 7259   0.858   3.305   3.491
 2432TIP3    H1 7260   0.867   3.391   3.532
 2432TIP3    H2 7261   0.876   3.242   3.561
 2433TIP3   OH2 7262   4.521   1.994   3.556
 2433TIP3    H1 7263   4.606   1.993   3.601
 2433TIP3    H2 7264   4.482   2.078   3.581
 2434TIP3   OH2 7265   2.959   5.837   4.364
 2434TIP3    H1 7266   3.050   5.805   4.360
 2434TIP3    H2 7267   2.919   5.786   4.433
 2435TIP3   OH2 7268   0.942   2.694   2.032
 2435TIP3    H1 7269   0.849   2.684   2.016
 2435TIP3    H2 7270   0.984   2.626   1.979
 2436TIP3   OH2 7271   5.934   1.601   4.110
 2436TIP3    H1 7272   6.020   1.593   4.150
 2436TIP3    H2 7273   5.925   1.693   4.088
 2437TIP3   OH2 7274   4.640   2.499   2.164
 2437TIP3    H1 7275   4.656   2.556   2.089
 2437TIP3    H2 7276   4.618   2.559   2.235
 2438TIP3   OH2 7277   2.922   6.343   2.983
 2438TIP3    H1 7278   2.949   6.300   2.902
 2438TIP3    H2 7279   2.855   6.285   3.020
 2439TIP3   OH2 7280   0.338   0.633   0.220
 2439TIP3    H1 7281   0.330   0.540   0.243
 2439TIP3    H2 7282   0.405   0.667   0.279
 2440TIP3   OH2 7283   5.534   2.949   4.842
 2440TIP3    H1 7284   5.599   2.994   4.895
 2440TIP3    H2 7285   5.459   2.938   4.901
 2441TIP3   OH2 7286   1.756   3.007   4.369
 2441TIP3    H1 7287   1.850   3.024   4.362
 2441TIP3    H2 7288   1.749   2.929   4.423
 2442TIP3   OH2 7289   3.062   6.048   0.568
 2442TIP3    H1 7290   3.076   6.077   0.478
 2442TIP3    H2 7291   3.007   6.115   0.608
 2443TIP3   OH2 7292   1.131   3.472   5.071
 2443TIP3    H1 7293   1.188   3.499   4.999
 2443TIP3    H2 7294   1.183   3.407   5.119
 2444TIP3   OH2 7295   6.902   0.179   5.676
 2444TIP3    H1 7296   6.814   0.216   5.666
 2444TIP3    H2 7297   6.958   0.237   5.625
 2445TIP3   OH2 7298   5.020   1.251   0.373
 2445TIP3    H1 7299   5.043   1.340   0.348
 2445TIP3    H2 7300   4.929   1.256   0.402
 2446TIP3   OH2 7301   4.031   5.436   3.809
 2446TIP3    H1 7302   4.047   5.438   3.904
 2446TIP3    H2 7303   4.068   5.519   3.778
 2447TIP3   OH2 7304   5.307   4.207   1.927
 2447TIP3    H1 7305   5.283   4.202   1.834
 2447TIP3    H2 7306   5.352   4.123   1.944
 2448TIP3   OH2 7307   1.790   4.004   4.566
 2448TIP3    H1 7308   1.726   4.076   4.568
 2448TIP3    H2 7309   1.867   4.043   4.525
 2449TIP3   OH2 7310   1.119   4.995   2.247
 2449TIP3    H1 7311   1.052   5.018   2.312
 2449TIP3    H2 7312   1.071   4.989   2.164
 2450TIP3   OH2 7313   2.690   5.005   3.268
 2450TIP3    H1 7314   2.654   4.917   3.286
 2450TIP3    H2 7315   2.690   5.048   3.353
 2451TIP3   OH2 7316   1.177   5.118   4.498
 2451TIP3    H1 7317   1.100   5.063   4.483
 2451TIP3    H2 7318   1.141   5.202   4.524
 2452TIP3   OH2 7319   4.237   3.527   2.599
 2452TIP3    H1 7320   4.220   3.462   2.531
 2452TIP3    H2 7321   4.261   3.475   2.676
 2453TIP3   OH2 7322   0.761   2.675   3.428
 2453TIP3    H1 7323   0.684   2.675   3.371
 2453TIP3    H2 7324   0.805   2.758   3.407
 2454TIP3   OH2 7325   1.463   5.737   5.617
 2454TIP3    H1 7326   1.494   5.649   5.636
 2454TIP3    H2 7327   1.541   5.792   5.626
 2455TIP3   OH2 7328   1.605   0.710   1.109
 2455TIP3    H1 7329   1.637   0.629   1.148
 2455TIP3    H2 7330   1.526   0.683   1.061
 2456TIP3   OH2 7331   0.300   5.119   3.532
 2456TIP3    H1 7332   0.293   5.053   3.601
 2456TIP3    H2 7333   0.226   5.177   3.547
 2457TIP3   OH2 7334   1.164   1.023   4.287
 2457TIP3    H1 7335   1.122   1.016   4.372
 2457TIP3    H2 7336   1.206   1.109   4.287
 2458TIP3   OH2 7337   3.615   1.742   5.902
 2458TIP3    H1 7338   3.649   1.657   5.876
 2458TIP3    H2 7339   3.546   1.762   5.839
 2459TIP3   OH2 7340   5.904   4.214  -0.006
 2459TIP3    H1 7341   5.855   4.261   0.061
 2459TIP3    H2 7342   5.939   4.137   0.039
 2460TIP3   OH2 7343   4.902   2.246   5.074
 2460TIP3    H1 7344   4.984   2.201   5.094
 2460TIP3    H2 7345   4.928   2.335   5.050
 2461TIP3   OH2 7346   2.665   0.852   1.060
 2461TIP3    H1 7347   2.752   0.845   1.020
 2461TIP3    H2 7348   2.604   0.843   0.987
 2462TIP3   OH2 7349   0.244   4.086   3.388
 2462TIP3    H1 7350   0.201   4.093   3.473
 2462TIP3    H2 7351   0.333   4.116   3.403
 2463TIP3   OH2 7352   1.855   0.369   4.487
 2463TIP3    H1 7353   1.911   0.305   4.530
 2463TIP3    H2 7354   1.768   0.353   4.524
 2464TIP3   OH2 7355   3.092   4.047   1.254
 2464TIP3    H1 7356   3.176   4.012   1.223
 2464TIP3    H2 7357   3.091   4.138   1.221
 2465TIP3   OH2 7358   3.340   1.069   0.266
 2465TIP3    H1 7359   3.308   1.004   0.204
 2465TIP3    H2 7360   3.295   1.150   0.241
 2466TIP3   OH2 7361   1.990   3.937   4.121
 2466TIP3    H1 7362   2.047   3.992   4.175
 2466TIP3    H2 7363   2.023   3.848   4.133
 2467TIP3   OH2 7364   2.589   2.262   3.819
 2467TIP3    H1 7365   2.567   2.299   3.734
 2467TIP3    H2 7366   2.677   2.225   3.807
 2468TIP3   OH2 7367   3.837   4.285   0.536
 2468TIP3    H1 7368   3.815   4.201   0.577
 2468TIP3    H2 7369   3.900   4.325   0.595
 2469TIP3   OH2 7370   4.266   2.576   2.619
 2469TIP3    H1 7371   4.257   2.507   2.685
 2469TIP3    H2 7372   4.177   2.591   2.587
 2470TIP3   OH2 7373   7.066   4.122   1.185
 2470TIP3    H1 7374   7.132   4.096   1.121
 2470TIP3    H2 7375   7.058   4.217   1.174
 2471TIP3   OH2 7376   4.336   3.681   4.326
 2471TIP3    H1 7377   4.345   3.776   4.335
 2471TIP3    H2 7378   4.385   3.660   4.246
 2472TIP3   OH2 7379   1.867   2.546   0.030
 2472TIP3    H1 7380   1.834   2.551   0.120
 2472TIP3    H2 7381   1.841   2.460  -0.001
 2473TIP3   OH2 7382   4.793   5.688   4.809
 2473TIP3    H1 7383   4.715   5.701   4.754
 2473TIP3    H2 7384   4.773   5.735   4.890
 2474TIP3   OH2 7385   2.418   0.814   4.977
 2474TIP3    H1 7386   2.477   0.770   5.039
 2474TIP3    H2 7387   2.332   0.777   4.995
 2475TIP3   OH2 7388   4.451   3.756   3.469
 2475TIP3    H1 7389   4.472   3.771   3.561
 2475TIP3    H2 7390   4.380   3.817   3.450
 2476TIP3   OH2 7391   3.397   0.277   5.559
 2476TIP3    H1 7392   3.318   0.228   5.534
 2476TIP3    H2 7393   3.469   0.228   5.520
 2477TIP3   OH2 7394   2.063   2.647   0.692
 2477TIP3    H1 7395   2.141   2.700   0.671
 2477TIP3    H2 7396   2.049   2.594   0.613
 2478TIP3   OH2 7397   5.445   2.827   5.341
 2478TIP3    H1 7398   5.418   2.802   5.252
 2478TIP3    H2 7399   5.540   2.815   5.341
 2479TIP3   OH2 7400   7.123   2.647   0.595
 2479TIP3    H1 7401   7.168   2.576   0.641
 2479TIP3    H2 7402   7.193   2.706   0.567
 2480TIP3   OH2 7403   0.129   3.182   0.393
 2480TIP3    H1 7404   0.165   3.165   0.480
 2480TIP3    H2 7405   0.083   3.265   0.402
 2481TIP3   OH2 7406   4.626   2.675   1.407
 2481TIP3    H1 7407   4.693   2.743   1.404
 2481TIP3    H2 7408   4.587   2.678   1.319
 2482TIP3   OH2 7409   6.323   0.700   2.530
 2482TIP3    H1 7410   6.262   0.725   2.599
 2482TIP3    H2 7411   6.310   0.766   2.462
 2483TIP3   OH2 7412   1.504   6.381   0.248
 2483TIP3    H1 7413   1.441   6.317   0.281
 2483TIP3    H2 7414   1.505   6.369   0.154
 2484TIP3   OH2 7415   2.818   5.757   4.579
 2484TIP3    H1 7416   2.827   5.816   4.654
 2484TIP3    H2 7417   2.730   5.720   4.589
 2485TIP3   OH2 7418   4.959   6.840   1.624
 2485TIP3    H1 7419   4.919   6.920   1.589
 2485TIP3    H2 7420   4.898   6.770   1.600
 2486TIP3   OH2 7421   4.560   0.041   4.318
 2486TIP3    H1 7422   4.621   0.085   4.376
 2486TIP3    H2 7423   4.515  -0.022   4.375
 2487TIP3   OH2 7424   0.945   3.079   4.031
 2487TIP3    H1 7425   1.039   3.077   4.013
 2487TIP3    H2 7426   0.906   3.112   3.950
 2488TIP3   OH2 7427   6.358   5.075   2.678
 2488TIP3    H1 7428   6.333   5.160   2.715
 2488TIP3    H2 7429   6.339   5.084   2.585
 2489TIP3   OH2 7430   6.109   0.095   2.927
 2489TIP3    H1 7431   6.066   0.040   2.993
 2489TIP3    H2 7432   6.037   0.135   2.879
 2490TIP3   OH2 7433   6.791   4.991   4.923
 2490TIP3    H1 7434   6.851   4.927   4.886
 2490TIP3    H2 7435   6.727   5.006   4.854
 2491TIP3   OH2 7436   2.101   1.589   5.399
 2491TIP3    H1 7437   2.035   1.647   5.361
 2491TIP3    H2 7438   2.064   1.562   5.483
 2492TIP3   OH2 7439   6.622   6.756   0.706
 2492TIP3    H1 7440   6.639   6.850   0.700
 2492TIP3    H2 7441   6.527   6.749   0.715
 2493TIP3   OH2 7442   2.577   4.211   5.578
 2493TIP3    H1 7443   2.574   4.285   5.517
 2493TIP3    H2 7444   2.598   4.251   5.663
 2494TIP3   OH2 7445   4.495   3.301   0.578
 2494TIP3    H1 7446   4.547   3.349   0.513
 2494TIP3    H2 7447   4.404   3.322   0.555
 2495TIP3   OH2 7448   2.829   2.247   1.242
 2495TIP3    H1 7449   2.874   2.300   1.176
 2495TIP3    H2 7450   2.737   2.252   1.218
 2496TIP3   OH2 7451   6.972   6.485   4.662
 2496TIP3    H1 7452   6.941   6.546   4.595
 2496TIP3    H2 7453   6.965   6.533   4.744
 2497TIP3   OH2 7454   3.871   6.298   3.873
 2497TIP3    H1 7455   3.963   6.274   3.867
 2497TIP3    H2 7456   3.856   6.315   3.966
 2498TIP3   OH2 7457   6.921   5.140   5.116
 2498TIP3    H1 7458   6.937   5.099   5.201
 2498TIP3    H2 7459   6.896   5.067   5.059
 2499TIP3   OH2 7460   0.870   2.223   2.359
 2499TIP3    H1 7461   0.821   2.239   2.278
 2499TIP3    H2 7462   0.924   2.146   2.339
 2500TIP3   OH2 7463   6.230   1.099   2.195
 2500TIP3    H1 7464   6.158   1.155   2.225
 2500TIP3    H2 7465   6.246   1.128   2.105
 2501TIP3   OH2 7466   0.185   2.737   4.918
 2501TIP3    H1 7467   0.235   2.657   4.935
 2501TIP3    H2 7468   0.136   2.752   4.999
 2502TIP3   OH2 7469   5.394   5.285   2.041
 2502TIP3    H1 7470   5.319   5.290   2.099
 2502TIP3    H2 7471   5.459   5.234   2.089
 2503TIP3   OH2 7472   3.970   1.728   2.129
 2503TIP3    H1 7473   3.878   1.702   2.135
 2503TIP3    H2 7474   3.976   1.778   2.048
 2504TIP3   OH2 7475   5.290   6.466   4.477
 2504TIP3    H1 7476   5.296   6.414   4.557
 2504TIP3    H2 7477   5.249   6.548   4.504
 2505TIP3   OH2 7478   0.105   3.239   5.775
 2505TIP3    H1 7479   0.130   3.168   5.716
 2505TIP3    H2 7480   0.023   3.273   5.739
 2506TIP3   OH2 7481   4.975   3.434   0.725
 2506TIP3    H1 7482   4.987   3.345   0.759
 2506TIP3    H2 7483   4.991   3.425   0.631
 2507TIP3   OH2 7484   2.015   5.135   4.494
 2507TIP3    H1 7485   2.060   5.051   4.494
 2507TIP3    H2 7486   1.924   5.114   4.475
 2508TIP3   OH2 7487   7.195   3.835   1.410
 2508TIP3    H1 7488   7.213   3.774   1.338
 2508TIP3    H2 7489   7.220   3.921   1.375
 2509TIP3   OH2 7490   5.069   6.385   4.311
 2509TIP3    H1 7491   5.110   6.315   4.261
 2509TIP3    H2 7492   5.132   6.406   4.379
 2510TIP3   OH2 7493   1.992   0.627   3.426
 2510TIP3    H1 7494   1.997   0.679   3.346
 2510TIP3    H2 7495   1.997   0.692   3.497
 2511TIP3   OH2 7496   2.984   5.941   2.774
 2511TIP3    H1 7497   2.911   5.879   2.769
 2511TIP3    H2 7498   3.056   5.890   2.811
 2512TIP3   OH2 7499   3.162   2.447   2.644
 2512TIP3    H1 7500   3.206   2.529   2.624
 2512TIP3    H2 7501   3.122   2.461   2.730
 2513TIP3   OH2 7502   6.674   5.982   0.480
 2513TIP3    H1 7503   6.656   5.916   0.414
 2513TIP3    H2 7504   6.668   5.935   0.563
 2514TIP3   OH2 7505   5.176   0.381   0.353
 2514TIP3    H1 7506   5.248   0.341   0.305
 2514TIP3    H2 7507   5.125   0.307   0.386
 2515TIP3   OH2 7508   5.585   5.833   2.457
 2515TIP3    H1 7509   5.505   5.788   2.430
 2515TIP3    H2 7510   5.555   5.914   2.497
 2516TIP3   OH2 7511   1.821   5.472   4.450
 2516TIP3    H1 7512   1.901   5.522   4.436
 2516TIP3    H2 7513   1.828   5.398   4.390
 2517TIP3   OH2 7514   6.278   1.730   3.465
 2517TIP3    H1 7515   6.241   1.661   3.411
 2517TIP3    H2 7516   6.325   1.787   3.404
 2518TIP3   OH2 7517   4.006   0.231   0.321
 2518TIP3    H1 7518   4.000   0.289   0.245
 2518TIP3    H2 7519   3.916   0.204   0.338
 2519TIP3   OH2 7520   6.778   5.141   3.137
 2519TIP3    H1 7521   6.709   5.166   3.076
 2519TIP3    H2 7522   6.767   5.047   3.149
 2520TIP3   OH2 7523   1.021   0.469   0.380
 2520TIP3    H1 7524   1.070   0.550   0.368
 2520TIP3    H2 7525   1.029   0.424   0.296
 2521TIP3   OH2 7526   4.429   3.337   3.913
 2521TIP3    H1 7527   4.411   3.428   3.892
 2521TIP3    H2 7528   4.375   3.287   3.852
 2522TIP3   OH2 7529   4.427   5.917   5.658
 2522TIP3    H1 7530   4.437   5.919   5.754
 2522TIP3    H2 7531   4.491   5.980   5.626
 2523TIP3   OH2 7532   1.537   2.825  -0.010
 2523TIP3    H1 7533   1.556   2.896   0.051
 2523TIP3    H2 7534   1.618   2.813  -0.058
 2524TIP3   OH2 7535   5.852   2.926   1.639
 2524TIP3    H1 7536   5.878   3.017   1.644
 2524TIP3    H2 7537   5.860   2.893   1.728
 2525TIP3   OH2 7538   7.213   0.531   0.430
 2525TIP3    H1 7539   7.275   0.463   0.404
 2525TIP3    H2 7540   7.163   0.549   0.350
 2526TIP3   OH2 7541   2.089   4.845   5.001
 2526TIP3    H1 7542   2.095   4.873   5.092
 2526TIP3    H2 7543   2.011   4.889   4.968
 2527TIP3   OH2 7544   2.875   3.636   5.702
 2527TIP3    H1 7545   2.817   3.594   5.639
 2527TIP3    H2 7546   2.909   3.712   5.655
 2528TIP3   OH2 7547   1.281   4.741   2.855
 2528TIP3    H1 7548   1.278   4.673   2.922
 2528TIP3    H2 7549   1.190   4.750   2.825
 2529TIP3   OH2 7550   3.773   5.050   2.847
 2529TIP3    H1 7551   3.865   5.059   2.822
 2529TIP3    H2 7552   3.756   4.956   2.843
 2530TIP3   OH2 7553   6.615   3.181   4.667
 2530TIP3    H1 7554   6.542   3.160   4.608
 2530TIP3    H2 7555   6.692   3.148   4.621
 2531TIP3   OH2 7556   6.070   5.574   5.458
 2531TIP3    H1 7557   6.037   5.566   5.547
 2531TIP3    H2 7558   6.006   5.632   5.415
 2532TIP3   OH2 7559   0.613   4.508   4.890
 2532TIP3    H1 7560   0.561   4.448   4.836
 2532TIP3    H2 7561   0.689   4.456   4.917
 2533TIP3   OH2 7562   0.910   0.305   4.855
 2533TIP3    H1 7563   0.880   0.344   4.938
 2533TIP3    H2 7564   0.939   0.380   4.803
 2534TIP3   OH2 7565   4.984   3.819   3.210
 2534TIP3    H1 7566   4.896   3.849   3.233
 2534TIP3    H2 7567   5.042   3.884   3.251
 2535TIP3   OH2 7568   5.186   5.087   3.752
 2535TIP3    H1 7569   5.154   5.035   3.678
 2535TIP3    H2 7570   5.116   5.151   3.768
 2536TIP3   OH2 7571   6.081   5.194   5.823
 2536TIP3    H1 7572   6.152   5.135   5.796
 2536TIP3    H2 7573   6.121   5.281   5.823
 2537TIP3   OH2 7574   3.515   3.402   1.724
 2537TIP3    H1 7575   3.501   3.362   1.809
 2537TIP3    H2 7576   3.439   3.376   1.672
 2538TIP3   OH2 7577   2.483   4.714   4.822
 2538TIP3    H1 7578   2.567   4.669   4.811
 2538TIP3    H2 7579   2.488   4.752   4.910
 2539TIP3   OH2 7580   2.673   4.428   2.951
 2539TIP3    H1 7581   2.761   4.411   2.916
 2539TIP3    H2 7582   2.615   4.374   2.898
 2540TIP3   OH2 7583   1.383   4.492   3.583
 2540TIP3    H1 7584   1.385   4.442   3.664
 2540TIP3    H2 7585   1.356   4.429   3.516
 2541TIP3   OH2 7586   2.136   4.015   3.003
 2541TIP3    H1 7587   2.123   3.957   3.078
 2541TIP3    H2 7588   2.092   3.969   2.931
 2542TIP3   OH2 7589   2.235   1.813   2.899
 2542TIP3    H1 7590   2.319   1.828   2.857
 2542TIP3    H2 7591   2.174   1.795   2.827
 2543TIP3   OH2 7592   2.176   4.593   2.202
 2543TIP3    H1 7593   2.096   4.583   2.254
 2543TIP3    H2 7594   2.146   4.593   2.111
 2544TIP3   OH2 7595   2.850   1.587   3.789
 2544TIP3    H1 7596   2.804   1.670   3.805
 2544TIP3    H2 7597   2.819   1.529   3.859
 2545TIP3   OH2 7598   3.677   2.707   5.441
 2545TIP3    H1 7599   3.632   2.642   5.387
 2545TIP3    H2 7600   3.703   2.775   5.379
 2546TIP3   OH2 7601   0.097   1.087   4.238
 2546TIP3    H1 7602   0.189   1.058   4.244
 2546TIP3    H2 7603   0.049   1.022   4.289
 2547TIP3   OH2 7604   2.581   6.197   1.143
 2547TIP3    H1 7605   2.494   6.233   1.163
 2547TIP3    H2 7606   2.628   6.202   1.226
 2548TIP3   OH2 7607   2.424   3.557   5.174
 2548TIP3    H1 7608   2.354   3.583   5.114
 2548TIP3    H2 7609   2.502   3.601   5.141
 2549TIP3   OH2 7610   4.265   3.403   4.435
 2549TIP3    H1 7611   4.305   3.429   4.352
 2549TIP3    H2 7612   4.227   3.484   4.469
 2550TIP3   OH2 7613   0.157   5.380   3.022
 2550TIP3    H1 7614   0.221   5.450   3.037
 2550TIP3    H2 7615   0.209   5.304   2.997
 2551TIP3   OH2 7616   4.358   3.289   3.567
 2551TIP3    H1 7617   4.334   3.344   3.641
 2551TIP3    H2 7618   4.413   3.345   3.512
 2552TIP3   OH2 7619   6.238   6.420   4.751
 2552TIP3    H1 7620   6.199   6.486   4.694
 2552TIP3    H2 7621   6.244   6.463   4.837
 2553TIP3   OH2 7622   4.562   1.294   4.193
 2553TIP3    H1 7623   4.651   1.281   4.224
 2553TIP3    H2 7624   4.568   1.369   4.134
 2554TIP3   OH2 7625   0.308   1.261   5.879
 2554TIP3    H1 7626   0.232   1.316   5.862
 2554TIP3    H2 7627   0.272   1.174   5.897
 2555TIP3   OH2 7628   1.154   1.186   4.862
 2555TIP3    H1 7629   1.171   1.256   4.800
 2555TIP3    H2 7630   1.119   1.229   4.939
 2556TIP3   OH2 7631   2.318   6.221   4.375
 2556TIP3    H1 7632   2.413   6.229   4.363
 2556TIP3    H2 7633   2.292   6.303   4.415
 2557TIP3   OH2 7634   0.823   0.325   0.482
 2557TIP3    H1 7635   0.878   0.247   0.483
 2557TIP3    H2 7636   0.882   0.396   0.459
 2558TIP3   OH2 7637   1.173   5.491   0.891
 2558TIP3    H1 7638   1.254   5.530   0.858
 2558TIP3    H2 7639   1.195   5.400   0.909
 2559TIP3   OH2 7640   0.223   0.451   3.481
 2559TIP3    H1 7641   0.127   0.454   3.479
 2559TIP3    H2 7642   0.245   0.364   3.449
 2560TIP3   OH2 7643   0.627   5.953   0.956
 2560TIP3    H1 7644   0.571   6.027   0.982
 2560TIP3    H2 7645   0.716   5.985   0.971
 2561TIP3   OH2 7646   1.883   6.015   0.099
 2561TIP3    H1 7647   1.803   6.036   0.147
 2561TIP3    H2 7648   1.876   5.923   0.077
 2562TIP3   OH2 7649   0.138   1.644   4.805
 2562TIP3    H1 7650   0.196   1.719   4.819
 2562TIP3    H2 7651   0.158   1.585   4.877
 2563TIP3   OH2 7652   2.526   3.769   2.160
 2563TIP3    H1 7653   2.483   3.778   2.075
 2563TIP3    H2 7654   2.497   3.845   2.210
 2564TIP3   OH2 7655   4.840   1.402   2.143
 2564TIP3    H1 7656   4.809   1.485   2.178
 2564TIP3    H2 7657   4.829   1.340   2.215
 2565TIP3   OH2 7658   2.661   6.290   0.864
 2565TIP3    H1 7659   2.566   6.302   0.864
 2565TIP3    H2 7660   2.683   6.278   0.956
 2566TIP3   OH2 7661   0.604   0.452   0.343
 2566TIP3    H1 7662   0.683   0.408   0.374
 2566TIP3    H2 7663   0.615   0.456   0.248
 2567TIP3   OH2 7664   7.029   2.179   3.433
 2567TIP3    H1 7665   7.114   2.139   3.455
 2567TIP3    H2 7666   7.010   2.146   3.345
 2568TIP3   OH2 7667   4.440   6.754   0.987
 2568TIP3    H1 7668   4.470   6.779   0.899
 2568TIP3    H2 7669   4.448   6.659   0.990
 2569TIP3   OH2 7670   1.449   3.344   1.291
 2569TIP3    H1 7671   1.515   3.324   1.357
 2569TIP3    H2 7672   1.500   3.371   1.214
 2570TIP3   OH2 7673   5.172   1.992   3.539
 2570TIP3    H1 7674   5.200   1.961   3.625
 2570TIP3    H2 7675   5.160   1.913   3.487
 2571TIP3   OH2 7676   3.577   1.250   4.831
 2571TIP3    H1 7677   3.568   1.159   4.860
 2571TIP3    H2 7678   3.593   1.244   4.737
 2572TIP3   OH2 7679   4.099   3.648   2.162
 2572TIP3    H1 7680   4.138   3.721   2.209
 2572TIP3    H2 7681   4.062   3.687   2.083
 2573TIP3   OH2 7682   3.734   6.070   4.428
 2573TIP3    H1 7683   3.789   6.098   4.501
 2573TIP3    H2 7684   3.645   6.089   4.458
 2574TIP3   OH2 7685   1.608   2.953   4.141
 2574TIP3    H1 7686   1.657   2.993   4.214
 2574TIP3    H2 7687   1.611   2.859   4.159
 2575TIP3   OH2 7688   5.621   1.776   4.431
 2575TIP3    H1 7689   5.577   1.794   4.348
 2575TIP3    H2 7690   5.705   1.821   4.424
 2576TIP3   OH2 7691   6.976   0.703   5.814
 2576TIP3    H1 7692   7.070   0.694   5.829
 2576TIP3    H2 7693   6.954   0.787   5.856
 2577TIP3   OH2 7694   1.211   5.987   3.257
 2577TIP3    H1 7695   1.194   5.909   3.203
 2577TIP3    H2 7696   1.303   6.006   3.243
 2578TIP3   OH2 7697   1.198   2.298   1.219
 2578TIP3    H1 7698   1.228   2.351   1.145
 2578TIP3    H2 7699   1.111   2.267   1.194
 2579TIP3   OH2 7700   2.052   5.007   3.583
 2579TIP3    H1 7701   2.014   5.089   3.549
 2579TIP3    H2 7702   1.996   4.938   3.546
 2580TIP3   OH2 7703   0.213   4.406   2.465
 2580TIP3    H1 7704   0.297   4.359   2.472
 2580TIP3    H2 7705   0.237   4.498   2.464
 2581TIP3   OH2 7706   6.735   6.354   3.819
 2581TIP3    H1 7707   6.764   6.405   3.895
 2581TIP3    H2 7708   6.709   6.421   3.755
 2582TIP3   OH2 7709   5.272   5.725   4.317
 2582TIP3    H1 7710   5.327   5.719   4.395
 2582TIP3    H2 7711   5.321   5.780   4.256
 2583TIP3   OH2 7712   6.897   3.700   5.451
 2583TIP3    H1 7713   6.923   3.661   5.534
 2583TIP3    H2 7714   6.802   3.692   5.449
 2584TIP3   OH2 7715   4.299   4.032   3.319
 2584TIP3    H1 7716   4.342   4.118   3.319
 2584TIP3    H2 7717   4.211   4.049   3.286
 2585TIP3   OH2 7718   6.906   3.662   0.365
 2585TIP3    H1 7719   6.916   3.599   0.294
 2585TIP3    H2 7720   6.832   3.716   0.339
 2586TIP3   OH2 7721   5.758   4.952   1.766
 2586TIP3    H1 7722   5.848   4.974   1.790
 2586TIP3    H2 7723   5.721   4.912   1.845
 2587TIP3   OH2 7724   4.349   2.401   3.359
 2587TIP3    H1 7725   4.373   2.382   3.268
 2587TIP3    H2 7726   4.261   2.365   3.368
 2588TIP3   OH2 7727   6.729   6.563   3.605
 2588TIP3    H1 7728   6.740   6.646   3.651
 2588TIP3    H2 7729   6.650   6.576   3.551
 2589TIP3   OH2 7730   6.410   4.041   3.313
 2589TIP3    H1 7731   6.426   3.973   3.378
 2589TIP3    H2 7732   6.366   3.995   3.241
 2590TIP3   OH2 7733   6.860   0.847   2.986
 2590TIP3    H1 7734   6.849   0.872   3.078
 2590TIP3    H2 7735   6.774   0.814   2.959
 2591TIP3   OH2 7736   7.103   6.280   3.669
 2591TIP3    H1 7737   7.126   6.338   3.741
 2591TIP3    H2 7738   7.179   6.282   3.611
 2592TIP3   OH2 7739   6.413   6.412   3.942
 2592TIP3    H1 7740   6.485   6.352   3.965
 2592TIP3    H2 7741   6.398   6.463   4.021
 2593TIP3   OH2 7742   6.275   2.211   0.015
 2593TIP3    H1 7743   6.355   2.178   0.056
 2593TIP3    H2 7744   6.286   2.306   0.012
 2594TIP3   OH2 7745   6.894   5.741   1.183
 2594TIP3    H1 7746   6.980   5.704   1.204
 2594TIP3    H2 7747   6.833   5.692   1.239
 2595TIP3   OH2 7748   2.376   4.685   4.002
 2595TIP3    H1 7749   2.370   4.734   3.920
 2595TIP3    H2 7750   2.440   4.616   3.984
 2596TIP3   OH2 7751   2.764   2.714   3.891
 2596TIP3    H1 7752   2.731   2.642   3.837
 2596TIP3    H2 7753   2.753   2.683   3.981
 2597TIP3   OH2 7754   5.000   1.274   2.726
 2597TIP3    H1 7755   5.050   1.235   2.655
 2597TIP3    H2 7756   5.024   1.223   2.803
 2598TIP3   OH2 7757   3.235   3.077   4.053
 2598TIP3    H1 7758   3.240   3.015   4.125
 2598TIP3    H2 7759   3.199   3.157   4.092
 2599TIP3   OH2 7760   0.036   4.505   0.065
 2599TIP3    H1 7761  -0.056   4.506   0.039
 2599TIP3    H2 7762   0.034   4.480   0.158
 2600TIP3   OH2 7763   5.167   2.090   1.220
 2600TIP3    H1 7764   5.204   2.065   1.304
 2600TIP3    H2 7765   5.202   2.026   1.158
 2601TIP3   OH2 7766   0.187   3.741   4.898
 2601TIP3    H1 7767   0.119   3.793   4.940
 2601TIP3    H2 7768   0.148   3.655   4.886
 2602TIP3   OH2 7769   2.331   0.922   3.287
 2602TIP3    H1 7770   2.420   0.900   3.260
 2602TIP3    H2 7771   2.341   0.990   3.353
 2603TIP3   OH2 7772   5.513   6.360   4.986
 2603TIP3    H1 7773   5.608   6.357   5.002
 2603TIP3    H2 7774   5.477   6.404   5.063
 2604TIP3   OH2 7775   4.022   3.790   1.939
 2604TIP3    H1 7776   4.020   3.875   1.983
 2604TIP3    H2 7777   4.091   3.799   1.873
 2605TIP3   OH2 7778   7.065   5.422   4.359
 2605TIP3    H1 7779   7.141   5.421   4.417
 2605TIP3    H2 7780   7.043   5.514   4.348
 2606TIP3   OH2 7781   1.154   0.232   5.552
 2606TIP3    H1 7782   1.168   0.277   5.636
 2606TIP3    H2 7783   1.103   0.154   5.574
 2607TIP3   OH2 7784   2.078   3.527   1.491
 2607TIP3    H1 7785   2.013   3.550   1.557
 2607TIP3    H2 7786   2.068   3.593   1.423
 2608TIP3   OH2 7787   3.344   6.299   5.739
 2608TIP3    H1 7788   3.294   6.262   5.812
 2608TIP3    H2 7789   3.407   6.231   5.716
 2609TIP3   OH2 7790   2.533   6.077   5.367
 2609TIP3    H1 7791   2.614   6.029   5.384
 2609TIP3    H2 7792   2.499   6.098   5.454
 2610TIP3   OH2 7793   4.335   2.161   4.006
 2610TIP3    H1 7794   4.258   2.106   4.020
 2610TIP3    H2 7795   4.300   2.243   3.972
 2611TIP3   OH2 7796   4.665   2.864   0.281
 2611TIP3    H1 7797   4.758   2.886   0.287
 2611TIP3    H2 7798   4.623   2.918   0.348
 2612TIP3   OH2 7799   0.704   4.039   1.375
 2612TIP3    H1 7800   0.775   4.097   1.346
 2612TIP3    H2 7801   0.648   4.095   1.429
 2613TIP3   OH2 7802   7.005   2.046   5.121
 2613TIP3    H1 7803   6.940   2.024   5.054
 2613TIP3    H2 7804   7.089   2.030   5.078
 2614TIP3   OH2 7805   0.761   2.050   1.107
 2614TIP3    H1 7806   0.666   2.040   1.118
 2614TIP3    H2 7807   0.799   2.003   1.181
 2615TIP3   OH2 7808   6.145   1.519   0.940
 2615TIP3    H1 7809   6.107   1.444   0.986
 2615TIP3    H2 7810   6.191   1.480   0.866
 2616TIP3   OH2 7811   0.556   5.027   4.879
 2616TIP3    H1 7812   0.621   4.978   4.930
 2616TIP3    H2 7813   0.482   5.037   4.939
 2617TIP3   OH2 7814   7.249   0.569   1.784
 2617TIP3    H1 7815   7.157   0.542   1.782
 2617TIP3    H2 7816   7.253   0.635   1.853
 2618TIP3   OH2 7817   4.154   2.875   0.493
 2618TIP3    H1 7818   4.146   2.969   0.481
 2618TIP3    H2 7819   4.070   2.848   0.530
 2619TIP3   OH2 7820   5.309   1.934   3.795
 2619TIP3    H1 7821   5.367   2.000   3.757
 2619TIP3    H2 7822   5.368   1.879   3.848
 2620TIP3   OH2 7823   0.334   1.488   0.444
 2620TIP3    H1 7824   0.360   1.449   0.527
 2620TIP3    H2 7825   0.258   1.436   0.416
 2621TIP3   OH2 7826   1.234   4.069   4.953
 2621TIP3    H1 7827   1.328   4.081   4.962
 2621TIP3    H2 7828   1.217   4.080   4.859
 2622TIP3   OH2 7829   0.284   2.993   1.663
 2622TIP3    H1 7830   0.213   3.003   1.726
 2622TIP3    H2 7831   0.348   3.060   1.688
 2623TIP3   OH2 7832   2.164   3.366   1.175
 2623TIP3    H1 7833   2.222   3.326   1.110
 2623TIP3    H2 7834   2.223   3.397   1.244
 2624TIP3   OH2 7835   4.674   0.840   1.871
 2624TIP3    H1 7836   4.768   0.846   1.887
 2624TIP3    H2 7837   4.661   0.880   1.785
 2625TIP3   OH2 7838   7.054   5.242   3.023
 2625TIP3    H1 7839   7.075   5.152   2.997
 2625TIP3    H2 7840   6.963   5.238   3.053
 2626TIP3   OH2 7841   2.280   0.998   3.895
 2626TIP3    H1 7842   2.229   1.010   3.975
 2626TIP3    H2 7843   2.216   1.011   3.825
 2627TIP3   OH2 7844   0.531   5.623   3.371
 2627TIP3    H1 7845   0.564   5.635   3.282
 2627TIP3    H2 7846   0.450   5.573   3.360
 2628TIP3   OH2 7847   0.455   0.513   4.532
 2628TIP3    H1 7848   0.536   0.463   4.522
 2628TIP3    H2 7849   0.445   0.559   4.448
 2629TIP3   OH2 7850   2.630   6.322   1.787
 2629TIP3    H1 7851   2.614   6.335   1.694
 2629TIP3    H2 7852   2.558   6.368   1.830
 2630TIP3   OH2 7853   6.629   2.833   4.838
 2630TIP3    H1 7854   6.632   2.913   4.891
 2630TIP3    H2 7855   6.536   2.817   4.824
 2631TIP3   OH2 7856   2.184   2.211   5.819
 2631TIP3    H1 7857   2.130   2.134   5.805
 2631TIP3    H2 7858   2.274   2.180   5.813
 2632TIP3   OH2 7859   4.762   2.062   3.680
 2632TIP3    H1 7860   4.752   2.108   3.764
 2632TIP3    H2 7861   4.791   1.974   3.704
 2633TIP3   OH2 7862   3.775   5.968   3.721
 2633TIP3    H1 7863   3.729   6.036   3.769
 2633TIP3    H2 7864   3.712   5.938   3.655
 2634TIP3   OH2 7865   5.636   6.450   2.178
 2634TIP3    H1 7866   5.556   6.402   2.200
 2634TIP3    H2 7867   5.670   6.405   2.100
 2635TIP3   OH2 7868   1.816   3.422   0.252
 2635TIP3    H1 7869   1.870   3.427   0.331
 2635TIP3    H2 7870   1.876   3.439   0.180
 2636TIP3   OH2 7871   0.091   2.113   3.613
 2636TIP3    H1 7872   0.066   2.200   3.646
 2636TIP3    H2 7873   0.184   2.105   3.633
 2637TIP3   OH2 7874   0.345   5.874   3.140
 2637TIP3    H1 7875   0.356   5.951   3.196
 2637TIP3    H2 7876   0.408   5.811   3.174
 2638TIP3   OH2 7877   6.009   4.653   1.472
 2638TIP3    H1 7878   6.047   4.567   1.457
 2638TIP3    H2 7879   6.082   4.714   1.461
 2639TIP3   OH2 7880   3.339   3.526   3.042
 2639TIP3    H1 7881   3.409   3.539   2.978
 2639TIP3    H2 7882   3.381   3.538   3.127
 2640TIP3   OH2 7883   6.899   4.679   0.742
 2640TIP3    H1 7884   6.942   4.758   0.775
 2640TIP3    H2 7885   6.950   4.654   0.665
 2641TIP3   OH2 7886   4.854   5.448   0.244
 2641TIP3    H1 7887   4.810   5.532   0.259
 2641TIP3    H2 7888   4.784   5.390   0.215
 2642TIP3   OH2 7889   2.744   4.675   2.724
 2642TIP3    H1 7890   2.752   4.669   2.819
 2642TIP3    H2 7891   2.826   4.640   2.690
 2643TIP3   OH2 7892   3.990   1.489   1.815
 2643TIP3    H1 7893   3.983   1.551   1.742
 2643TIP3    H2 7894   3.986   1.403   1.773
 2644TIP3   OH2 7895   5.661   0.828   5.692
 2644TIP3    H1 7896   5.707   0.905   5.657
 2644TIP3    H2 7897   5.591   0.865   5.747
 2645TIP3   OH2 7898   5.059   2.866   3.429
 2645TIP3    H1 7899   5.048   2.831   3.340
 2645TIP3    H2 7900   5.150   2.845   3.452
 2646TIP3   OH2 7901   3.747   1.230   1.935
 2646TIP3    H1 7902   3.731   1.186   2.019
 2646TIP3    H2 7903   3.810   1.172   1.891
 2647TIP3   OH2 7904   3.942   3.537   1.561
 2647TIP3    H1 7905   3.859   3.566   1.600
 2647TIP3    H2 7906   3.981   3.618   1.527
 2648TIP3   OH2 7907   5.523   5.385   1.800
 2648TIP3    H1 7908   5.504   5.338   1.882
 2648TIP3    H2 7909   5.570   5.322   1.746
 2649TIP3   OH2 7910   5.933   6.043   2.175
 2649TIP3    H1 7911   5.899   6.020   2.262
 2649TIP3    H2 7912   6.024   6.013   2.178
 2650TIP3   OH2 7913   3.528   4.083   0.332
 2650TIP3    H1 7914   3.600   4.135   0.296
 2650TIP3    H2 7915   3.449   4.123   0.297
 2651TIP3   OH2 7916   6.677   1.902   4.046
 2651TIP3    H1 7917   6.764   1.884   4.011
 2651TIP3    H2 7918   6.618   1.851   3.991
 2652TIP3   OH2 7919   5.610   4.006   3.399
 2652TIP3    H1 7920   5.658   3.954   3.463
 2652TIP3    H2 7921   5.658   4.089   3.395
 2653TIP3   OH2 7922   7.115   6.578   0.033
 2653TIP3    H1 7923   7.048   6.512   0.052
 2653TIP3    H2 7924   7.175   6.535  -0.027
 2654TIP3   OH2 7925   2.564   4.799   0.956
 2654TIP3    H1 7926   2.545   4.841   0.872
 2654TIP3    H2 7927   2.654   4.825   0.976
 2655TIP3   OH2 7928   6.585   3.665   1.734
 2655TIP3    H1 7929   6.524   3.593   1.720
 2655TIP3    H2 7930   6.580   3.717   1.654
 2656TIP3   OH2 7931   1.912   4.280   3.083
 2656TIP3    H1 7932   1.980   4.246   3.141
 2656TIP3    H2 7933   1.951   4.358   3.044
 2657TIP3   OH2 7934   4.945   0.352   4.317
 2657TIP3    H1 7935   4.928   0.258   4.308
 2657TIP3    H2 7936   5.033   0.364   4.281
 2658TIP3   OH2 7937   4.885   4.628   0.144
 2658TIP3    H1 7938   4.947   4.701   0.153
 2658TIP3    H2 7939   4.935   4.559   0.100
 2659TIP3   OH2 7940   2.530   4.879   2.238
 2659TIP3    H1 7941   2.531   4.974   2.247
 2659TIP3    H2 7942   2.500   4.864   2.149
 2660TIP3   OH2 7943   6.964   1.980   0.406
 2660TIP3    H1 7944   7.033   1.921   0.436
 2660TIP3    H2 7945   6.924   2.012   0.487
 2661TIP3   OH2 7946   7.163   0.539   5.389
 2661TIP3    H1 7947   7.094   0.594   5.351
 2661TIP3    H2 7948   7.204   0.595   5.455
 2662TIP3   OH2 7949   6.710   3.172   4.285
 2662TIP3    H1 7950   6.629   3.155   4.333
 2662TIP3    H2 7951   6.765   3.220   4.347
 2663TIP3   OH2 7952   3.640   4.931   4.424
 2663TIP3    H1 7953   3.545   4.917   4.430
 2663TIP3    H2 7954   3.650   5.013   4.377
 2664TIP3   OH2 7955   5.004   1.420   0.904
 2664TIP3    H1 7956   5.099   1.403   0.900
 2664TIP3    H2 7957   4.991   1.465   0.987
 2665TIP3   OH2 7958   4.305   0.290   5.218
 2665TIP3    H1 7959   4.242   0.260   5.283
 2665TIP3    H2 7960   4.386   0.306   5.267
 2666TIP3   OH2 7961   6.977   2.958   1.550
 2666TIP3    H1 7962   6.984   2.863   1.554
 2666TIP3    H2 7963   6.890   2.977   1.584
 2667TIP3   OH2 7964   5.828   2.369   3.723
 2667TIP3    H1 7965   5.879   2.314   3.664
 2667TIP3    H2 7966   5.748   2.320   3.739
 2668TIP3   OH2 7967   0.537   3.243   4.122
 2668TIP3    H1 7968   0.512   3.215   4.034
 2668TIP3    H2 7969   0.603   3.179   4.150
 2669TIP3   OH2 7970   4.594   2.259   5.729
 2669TIP3    H1 7971   4.634   2.344   5.747
 2669TIP3    H2 7972   4.562   2.229   5.814
 2670TIP3   OH2 7973   1.525   0.058   2.330
 2670TIP3    H1 7974   1.537   0.151   2.312
 2670TIP3    H2 7975   1.553   0.015   2.249
 2671TIP3   OH2 7976   1.031   3.433   0.205
 2671TIP3    H1 7977   0.946   3.431   0.162
 2671TIP3    H2 7978   1.011   3.450   0.297
 2672TIP3   OH2 7979   0.932   5.995   3.159
 2672TIP3    H1 7980   0.911   5.910   3.120
 2672TIP3    H2 7981   1.021   5.984   3.194
 2673TIP3   OH2 7982   4.430   3.225   2.008
 2673TIP3    H1 7983   4.374   3.161   1.964
 2673TIP3    H2 7984   4.376   3.303   2.016
 2674TIP3   OH2 7985   3.106   0.849   3.469
 2674TIP3    H1 7986   3.025   0.877   3.512
 2674TIP3    H2 7987   3.106   0.893   3.384
 2675TIP3   OH2 7988   0.631   2.134   5.250
 2675TIP3    H1 7989   0.610   2.227   5.261
 2675TIP3    H2 7990   0.667   2.129   5.161
 2676TIP3   OH2 7991   2.352   0.084   3.006
 2676TIP3    H1 7992   2.378   0.172   2.979
 2676TIP3    H2 7993   2.419   0.027   2.967
 2677TIP3   OH2 7994   6.952   3.962   3.295
 2677TIP3    H1 7995   7.021   4.001   3.348
 2677TIP3    H2 7996   6.873   3.968   3.350
 2678TIP3   OH2 7997   2.093   3.773   5.837
 2678TIP3    H1 7998   2.150   3.737   5.769
 2678TIP3    H2 7999   2.148   3.777   5.915
 2679TIP3   OH2 8000   3.226   5.902   4.990
 2679TIP3    H1 8001   3.160   5.881   5.055
 2679TIP3    H2 8002   3.185   5.878   4.906
 2680TIP3   OH2 8003   5.929   2.466   2.641
 2680TIP3    H1 8004   5.836   2.482   2.654
 2680TIP3    H2 8005   5.953   2.404   2.710
 2681TIP3   OH2 8006   3.214   4.848   0.916
 2681TIP3    H1 8007   3.193   4.768   0.964
 2681TIP3    H2 8008   3.156   4.848   0.840
 2682TIP3   OH2 8009   2.659   4.052   2.992
 2682TIP3    H1 8010   2.618   4.118   2.936
 2682TIP3    H2 8011   2.721   4.101   3.046
 2683TIP3   OH2 8012   2.466   0.455   1.744
 2683TIP3    H1 8013   2.475   0.404   1.664
 2683TIP3    H2 8014   2.421   0.535   1.717
 2684TIP3   OH2 8015   0.504   3.761   0.174
 2684TIP3    H1 8016   0.511   3.853   0.197
 2684TIP3    H2 8017   0.412   3.749   0.148
 2685TIP3   OH2 8018   4.205   4.291   3.493
 2685TIP3    H1 8019   4.137   4.337   3.543
 2685TIP3    H2 8020   4.173   4.292   3.403
 2686TIP3   OH2 8021   0.037   1.496   0.277
 2686TIP3    H1 8022  -0.013   1.561   0.327
 2686TIP3    H2 8023   0.063   1.431   0.342
 2687TIP3   OH2 8024   2.864   0.509   2.544
 2687TIP3    H1 8025   2.932   0.520   2.477
 2687TIP3    H2 8026   2.782   0.524   2.496
 2688TIP3   OH2 8027   5.700   2.151   2.884
 2688TIP3    H1 8028   5.708   2.241   2.917
 2688TIP3    H2 8029   5.617   2.120   2.919
 2689TIP3   OH2 8030   3.228   6.531   4.089
 2689TIP3    H1 8031   3.214   6.437   4.076
 2689TIP3    H2 8032   3.322   6.544   4.077
 2690TIP3   OH2 8033   1.258   1.387   0.121
 2690TIP3    H1 8034   1.318   1.462   0.128
 2690TIP3    H2 8035   1.288   1.340   0.043
 2691TIP3   OH2 8036   5.658   1.628   5.379
 2691TIP3    H1 8037   5.675   1.537   5.355
 2691TIP3    H2 8038   5.731   1.651   5.436
 2692TIP3   OH2 8039   5.448   5.065   5.191
 2692TIP3    H1 8040   5.523   5.121   5.172
 2692TIP3    H2 8041   5.379   5.097   5.133
 2693TIP3   OH2 8042   3.545   1.780   4.382
 2693TIP3    H1 8043   3.560   1.686   4.388
 2693TIP3    H2 8044   3.451   1.789   4.369
 2694TIP3   OH2 8045   5.159   5.392   5.169
 2694TIP3    H1 8046   5.075   5.422   5.133
 2694TIP3    H2 8047   5.136   5.315   5.221
 2695TIP3   OH2 8048   3.306   1.336   3.418
 2695TIP3    H1 8049   3.276   1.291   3.497
 2695TIP3    H2 8050   3.348   1.416   3.451
 2696TIP3   OH2 8051   2.304   1.869   0.371
 2696TIP3    H1 8052   2.359   1.946   0.386
 2696TIP3    H2 8053   2.305   1.856   0.277
 2697TIP3   OH2 8054   3.301   5.506   0.999
 2697TIP3    H1 8055   3.265   5.574   1.056
 2697TIP3    H2 8056   3.390   5.493   1.031
 2698TIP3   OH2 8057   4.267   5.507   0.569
 2698TIP3    H1 8058   4.303   5.527   0.483
 2698TIP3    H2 8059   4.307   5.423   0.593
 2699TIP3   OH2 8060   7.083   3.888   5.375
 2699TIP3    H1 8061   7.013   3.824   5.363
 2699TIP3    H2 8062   7.134   3.854   5.449
 2700TIP3   OH2 8063   6.594   5.929   0.758
 2700TIP3    H1 8064   6.625   5.986   0.828
 2700TIP3    H2 8065   6.601   5.840   0.794
 2701TIP3   OH2 8066   2.847   3.605   2.925
 2701TIP3    H1 8067   2.843   3.694   2.890
 2701TIP3    H2 8068   2.768   3.563   2.892
 2702TIP3   OH2 8069   6.614   2.724   0.712
 2702TIP3    H1 8070   6.608   2.797   0.774
 2702TIP3    H2 8071   6.693   2.678   0.739
 2703TIP3   OH2 8072   3.229   2.791   3.101
 2703TIP3    H1 8073   3.172   2.737   3.155
 2703TIP3    H2 8074   3.207   2.881   3.125
 2704TIP3   OH2 8075   6.055   1.720   1.372
 2704TIP3    H1 8076   6.027   1.803   1.333
 2704TIP3    H2 8077   6.014   1.653   1.316
 2705TIP3   OH2 8078   0.402   4.053   4.520
 2705TIP3    H1 8079   0.339   4.005   4.574
 2705TIP3    H2 8080   0.439   4.118   4.579
 2706TIP3   OH2 8081   0.618   3.251   2.749
 2706TIP3    H1 8082   0.633   3.170   2.700
 2706TIP3    H2 8083   0.630   3.227   2.840
 2707TIP3   OH2 8084   6.929   4.577   4.757
 2707TIP3    H1 8085   6.843   4.598   4.794
 2707TIP3    H2 8086   6.980   4.547   4.833
 2708TIP3   OH2 8087   0.084   0.827   2.557
 2708TIP3    H1 8088   0.166   0.819   2.509
 2708TIP3    H2 8089   0.026   0.874   2.497
 2709TIP3   OH2 8090   4.081   6.402   3.324
 2709TIP3    H1 8091   4.097   6.491   3.354
 2709TIP3    H2 8092   4.014   6.411   3.257
 2710TIP3   OH2 8093   1.165   1.306   1.623
 2710TIP3    H1 8094   1.222   1.312   1.699
 2710TIP3    H2 8095   1.077   1.303   1.660
 2711TIP3   OH2 8096   4.614   0.905   3.244
 2711TIP3    H1 8097   4.561   0.966   3.295
 2711TIP3    H2 8098   4.604   0.821   3.289
 2712TIP3   OH2 8099   4.675   4.322   1.831
 2712TIP3    H1 8100   4.704   4.271   1.755
 2712TIP3    H2 8101   4.639   4.402   1.792
 2713TIP3   OH2 8102   0.067   5.148   1.813
 2713TIP3    H1 8103   0.067   5.212   1.742
 2713TIP3    H2 8104  -0.019   5.106   1.807
 2714TIP3   OH2 8105   1.051   5.221   1.956
 2714TIP3    H1 8106   1.127   5.269   1.990
 2714TIP3    H2 8107   1.084   5.179   1.876
 2715TIP3   OH2 8108   6.109   4.862   2.569
 2715TIP3    H1 8109   6.149   4.778   2.594
 2715TIP3    H2 8110   6.182   4.914   2.536
 2716TIP3   OH2 8111   0.526   0.834   5.405
 2716TIP3    H1 8112   0.584   0.882   5.465
 2716TIP3    H2 8113   0.493   0.902   5.346
 2717TIP3   OH2 8114   3.906   4.236   3.042
 2717TIP3    H1 8115   3.952   4.154   3.021
 2717TIP3    H2 8116   3.813   4.210   3.044
 2718TIP3   OH2 8117   5.229   0.471   2.805
 2718TIP3    H1 8118   5.312   0.499   2.765
 2718TIP3    H2 8119   5.172   0.451   2.730
 2719TIP3   OH2 8120   4.091   0.715   3.513
 2719TIP3    H1 8121   4.022   0.779   3.530
 2719TIP3    H2 8122   4.149   0.758   3.451
 2720TIP3   OH2 8123   2.504   3.478   1.026
 2720TIP3    H1 8124   2.577   3.494   0.966
 2720TIP3    H2 8125   2.526   3.395   1.069
 2721TIP3   OH2 8126   5.066   0.662   2.621
 2721TIP3    H1 8127   5.000   0.646   2.689
 2721TIP3    H2 8128   5.038   0.607   2.548
 2722TIP3   OH2 8129   2.152   3.487   2.355
 2722TIP3    H1 8130   2.075   3.495   2.299
 2722TIP3    H2 8131   2.144   3.559   2.417
 2723TIP3   OH2 8132   0.443   0.873   1.869
 2723TIP3    H1 8133   0.442   0.915   1.783
 2723TIP3    H2 8134   0.530   0.834   1.876
 2724TIP3   OH2 8135   5.789   5.350   2.801
 2724TIP3    H1 8136   5.820   5.311   2.882
 2724TIP3    H2 8137   5.865   5.350   2.743
 2725TIP3   OH2 8138   1.307   1.167   3.726
 2725TIP3    H1 8139   1.302   1.079   3.688
 2725TIP3    H2 8140   1.346   1.152   3.813
 2726TIP3   OH2 8141   4.730   3.986   3.792
 2726TIP3    H1 8142   4.758   3.960   3.879
 2726TIP3    H2 8143   4.800   4.042   3.759
 2727TIP3   OH2 8144   6.956   1.377   1.074
 2727TIP3    H1 8145   6.966   1.472   1.072
 2727TIP3    H2 8146   6.895   1.360   1.146
 2728TIP3   OH2 8147   5.322   3.989   2.661
 2728TIP3    H1 8148   5.380   4.051   2.705
 2728TIP3    H2 8149   5.361   3.978   2.574
 2729TIP3   OH2 8150   4.478   2.379   1.951
 2729TIP3    H1 8151   4.523   2.371   1.867
 2729TIP3    H2 8152   4.542   2.419   2.009
 2730TIP3   OH2 8153   5.242   6.768   2.351
 2730TIP3    H1 8154   5.289   6.840   2.308
 2730TIP3    H2 8155   5.158   6.806   2.377
 2731TIP3   OH2 8156   0.163   0.588   2.168
 2731TIP3    H1 8157   0.205   0.650   2.227
 2731TIP3    H2 8158   0.070   0.607   2.174
 2732TIP3   OH2 8159   7.210   6.790   0.204
 2732TIP3    H1 8160   7.204   6.768   0.297
 2732TIP3    H2 8161   7.173   6.714   0.160
 2733TIP3   OH2 8162   1.118   0.470   2.202
 2733TIP3    H1 8163   1.067   0.399   2.242
 2733TIP3    H2 8164   1.128   0.443   2.110
 2734TIP3   OH2 8165   0.454   3.421   3.694
 2734TIP3    H1 8166   0.518   3.492   3.682
 2734TIP3    H2 8167   0.467   3.364   3.618
 2735TIP3   OH2 8168   3.401   2.228   3.076
 2735TIP3    H1 8169   3.387   2.138   3.047
 2735TIP3    H2 8170   3.402   2.279   2.995
 2736TIP3   OH2 8171   3.439   4.253   1.924
 2736TIP3    H1 8172   3.406   4.164   1.911
 2736TIP3    H2 8173   3.395   4.283   2.004
 2737TIP3   OH2 8174   2.586   0.552   0.163
 2737TIP3    H1 8175   2.498   0.544   0.200
 2737TIP3    H2 8176   2.591   0.480   0.100
 2738TIP3   OH2 8177   3.105   4.947   0.384
 2738TIP3    H1 8178   3.165   4.986   0.447
 2738TIP3    H2 8179   3.018   4.977   0.412
 2739TIP3   OH2 8180   5.232   1.068   3.692
 2739TIP3    H1 8181   5.237   1.145   3.634
 2739TIP3    H2 8182   5.275   0.998   3.643
 2740TIP3   OH2 8183   0.996   5.082   3.929
 2740TIP3    H1 8184   0.967   5.146   3.864
 2740TIP3    H2 8185   1.069   5.037   3.887
 2741TIP3   OH2 8186   5.869   5.334   3.405
 2741TIP3    H1 8187   5.857   5.260   3.465
 2741TIP3    H2 8188   5.792   5.331   3.348
 2742TIP3   OH2 8189   2.292   5.089   1.327
 2742TIP3    H1 8190   2.269   5.180   1.307
 2742TIP3    H2 8191   2.286   5.044   1.243
 2743TIP3   OH2 8192   7.038   5.018   1.781
 2743TIP3    H1 8193   7.046   4.933   1.737
 2743TIP3    H2 8194   6.952   5.051   1.755
 2744TIP3   OH2 8195   3.963   0.122   2.344
 2744TIP3    H1 8196   3.956   0.172   2.263
 2744TIP3    H2 8197   4.042   0.155   2.387
 2745TIP3   OH2 8198   2.547   4.881   5.115
 2745TIP3    H1 8199   2.632   4.919   5.092
 2745TIP3    H2 8200   2.496   4.954   5.149
 2746TIP3   OH2 8201   0.427   1.180   2.874
 2746TIP3    H1 8202   0.366   1.134   2.931
 2746TIP3    H2 8203   0.507   1.127   2.876
 2747TIP3   OH2 8204   5.795   4.317   0.224
 2747TIP3    H1 8205   5.703   4.326   0.199
 2747TIP3    H2 8206   5.805   4.376   0.299
 2748TIP3   OH2 8207   0.784   4.534   2.979
 2748TIP3    H1 8208   0.795   4.470   2.909
 2748TIP3    H2 8209   0.872   4.546   3.015
 2749TIP3   OH2 8210   1.315   5.449   5.150
 2749TIP3    H1 8211   1.295   5.473   5.059
 2749TIP3    H2 8212   1.411   5.444   5.153
 2750TIP3   OH2 8213   6.703   4.573   5.649
 2750TIP3    H1 8214   6.637   4.642   5.645
 2750TIP3    H2 8215   6.683   4.515   5.576
 2751TIP3   OH2 8216   0.804   0.203   2.149
 2751TIP3    H1 8217   0.774   0.292   2.130
 2751TIP3    H2 8218   0.763   0.149   2.082
 2752TIP3   OH2 8219   5.743   3.602   4.517
 2752TIP3    H1 8220   5.711   3.540   4.451
 2752TIP3    H2 8221   5.677   3.599   4.586
 2753TIP3   OH2 8222   7.121   2.120   2.252
 2753TIP3    H1 8223   7.155   2.033   2.231
 2753TIP3    H2 8224   7.032   2.121   2.216
 2754TIP3   OH2 8225   1.147   6.366   1.576
 2754TIP3    H1 8226   1.235   6.404   1.574
 2754TIP3    H2 8227   1.162   6.272   1.585
 2755TIP3   OH2 8228   4.100   4.857   2.877
 2755TIP3    H1 8229   4.065   4.902   2.800
 2755TIP3    H2 8230   4.110   4.766   2.848
 2756TIP3   OH2 8231   5.834   3.637   3.483
 2756TIP3    H1 8232   5.871   3.550   3.500
 2756TIP3    H2 8233   5.746   3.619   3.450
 2757TIP3   OH2 8234   0.198   5.455   4.071
 2757TIP3    H1 8235   0.244   5.517   4.015
 2757TIP3    H2 8236   0.206   5.371   4.025
 2758TIP3   OH2 8237   5.963   1.951   3.115
 2758TIP3    H1 8238   5.957   1.998   3.198
 2758TIP3    H2 8239   6.031   1.885   3.130
 2759TIP3   OH2 8240   5.550   5.503   5.620
 2759TIP3    H1 8241   5.593   5.539   5.543
 2759TIP3    H2 8242   5.510   5.422   5.589
 2760TIP3   OH2 8243   1.605   1.130   0.988
 2760TIP3    H1 8244   1.690   1.145   1.030
 2760TIP3    H2 8245   1.626   1.084   0.907
 2761TIP3   OH2 8246   1.560   4.026   5.292
 2761TIP3    H1 8247   1.593   3.942   5.258
 2761TIP3    H2 8248   1.638   4.081   5.300
 2762TIP3   OH2 8249   3.800   0.043   4.816
 2762TIP3    H1 8250   3.865   0.020   4.882
 2762TIP3    H2 8251   3.835   0.121   4.773
 2763TIP3   OH2 8252   5.726   0.514   5.577
 2763TIP3    H1 8253   5.648   0.558   5.610
 2763TIP3    H2 8254   5.709   0.421   5.588
 2764TIP3   OH2 8255   0.741   5.266   2.495
 2764TIP3    H1 8256   0.717   5.356   2.519
 2764TIP3    H2 8257   0.684   5.211   2.548
 2765TIP3   OH2 8258   1.554   2.570   3.445
 2765TIP3    H1 8259   1.613   2.527   3.507
 2765TIP3    H2 8260   1.487   2.611   3.500
 2766TIP3   OH2 8261   3.842   1.150   2.681
 2766TIP3    H1 8262   3.891   1.199   2.615
 2766TIP3    H2 8263   3.861   1.195   2.764
 2767TIP3   OH2 8264   3.113   4.490   1.725
 2767TIP3    H1 8265   3.039   4.485   1.785
 2767TIP3    H2 8266   3.126   4.584   1.710
 2768TIP3   OH2 8267   1.510   1.685   2.628
 2768TIP3    H1 8268   1.529   1.673   2.535
 2768TIP3    H2 8269   1.458   1.765   2.633
 2769TIP3   OH2 8270   7.199   6.711   1.502
 2769TIP3    H1 8271   7.122   6.756   1.538
 2769TIP3    H2 8272   7.195   6.623   1.540
 2770TIP3   OH2 8273   7.092   4.600   4.239
 2770TIP3    H1 8274   7.053   4.637   4.159
 2770TIP3    H2 8275   7.166   4.549   4.207
 2771TIP3   OH2 8276   5.188   1.621   1.242
 2771TIP3    H1 8277   5.121   1.593   1.305
 2771TIP3    H2 8278   5.249   1.547   1.239
 2772TIP3   OH2 8279   5.264   4.986   2.636
 2772TIP3    H1 8280   5.200   5.050   2.605
 2772TIP3    H2 8281   5.215   4.904   2.646
 2773TIP3   OH2 8282   2.433   3.953   4.757
 2773TIP3    H1 8283   2.376   4.023   4.792
 2773TIP3    H2 8284   2.521   3.979   4.784
 2774TIP3   OH2 8285   0.627   2.935   4.537
 2774TIP3    H1 8286   0.539   2.933   4.498
 2774TIP3    H2 8287   0.655   3.026   4.526
 2775TIP3   OH2 8288   3.110   4.952   1.841
 2775TIP3    H1 8289   3.060   5.034   1.844
 2775TIP3    H2 8290   3.123   4.928   1.933
 2776TIP3   OH2 8291   6.369   5.438   0.142
 2776TIP3    H1 8292   6.305   5.419   0.210
 2776TIP3    H2 8293   6.317   5.457   0.064
 2777TIP3   OH2 8294   6.186   3.137   2.036
 2777TIP3    H1 8295   6.167   3.223   1.999
 2777TIP3    H2 8296   6.106   3.087   2.021
 2778TIP3   OH2 8297   5.223   4.929   3.223
 2778TIP3    H1 8298   5.201   4.991   3.153
 2778TIP3    H2 8299   5.306   4.891   3.195
 2779TIP3   OH2 8300   7.163   0.083   4.604
 2779TIP3    H1 8301   7.141   0.174   4.583
 2779TIP3    H2 8302   7.177   0.084   4.699
 2780TIP3   OH2 8303   6.237   6.367   0.823
 2780TIP3    H1 8304   6.211   6.449   0.864
 2780TIP3    H2 8305   6.155   6.331   0.788
 2781TIP3   OH2 8306   1.693   6.743   4.062
 2781TIP3    H1 8307   1.627   6.674   4.052
 2781TIP3    H2 8308   1.654   6.820   4.021
 2782TIP3   OH2 8309   0.456   4.885   4.341
 2782TIP3    H1 8310   0.364   4.887   4.366
 2782TIP3    H2 8311   0.503   4.919   4.417
 2783TIP3   OH2 8312   1.491   5.312   1.575
 2783TIP3    H1 8313   1.511   5.281   1.663
 2783TIP3    H2 8314   1.436   5.243   1.537
 2784TIP3   OH2 8315   3.266   2.696   1.449
 2784TIP3    H1 8316   3.251   2.604   1.430
 2784TIP3    H2 8317   3.238   2.707   1.540
 2785TIP3   OH2 8318   1.768   2.693   1.988
 2785TIP3    H1 8319   1.688   2.698   1.936
 2785TIP3    H2 8320   1.826   2.636   1.939
 2786TIP3   OH2 8321   1.925   1.552   0.735
 2786TIP3    H1 8322   1.846   1.498   0.745
 2786TIP3    H2 8323   1.933   1.564   0.641
 2787TIP3   OH2 8324   4.463   0.522   3.158
 2787TIP3    H1 8325   4.476   0.574   3.237
 2787TIP3    H2 8326   4.536   0.459   3.159
 2788TIP3   OH2 8327   0.474   1.628   0.749
 2788TIP3    H1 8328   0.475   1.534   0.729
 2788TIP3    H2 8329   0.478   1.632   0.844
 2789TIP3   OH2 8330   1.244   3.767   2.991
 2789TIP3    H1 8331   1.312   3.806   3.047
 2789TIP3    H2 8332   1.207   3.841   2.943
 2790TIP3   OH2 8333   5.263   0.745   4.311
 2790TIP3    H1 8334   5.300   0.832   4.325
 2790TIP3    H2 8335   5.277   0.699   4.393
 2791TIP3   OH2 8336   3.696   4.880   5.232
 2791TIP3    H1 8337   3.677   4.792   5.265
 2791TIP3    H2 8338   3.715   4.866   5.139
 2792TIP3   OH2 8339   4.902   0.652   0.433
 2792TIP3    H1 8340   4.846   0.586   0.473
 2792TIP3    H2 8341   4.843   0.726   0.416
 2793TIP3   OH2 8342   4.651   1.739   4.129
 2793TIP3    H1 8343   4.615   1.740   4.217
 2793TIP3    H2 8344   4.686   1.827   4.117
 2794TIP3   OH2 8345   6.958   1.004   1.361
 2794TIP3    H1 8346   7.018   1.025   1.432
 2794TIP3    H2 8347   6.914   1.086   1.341
 2795TIP3   OH2 8348   5.284   0.845   2.021
 2795TIP3    H1 8349   5.235   0.922   1.991
 2795TIP3    H2 8350   5.333   0.877   2.097
 2796TIP3   OH2 8351   1.800   5.750   0.040
 2796TIP3    H1 8352   1.762   5.747  -0.048
 2796TIP3    H2 8353   1.743   5.694   0.093
 2797TIP3   OH2 8354   2.297   0.068   5.142
 2797TIP3    H1 8355   2.373   0.021   5.177
 2797TIP3    H2 8356   2.222   0.017   5.171
 2798TIP3   OH2 8357   1.986   5.104   3.878
 2798TIP3    H1 8358   2.027   5.109   3.964
 2798TIP3    H2 8359   2.043   5.155   3.821
 2799TIP3   OH2 8360   6.038   4.655   4.993
 2799TIP3    H1 8361   5.949   4.626   4.973
 2799TIP3    H2 8362   6.039   4.664   5.088
 2800TIP3   OH2 8363   4.456   4.611   4.811
 2800TIP3    H1 8364   4.458   4.657   4.727
 2800TIP3    H2 8365   4.420   4.676   4.872
 2801TIP3   OH2 8366   0.947   3.648   4.339
 2801TIP3    H1 8367   0.860   3.629   4.304
 2801TIP3    H2 8368   0.932   3.717   4.404
 2802TIP3   OH2 8369   6.015   0.811   1.358
 2802TIP3    H1 8370   5.930   0.852   1.343
 2802TIP3    H2 8371   6.079   0.872   1.320
 2803TIP3   OH2 8372   0.987   4.221   1.854
 2803TIP3    H1 8373   1.024   4.230   1.941
 2803TIP3    H2 8374   0.978   4.126   1.841
 2804TIP3   OH2 8375   4.824   3.808   4.883
 2804TIP3    H1 8376   4.848   3.899   4.864
 2804TIP3    H2 8377   4.907   3.766   4.907
 2805TIP3   OH2 8378   4.538   2.390   4.704
 2805TIP3    H1 8379   4.558   2.398   4.797
 2805TIP3    H2 8380   4.538   2.480   4.672
 2806TIP3   OH2 8381   5.470   6.047   0.615
 2806TIP3    H1 8382   5.464   6.053   0.520
 2806TIP3    H2 8383   5.403   5.983   0.640
 2807TIP3   OH2 8384   3.853   2.953   2.341
 2807TIP3    H1 8385   3.776   2.912   2.380
 2807TIP3    H2 8386   3.912   2.879   2.324
 2808TIP3   OH2 8387   2.835   5.053   2.058
 2808TIP3    H1 8388   2.753   5.007   2.041
 2808TIP3    H2 8389   2.851   5.105   1.979
 2809TIP3   OH2 8390   0.760   3.997   5.084
 2809TIP3    H1 8391   0.817   4.056   5.133
 2809TIP3    H2 8392   0.681   4.049   5.068
 2810TIP3   OH2 8393   3.330   3.065   3.081
 2810TIP3    H1 8394   3.419   3.031   3.075
 2810TIP3    H2 8395   3.333   3.127   3.154
 2811TIP3   OH2 8396   1.672   6.039   1.140
 2811TIP3    H1 8397   1.642   5.998   1.059
 2811TIP3    H2 8398   1.755   6.080   1.117
 2812TIP3   OH2 8399   6.641   6.494   0.330
 2812TIP3    H1 8400   6.697   6.563   0.295
 2812TIP3    H2 8401   6.692   6.455   0.402
 2813TIP3   OH2 8402   0.939   2.559   5.647
 2813TIP3    H1 8403   1.012   2.538   5.705
 2813TIP3    H2 8404   0.925   2.653   5.658
 2814TIP3   OH2 8405   3.186   0.722   4.004
 2814TIP3    H1 8406   3.221   0.810   4.018
 2814TIP3    H2 8407   3.135   0.728   3.923
 2815TIP3   OH2 8408   3.645   1.879   3.152
 2815TIP3    H1 8409   3.681   1.935   3.082
 2815TIP3    H2 8410   3.572   1.930   3.187
 2816TIP3   OH2 8411   2.174   2.667   1.800
 2816TIP3    H1 8412   2.203   2.598   1.861
 2816TIP3    H2 8413   2.131   2.732   1.856
 2817TIP3   OH2 8414   6.386   3.497   2.427
 2817TIP3    H1 8415   6.327   3.508   2.502
 2817TIP3    H2 8416   6.430   3.414   2.445
 2818TIP3   OH2 8417   0.013   5.832   4.127
 2818TIP3    H1 8418   0.046   5.759   4.178
 2818TIP3    H2 8419   0.056   5.909   4.164
 2819TIP3   OH2 8420   3.936   4.492   1.666
 2819TIP3    H1 8421   3.853   4.449   1.688
 2819TIP3    H2 8422   3.911   4.583   1.648
 2820TIP3   OH2 8423   6.313   6.764   1.013
 2820TIP3    H1 8424   6.265   6.688   1.045
 2820TIP3    H2 8425   6.378   6.782   1.081
 2821TIP3   OH2 8426   3.283   0.593   1.607
 2821TIP3    H1 8427   3.336   0.608   1.684
 2821TIP3    H2 8428   3.296   0.670   1.552
 2822TIP3   OH2 8429   6.235   0.440   2.903
 2822TIP3    H1 8430   6.204   0.411   2.817
 2822TIP3    H2 8431   6.297   0.373   2.930
 2823TIP3   OH2 8432   2.972   3.657   1.222
 2823TIP3    H1 8433   2.912   3.715   1.269
 2823TIP3    H2 8434   2.992   3.588   1.284
 2824TIP3   OH2 8435   5.193   0.930   5.659
 2824TIP3    H1 8436   5.135   0.998   5.694
 2824TIP3    H2 8437   5.172   0.852   5.712
 2825TIP3   OH2 8438   6.005   6.309   0.402
 2825TIP3    H1 8439   5.960   6.234   0.442
 2825TIP3    H2 8440   5.948   6.336   0.331
 2826TIP3   OH2 8441   5.719   1.212   4.427
 2826TIP3    H1 8442   5.781   1.139   4.423
 2826TIP3    H2 8443   5.640   1.175   4.467
 2827TIP3   OH2 8444   3.962   3.425   1.292
 2827TIP3    H1 8445   3.964   3.330   1.301
 2827TIP3    H2 8446   3.923   3.456   1.373
 2828TIP3   OH2 8447   0.461   4.580   5.779
 2828TIP3    H1 8448   0.418   4.665   5.787
 2828TIP3    H2 8449   0.392   4.516   5.796
 2829TIP3   OH2 8450   0.375   3.392   5.494
 2829TIP3    H1 8451   0.353   3.438   5.414
 2829TIP3    H2 8452   0.445   3.444   5.534
 2830TIP3   OH2 8453   3.565   1.196   5.456
 2830TIP3    H1 8454   3.613   1.168   5.378
 2830TIP3    H2 8455   3.602   1.281   5.477
 2831TIP3   OH2 8456   5.290   1.572   3.509
 2831TIP3    H1 8457   5.353   1.592   3.440
 2831TIP3    H2 8458   5.205   1.571   3.465
 2832TIP3   OH2 8459   1.603   3.862   0.909
 2832TIP3    H1 8460   1.510   3.876   0.893
 2832TIP3    H2 8461   1.642   3.856   0.822
 2833TIP3   OH2 8462   4.769   3.562   1.467
 2833TIP3    H1 8463   4.778   3.467   1.474
 2833TIP3    H2 8464   4.763   3.593   1.557
 2834TIP3   OH2 8465   2.278   5.685   3.152
 2834TIP3    H1 8466   2.348   5.630   3.188
 2834TIP3    H2 8467   2.263   5.752   3.219
 2835TIP3   OH2 8468   6.489   5.709   2.801
 2835TIP3    H1 8469   6.546   5.774   2.843
 2835TIP3    H2 8470   6.515   5.626   2.840
 2836TIP3   OH2 8471   6.051   4.430   4.637
 2836TIP3    H1 8472   6.078   4.340   4.652
 2836TIP3    H2 8473   6.046   4.438   4.541
 2837TIP3   OH2 8474   0.282   1.920   4.215
 2837TIP3    H1 8475   0.363   1.962   4.241
 2837TIP3    H2 8476   0.245   1.977   4.147
 2838TIP3   OH2 8477   3.159   6.434   3.417
 2838TIP3    H1 8478   3.155   6.406   3.509
 2838TIP3    H2 8479   3.229   6.499   3.415
 2839TIP3   OH2 8480   0.874   6.202   4.935
 2839TIP3    H1 8481   0.937   6.131   4.936
 2839TIP3    H2 8482   0.867   6.227   4.843
 2840TIP3   OH2 8483   3.314   5.384   1.742
 2840TIP3    H1 8484   3.409   5.390   1.756
 2840TIP3    H2 8485   3.297   5.290   1.731
 2841TIP3   OH2 8486   4.985   4.561   4.710
 2841TIP3    H1 8487   5.043   4.528   4.641
 2841TIP3    H2 8488   4.911   4.598   4.664
 2842TIP3   OH2 8489   2.755   1.151   3.857
 2842TIP3    H1 8490   2.699   1.136   3.780
 2842TIP3    H2 8491   2.837   1.107   3.835
 2843TIP3   OH2 8492   7.051   2.387   4.827
 2843TIP3    H1 8493   7.114   2.436   4.774
 2843TIP3    H2 8494   6.966   2.426   4.806
 2844TIP3   OH2 8495   6.353   4.926   4.252
 2844TIP3    H1 8496   6.334   4.891   4.164
 2844TIP3    H2 8497   6.421   4.868   4.286
 2845TIP3   OH2 8498   1.550   6.528   2.179
 2845TIP3    H1 8499   1.511   6.492   2.098
 2845TIP3    H2 8500   1.621   6.584   2.148
 2846TIP3   OH2 8501   5.860   6.000   4.016
 2846TIP3    H1 8502   5.876   6.083   4.061
 2846TIP3    H2 8503   5.913   6.005   3.937
 2847TIP3   OH2 8504   3.572   4.034   5.747
 2847TIP3    H1 8505   3.601   3.942   5.742
 2847TIP3    H2 8506   3.538   4.053   5.660
 2848TIP3   OH2 8507   3.976   2.960   5.710
 2848TIP3    H1 8508   4.020   3.036   5.749
 2848TIP3    H2 8509   3.885   2.967   5.739
 2849TIP3   OH2 8510   2.329   1.122   4.665
 2849TIP3    H1 8511   2.245   1.166   4.659
 2849TIP3    H2 8512   2.329   1.081   4.752
 2850TIP3   OH2 8513   1.860   2.707   2.822
 2850TIP3    H1 8514   1.887   2.797   2.807
 2850TIP3    H2 8515   1.867   2.695   2.916
 2851TIP3   OH2 8516   2.784   6.182   3.274
 2851TIP3    H1 8517   2.775   6.207   3.366
 2851TIP3    H2 8518   2.879   6.176   3.260
 2852TIP3   OH2 8519   6.827   6.092   2.997
 2852TIP3    H1 8520   6.922   6.094   3.008
 2852TIP3    H2 8521   6.798   6.178   3.028
 2853TIP3   OH2 8522   0.971   0.819   4.353
 2853TIP3    H1 8523   0.959   0.907   4.317
 2853TIP3    H2 8524   0.919   0.818   4.433
 2854TIP3   OH2 8525   0.702   3.993   2.475
 2854TIP3    H1 8526   0.767   3.950   2.419
 2854TIP3    H2 8527   0.628   3.932   2.476
 2855TIP3   OH2 8528   4.538   0.510   5.049
 2855TIP3    H1 8529   4.529   0.458   4.969
 2855TIP3    H2 8530   4.609   0.468   5.097
 2856TIP3   OH2 8531   0.367   6.496   0.944
 2856TIP3    H1 8532   0.308   6.434   0.901
 2856TIP3    H2 8533   0.320   6.523   1.023
 2857TIP3   OH2 8534   1.671   3.364   2.311
 2857TIP3    H1 8535   1.685   3.303   2.384
 2857TIP3    H2 8536   1.624   3.438   2.350
 2858TIP3   OH2 8537   0.952   1.483   2.638
 2858TIP3    H1 8538   0.997   1.524   2.712
 2858TIP3    H2 8539   0.869   1.452   2.674
 2859TIP3   OH2 8540   3.008   1.092   3.093
 2859TIP3    H1 8541   3.076   1.063   3.153
 2859TIP3    H2 8542   2.990   1.015   3.037
 2860TIP3   OH2 8543   3.183   3.404   3.292
 2860TIP3    H1 8544   3.231   3.487   3.302
 2860TIP3    H2 8545   3.145   3.409   3.205
 2861TIP3   OH2 8546   2.649   1.316   3.156
 2861TIP3    H1 8547   2.738   1.294   3.183
 2861TIP3    H2 8548   2.620   1.380   3.222
 2862TIP3   OH2 8549   6.144   2.107   3.330
 2862TIP3    H1 8550   6.188   2.167   3.392
 2862TIP3    H2 8551   6.138   2.024   3.377
 2863TIP3   OH2 8552   2.598   5.398   4.158
 2863TIP3    H1 8553   2.617   5.416   4.066
 2863TIP3    H2 8554   2.675   5.350   4.189
 2864TIP3   OH2 8555   6.729   1.792   5.336
 2864TIP3    H1 8556   6.731   1.885   5.358
 2864TIP3    H2 8557   6.724   1.748   5.421
 2865TIP3   OH2 8558   1.739   1.568   1.507
 2865TIP3    H1 8559   1.746   1.488   1.456
 2865TIP3    H2 8560   1.827   1.582   1.542
 2866TIP3   OH2 8561   6.886   1.193   5.638
 2866TIP3    H1 8562   6.873   1.144   5.556
 2866TIP3    H2 8563   6.800   1.190   5.681
 2867TIP3   OH2 8564   5.036   2.352   4.470
 2867TIP3    H1 8565   5.111   2.306   4.432
 2867TIP3    H2 8566   4.960   2.312   4.428
 2868TIP3   OH2 8567   4.657   2.416   4.957
 2868TIP3    H1 8568   4.718   2.350   4.992
 2868TIP3    H2 8569   4.585   2.418   5.020
 2869TIP3   OH2 8570   0.758   1.756   1.940
 2869TIP3    H1 8571   0.734   1.749   2.033
 2869TIP3    H2 8572   0.738   1.846   1.917
 2870TIP3   OH2 8573   6.384   3.485   3.864
 2870TIP3    H1 8574   6.336   3.402   3.866
 2870TIP3    H2 8575   6.365   3.522   3.778
 2871TIP3   OH2 8576   0.745   3.080   4.217
 2871TIP3    H1 8577   0.794   3.007   4.255
 2871TIP3    H2 8578   0.791   3.099   4.135
 2872TIP3   OH2 8579   3.617   1.681   3.343
 2872TIP3    H1 8580   3.700   1.689   3.392
 2872TIP3    H2 8581   3.616   1.757   3.285
 2873TIP3   OH2 8582   3.933   6.260   2.584
 2873TIP3    H1 8583   3.908   6.342   2.543
 2873TIP3    H2 8584   3.931   6.196   2.513
 2874TIP3   OH2 8585   6.853   4.704   1.128
 2874TIP3    H1 8586   6.882   4.652   1.053
 2874TIP3    H2 8587   6.840   4.640   1.198
 2875TIP3   OH2 8588   3.446   0.406   1.825
 2875TIP3    H1 8589   3.442   0.481   1.883
 2875TIP3    H2 8590   3.360   0.364   1.833
 2876TIP3   OH2 8591   2.149   2.171   0.276
 2876TIP3    H1 8592   2.152   2.175   0.180
 2876TIP3    H2 8593   2.080   2.106   0.294
 2877TIP3   OH2 8594   4.054   4.476   4.120
 2877TIP3    H1 8595   4.127   4.509   4.171
 2877TIP3    H2 8596   3.990   4.448   4.185
 2878TIP3   OH2 8597   4.831   0.154   0.898
 2878TIP3    H1 8598   4.926   0.170   0.899
 2878TIP3    H2 8599   4.792   0.241   0.899
 2879TIP3   OH2 8600   2.573   5.117   4.806
 2879TIP3    H1 8601   2.479   5.113   4.822
 2879TIP3    H2 8602   2.613   5.095   4.890
 2880TIP3   OH2 8603   4.723   1.606   3.319
 2880TIP3    H1 8604   4.809   1.585   3.284
 2880TIP3    H2 8605   4.709   1.541   3.388
 2881TIP3   OH2 8606   0.568   2.605   5.197
 2881TIP3    H1 8607   0.622   2.622   5.273
 2881TIP3    H2 8608   0.478   2.607   5.230
 2882TIP3   OH2 8609   0.406   0.258   5.675
 2882TIP3    H1 8610   0.495   0.254   5.639
 2882TIP3    H2 8611   0.419   0.285   5.766
 2883TIP3   OH2 8612   4.144   4.097   4.703
 2883TIP3    H1 8613   4.194   4.129   4.629
 2883TIP3    H2 8614   4.140   4.172   4.763
 2884TIP3   OH2 8615   2.982   3.626   4.672
 2884TIP3    H1 8616   3.024   3.705   4.706
 2884TIP3    H2 8617   3.012   3.620   4.581
 2885TIP3   OH2 8618   4.398   5.701   3.463
 2885TIP3    H1 8619   4.414   5.670   3.552
 2885TIP3    H2 8620   4.343   5.779   3.474
 2886TIP3   OH2 8621   2.355   4.623   5.648
 2886TIP3    H1 8622   2.316   4.553   5.596
 2886TIP3    H2 8623   2.331   4.703   5.602
 2887TIP3   OH2 8624   5.743   3.993   5.302
 2887TIP3    H1 8625   5.823   4.045   5.290
 2887TIP3    H2 8626   5.728   3.994   5.396
 2888TIP3   OH2 8627   5.187   1.883   0.775
 2888TIP3    H1 8628   5.176   1.887   0.870
 2888TIP3    H2 8629   5.257   1.820   0.761
 2889TIP3   OH2 8630   6.568   3.902   4.934
 2889TIP3    H1 8631   6.566   3.864   5.022
 2889TIP3    H2 8632   6.541   3.831   4.877
 2890TIP3   OH2 8633   3.886   2.294   5.388
 2890TIP3    H1 8634   3.978   2.317   5.385
 2890TIP3    H2 8635   3.879   2.214   5.337
 2891TIP3   OH2 8636   0.701   2.054   4.459
 2891TIP3    H1 8637   0.786   2.093   4.439
 2891TIP3    H2 8638   0.651   2.062   4.378
 2892TIP3   OH2 8639   6.842   3.070   2.649
 2892TIP3    H1 8640   6.792   2.996   2.616
 2892TIP3    H2 8641   6.934   3.046   2.634
 2893TIP3   OH2 8642   0.663   3.757   3.124
 2893TIP3    H1 8643   0.757   3.756   3.142
 2893TIP3    H2 8644   0.645   3.847   3.097
 2894TIP3   OH2 8645   4.640   6.154   4.246
 2894TIP3    H1 8646   4.725   6.144   4.205
 2894TIP3    H2 8647   4.650   6.228   4.306
 2895TIP3   OH2 8648   4.233   4.442   1.748
 2895TIP3    H1 8649   4.150   4.451   1.701
 2895TIP3    H2 8650   4.227   4.507   1.819
 2896TIP3   OH2 8651   0.221   3.416   0.086
 2896TIP3    H1 8652   0.281   3.442   0.156
 2896TIP3    H2 8653   0.214   3.321   0.094
 2897TIP3   OH2 8654   4.245   2.930   5.066
 2897TIP3    H1 8655   4.216   2.928   5.157
 2897TIP3    H2 8656   4.336   2.958   5.071
 2898TIP3   OH2 8657   2.165   3.514   3.001
 2898TIP3    H1 8658   2.151   3.589   2.944
 2898TIP3    H2 8659   2.086   3.510   3.054
 2899TIP3   OH2 8660   5.009   2.467   4.949
 2899TIP3    H1 8661   5.080   2.530   4.944
 2899TIP3    H2 8662   4.972   2.465   4.860
 2900TIP3   OH2 8663   2.392   4.802   3.777
 2900TIP3    H1 8664   2.432   4.750   3.707
 2900TIP3    H2 8665   2.317   4.843   3.735
 2901TIP3   OH2 8666   5.907   6.157   1.763
 2901TIP3    H1 8667   5.981   6.217   1.772
 2901TIP3    H2 8668   5.854   6.195   1.692
 2902TIP3   OH2 8669   5.906   4.228   4.324
 2902TIP3    H1 8670   5.966   4.159   4.350
 2902TIP3    H2 8671   5.821   4.203   4.362
 2903TIP3   OH2 8672   6.359   3.746   4.525
 2903TIP3    H1 8673   6.295   3.685   4.490
 2903TIP3    H2 8674   6.308   3.807   4.578
 2904TIP3   OH2 8675   0.149   4.041   1.322
 2904TIP3    H1 8676   0.227   3.997   1.358
 2904TIP3    H2 8677   0.122   4.101   1.392
 2905TIP3   OH2 8678   0.324   4.613   1.393
 2905TIP3    H1 8679   0.348   4.520   1.397
 2905TIP3    H2 8680   0.230   4.612   1.374
 2906TIP3   OH2 8681   1.782   4.133   0.879
 2906TIP3    H1 8682   1.781   4.082   0.798
 2906TIP3    H2 8683   1.696   4.117   0.918
 2907TIP3   OH2 8684   3.413   0.312   4.964
 2907TIP3    H1 8685   3.465   0.390   4.949
 2907TIP3    H2 8686   3.382   0.287   4.877
 2908TIP3   OH2 8687   1.371   2.220   3.458
 2908TIP3    H1 8688   1.308   2.207   3.387
 2908TIP3    H2 8689   1.339   2.297   3.505
 2909TIP3   OH2 8690   3.576   2.238   1.141
 2909TIP3    H1 8691   3.653   2.184   1.157
 2909TIP3    H2 8692   3.502   2.178   1.153
 2910TIP3   OH2 8693   5.430   6.409   1.088
 2910TIP3    H1 8694   5.514   6.414   1.135
 2910TIP3    H2 8695   5.392   6.326   1.116
 2911TIP3   OH2 8696   1.994   1.829   3.466
 2911TIP3    H1 8697   1.973   1.750   3.516
 2911TIP3    H2 8698   1.967   1.808   3.376
 2912TIP3   OH2 8699   0.677   2.024   2.305
 2912TIP3    H1 8700   0.691   1.930   2.310
 2912TIP3    H2 8701   0.609   2.041   2.371
 2913TIP3   OH2 8702   6.156   0.862   4.503
 2913TIP3    H1 8703   6.130   0.950   4.478
 2913TIP3    H2 8704   6.096   0.805   4.457
 2914TIP3   OH2 8705   0.514   4.079   0.182
 2914TIP3    H1 8706   0.532   4.090   0.275
 2914TIP3    H2 8707   0.590   4.116   0.138
 2915TIP3   OH2 8708   2.534   4.954   1.359
 2915TIP3    H1 8709   2.461   5.016   1.357
 2915TIP3    H2 8710   2.611   5.007   1.373
 2916TIP3   OH2 8711   2.918   1.954   4.103
 2916TIP3    H1 8712   2.978   2.016   4.145
 2916TIP3    H2 8713   2.839   1.956   4.156
 2917TIP3   OH2 8714   0.396   5.946   2.001
 2917TIP3    H1 8715   0.347   6.024   1.973
 2917TIP3    H2 8716   0.388   5.886   1.927
 2918TIP3   OH2 8717   3.271   5.303   4.776
 2918TIP3    H1 8718   3.245   5.213   4.758
 2918TIP3    H2 8719   3.216   5.357   4.720
 2919TIP3   OH2 8720   2.263   0.448   3.704
 2919TIP3    H1 8721   2.204   0.422   3.633
 2919TIP3    H2 8722   2.242   0.540   3.719
 2920TIP3   OH2 8723   3.171   2.676   1.693
 2920TIP3    H1 8724   3.132   2.702   1.777
 2920TIP3    H2 8725   3.233   2.607   1.716
 2921TIP3   OH2 8726   1.089   3.362   3.650
 2921TIP3    H1 8727   1.145   3.406   3.713
 2921TIP3    H2 8728   1.098   3.269   3.672
 2922TIP3   OH2 8729   1.291   5.303   0.178
 2922TIP3    H1 8730   1.204   5.263   0.180
 2922TIP3    H2 8731   1.319   5.295   0.087
 2923TIP3   OH2 8732   1.316   4.750   5.828
 2923TIP3    H1 8733   1.326   4.807   5.752
 2923TIP3    H2 8734   1.390   4.690   5.823
 2924TIP3   OH2 8735   5.237   5.687   2.097
 2924TIP3    H1 8736   5.202   5.767   2.057
 2924TIP3    H2 8737   5.179   5.670   2.171
 2925TIP3   OH2 8738   2.100   0.453   1.145
 2925TIP3    H1 8739   2.010   0.420   1.146
 2925TIP3    H2 8740   2.144   0.400   1.078
 2926TIP3   OH2 8741   2.029   3.995   1.224
 2926TIP3    H1 8742   1.969   4.063   1.255
 2926TIP3    H2 8743   1.972   3.933   1.178
 2927TIP3   OH2 8744   3.502   4.403   3.063
 2927TIP3    H1 8745   3.420   4.449   3.084
 2927TIP3    H2 8746   3.501   4.325   3.118
 2928TIP3   OH2 8747   2.471   0.324   3.843
 2928TIP3    H1 8748   2.409   0.390   3.816
 2928TIP3    H2 8749   2.554   0.371   3.854
 2929TIP3   OH2 8750   3.885   5.750   4.867
 2929TIP3    H1 8751   3.822   5.747   4.796
 2929TIP3    H2 8752   3.842   5.705   4.940
 2930TIP3   OH2 8753   4.140   1.678   4.854
 2930TIP3    H1 8754   4.153   1.678   4.759
 2930TIP3    H2 8755   4.070   1.615   4.869
 2931TIP3   OH2 8756   1.839   0.685   3.110
 2931TIP3    H1 8757   1.813   0.757   3.053
 2931TIP3    H2 8758   1.760   0.633   3.123
 2932TIP3   OH2 8759   1.223   4.535   1.458
 2932TIP3    H1 8760   1.262   4.449   1.472
 2932TIP3    H2 8761   1.207   4.540   1.364
 2933TIP3   OH2 8762   6.159   0.550   0.643
 2933TIP3    H1 8763   6.099   0.623   0.659
 2933TIP3    H2 8764   6.143   0.489   0.714
 2934TIP3   OH2 8765   4.662   1.464   4.488
 2934TIP3    H1 8766   4.737   1.407   4.503
 2934TIP3    H2 8767   4.614   1.424   4.416
 2935TIP3   OH2 8768   0.437   1.865   1.420
 2935TIP3    H1 8769   0.402   1.776   1.426
 2935TIP3    H2 8770   0.440   1.884   1.327
 2936TIP3   OH2 8771   4.781   0.060   2.970
 2936TIP3    H1 8772   4.861   0.039   3.020
 2936TIP3    H2 8773   4.748  -0.024   2.940
 2937TIP3   OH2 8774   0.046   1.092   2.199
 2937TIP3    H1 8775   0.096   1.174   2.199
 2937TIP3    H2 8776   0.109   1.025   2.173
 2938TIP3   OH2 8777   2.105   5.003   2.016
 2938TIP3    H1 8778   2.034   4.960   2.064
 2938TIP3    H2 8779   2.158   5.044   2.084
 2939TIP3   OH2 8780   2.057   1.150   0.802
 2939TIP3    H1 8781   2.112   1.169   0.727
 2939TIP3    H2 8782   2.083   1.062   0.829
 2940TIP3   OH2 8783   1.882   4.581   2.737
 2940TIP3    H1 8784   1.904   4.544   2.822
 2940TIP3    H2 8785   1.948   4.649   2.723
 2941TIP3   OH2 8786   4.826   4.018   5.476
 2941TIP3    H1 8787   4.745   4.001   5.524
 2941TIP3    H2 8788   4.873   4.081   5.530
 2942TIP3   OH2 8789   3.798   3.870   2.152
 2942TIP3    H1 8790   3.762   3.878   2.063
 2942TIP3    H2 8791   3.870   3.933   2.153
 2943TIP3   OH2 8792   3.841   0.667   1.030
 2943TIP3    H1 8793   3.756   0.663   0.986
 2943TIP3    H2 8794   3.898   0.611   0.977
 2944TIP3   OH2 8795   4.692   3.026   0.719
 2944TIP3    H1 8796   4.640   3.107   0.723
 2944TIP3    H2 8797   4.780   3.055   0.693
 2945TIP3   OH2 8798   0.618   6.214   0.652
 2945TIP3    H1 8799   0.682   6.144   0.634
 2945TIP3    H2 8800   0.541   6.190   0.600
 2946TIP3   OH2 8801   1.383   4.824   0.155
 2946TIP3    H1 8802   1.464   4.804   0.203
 2946TIP3    H2 8803   1.338   4.740   0.150
 2947TIP3   OH2 8804   0.680   4.598   3.966
 2947TIP3    H1 8805   0.660   4.691   3.958
 2947TIP3    H2 8806   0.613   4.564   4.025
 2948TIP3   OH2 8807   2.087   4.874   3.328
 2948TIP3    H1 8808   2.155   4.938   3.308
 2948TIP3    H2 8809   2.130   4.810   3.384
 2949TIP3   OH2 8810   4.128   3.828   5.083
 2949TIP3    H1 8811   4.112   3.739   5.054
 2949TIP3    H2 8812   4.046   3.855   5.124
 2950TIP3   OH2 8813   5.799   6.575   1.569
 2950TIP3    H1 8814   5.868   6.617   1.619
 2950TIP3    H2 8815   5.844   6.509   1.517
 2951TIP3   OH2 8816   1.073   4.612   1.674
 2951TIP3    H1 8817   1.123   4.567   1.607
 2951TIP3    H2 8818   1.138   4.640   1.738
 2952TIP3   OH2 8819   5.773   1.075   0.122
 2952TIP3    H1 8820   5.808   1.016   0.188
 2952TIP3    H2 8821   5.684   1.042   0.106
 2953TIP3   OH2 8822   0.479   1.044   4.478
 2953TIP3    H1 8823   0.456   1.137   4.474
 2953TIP3    H2 8824   0.410   1.000   4.428
 2954TIP3   OH2 8825   4.855   2.670   2.543
 2954TIP3    H1 8826   4.942   2.645   2.574
 2954TIP3    H2 8827   4.871   2.710   2.458
 2955TIP3   OH2 8828   2.562   5.005   5.790
 2955TIP3    H1 8829   2.651   5.031   5.811
 2955TIP3    H2 8830   2.567   4.910   5.779
 2956TIP3   OH2 8831   3.265   4.744   1.749
 2956TIP3    H1 8832   3.324   4.741   1.825
 2956TIP3    H2 8833   3.211   4.822   1.765
 2957TIP3   OH2 8834   3.808   2.873   5.152
 2957TIP3    H1 8835   3.857   2.902   5.228
 2957TIP3    H2 8836   3.862   2.899   5.077
 2958TIP3   OH2 8837   3.446   1.604   3.819
 2958TIP3    H1 8838   3.402   1.527   3.781
 2958TIP3    H2 8839   3.403   1.679   3.778
 2959TIP3   OH2 8840   3.544   4.780   2.985
 2959TIP3    H1 8841   3.550   4.709   2.921
 2959TIP3    H2 8842   3.588   4.746   3.063
 2960TIP3   OH2 8843   5.768   3.068   4.957
 2960TIP3    H1 8844   5.782   3.077   5.051
 2960TIP3    H2 8845   5.809   2.984   4.935
 2961TIP3   OH2 8846   2.744   1.091   5.240
 2961TIP3    H1 8847   2.818   1.146   5.213
 2961TIP3    H2 8848   2.785   1.009   5.269
 2962TIP3   OH2 8849   1.276   0.641   1.984
 2962TIP3    H1 8850   1.287   0.551   2.013
 2962TIP3    H2 8851   1.358   0.685   2.008
 2963TIP3   OH2 8852   2.570   3.283   3.122
 2963TIP3    H1 8853   2.658   3.315   3.143
 2963TIP3    H2 8854   2.584   3.219   3.053
 2964TIP3   OH2 8855   3.494   5.966   5.346
 2964TIP3    H1 8856   3.483   6.035   5.280
 2964TIP3    H2 8857   3.585   5.976   5.376
 2965TIP3   OH2 8858   7.014   6.416   2.769
 2965TIP3    H1 8859   7.107   6.414   2.751
 2965TIP3    H2 8860   6.983   6.329   2.747
 2966TIP3   OH2 8861   2.669   2.601   0.706
 2966TIP3    H1 8862   2.682   2.695   0.690
 2966TIP3    H2 8863   2.716   2.584   0.788
 2967TIP3   OH2 8864   6.415   5.556   4.319
 2967TIP3    H1 8865   6.342   5.616   4.306
 2967TIP3    H2 8866   6.427   5.553   4.414
 2968TIP3   OH2 8867   5.021   4.101   5.122
 2968TIP3    H1 8868   4.957   4.030   5.127
 2968TIP3    H2 8869   4.968   4.181   5.115
 2969TIP3   OH2 8870   6.278   2.847   4.887
 2969TIP3    H1 8871   6.247   2.937   4.895
 2969TIP3    H2 8872   6.199   2.794   4.894
 2970TIP3   OH2 8873   0.442   2.330   0.655
 2970TIP3    H1 8874   0.376   2.333   0.725
 2970TIP3    H2 8875   0.487   2.414   0.661
 2971TIP3   OH2 8876   1.970   3.790   0.215
 2971TIP3    H1 8877   1.877   3.772   0.229
 2971TIP3    H2 8878   2.010   3.704   0.203
 2972TIP3   OH2 8879   5.555   4.518   2.906
 2972TIP3    H1 8880   5.584   4.609   2.915
 2972TIP3    H2 8881   5.493   4.519   2.833
 2973TIP3   OH2 8882   4.094   4.889   1.670
 2973TIP3    H1 8883   4.160   4.958   1.677
 2973TIP3    H2 8884   4.130   4.828   1.606
 2974TIP3   OH2 8885   5.950   1.680   2.993
 2974TIP3    H1 8886   5.965   1.756   2.937
 2974TIP3    H2 8887   5.899   1.620   2.940
 2975TIP3   OH2 8888   3.261   1.476   1.865
 2975TIP3    H1 8889   3.287   1.530   1.791
 2975TIP3    H2 8890   3.334   1.482   1.927
 2976TIP3   OH2 8891   0.254   0.037   5.785
 2976TIP3    H1 8892   0.317   0.107   5.768
 2976TIP3    H2 8893   0.305  -0.032   5.826
 2977TIP3   OH2 8894   1.626   4.670   2.522
 2977TIP3    H1 8895   1.692   4.726   2.481
 2977TIP3    H2 8896   1.563   4.731   2.559
 2978TIP3   OH2 8897   6.258   2.049   4.539
 2978TIP3    H1 8898   6.275   1.990   4.466
 2978TIP3    H2 8899   6.303   2.008   4.613
 2979TIP3   OH2 8900   1.500   3.094   3.924
 2979TIP3    H1 8901   1.531   3.094   3.834
 2979TIP3    H2 8902   1.541   3.017   3.964
 2980TIP3   OH2 8903   0.090   1.996   5.440
 2980TIP3    H1 8904   0.106   2.065   5.505
 2980TIP3    H2 8905   0.124   2.032   5.358
 2981TIP3   OH2 8906   0.443   6.275   0.400
 2981TIP3    H1 8907   0.420   6.248   0.311
 2981TIP3    H2 8908   0.535   6.302   0.393
 2982TIP3   OH2 8909   1.432   4.923   3.497
 2982TIP3    H1 8910   1.448   5.017   3.495
 2982TIP3    H2 8911   1.497   4.889   3.559
 2983TIP3   OH2 8912   7.000   2.663   1.569
 2983TIP3    H1 8913   7.009   2.591   1.631
 2983TIP3    H2 8914   7.089   2.681   1.540
 2984TIP3   OH2 8915   6.275   5.218   1.783
 2984TIP3    H1 8916   6.299   5.160   1.855
 2984TIP3    H2 8917   6.334   5.194   1.712
 2985TIP3   OH2 8918   6.436   5.989   1.330
 2985TIP3    H1 8919   6.365   5.945   1.283
 2985TIP3    H2 8920   6.396   6.069   1.364
 2986TIP3   OH2 8921   3.826   6.027   5.477
 2986TIP3    H1 8922   3.845   6.106   5.528
 2986TIP3    H2 8923   3.879   5.959   5.519
 2987TIP3   OH2 8924   0.468   2.302   4.083
 2987TIP3    H1 8925   0.400   2.327   4.020
 2987TIP3    H2 8926   0.455   2.360   4.157
 2988TIP3   OH2 8927   0.357   0.284   2.445
 2988TIP3    H1 8928   0.311   0.231   2.511
 2988TIP3    H2 8929   0.327   0.373   2.461
 2989TIP3   OH2 8930   5.730   2.422   0.548
 2989TIP3    H1 8931   5.670   2.467   0.488
 2989TIP3    H2 8932   5.779   2.363   0.491
 2990TIP3   OH2 8933   3.949   5.386   4.988
 2990TIP3    H1 8934   3.918   5.449   5.054
 2990TIP3    H2 8935   4.044   5.394   4.991
 2991TIP3   OH2 8936   7.027   2.174   4.206
 2991TIP3    H1 8937   7.001   2.088   4.238
 2991TIP3    H2 8938   6.990   2.236   4.269
 2992TIP3   OH2 8939   1.742   6.434   5.654
 2992TIP3    H1 8940   1.837   6.440   5.665
 2992TIP3    H2 8941   1.709   6.417   5.743
 2993TIP3   OH2 8942   2.090   4.737   2.554
 2993TIP3    H1 8943   2.177   4.706   2.578
 2993TIP3    H2 8944   2.098   4.832   2.549
 2994TIP3   OH2 8945   3.599   6.310   3.031
 2994TIP3    H1 8946   3.537   6.242   3.005
 2994TIP3    H2 8947   3.671   6.262   3.073
 2995TIP3   OH2 8948   2.937   0.796   0.978
 2995TIP3    H1 8949   2.995   0.791   0.902
 2995TIP3    H2 8950   2.977   0.862   1.034
 2996TIP3   OH2 8951   5.044   6.561   2.530
 2996TIP3    H1 8952   5.029   6.652   2.502
 2996TIP3    H2 8953   5.014   6.508   2.456
 2997TIP3   OH2 8954   3.563   4.360   0.101
 2997TIP3    H1 8955   3.478   4.320   0.117
 2997TIP3    H2 8956   3.616   4.335   0.176
 2998TIP3   OH2 8957   0.747   4.256   0.282
 2998TIP3    H1 8958   0.797   4.182   0.247
 2998TIP3    H2 8959   0.683   4.216   0.341
 2999TIP3   OH2 8960   3.730   1.956   2.340
 2999TIP3    H1 8961   3.700   1.898   2.271
 2999TIP3    H2 8962   3.819   1.980   2.315
 3000TIP3   OH2 8963   4.673   2.183   0.348
 3000TIP3    H1 8964   4.716   2.258   0.387
 3000TIP3    H2 8965   4.591   2.218   0.313
 3001TIP3   OH2 8966   5.849   2.217   2.507
 3001TIP3    H1 8967   5.790   2.267   2.452
 3001TIP3    H2 8968   5.918   2.188   2.448
 3002TIP3   OH2 8969   1.292   4.049   1.796
 3002TIP3    H1 8970   1.337   3.969   1.824
 3002TIP3    H2 8971   1.343   4.120   1.836
 3003TIP3   OH2 8972   1.945   2.176   4.571
 3003TIP3    H1 8973   1.865   2.207   4.614
 3003TIP3    H2 8974   1.978   2.253   4.524
 3004TIP3   OH2 8975   1.785   4.503   1.569
 3004TIP3    H1 8976   1.833   4.547   1.640
 3004TIP3    H2 8977   1.804   4.410   1.581
 3005TIP3   OH2 8978   2.622   6.519   1.300
 3005TIP3    H1 8979   2.616   6.563   1.215
 3005TIP3    H2 8980   2.576   6.577   1.360
 3006TIP3   OH2 8981   5.318   4.564   5.365
 3006TIP3    H1 8982   5.233   4.557   5.321
 3006TIP3    H2 8983   5.330   4.657   5.380
 3007TIP3   OH2 8984   3.388   1.430   4.275
 3007TIP3    H1 8985   3.344   1.451   4.193
 3007TIP3    H2 8986   3.319   1.431   4.341
 3008TIP3   OH2 8987   5.531   6.513   2.728
 3008TIP3    H1 8988   5.586   6.592   2.728
 3008TIP3    H2 8989   5.485   6.516   2.644
 3009TIP3   OH2 8990   6.036   6.387   1.879
 3009TIP3    H1 8991   6.066   6.420   1.794
 3009TIP3    H2 8992   5.998   6.464   1.922
 3010TIP3   OH2 8993   1.555   3.112   0.073
 3010TIP3    H1 8994   1.557   3.138  -0.019
 3010TIP3    H2 8995   1.616   3.171   0.117
 3011TIP3   OH2 8996   2.309   3.310   4.662
 3011TIP3    H1 8997   2.340   3.390   4.620
 3011TIP3    H2 8998   2.270   3.259   4.591
 3012TIP3   OH2 8999   1.921   4.108   2.545
 3012TIP3    H1 9000   1.971   4.090   2.625
 3012TIP3    H2 9001   1.987   4.139   2.483
 3013TIP3   OH2 9002   1.491   5.202   3.752
 3013TIP3    H1 9003   1.577   5.198   3.793
 3013TIP3    H2 9004   1.508   5.196   3.659
 3014TIP3   OH2 9005   6.373   1.660   5.669
 3014TIP3    H1 9006   6.462   1.693   5.661
 3014TIP3    H2 9007   6.375   1.575   5.625
 3015TIP3   OH2 9008   2.282   2.480   2.182
 3015TIP3    H1 9009   2.255   2.505   2.271
 3015TIP3    H2 9010   2.377   2.486   2.183
 3016TIP3   OH2 9011   2.011   4.772   1.559
 3016TIP3    H1 9012   2.090   4.824   1.573
 3016TIP3    H2 9013   2.025   4.728   1.475
 3017TIP3   OH2 9014   3.112   6.502   0.002
 3017TIP3    H1 9015   3.194   6.486   0.049
 3017TIP3    H2 9016   3.083   6.588   0.034
 3018TIP3   OH2 9017   2.908   1.457   5.257
 3018TIP3    H1 9018   2.964   1.379   5.263
 3018TIP3    H2 9019   2.849   1.439   5.184
 3019TIP3   OH2 9020   2.629   4.040   2.088
 3019TIP3    H1 9021   2.715   4.055   2.126
 3019TIP3    H2 9022   2.568   4.060   2.158
 3020TIP3   OH2 9023   6.527   0.404   1.730
 3020TIP3    H1 9024   6.526   0.496   1.705
 3020TIP3    H2 9025   6.493   0.402   1.819
 3021TIP3   OH2 9026   6.123   4.007   1.458
 3021TIP3    H1 9027   6.030   3.985   1.449
 3021TIP3    H2 9028   6.134   4.028   1.551
 3022TIP3   OH2 9029   5.218   2.788   2.840
 3022TIP3    H1 9030   5.307   2.812   2.865
 3022TIP3    H2 9031   5.174   2.770   2.923
 3023TIP3   OH2 9032   1.973   2.062   2.989
 3023TIP3    H1 9033   1.885   2.070   2.953
 3023TIP3    H2 9034   1.960   2.043   3.082
 3024TIP3   OH2 9035   1.064   6.434   5.007
 3024TIP3    H1 9036   0.973   6.410   5.027
 3024TIP3    H2 9037   1.089   6.493   5.078
 3025TIP3   OH2 9038   0.352   1.973   3.037
 3025TIP3    H1 9039   0.358   1.889   2.991
 3025TIP3    H2 9040   0.435   1.979   3.084
 3026TIP3   OH2 9041   1.263   6.713   1.825
 3026TIP3    H1 9042   1.181   6.687   1.783
 3026TIP3    H2 9043   1.288   6.794   1.781
 3027TIP3   OH2 9044   4.207   3.047   0.099
 3027TIP3    H1 9045   4.199   3.019   0.007
 3027TIP3    H2 9046   4.264   3.125   0.095
 3028TIP3   OH2 9047   0.948   5.966   0.926
 3028TIP3    H1 9048   1.033   5.953   0.884
 3028TIP3    H2 9049   0.944   6.060   0.942
 3029TIP3   OH2 9050   5.091   3.480   1.765
 3029TIP3    H1 9051   5.059   3.480   1.675
 3029TIP3    H2 9052   5.120   3.570   1.781
 3030TIP3   OH2 9053   1.070   3.574   3.154
 3030TIP3    H1 9054   1.157   3.609   3.173
 3030TIP3    H2 9055   1.062   3.497   3.211
 3031TIP3   OH2 9056   5.198   6.577   3.898
 3031TIP3    H1 9057   5.180   6.588   3.991
 3031TIP3    H2 9058   5.156   6.495   3.875
 3032TIP3   OH2 9059   6.056   3.609   4.989
 3032TIP3    H1 9060   6.019   3.651   5.066
 3032TIP3    H2 9061   6.061   3.516   5.013
 3033TIP3   OH2 9062   4.578   1.506   1.679
 3033TIP3    H1 9063   4.601   1.435   1.739
 3033TIP3    H2 9064   4.491   1.535   1.708
 3034TIP3   OH2 9065   5.819   2.833   3.173
 3034TIP3    H1 9066   5.890   2.795   3.120
 3034TIP3    H2 9067   5.779   2.897   3.115
 3035TIP3   OH2 9068   3.381   5.193   5.369
 3035TIP3    H1 9069   3.310   5.131   5.386
 3035TIP3    H2 9070   3.460   5.148   5.399
 3036TIP3   OH2 9071   0.040   1.359   4.825
 3036TIP3    H1 9072   0.120   1.380   4.872
 3036TIP3    H2 9073  -0.030   1.379   4.887
 3037TIP3   OH2 9074   7.068   6.115   0.811
 3037TIP3    H1 9075   7.051   6.200   0.853
 3037TIP3    H2 9076   6.995   6.104   0.750
 3038TIP3   OH2 9077   3.337   3.429   5.020
 3038TIP3    H1 9078   3.424   3.469   5.024
 3038TIP3    H2 9079   3.355   3.334   5.017
 3039TIP3   OH2 9080   4.654   4.526   5.431
 3039TIP3    H1 9081   4.594   4.600   5.436
 3039TIP3    H2 9082   4.662   4.494   5.521
 3040TIP3   OH2 9083   5.836   2.396   4.324
 3040TIP3    H1 9084   5.801   2.483   4.341
 3040TIP3    H2 9085   5.927   2.402   4.352
 3041TIP3   OH2 9086   1.020   2.462   4.996
 3041TIP3    H1 9087   1.027   2.379   5.043
 3041TIP3    H2 9088   0.959   2.515   5.049
 3042TIP3   OH2 9089   1.040   2.033   3.261
 3042TIP3    H1 9090   1.019   2.078   3.343
 3042TIP3    H2 9091   1.114   2.081   3.225
 3043TIP3   OH2 9092   4.135   6.298   1.573
 3043TIP3    H1 9093   4.125   6.365   1.504
 3043TIP3    H2 9094   4.218   6.255   1.552
 3044TIP3   OH2 9095   3.552   2.722   0.972
 3044TIP3    H1 9096   3.594   2.808   0.978
 3044TIP3    H2 9097   3.481   2.734   0.909
 3045TIP3   OH2 9098   0.183   2.208   0.738
 3045TIP3    H1 9099   0.154   2.170   0.655
 3045TIP3    H2 9100   0.105   2.248   0.775
 3046TIP3   OH2 9101   1.647   4.790   1.045
 3046TIP3    H1 9102   1.556   4.805   1.018
 3046TIP3    H2 9103   1.651   4.826   1.134
 3047TIP3   OH2 9104   3.111   1.283   5.658
 3047TIP3    H1 9105   3.194   1.298   5.612
 3047TIP3    H2 9106   3.064   1.366   5.653
 3048TIP3   OH2 9107   5.864   6.379   5.728
 3048TIP3    H1 9108   5.929   6.316   5.696
 3048TIP3    H2 9109   5.916   6.455   5.755
 3049TIP3   OH2 9110   1.009   2.221   1.048
 3049TIP3    H1 9111   1.012   2.236   0.954
 3049TIP3    H2 9112   0.930   2.169   1.062
 3050TIP3   OH2 9113   5.488   1.947   5.090
 3050TIP3    H1 9114   5.511   2.040   5.078
 3050TIP3    H2 9115   5.433   1.947   5.169
 3051TIP3   OH2 9116   6.742   6.736   1.820
 3051TIP3    H1 9117   6.711   6.660   1.869
 3051TIP3    H2 9118   6.664   6.790   1.808
 3052TIP3   OH2 9119   4.470   3.217   1.707
 3052TIP3    H1 9120   4.454   3.297   1.657
 3052TIP3    H2 9121   4.382   3.185   1.728
 3053TIP3   OH2 9122   1.123   1.981   0.875
 3053TIP3    H1 9123   1.202   2.035   0.877
 3053TIP3    H2 9124   1.051   2.043   0.867
 3054TIP3   OH2 9125   5.976   3.664   5.690
 3054TIP3    H1 9126   6.018   3.684   5.606
 3054TIP3    H2 9127   6.008   3.576   5.713
 3055TIP3   OH2 9128   6.373   6.287   1.731
 3055TIP3    H1 9129   6.403   6.376   1.714
 3055TIP3    H2 9130   6.451   6.233   1.723
 3056TIP3   OH2 9131   3.166   5.051   5.148
 3056TIP3    H1 9132   3.122   4.984   5.200
 3056TIP3    H2 9133   3.095   5.099   5.105
 3057TIP3   OH2 9134   0.739   2.300   4.123
 3057TIP3    H1 9135   0.650   2.318   4.093
 3057TIP3    H2 9136   0.751   2.206   4.108
 3058TIP3   OH2 9137   3.726   4.496   2.030
 3058TIP3    H1 9138   3.776   4.419   2.004
 3058TIP3    H2 9139   3.682   4.524   1.950
 3059TIP3   OH2 9140   1.004   6.023   4.246
 3059TIP3    H1 9141   1.004   6.117   4.230
 3059TIP3    H2 9142   0.981   5.984   4.161
 3060TIP3   OH2 9143   4.884   0.496   3.624
 3060TIP3    H1 9144   4.895   0.401   3.636
 3060TIP3    H2 9145   4.853   0.504   3.533
 3061TIP3   OH2 9146   0.355   2.371   2.653
 3061TIP3    H1 9147   0.430   2.358   2.594
 3061TIP3    H2 9148   0.300   2.435   2.609
 3062TIP3   OH2 9149   4.744   2.133   1.689
 3062TIP3    H1 9150   4.693   2.052   1.685
 3062TIP3    H2 9151   4.680   2.203   1.681
 3063TIP3   OH2 9152   4.008   1.022   3.753
 3063TIP3    H1 9153   3.973   1.035   3.841
 3063TIP3    H2 9154   4.003   0.927   3.739
 3064TIP3   OH2 9155   4.016   2.897   0.768
 3064TIP3    H1 9156   4.083   2.887   0.836
 3064TIP3    H2 9157   4.002   2.992   0.763
 3065TIP3   OH2 9158   0.685   5.538   2.551
 3065TIP3    H1 9159   0.667   5.550   2.644
 3065TIP3    H2 9160   0.735   5.615   2.526
 3066TIP3   OH2 9161   0.927   2.670   5.311
 3066TIP3    H1 9162   0.944   2.759   5.280
 3066TIP3    H2 9163   0.848   2.677   5.364
 3067TIP3   OH2 9164   6.902   2.914   3.545
 3067TIP3    H1 9165   6.958   2.922   3.623
 3067TIP3    H2 9166   6.938   2.839   3.498
 3068TIP3   OH2 9167   2.289   1.750   1.235
 3068TIP3    H1 9168   2.270   1.663   1.271
 3068TIP3    H2 9169   2.217   1.766   1.174
 3069TIP3   OH2 9170   5.010   3.753   5.849
 3069TIP3    H1 9171   5.051   3.836   5.825
 3069TIP3    H2 9172   5.083   3.694   5.869
 3070TIP3   OH2 9173   6.549   6.145   4.864
 3070TIP3    H1 9174   6.549   6.233   4.827
 3070TIP3    H2 9175   6.585   6.090   4.795
 3071TIP3   OH2 9176   3.580   5.124   3.415
 3071TIP3    H1 9177   3.519   5.067   3.370
 3071TIP3    H2 9178   3.666   5.094   3.387
 3072TIP3   OH2 9179   2.225   4.681   0.680
 3072TIP3    H1 9180   2.216   4.731   0.761
 3072TIP3    H2 9181   2.254   4.594   0.709
 3073TIP3   OH2 9182   3.709   1.316   5.744
 3073TIP3    H1 9183   3.800   1.334   5.767
 3073TIP3    H2 9184   3.692   1.228   5.779
 3074TIP3   OH2 9185   0.532   6.582   0.121
 3074TIP3    H1 9186   0.575   6.638   0.056
 3074TIP3    H2 9187   0.456   6.632   0.149
 3075TIP3   OH2 9188   2.143   3.614   0.919
 3075TIP3    H1 9189   2.087   3.545   0.954
 3075TIP3    H2 9190   2.131   3.608   0.824
 3076TIP3   OH2 9191   5.658   6.775   3.744
 3076TIP3    H1 9192   5.633   6.852   3.795
 3076TIP3    H2 9193   5.593   6.709   3.766
 3077TIP3   OH2 9194   0.557   1.675   1.011
 3077TIP3    H1 9195   0.627   1.632   1.060
 3077TIP3    H2 9196   0.563   1.767   1.037
 3078TIP3   OH2 9197   1.578   1.102   4.341
 3078TIP3    H1 9198   1.550   1.113   4.432
 3078TIP3    H2 9199   1.576   1.008   4.326
 3079TIP3   OH2 9200   5.523   4.046   0.183
 3079TIP3    H1 9201   5.479   3.967   0.153
 3079TIP3    H2 9202   5.558   4.022   0.270
 3080TIP3   OH2 9203   0.769   2.373   3.824
 3080TIP3    H1 9204   0.771   2.401   3.915
 3080TIP3    H2 9205   0.776   2.454   3.773
 3081TIP3   OH2 9206   3.403   5.705   2.224
 3081TIP3    H1 9207   3.323   5.737   2.267
 3081TIP3    H2 9208   3.401   5.610   2.235
 3082TIP3   OH2 9209   4.657   1.943   3.299
 3082TIP3    H1 9210   4.611   1.949   3.383
 3082TIP3    H2 9211   4.688   1.852   3.295
 3083TIP3   OH2 9212   3.157   6.151   1.732
 3083TIP3    H1 9213   3.243   6.185   1.757
 3083TIP3    H2 9214   3.165   6.129   1.639
 3084TIP3   OH2 9215   5.722   4.753   3.587
 3084TIP3    H1 9216   5.671   4.829   3.615
 3084TIP3    H2 9217   5.809   4.768   3.622
 3085TIP3   OH2 9218   4.447   2.239   1.532
 3085TIP3    H1 9219   4.522   2.196   1.491
 3085TIP3    H2 9220   4.372   2.209   1.482
 3086TIP3   OH2 9221   5.278   1.850   5.725
 3086TIP3    H1 9222   5.288   1.944   5.709
 3086TIP3    H2 9223   5.186   1.833   5.708
 3087TIP3   OH2 9224   5.875   6.781   4.346
 3087TIP3    H1 9225   5.906   6.804   4.259
 3087TIP3    H2 9226   5.877   6.685   4.348
 3088TIP3   OH2 9227   2.226   1.528   4.560
 3088TIP3    H1 9228   2.311   1.504   4.525
 3088TIP3    H2 9229   2.228   1.499   4.651
 3089TIP3   OH2 9230   1.131   4.316   5.086
 3089TIP3    H1 9231   1.122   4.291   4.994
 3089TIP3    H2 9232   1.219   4.287   5.110
 3090TIP3   OH2 9233   6.785   3.702   1.032
 3090TIP3    H1 9234   6.879   3.702   1.046
 3090TIP3    H2 9235   6.753   3.779   1.081
 3091TIP3   OH2 9236   5.119   3.353   3.815
 3091TIP3    H1 9237   5.128   3.393   3.729
 3091TIP3    H2 9238   5.091   3.263   3.798
 3092TIP3   OH2 9239   4.794   3.548   5.349
 3092TIP3    H1 9240   4.858   3.618   5.364
 3092TIP3    H2 9241   4.814   3.483   5.416
 3093TIP3   OH2 9242   4.747   0.233   0.042
 3093TIP3    H1 9243   4.677   0.265  -0.015
 3093TIP3    H2 9244   4.819   0.295   0.028
 3094TIP3   OH2 9245   6.549   3.481   3.582
 3094TIP3    H1 9246   6.565   3.547   3.650
 3094TIP3    H2 9247   6.575   3.398   3.622
 3095TIP3   OH2 9248   4.000   6.093   1.038
 3095TIP3    H1 9249   4.037   6.124   1.121
 3095TIP3    H2 9250   3.931   6.156   1.017
 3096TIP3   OH2 9251   7.177   0.492   3.449
 3096TIP3    H1 9252   7.164   0.566   3.389
 3096TIP3    H2 9253   7.089   0.461   3.468
 3097TIP3   OH2 9254   2.350   2.895   5.890
 3097TIP3    H1 9255   2.410   2.966   5.911
 3097TIP3    H2 9256   2.270   2.938   5.859
 3098TIP3   OH2 9257   3.117   3.944   3.515
 3098TIP3    H1 9258   3.050   3.982   3.572
 3098TIP3    H2 9259   3.115   3.850   3.536
 3099TIP3   OH2 9260   2.343   3.824   1.968
 3099TIP3    H1 9261   2.299   3.775   1.899
 3099TIP3    H2 9262   2.325   3.916   1.948
 3100TIP3   OH2 9263   6.715   2.961   2.995
 3100TIP3    H1 9264   6.745   2.881   3.037
 3100TIP3    H2 9265   6.732   3.030   3.060
 3101TIP3   OH2 9266   1.492   6.320   5.147
 3101TIP3    H1 9267   1.499   6.389   5.081
 3101TIP3    H2 9268   1.549   6.349   5.219
 3102TIP3   OH2 9269   6.235   3.868   1.771
 3102TIP3    H1 9270   6.308   3.856   1.832
 3102TIP3    H2 9271   6.218   3.781   1.736
 3103TIP3   OH2 9272   4.714   5.018   4.260
 3103TIP3    H1 9273   4.660   4.985   4.332
 3103TIP3    H2 9274   4.782   5.070   4.303
 3104TIP3   OH2 9275   4.421   0.585   2.652
 3104TIP3    H1 9276   4.387   0.496   2.646
 3104TIP3    H2 9277   4.371   0.635   2.586
 3105TIP3   OH2 9278   0.909   0.306   3.204
 3105TIP3    H1 9279   0.988   0.277   3.250
 3105TIP3    H2 9280   0.927   0.397   3.181
 3106TIP3   OH2 9281   5.227   5.521   0.275
 3106TIP3    H1 9282   5.234   5.501   0.369
 3106TIP3    H2 9283   5.159   5.588   0.270
 3107TIP3   OH2 9284   2.388   1.463   2.687
 3107TIP3    H1 9285   2.478   1.484   2.712
 3107TIP3    H2 9286   2.390   1.458   2.591
 3108TIP3   OH2 9287   1.511   5.368   0.381
 3108TIP3    H1 9288   1.429   5.416   0.366
 3108TIP3    H2 9289   1.490   5.277   0.359
 3109TIP3   OH2 9290   0.115   5.353   1.188
 3109TIP3    H1 9291   0.177   5.416   1.225
 3109TIP3    H2 9292   0.143   5.343   1.097
 3110TIP3   OH2 9293   4.787   5.416   4.298
 3110TIP3    H1 9294   4.807   5.490   4.241
 3110TIP3    H2 9295   4.691   5.415   4.303
 3111TIP3   OH2 9296   4.031   0.298   4.797
 3111TIP3    H1 9297   4.004   0.302   4.889
 3111TIP3    H2 9298   3.983   0.369   4.755
 3112TIP3   OH2 9299   5.180   0.694   5.824
 3112TIP3    H1 9300   5.237   0.683   5.900
 3112TIP3    H2 9301   5.101   0.646   5.846
 3113TIP3   OH2 9302   1.699   1.034   2.213
 3113TIP3    H1 9303   1.649   0.961   2.251
 3113TIP3    H2 9304   1.633   1.101   2.195
 3114TIP3   OH2 9305   6.017   2.583   1.561
 3114TIP3    H1 9306   6.018   2.496   1.520
 3114TIP3    H2 9307   6.007   2.565   1.654
 3115TIP3   OH2 9308   0.474   4.095   1.158
 3115TIP3    H1 9309   0.518   4.161   1.212
 3115TIP3    H2 9310   0.458   4.022   1.218
 3116TIP3   OH2 9311   0.404   2.182   2.224
 3116TIP3    H1 9312   0.426   2.255   2.166
 3116TIP3    H2 9313   0.431   2.104   2.175
 3117TIP3   OH2 9314   4.676   0.336   2.098
 3117TIP3    H1 9315   4.752   0.389   2.123
 3117TIP3    H2 9316   4.658   0.361   2.008
 3118TIP3   OH2 9317   6.500   3.620   1.258
 3118TIP3    H1 9318   6.587   3.628   1.297
 3118TIP3    H2 9319   6.464   3.709   1.261
 3119TIP3   OH2 9320   1.370   2.619   4.371
 3119TIP3    H1 9321   1.347   2.599   4.462
 3119TIP3    H2 9322   1.339   2.543   4.322
 3120TIP3   OH2 9323   4.044   2.816   3.946
 3120TIP3    H1 9324   3.988   2.838   4.021
 3120TIP3    H2 9325   4.002   2.860   3.872
 3121TIP3   OH2 9326   5.514   3.878   4.597
 3121TIP3    H1 9327   5.480   3.901   4.510
 3121TIP3    H2 9328   5.524   3.962   4.642
 3122TIP3   OH2 9329   2.529   1.729   2.476
 3122TIP3    H1 9330   2.569   1.643   2.465
 3122TIP3    H2 9331   2.602   1.786   2.501
 3123TIP3   OH2 9332   0.655   3.043   5.623
 3123TIP3    H1 9333   0.629   3.095   5.699
 3123TIP3    H2 9334   0.701   3.104   5.566
 3124TIP3   OH2 9335   4.456   5.471   2.383
 3124TIP3    H1 9336   4.497   5.466   2.469
 3124TIP3    H2 9337   4.456   5.381   2.351
 3125TIP3   OH2 9338   2.517   6.707   2.631
 3125TIP3    H1 9339   2.494   6.617   2.607
 3125TIP3    H2 9340   2.598   6.724   2.583
 3126TIP3   OH2 9341   1.817   5.679   5.648
 3126TIP3    H1 9342   1.783   5.766   5.670
 3126TIP3    H2 9343   1.744   5.619   5.668
 3127TIP3   OH2 9344   5.090   6.657   3.525
 3127TIP3    H1 9345   5.088   6.730   3.587
 3127TIP3    H2 9346   5.005   6.614   3.537
 3128TIP3   OH2 9347   2.919   4.153   5.189
 3128TIP3    H1 9348   2.878   4.128   5.106
 3128TIP3    H2 9349   2.895   4.245   5.200
 3129TIP3   OH2 9350   4.618   0.214   0.697
 3129TIP3    H1 9351   4.686   0.166   0.744
 3129TIP3    H2 9352   4.644   0.306   0.705
 3130TIP3   OH2 9353   5.968   1.603   5.153
 3130TIP3    H1 9354   5.881   1.643   5.143
 3130TIP3    H2 9355   6.029   1.676   5.142
 3131TIP3   OH2 9356   3.244   5.686   1.197
 3131TIP3    H1 9357   3.153   5.665   1.216
 3131TIP3    H2 9358   3.267   5.754   1.261
 3132TIP3   OH2 9359   0.770   1.965   1.418
 3132TIP3    H1 9360   0.834   2.022   1.460
 3132TIP3    H2 9361   0.821   1.914   1.355
 3133TIP3   OH2 9362   7.002   2.583   5.685
 3133TIP3    H1 9363   6.989   2.489   5.699
 3133TIP3    H2 9364   6.925   2.611   5.637
 3134TIP3   OH2 9365   3.915   5.829   4.310
 3134TIP3    H1 9366   3.830   5.864   4.338
 3134TIP3    H2 9367   3.978   5.895   4.339
 3135TIP3   OH2 9368   0.237   4.538   2.923
 3135TIP3    H1 9369   0.169   4.482   2.887
 3135TIP3    H2 9370   0.282   4.573   2.846
 3136TIP3   OH2 9371   4.449   2.372   3.075
 3136TIP3    H1 9372   4.380   2.336   3.020
 3136TIP3    H2 9373   4.494   2.295   3.110
 3137TIP3   OH2 9374   6.873   4.660   2.318
 3137TIP3    H1 9375   6.840   4.745   2.350
 3137TIP3    H2 9376   6.860   4.663   2.223
 3138TIP3   OH2 9377   0.224   0.162   2.840
 3138TIP3    H1 9378   0.227   0.205   2.925
 3138TIP3    H2 9379   0.167   0.218   2.787
 3139TIP3   OH2 9380   6.169   5.476   5.765
 3139TIP3    H1 9381   6.094   5.525   5.731
 3139TIP3    H2 9382   6.156   5.474   5.860
 3140TIP3   OH2 9383   2.837   1.156   4.309
 3140TIP3    H1 9384   2.839   1.114   4.395
 3140TIP3    H2 9385   2.927   1.184   4.294
 3141TIP3   OH2 9386   2.840   3.699   1.825
 3141TIP3    H1 9387   2.833   3.777   1.769
 3141TIP3    H2 9388   2.758   3.651   1.810
 3142TIP3   OH2 9389   3.095   1.174   1.646
 3142TIP3    H1 9390   3.013   1.190   1.599
 3142TIP3    H2 9391   3.101   1.078   1.651
 3143TIP3   OH2 9392   5.265   3.084   2.992
 3143TIP3    H1 9393   5.342   3.130   2.959
 3143TIP3    H2 9394   5.191   3.130   2.952
 3144TIP3   OH2 9395   6.773   3.511   2.939
 3144TIP3    H1 9396   6.763   3.563   3.018
 3144TIP3    H2 9397   6.775   3.420   2.970
 3145TIP3   OH2 9398   0.717   0.482   2.200
 3145TIP3    H1 9399   0.709   0.577   2.192
 3145TIP3    H2 9400   0.628   0.449   2.191
 3146TIP3   OH2 9401   2.663   2.413   1.477
 3146TIP3    H1 9402   2.630   2.369   1.398
 3146TIP3    H2 9403   2.628   2.502   1.471
 3147TIP3   OH2 9404   0.335   3.959   1.833
 3147TIP3    H1 9405   0.245   3.986   1.851
 3147TIP3    H2 9406   0.340   3.868   1.862
 3148TIP3   OH2 9407   4.903   0.073   2.306
 3148TIP3    H1 9408   4.929   0.060   2.215
 3148TIP3    H2 9409   4.809   0.056   2.307
 3149TIP3   OH2 9410   7.035   4.134   4.890
 3149TIP3    H1 9411   7.071   4.189   4.960
 3149TIP3    H2 9412   6.948   4.109   4.921
 3150TIP3   OH2 9413   0.070   2.897   4.715
 3150TIP3    H1 9414  -0.025   2.885   4.716
 3150TIP3    H2 9415   0.103   2.829   4.774
 3151TIP3   OH2 9416   4.125   5.196   0.246
 3151TIP3    H1 9417   4.122   5.281   0.203
 3151TIP3    H2 9418   4.053   5.147   0.207
 3152TIP3   OH2 9419   2.999   0.014   1.218
 3152TIP3    H1 9420   2.979  -0.021   1.131
 3152TIP3    H2 9421   2.924   0.070   1.238
 3153TIP3   OH2 9422   0.367   6.447   1.394
 3153TIP3    H1 9423   0.444   6.395   1.369
 3153TIP3    H2 9424   0.395   6.495   1.472
 3154TIP3   OH2 9425   1.014   2.439   3.077
 3154TIP3    H1 9426   0.940   2.499   3.069
 3154TIP3    H2 9427   1.064   2.452   2.997
 3155TIP3   OH2 9428   4.336   0.632   5.171
 3155TIP3    H1 9429   4.364   0.612   5.260
 3155TIP3    H2 9430   4.398   0.586   5.114
 3156TIP3   OH2 9431   4.581   4.243   4.130
 3156TIP3    H1 9432   4.535   4.289   4.200
 3156TIP3    H2 9433   4.512   4.210   4.072
 3157TIP3   OH2 9434   2.181   1.961   1.736
 3157TIP3    H1 9435   2.276   1.971   1.734
 3157TIP3    H2 9436   2.154   1.974   1.646
 3158TIP3   OH2 9437   6.751   2.893   4.139
 3158TIP3    H1 9438   6.662   2.866   4.161
 3158TIP3    H2 9439   6.750   2.988   4.148
 3159TIP3   OH2 9440   2.432   4.666   4.279
 3159TIP3    H1 9441   2.417   4.674   4.185
 3159TIP3    H2 9442   2.420   4.754   4.313
 3160TIP3   OH2 9443   6.696   0.440   2.278
 3160TIP3    H1 9444   6.702   0.508   2.211
 3160TIP3    H2 9445   6.657   0.484   2.354
 3161TIP3   OH2 9446   5.990   4.252   5.286
 3161TIP3    H1 9447   6.039   4.310   5.227
 3161TIP3    H2 9448   5.899   4.261   5.258
 3162TIP3   OH2 9449   4.521   3.832   1.964
 3162TIP3    H1 9450   4.431   3.806   1.982
 3162TIP3    H2 9451   4.519   3.928   1.960
 3163TIP3   OH2 9452   1.441   3.693   5.421
 3163TIP3    H1 9453   1.356   3.652   5.407
 3163TIP3    H2 9454   1.487   3.634   5.481
 3164TIP3   OH2 9455   3.657   2.941   4.569
 3164TIP3    H1 9456   3.664   2.873   4.503
 3164TIP3    H2 9457   3.601   2.903   4.637
 3165TIP3   OH2 9458   6.738   2.653   5.571
 3165TIP3    H1 9459   6.730   2.746   5.592
 3165TIP3    H2 9460   6.768   2.651   5.480
 3166TIP3   OH2 9461   2.981   2.352   5.902
 3166TIP3    H1 9462   3.075   2.336   5.902
 3166TIP3    H2 9463   2.942   2.266   5.886
 3167TIP3   OH2 9464   2.125   2.044   0.770
 3167TIP3    H1 9465   2.178   2.081   0.840
 3167TIP3    H2 9466   2.130   2.107   0.699
 3168TIP3   OH2 9467   2.425   1.819   2.719
 3168TIP3    H1 9468   2.407   1.813   2.626
 3168TIP3    H2 9469   2.515   1.787   2.729
 3169TIP3   OH2 9470   3.193   3.704   0.958
 3169TIP3    H1 9471   3.125   3.672   1.019
 3169TIP3    H2 9472   3.233   3.777   1.004
 3170TIP3   OH2 9473   6.203   5.583   1.308
 3170TIP3    H1 9474   6.226   5.492   1.328
 3170TIP3    H2 9475   6.179   5.621   1.393
 3171TIP3   OH2 9476   0.440   2.679   2.167
 3171TIP3    H1 9477   0.446   2.748   2.101
 3171TIP3    H2 9478   0.350   2.646   2.160
 3172TIP3   OH2 9479   4.809   2.177   5.320
 3172TIP3    H1 9480   4.840   2.180   5.230
 3172TIP3    H2 9481   4.786   2.267   5.341
 3173TIP3   OH2 9482   3.888   2.008   0.463
 3173TIP3    H1 9483   3.942   2.066   0.516
 3173TIP3    H2 9484   3.944   1.985   0.388
 3174TIP3   OH2 9485   2.223   1.501   3.502
 3174TIP3    H1 9486   2.146   1.540   3.544
 3174TIP3    H2 9487   2.297   1.533   3.553
 3175TIP3   OH2 9488   6.703   6.359   2.767
 3175TIP3    H1 9489   6.755   6.433   2.734
 3175TIP3    H2 9490   6.698   6.299   2.693
 3176TIP3   OH2 9491   4.859   4.272   2.951
 3176TIP3    H1 9492   4.934   4.215   2.969
 3176TIP3    H2 9493   4.879   4.354   2.996
 3177TIP3   OH2 9494   0.715   5.959   1.335
 3177TIP3    H1 9495   0.764   5.926   1.260
 3177TIP3    H2 9496   0.765   6.035   1.365
 3178TIP3   OH2 9497   5.778   1.566   2.009
 3178TIP3    H1 9498   5.766   1.606   2.095
 3178TIP3    H2 9499   5.773   1.472   2.026
 3179TIP3   OH2 9500   0.311   3.508   4.402
 3179TIP3    H1 9501   0.396   3.481   4.435
 3179TIP3    H2 9502   0.248   3.461   4.456
 3180TIP3   OH2 9503   2.495   4.672   1.391
 3180TIP3    H1 9504   2.548   4.657   1.313
 3180TIP3    H2 9505   2.481   4.766   1.394
 3181TIP3   OH2 9506   3.773   1.771   4.153
 3181TIP3    H1 9507   3.773   1.781   4.058
 3181TIP3    H2 9508   3.689   1.730   4.173
 3182TIP3   OH2 9509   0.467   5.156   5.134
 3182TIP3    H1 9510   0.429   5.244   5.130
 3182TIP3    H2 9511   0.557   5.170   5.161
 3183TIP3   OH2 9512   4.784   4.326   0.051
 3183TIP3    H1 9513   4.774   4.246   0.000
 3183TIP3    H2 9514   4.698   4.368   0.047
 3184TIP3   OH2 9515   6.852   0.782   3.682
 3184TIP3    H1 9516   6.925   0.844   3.680
 3184TIP3    H2 9517   6.830   0.774   3.774
 3185TIP3   OH2 9518   4.509   1.968   0.208
 3185TIP3    H1 9519   4.464   1.912   0.271
 3185TIP3    H2 9520   4.592   1.989   0.251
 3186TIP3   OH2 9521   5.600   3.796   3.593
 3186TIP3    H1 9522   5.507   3.784   3.612
 3186TIP3    H2 9523   5.609   3.771   3.501
 3187TIP3   OH2 9524   5.780   0.979   5.520
 3187TIP3    H1 9525   5.781   0.985   5.424
 3187TIP3    H2 9526   5.768   1.070   5.549
 3188TIP3   OH2 9527   6.624   2.740   3.347
 3188TIP3    H1 9528   6.658   2.653   3.370
 3188TIP3    H2 9529   6.668   2.763   3.265
 3189TIP3   OH2 9530   6.863   4.486   4.372
 3189TIP3    H1 9531   6.958   4.494   4.360
 3189TIP3    H2 9532   6.831   4.458   4.286
 3190TIP3   OH2 9533   4.704   6.130   5.041
 3190TIP3    H1 9534   4.716   6.216   5.001
 3190TIP3    H2 9535   4.651   6.081   4.978
 3191TIP3   OH2 9536   6.846   5.292   1.338
 3191TIP3    H1 9537   6.816   5.213   1.293
 3191TIP3    H2 9538   6.783   5.304   1.409
 3192TIP3   OH2 9539   3.975   1.258   5.792
 3192TIP3    H1 9540   3.975   1.166   5.818
 3192TIP3    H2 9541   3.977   1.256   5.697
 3193TIP3   OH2 9542   6.031   3.330   5.352
 3193TIP3    H1 9543   5.957   3.307   5.407
 3193TIP3    H2 9544   6.102   3.273   5.382
 3194TIP3   OH2 9545   5.936   0.756   4.389
 3194TIP3    H1 9546   5.843   0.735   4.396
 3194TIP3    H2 9547   5.958   0.737   4.298
 3195TIP3   OH2 9548   6.312   4.825   3.991
 3195TIP3    H1 9549   6.219   4.832   3.969
 3195TIP3    H2 9550   6.353   4.898   3.944
 3196TIP3   OH2 9551   2.286   5.627   3.944
 3196TIP3    H1 9552   2.292   5.532   3.945
 3196TIP3    H2 9553   2.255   5.649   3.856
 3197TIP3   OH2 9554   2.296   3.991   1.328
 3197TIP3    H1 9555   2.293   3.953   1.416
 3197TIP3    H2 9556   2.204   4.009   1.306
 3198TIP3   OH2 9557   5.552   3.156   5.313
 3198TIP3    H1 9558   5.490   3.132   5.383
 3198TIP3    H2 9559   5.497   3.171   5.236
 3199TIP3   OH2 9560   6.017   2.709   4.897
 3199TIP3    H1 9561   6.058   2.636   4.850
 3199TIP3    H2 9562   5.940   2.731   4.845
 3200TIP3   OH2 9563   4.338   2.682   3.329
 3200TIP3    H1 9564   4.363   2.590   3.340
 3200TIP3    H2 9565   4.331   2.716   3.418
 3201TIP3   OH2 9566   0.621   0.640   3.139
 3201TIP3    H1 9567   0.685   0.626   3.069
 3201TIP3    H2 9568   0.572   0.717   3.112
 3202TIP3   OH2 9569   1.997   0.862   0.185
 3202TIP3    H1 9570   1.970   0.778   0.147
 3202TIP3    H2 9571   2.016   0.842   0.276
 3203TIP3   OH2 9572   1.305   1.596   4.055
 3203TIP3    H1 9573   1.348   1.618   4.138
 3203TIP3    H2 9574   1.261   1.676   4.028
 3204TIP3   OH2 9575   6.151   0.850   0.300
 3204TIP3    H1 9576   6.213   0.807   0.241
 3204TIP3    H2 9577   6.147   0.791   0.376
 3205TIP3   OH2 9578   0.794   0.587   2.906
 3205TIP3    H1 9579   0.848   0.622   2.835
 3205TIP3    H2 9580   0.755   0.508   2.870
 3206TIP3   OH2 9581   3.032   2.793   4.332
 3206TIP3    H1 9582   2.965   2.733   4.366
 3206TIP3    H2 9583   3.007   2.808   4.241
 3207TIP3   OH2 9584   1.783   5.583   4.711
 3207TIP3    H1 9585   1.820   5.651   4.656
 3207TIP3    H2 9586   1.770   5.509   4.652
 3208TIP3   OH2 9587   1.596   2.354   1.061
 3208TIP3    H1 9588   1.586   2.445   1.089
 3208TIP3    H2 9589   1.581   2.303   1.141
 3209TIP3   OH2 9590   2.558   0.222   5.507
 3209TIP3    H1 9591   2.540   0.129   5.513
 3209TIP3    H2 9592   2.652   0.228   5.490
 3210TIP3   OH2 9593   6.949   4.539   5.740
 3210TIP3    H1 9594   6.925   4.570   5.827
 3210TIP3    H2 9595   6.870   4.551   5.687
 3211TIP3   OH2 9596   4.903   5.757   0.521
 3211TIP3    H1 9597   4.960   5.761   0.598
 3211TIP3    H2 9598   4.854   5.675   0.531
 3212TIP3   OH2 9599   4.121   6.421   5.305
 3212TIP3    H1 9600   4.040   6.377   5.332
 3212TIP3    H2 9601   4.176   6.422   5.383
 3213TIP3   OH2 9602   3.132   4.971   1.334
 3213TIP3    H1 9603   3.062   5.030   1.307
 3213TIP3    H2 9604   3.097   4.924   1.410
 3214TIP3   OH2 9605   3.712   5.546   3.634
 3214TIP3    H1 9606   3.786   5.599   3.664
 3214TIP3    H2 9607   3.718   5.549   3.539
 3215TIP3   OH2 9608   6.541   5.000   1.349
 3215TIP3    H1 9609   6.484   4.951   1.289
 3215TIP3    H2 9610   6.627   4.998   1.308
 3216TIP3   OH2 9611   0.941   2.910   2.567
 3216TIP3    H1 9612   0.912   2.933   2.656
 3216TIP3    H2 9613   0.928   2.815   2.562
 3217TIP3   OH2 9614   4.207   4.510   0.425
 3217TIP3    H1 9615   4.241   4.495   0.337
 3217TIP3    H2 9616   4.224   4.428   0.472
 3218TIP3   OH2 9617   2.890   3.625   0.043
 3218TIP3    H1 9618   2.892   3.536   0.076
 3218TIP3    H2 9619   2.943   3.675   0.104
 3219TIP3   OH2 9620   3.384   5.679   4.818
 3219TIP3    H1 9621   3.313   5.669   4.755
 3219TIP3    H2 9622   3.351   5.740   4.883
 3220TIP3   OH2 9623   4.606   3.780   3.114
 3220TIP3    H1 9624   4.660   3.838   3.060
 3220TIP3    H2 9625   4.650   3.779   3.200
 3221TIP3   OH2 9626   3.398   3.919   4.365
 3221TIP3    H1 9627   3.372   3.953   4.280
 3221TIP3    H2 9628   3.451   3.990   4.403
 3222TIP3   OH2 9629   4.348   2.494   4.499
 3222TIP3    H1 9630   4.332   2.567   4.439
 3222TIP3    H2 9631   4.282   2.429   4.475
 3223TIP3   OH2 9632   3.112   5.999   2.472
 3223TIP3    H1 9633   3.104   6.073   2.532
 3223TIP3    H2 9634   3.178   5.943   2.511
 3224TIP3   OH2 9635   3.720   3.452   3.555
 3224TIP3    H1 9636   3.754   3.498   3.478
 3224TIP3    H2 9637   3.794   3.448   3.616
 3225TIP3   OH2 9638   0.937   0.253   3.522
 3225TIP3    H1 9639   0.961   0.239   3.614
 3225TIP3    H2 9640   0.963   0.173   3.478
 3226TIP3   OH2 9641   0.017   1.783   4.163
 3226TIP3    H1 9642  -0.056   1.844   4.152
 3226TIP3    H2 9643   0.004   1.719   4.093
 3227TIP3   OH2 9644   1.280   3.269   2.447
 3227TIP3    H1 9645   1.343   3.307   2.386
 3227TIP3    H2 9646   1.303   3.307   2.532
 3228TIP3   OH2 9647   3.320   4.126   3.570
 3228TIP3    H1 9648   3.284   4.180   3.640
 3228TIP3    H2 9649   3.245   4.077   3.536
 3229TIP3   OH2 9650   3.922   4.846   0.910
 3229TIP3    H1 9651   4.012   4.848   0.877
 3229TIP3    H2 9652   3.870   4.811   0.838
 3230TIP3   OH2 9653   5.279   1.257   0.816
 3230TIP3    H1 9654   5.335   1.181   0.800
 3230TIP3    H2 9655   5.309   1.322   0.753
 3231TIP3   OH2 9656   1.118   6.040   5.730
 3231TIP3    H1 9657   1.202   6.077   5.705
 3231TIP3    H2 9658   1.054   6.104   5.698
 3232TIP3   OH2 9659   5.644   0.082   2.453
 3232TIP3    H1 9660   5.691   0.001   2.432
 3232TIP3    H2 9661   5.610   0.113   2.369
 3233TIP3   OH2 9662   6.724   4.420   4.144
 3233TIP3    H1 9663   6.651   4.360   4.160
 3233TIP3    H2 9664   6.699   4.466   4.064
 3234TIP3   OH2 9665   3.431   1.833   4.045
 3234TIP3    H1 9666   3.491   1.761   4.025
 3234TIP3    H2 9667   3.369   1.795   4.107
 3235TIP3   OH2 9668   2.356   5.596   4.602
 3235TIP3    H1 9669   2.294   5.529   4.629
 3235TIP3    H2 9670   2.345   5.603   4.507
 3236TIP3   OH2 9671   1.035   2.812   2.899
 3236TIP3    H1 9672   1.071   2.900   2.911
 3236TIP3    H2 9673   1.090   2.772   2.832
 3237TIP3   OH2 9674   0.065   5.232   2.770
 3237TIP3    H1 9675   0.119   5.178   2.827
 3237TIP3    H2 9676   0.036   5.304   2.826
 3238TIP3   OH2 9677   1.810   6.738   4.307
 3238TIP3    H1 9678   1.765   6.756   4.224
 3238TIP3    H2 9679   1.762   6.665   4.345
 3239TIP3   OH2 9680   2.624   2.860   0.605
 3239TIP3    H1 9681   2.548   2.886   0.552
 3239TIP3    H2 9682   2.694   2.919   0.575
 3240TIP3   OH2 9683   6.759   5.661   4.437
 3240TIP3    H1 9684   6.854   5.666   4.434
 3240TIP3    H2 9685   6.735   5.601   4.367
 3241TIP3   OH2 9686   2.003   4.200   4.502
 3241TIP3    H1 9687   2.012   4.275   4.560
 3241TIP3    H2 9688   2.074   4.209   4.439
 3242TIP3   OH2 9689   6.084   4.071   2.144
 3242TIP3    H1 9690   5.991   4.089   2.153
 3242TIP3    H2 9691   6.126   4.128   2.208
 3243TIP3   OH2 9692   0.109   1.644   0.582
 3243TIP3    H1 9693   0.135   1.650   0.674
 3243TIP3    H2 9694   0.175   1.588   0.541
 3244TIP3   OH2 9695   1.799   5.919   2.525
 3244TIP3    H1 9696   1.871   5.922   2.587
 3244TIP3    H2 9697   1.733   5.977   2.562
 3245TIP3   OH2 9698   4.546   2.866   4.118
 3245TIP3    H1 9699   4.571   2.851   4.210
 3245TIP3    H2 9700   4.625   2.848   4.068
 3246TIP3   OH2 9701   5.138   4.053   4.193
 3246TIP3    H1 9702   5.191   3.991   4.242
 3246TIP3    H2 9703   5.101   4.111   4.259
 3247TIP3   OH2 9704   1.428   5.715   0.112
 3247TIP3    H1 9705   1.350   5.727   0.058
 3247TIP3    H2 9706   1.403   5.745   0.199
 3248TIP3   OH2 9707   3.549   0.095   0.098
 3248TIP3    H1 9708   3.512   0.109   0.011
 3248TIP3    H2 9709   3.541   0.179   0.143
 3249TIP3   OH2 9710   3.483   1.126   3.311
 3249TIP3    H1 9711   3.434   1.208   3.312
 3249TIP3    H2 9712   3.509   1.112   3.403
 3250TIP3   OH2 9713   2.176   1.960   4.386
 3250TIP3    H1 9714   2.149   1.962   4.478
 3250TIP3    H2 9715   2.262   1.920   4.387
 3251TIP3   OH2 9716   2.510   5.033   5.512
 3251TIP3    H1 9717   2.513   5.032   5.608
 3251TIP3    H2 9718   2.587   4.984   5.485
 3252TIP3   OH2 9719   1.906   3.992   3.351
 3252TIP3    H1 9720   1.951   3.956   3.274
 3252TIP3    H2 9721   1.967   3.977   3.423
 3253TIP3   OH2 9722   6.535   5.975   2.253
 3253TIP3    H1 9723   6.526   5.953   2.160
 3253TIP3    H2 9724   6.506   5.896   2.299
 3254TIP3   OH2 9725   4.590   6.498   2.849
 3254TIP3    H1 9726   4.622   6.568   2.907
 3254TIP3    H2 9727   4.668   6.470   2.802
 3255TIP3   OH2 9728   0.309   3.681   5.662
 3255TIP3    H1 9729   0.359   3.724   5.593
 3255TIP3    H2 9730   0.371   3.618   5.700
 3256TIP3   OH2 9731   4.090   4.598   5.578
 3256TIP3    H1 9732   4.061   4.663   5.514
 3256TIP3    H2 9733   4.021   4.532   5.578
 3257TIP3   OH2 9734   3.999   2.547   2.995
 3257TIP3    H1 9735   4.081   2.593   3.015
 3257TIP3    H2 9736   3.979   2.572   2.905
 3258TIP3   OH2 9737   2.562   1.399   5.560
 3258TIP3    H1 9738   2.585   1.449   5.482
 3258TIP3    H2 9739   2.615   1.319   5.554
 3259TIP3   OH2 9740   2.154   6.541   3.927
 3259TIP3    H1 9741   2.212   6.584   3.989
 3259TIP3    H2 9742   2.089   6.607   3.905
 3260TIP3   OH2 9743   1.198   5.042   4.835
 3260TIP3    H1 9744   1.175   5.133   4.813
 3260TIP3    H2 9745   1.140   4.989   4.780
 3261TIP3   OH2 9746   2.818   0.557   0.405
 3261TIP3    H1 9747   2.790   0.509   0.327
 3261TIP3    H2 9748   2.912   0.572   0.393
 3262TIP3   OH2 9749   2.988   6.729   0.104
 3262TIP3    H1 9750   2.929   6.749   0.032
 3262TIP3    H2 9751   2.932   6.697   0.174
 3263TIP3   OH2 9752   1.628   0.630   5.642
 3263TIP3    H1 9753   1.671   0.671   5.567
 3263TIP3    H2 9754   1.697   0.619   5.707
 3264TIP3   OH2 9755   5.659   4.496   3.531
 3264TIP3    H1 9756   5.669   4.458   3.619
 3264TIP3    H2 9757   5.688   4.586   3.541
 3265TIP3   OH2 9758   5.467   5.961   5.272
 3265TIP3    H1 9759   5.474   5.880   5.222
 3265TIP3    H2 9760   5.411   5.939   5.346
 3266TIP3   OH2 9761   0.858   0.836   5.167
 3266TIP3    H1 9762   0.816   0.889   5.234
 3266TIP3    H2 9763   0.913   0.897   5.119
 3267TIP3   OH2 9764   7.157   3.741   0.385
 3267TIP3    H1 9765   7.063   3.720   0.381
 3267TIP3    H2 9766   7.187   3.695   0.464
 3268TIP3   OH2 9767   0.722   3.320   5.215
 3268TIP3    H1 9768   0.803   3.344   5.172
 3268TIP3    H2 9769   0.662   3.393   5.199
 3269TIP3   OH2 9770   6.713   0.596   3.528
 3269TIP3    H1 9771   6.787   0.542   3.500
 3269TIP3    H2 9772   6.750   0.657   3.592
 3270TIP3   OH2 9773   3.772   3.456   4.852
 3270TIP3    H1 9774   3.841   3.517   4.828
 3270TIP3    H2 9775   3.816   3.371   4.855
 3271TIP3   OH2 9776   0.165   5.807   2.479
 3271TIP3    H1 9777   0.186   5.715   2.494
 3271TIP3    H2 9778   0.130   5.809   2.390
 3272TIP3   OH2 9779   1.435   0.186   0.585
 3272TIP3    H1 9780   1.511   0.236   0.557
 3272TIP3    H2 9781   1.471   0.109   0.629
 3273TIP3   OH2 9782   2.376   4.541   1.640
 3273TIP3    H1 9783   2.332   4.501   1.565
 3273TIP3    H2 9784   2.417   4.620   1.604
 3274TIP3   OH2 9785   4.319   1.493   2.451
 3274TIP3    H1 9786   4.365   1.437   2.389
 3274TIP3    H2 9787   4.338   1.582   2.421
 3275TIP3   OH2 9788   1.804   0.248   0.740
 3275TIP3    H1 9789   1.754   0.294   0.808
 3275TIP3    H2 9790   1.765   0.277   0.658
 3276TIP3   OH2 9791   4.595   0.045   5.394
 3276TIP3    H1 9792   4.634  -0.042   5.389
 3276TIP3    H2 9793   4.507   0.034   5.358
 3277TIP3   OH2 9794   1.482   0.270   1.136
 3277TIP3    H1 9795   1.563   0.225   1.159
 3277TIP3    H2 9796   1.477   0.263   1.041
 3278TIP3   OH2 9797   3.271   1.743   4.738
 3278TIP3    H1 9798   3.296   1.654   4.763
 3278TIP3    H2 9799   3.176   1.746   4.754
 3279TIP3   OH2 9800   1.398   2.119   1.551
 3279TIP3    H1 9801   1.440   2.077   1.627
 3279TIP3    H2 9802   1.333   2.177   1.590
 3280TIP3   OH2 9803   1.508   4.290   3.372
 3280TIP3    H1 9804   1.562   4.315   3.446
 3280TIP3    H2 9805   1.564   4.302   3.295
 3281TIP3   OH2 9806   6.562   6.619   5.089
 3281TIP3    H1 9807   6.597   6.697   5.047
 3281TIP3    H2 9808   6.639   6.569   5.117
 3282TIP3   OH2 9809   0.076   1.604   3.735
 3282TIP3    H1 9810   0.022   1.613   3.813
 3282TIP3    H2 9811   0.039   1.529   3.689
 3283TIP3   OH2 9812   6.629   2.851   4.492
 3283TIP3    H1 9813   6.656   2.766   4.527
 3283TIP3    H2 9814   6.709   2.888   4.455
 3284TIP3   OH2 9815   1.707   3.770   4.943
 3284TIP3    H1 9816   1.668   3.853   4.967
 3284TIP3    H2 9817   1.655   3.704   4.989
 3285TIP3   OH2 9818   1.833   2.895   0.243
 3285TIP3    H1 9819   1.898   2.963   0.227
 3285TIP3    H2 9820   1.839   2.837   0.167
 3286TIP3   OH2 9821   2.305   3.364   3.184
 3286TIP3    H1 9822   2.258   3.427   3.130
 3286TIP3    H2 9823   2.397   3.373   3.159
 3287TIP3   OH2 9824   5.295   6.172   5.828
 3287TIP3    H1 9825   5.279   6.088   5.785
 3287TIP3    H2 9826   5.329   6.148   5.914
 3288TIP3   OH2 9827   1.953   4.587   1.791
 3288TIP3    H1 9828   1.988   4.631   1.868
 3288TIP3    H2 9829   1.972   4.647   1.719
 3289TIP3   OH2 9830   6.458   4.707   4.909
 3289TIP3    H1 9831   6.383   4.663   4.870
 3289TIP3    H2 9832   6.425   4.794   4.933
 3290TIP3   OH2 9833   7.051   2.924   2.597
 3290TIP3    H1 9834   7.043   2.864   2.522
 3290TIP3    H2 9835   7.056   2.866   2.673
 3291TIP3   OH2 9836   7.129   0.799   0.826
 3291TIP3    H1 9837   7.223   0.797   0.846
 3291TIP3    H2 9838   7.105   0.892   0.829
 3292TIP3   OH2 9839   6.091   0.126   4.907
 3292TIP3    H1 9840   6.178   0.144   4.942
 3292TIP3    H2 9841   6.071   0.037   4.936
 3293TIP3   OH2 9842   2.810   4.196   0.538
 3293TIP3    H1 9843   2.854   4.119   0.500
 3293TIP3    H2 9844   2.721   4.166   0.558
 3294TIP3   OH2 9845   1.021   3.526   3.929
 3294TIP3    H1 9846   1.105   3.535   3.884
 3294TIP3    H2 9847   0.958   3.504   3.860
 3295TIP3   OH2 9848   3.088   5.838   5.440
 3295TIP3    H1 9849   3.114   5.846   5.532
 3295TIP3    H2 9850   3.167   5.807   5.395
 3296TIP3   OH2 9851   6.755   6.462   2.097
 3296TIP3    H1 9852   6.788   6.522   2.165
 3296TIP3    H2 9853   6.681   6.418   2.138
 3297TIP3   OH2 9854   3.724   3.930   2.803
 3297TIP3    H1 9855   3.764   4.006   2.761
 3297TIP3    H2 9856   3.706   3.959   2.893
 3298TIP3   OH2 9857   3.255   0.210   1.888
 3298TIP3    H1 9858   3.178   0.170   1.847
 3298TIP3    H2 9859   3.268   0.161   1.969
 3299TIP3   OH2 9860   2.623   2.891   1.921
 3299TIP3    H1 9861   2.716   2.903   1.902
 3299TIP3    H2 9862   2.619   2.806   1.966
 3300TIP3   OH2 9863   0.008   0.772   1.463
 3300TIP3    H1 9864   0.014   0.762   1.369
 3300TIP3    H2 9865   0.093   0.808   1.489
 3301TIP3   OH2 9866   1.994   5.486   5.573
 3301TIP3    H1 9867   2.074   5.518   5.614
 3301TIP3    H2 9868   1.926   5.546   5.602
 3302TIP3   OH2 9869   4.887   0.079   4.825
 3302TIP3    H1 9870   4.846   0.067   4.910
 3302TIP3    H2 9871   4.815   0.105   4.767
 3303TIP3   OH2 9872   5.779   5.083   5.295
 3303TIP3    H1 9873   5.825   5.038   5.224
 3303TIP3    H2 9874   5.843   5.088   5.366
 3304TIP3   OH2 9875   4.234   5.943   0.130
 3304TIP3    H1 9876   4.294   5.869   0.137
 3304TIP3    H2 9877   4.283   6.008   0.078
 3305TIP3   OH2 9878   3.749   3.885   4.598
 3305TIP3    H1 9879   3.838   3.894   4.562
 3305TIP3    H2 9880   3.698   3.847   4.527
 3306TIP3   OH2 9881   3.532   2.628   1.233
 3306TIP3    H1 9882   3.576   2.700   1.278
 3306TIP3    H2 9883   3.534   2.654   1.141
 3307TIP3   OH2 9884   1.158   2.893   0.439
 3307TIP3    H1 9885   1.176   2.848   0.521
 3307TIP3    H2 9886   1.232   2.953   0.428
 3308TIP3   OH2 9887   5.773   5.995   1.964
 3308TIP3    H1 9888   5.844   6.008   2.027
 3308TIP3    H2 9889   5.798   6.046   1.887
 3309TIP3   OH2 9890   7.149   6.762   0.668
 3309TIP3    H1 9891   7.153   6.820   0.744
 3309TIP3    H2 9892   7.230   6.711   0.672
 3310TIP3   OH2 9893   3.043   0.513   0.699
 3310TIP3    H1 9894   3.023   0.565   0.777
 3310TIP3    H2 9895   2.962   0.465   0.681
 3311TIP3   OH2 9896   7.098   6.696   2.738
 3311TIP3    H1 9897   7.030   6.631   2.715
 3311TIP3    H2 9898   7.050   6.777   2.752
 3312TIP3   OH2 9899   2.339   0.228   1.091
 3312TIP3    H1 9900   2.359   0.179   1.011
 3312TIP3    H2 9901   2.420   0.274   1.113
 3313TIP3   OH2 9902   1.772   0.814   5.842
 3313TIP3    H1 9903   1.788   0.867   5.920
 3313TIP3    H2 9904   1.844   0.751   5.841
 3314TIP3   OH2 9905   5.643   2.961   0.909
 3314TIP3    H1 9906   5.697   2.882   0.902
 3314TIP3    H2 9907   5.605   2.972   0.822
 3315TIP3   OH2 9908   6.656   4.878   0.722
 3315TIP3    H1 9909   6.692   4.832   0.646
 3315TIP3    H2 9910   6.656   4.970   0.696
 3316TIP3   OH2 9911   4.781   3.315   1.553
 3316TIP3    H1 9912   4.746   3.292   1.639
 3316TIP3    H2 9913   4.854   3.254   1.539
 3317TIP3   OH2 9914   0.926   1.094   1.662
 3317TIP3    H1 9915   0.884   1.074   1.578
 3317TIP3    H2 9916   0.911   1.187   1.675
 3318TIP3   OH2 9917   4.684   0.410   1.061
 3318TIP3    H1 9918   4.728   0.477   1.113
 3318TIP3    H2 9919   4.692   0.440   0.970
 3319TIP3   OH2 9920   1.180   1.853   1.124
 3319TIP3    H1 9921   1.226   1.898   1.195
 3319TIP3    H2 9922   1.155   1.923   1.063
 3320TIP3   OH2 9923   0.745   5.047   0.931
 3320TIP3    H1 9924   0.799   5.120   0.902
 3320TIP3    H2 9925   0.705   5.013   0.850
 3321TIP3   OH2 9926   6.872   3.536   3.740
 3321TIP3    H1 9927   6.962   3.561   3.762
 3321TIP3    H2 9928   6.828   3.618   3.719
 3322TIP3   OH2 9929   3.721   6.684   1.784
 3322TIP3    H1 9930   3.811   6.687   1.817
 3322TIP3    H2 9931   3.682   6.609   1.828
 3323TIP3   OH2 9932   1.699   1.065   1.315
 3323TIP3    H1 9933   1.605   1.051   1.328
 3323TIP3    H2 9934   1.725   0.999   1.251
 3324TIP3   OH2 9935   1.274   5.790   1.151
 3324TIP3    H1 9936   1.272   5.716   1.091
 3324TIP3    H2 9937   1.341   5.768   1.215
 3325TIP3   OH2 9938   4.993   3.313   0.156
 3325TIP3    H1 9939   5.006   3.403   0.128
 3325TIP3    H2 9940   4.937   3.274   0.089
 3326TIP3   OH2 9941   5.750   1.098   1.533
 3326TIP3    H1 9942   5.750   1.088   1.438
 3326TIP3    H2 9943   5.735   1.009   1.566
 3327TIP3   OH2 9944   1.377   4.982   0.516
 3327TIP3    H1 9945   1.340   4.895   0.503
 3327TIP3    H2 9946   1.377   4.995   0.611
 3328TIP3   OH2 9947   1.390   3.498   4.231
 3328TIP3    H1 9948   1.308   3.532   4.195
 3328TIP3    H2 9949   1.364   3.422   4.283
 3329TIP3   OH2 9950   0.739   6.418   4.757
 3329TIP3    H1 9951   0.696   6.461   4.683
 3329TIP3    H2 9952   0.698   6.332   4.763
 3330TIP3   OH2 9953   4.033   3.869   4.835
 3330TIP3    H1 9954   4.100   3.850   4.900
 3330TIP3    H2 9955   4.065   3.948   4.791
 3331TIP3   OH2 9956   4.470   3.446   1.543
 3331TIP3    H1 9957   4.553   3.409   1.511
 3331TIP3    H2 9958   4.405   3.416   1.480
 3332TIP3   OH2 9959   4.015   0.236   2.733
 3332TIP3    H1 9960   4.045   0.147   2.713
 3332TIP3    H2 9961   3.966   0.227   2.814
 3333TIP3   OH2 9962   0.017   3.512   2.150
 3333TIP3    H1 9963   0.074   3.494   2.076
 3333TIP3    H2 9964   0.037   3.443   2.213
 3334TIP3   OH2 9965   5.281   2.552   0.931
 3334TIP3    H1 9966   5.253   2.466   0.964
 3334TIP3    H2 9967   5.339   2.586   0.999
 3335TIP3   OH2 9968   6.208   1.487   3.310
 3335TIP3    H1 9969   6.291   1.439   3.315
 3335TIP3    H2 9970   6.152   1.431   3.256
 3336TIP3   OH2 9971   0.412   0.406   0.667
 3336TIP3    H1 9972   0.507   0.403   0.673
 3336TIP3    H2 9973   0.388   0.493   0.701
 3337TIP3   OH2 9974   1.009   4.731   5.005
 3337TIP3    H1 9975   1.092   4.706   5.046
 3337TIP3    H2 9976   1.001   4.674   4.929
 3338TIP3   OH2 9977   6.115   2.566   3.393
 3338TIP3    H1 9978   6.170   2.637   3.425
 3338TIP3    H2 9979   6.152   2.487   3.431
 3339TIP3   OH2 9980   4.241   0.955   4.189
 3339TIP3    H1 9981   4.303   0.903   4.138
 3339TIP3    H2 9982   4.273   1.045   4.180
 3340TIP3   OH2 9983   4.108   1.044   0.637
 3340TIP3    H1 9984   4.192   1.080   0.665
 3340TIP3    H2 9985   4.120   0.949   0.645
 3341TIP3   OH2 9986   4.275   2.013   0.938
 3341TIP3    H1 9987   4.278   2.094   0.989
 3341TIP3    H2 9988   4.230   1.951   0.995
 3342TIP3   OH2 9989   0.831   0.261   2.634
 3342TIP3    H1 9990   0.847   0.287   2.724
 3342TIP3    H2 9991   0.837   0.342   2.583
 3343TIP3   OH2 9992   4.045   2.961   4.707
 3343TIP3    H1 9993   4.084   2.926   4.626
 3343TIP3    H2 9994   4.090   3.044   4.721
 3344TIP3   OH2 9995   4.210   3.441   3.738
 3344TIP3    H1 9996   4.195   3.534   3.718
 3344TIP3    H2 9997   4.121   3.404   3.742
 3345TIP3   OH2 9998   6.869   0.259   4.840
 3345TIP3    H1 9999   6.800   0.326   4.844
 3345TIP3    H210000   6.893   0.245   4.931
 3346TIP3   OH210001   7.131   5.944   1.035
 3346TIP3    H110002   7.156   5.854   1.015
 3346TIP3    H210003   7.139   5.990   0.952
 3347TIP3   OH210004   2.940   4.675   2.294
 3347TIP3    H110005   2.878   4.656   2.223
 3347TIP3    H210006   2.949   4.592   2.341
 3348TIP3   OH210007   5.878   0.882   0.313
 3348TIP3    H110008   5.971   0.862   0.303
 3348TIP3    H210009   5.834   0.798   0.299
 3349TIP3   OH210010   0.552   4.146   0.753
 3349TIP3    H110011   0.643   4.165   0.775
 3349TIP3    H210012   0.542   4.052   0.770
 3350TIP3   OH210013   2.721   4.909   4.677
 3350TIP3    H110014   2.773   4.900   4.757
 3350TIP3    H210015   2.657   4.977   4.698
 3351TIP3   OH210016   4.675   6.318   0.677
 3351TIP3    H110017   4.628   6.297   0.596
 3351TIP3    H210018   4.609   6.358   0.734
 3352TIP3   OH210019   0.645   1.730   2.570
 3352TIP3    H110020   0.642   1.717   2.475
 3352TIP3    H210021   0.684   1.649   2.603
 3353TIP3   OH210022   5.428   2.637   2.534
 3353TIP3    H110023   5.447   2.571   2.601
 3353TIP3    H210024   5.430   2.720   2.580
 3354TIP3   OH210025   6.677   2.484   3.399
 3354TIP3    H110026   6.642   2.444   3.478
 3354TIP3    H210027   6.761   2.440   3.385
 3355TIP3   OH210028   3.166   4.071   5.290
 3355TIP3    H110029   3.087   4.112   5.255
 3355TIP3    H210030   3.166   3.983   5.253
 3356TIP3   OH210031   0.780   6.420   0.738
 3356TIP3    H110032   0.732   6.503   0.734
 3356TIP3    H210033   0.716   6.354   0.712
 3357TIP3   OH210034   3.133   0.824   0.238
 3357TIP3    H110035   3.195   0.773   0.185
 3357TIP3    H210036   3.105   0.763   0.306
 3358TIP3   OH210037   4.479   4.711   1.964
 3358TIP3    H110038   4.491   4.694   1.870
 3358TIP3    H210039   4.518   4.797   1.978
 3359TIP3   OH210040   7.128   2.850   4.447
 3359TIP3    H110041   7.196   2.890   4.501
 3359TIP3    H210042   7.111   2.914   4.378
 3360TIP3   OH210043   0.197   2.033   1.159
 3360TIP3    H110044   0.124   2.056   1.217
 3360TIP3    H210045   0.189   1.939   1.146
 3361TIP3   OH210046   6.048   5.006   1.812
 3361TIP3    H110047   6.143   5.005   1.827
 3361TIP3    H210048   6.013   5.054   1.887
 3362TIP3   OH210049   5.229   1.413   0.038
 3362TIP3    H110050   5.312   1.373   0.060
 3362TIP3    H210051   5.225   1.492   0.092
 3363TIP3   OH210052   1.766   1.350   1.353
 3363TIP3    H110053   1.824   1.362   1.278
 3363TIP3    H210054   1.734   1.259   1.344
 3364TIP3   OH210055   7.077   3.524   4.113
 3364TIP3    H110056   7.149   3.568   4.158
 3364TIP3    H210057   6.999   3.571   4.142
 3365TIP3   OH210058   3.518   6.393   0.355
 3365TIP3    H110059   3.582   6.446   0.403
 3365TIP3    H210060   3.571   6.328   0.308
 3366TIP3   OH210061   1.804   1.910   4.753
 3366TIP3    H110062   1.752   1.971   4.701
 3366TIP3    H210063   1.837   1.846   4.690
 3367TIP3   OH210064   3.844   5.075   4.603
 3367TIP3    H110065   3.768   5.048   4.552
 3367TIP3    H210066   3.808   5.100   4.688
 3368TIP3   OH210067   1.450   5.108   5.617
 3368TIP3    H110068   1.475   5.018   5.638
 3368TIP3    H210069   1.439   5.107   5.522
 3369TIP3   OH210070   0.389   1.056   5.346
 3369TIP3    H110071   0.411   1.129   5.403
 3369TIP3    H210072   0.317   1.011   5.392
 3370TIP3   OH210073   2.995   1.828   4.792
 3370TIP3    H110074   3.008   1.853   4.700
 3370TIP3    H210075   2.901   1.815   4.800
 3371TIP3   OH210076   7.016   2.710   1.170
 3371TIP3    H110077   7.070   2.713   1.249
 3371TIP3    H210078   7.028   2.621   1.136
 3372TIP3   OH210079   2.212   2.245   3.975
 3372TIP3    H110080   2.123   2.279   3.981
 3372TIP3    H210081   2.231   2.242   3.881
 3373TIP3   OH210082   6.845   2.036   3.807
 3373TIP3    H110083   6.890   2.091   3.871
 3373TIP3    H210084   6.865   1.946   3.834
 3374TIP3   OH210085   7.068   0.208   0.510
 3374TIP3    H110086   7.121   0.280   0.476
 3374TIP3    H210087   7.117   0.129   0.487
 3375TIP3   OH210088   4.224   3.929   0.564
 3375TIP3    H110089   4.272   3.971   0.635
 3375TIP3    H210090   4.247   3.836   0.572
 3376TIP3   OH210091   4.367   4.199   3.071
 3376TIP3    H110092   4.415   4.136   3.124
 3376TIP3    H210093   4.334   4.148   2.997
 3377TIP3   OH210094   3.922   3.738   0.085
 3377TIP3    H110095   4.008   3.780   0.096
 3377TIP3    H210096   3.872   3.801   0.033
 3378TIP3   OH210097   5.029   1.856   5.323
 3378TIP3    H110098   4.971   1.825   5.253
 3378TIP3    H210099   4.970   1.889   5.391
 3379TIP3   OH210100   7.028   6.373   0.499
 3379TIP3    H110101   7.052   6.282   0.518
 3379TIP3    H210102   6.960   6.366   0.432
 3380TIP3   OH210103   4.638   1.294   3.193
 3380TIP3    H110104   4.684   1.292   3.109
 3380TIP3    H210105   4.577   1.367   3.185
 3381TIP3   OH210106   0.592   3.968   3.796
 3381TIP3    H110107   0.585   3.924   3.881
 3381TIP3    H210108   0.646   4.046   3.813
 3382TIP3   OH210109   4.903   6.259   5.345
 3382TIP3    H110110   4.925   6.246   5.437
 3382TIP3    H210111   4.985   6.288   5.304
 3383TIP3   OH210112   2.716   5.496   1.909
 3383TIP3    H110113   2.687   5.461   1.824
 3383TIP3    H210114   2.641   5.480   1.967
 3384TIP3   OH210115   4.710   5.958   0.531
 3384TIP3    H110116   4.776   5.890   0.546
 3384TIP3    H210117   4.739   6.003   0.452
 3385TIP3   OH210118   3.645   2.989   0.959
 3385TIP3    H110119   3.691   3.060   0.914
 3385TIP3    H210120   3.622   3.025   1.044
 3386TIP3   OH210121   3.745   3.186   0.789
 3386TIP3    H110122   3.695   3.196   0.709
 3386TIP3    H210123   3.779   3.273   0.808
 3387TIP3   OH210124   7.260   0.877   3.947
 3387TIP3    H110125   7.309   0.960   3.944
 3387TIP3    H210126   7.169   0.904   3.960
 3388TIP3   OH210127   1.217   6.212   3.076
 3388TIP3    H110128   1.174   6.160   3.008
 3388TIP3    H210129   1.289   6.157   3.106
 3389TIP3   OH210130   0.289   0.186   4.030
 3389TIP3    H110131   0.303   0.210   3.938
 3389TIP3    H210132   0.230   0.111   4.026
 3390TIP3   OH210133   5.497   0.517   0.332
 3390TIP3    H110134   5.451   0.492   0.252
 3390TIP3    H210135   5.501   0.437   0.384
 3391TIP3   OH210136   4.249   0.769   0.582
 3391TIP3    H110137   4.263   0.740   0.492
 3391TIP3    H210138   4.333   0.808   0.608
 3392TIP3   OH210139   4.557   2.759   5.841
 3392TIP3    H110140   4.539   2.837   5.788
 3392TIP3    H210141   4.471   2.731   5.871
 3393TIP3   OH210142   3.722   0.441   3.102
 3393TIP3    H110143   3.714   0.505   3.173
 3393TIP3    H210144   3.707   0.492   3.022
 3394TIP3   OH210145   6.247   1.072   4.180
 3394TIP3    H110146   6.286   1.082   4.267
 3394TIP3    H210147   6.246   0.978   4.165
 3395TIP3   OH210148   4.744   0.345   5.152
 3395TIP3    H110149   4.772   0.254   5.148
 3395TIP3    H210150   4.825   0.395   5.139
 3396TIP3   OH210151   1.029   5.333   4.413
 3396TIP3    H110152   1.079   5.342   4.332
 3396TIP3    H210153   0.955   5.393   4.402
 3397TIP3   OH210154   4.058   3.841   0.854
 3397TIP3    H110155   4.129   3.804   0.906
 3397TIP3    H210156   4.050   3.783   0.778
 3398TIP3   OH210157   2.888   0.174   4.225
 3398TIP3    H110158   2.905   0.192   4.133
 3398TIP3    H210159   2.886   0.079   4.231
 3399TIP3   OH210160   3.080   2.213   0.308
 3399TIP3    H110161   3.021   2.196   0.235
 3399TIP3    H210162   3.112   2.126   0.334
 3400TIP3   OH210163   2.557   2.622   1.916
 3400TIP3    H110164   2.603   2.562   1.857
 3400TIP3    H210165   2.525   2.692   1.859
 3401TIP3   OH210166   3.516   5.444   4.763
 3401TIP3    H110167   3.459   5.515   4.732
 3401TIP3    H210168   3.461   5.365   4.756
 3402TIP3   OH210169   2.284   5.606   2.301
 3402TIP3    H110170   2.284   5.686   2.353
 3402TIP3    H210171   2.358   5.555   2.336
 3403TIP3   OH210172   4.189   5.884   4.145
 3403TIP3    H110173   4.250   5.891   4.218
 3403TIP3    H210174   4.222   5.810   4.093
 3404TIP3   OH210175   3.344   2.941   5.456
 3404TIP3    H110176   3.381   2.913   5.540
 3404TIP3    H210177   3.421   2.951   5.399
 3405TIP3   OH210178   4.611   6.302   0.239
 3405TIP3    H110179   4.701   6.274   0.256
 3405TIP3    H210180   4.591   6.266   0.152
 3406TIP3   OH210181   0.432   3.920   3.284
 3406TIP3    H110182   0.358   3.980   3.288
 3406TIP3    H210183   0.498   3.966   3.231
 3407TIP3   OH210184   1.342   4.128   3.209
 3407TIP3    H110185   1.404   4.098   3.142
 3407TIP3    H210186   1.397   4.170   3.275
 3408TIP3   OH210187   6.000   1.407   1.545
 3408TIP3    H110188   5.945   1.435   1.471
 3408TIP3    H210189   6.033   1.489   1.582
 3409TIP3   OH210190   4.410   2.059   4.386
 3409TIP3    H110191   4.444   2.140   4.422
 3409TIP3    H210192   4.410   2.073   4.291
 3410TIP3   OH210193   3.828   2.073   5.262
 3410TIP3    H110194   3.838   2.124   5.181
 3410TIP3    H210195   3.881   1.995   5.247
 3411TIP3   OH210196   5.541   2.940   5.665
 3411TIP3    H110197   5.595   2.993   5.724
 3411TIP3    H210198   5.599   2.871   5.634
 3412TIP3   OH210199   5.271   2.083   1.685
 3412TIP3    H110200   5.306   2.153   1.740
 3412TIP3    H210201   5.285   2.003   1.736
 3413TIP3   OH210202   1.461   0.723   1.642
 3413TIP3    H110203   1.468   0.802   1.588
 3413TIP3    H210204   1.369   0.722   1.670
 3414TIP3   OH210205   1.134   1.036   1.412
 3414TIP3    H110206   1.135   1.076   1.500
 3414TIP3    H210207   1.149   0.943   1.428
 3415TIP3   OH210208   4.947   0.487   5.047
 3415TIP3    H110209   4.945   0.581   5.027
 3415TIP3    H210210   5.039   0.463   5.042
 3416TIP3   OH210211   0.619   3.075   5.252
 3416TIP3    H110212   0.662   3.161   5.250
 3416TIP3    H210213   0.691   3.012   5.242
 3417TIP3   OH210214   5.832   6.028   2.434
 3417TIP3    H110215   5.774   6.102   2.451
 3417TIP3    H210216   5.774   5.952   2.432
 3418TIP3   OH210217   4.593   1.002   5.570
 3418TIP3    H110218   4.505   0.998   5.532
 3418TIP3    H210219   4.585   1.064   5.642
 3419TIP3   OH210220   0.013   4.596   1.353
 3419TIP3    H110221  -0.061   4.545   1.387
 3419TIP3    H210222   0.002   4.682   1.393
 3420TIP3   OH210223   6.789   3.964   1.759
 3420TIP3    H110224   6.857   3.999   1.817
 3420TIP3    H210225   6.709   3.967   1.812
 3421TIP3   OH210226   6.361   1.077   1.431
 3421TIP3    H110227   6.332   1.167   1.442
 3421TIP3    H210228   6.283   1.030   1.402
 3422TIP3   OH210229   2.180   3.596   0.619
 3422TIP3    H110230   2.261   3.646   0.627
 3422TIP3    H210231   2.131   3.641   0.551
 3423TIP3   OH210232   2.558   0.100   1.588
 3423TIP3    H110233   2.504   0.040   1.538
 3423TIP3    H210234   2.518   0.186   1.576
 3424TIP3   OH210235   2.002   2.971   0.995
 3424TIP3    H110236   2.030   2.956   1.085
 3424TIP3    H210237   1.906   2.975   1.001
 3425TIP3   OH210238   4.945   5.225   0.398
 3425TIP3    H110239   5.023   5.189   0.355
 3425TIP3    H210240   4.910   5.289   0.336
 3426TIP3   OH210241   5.906   2.037   5.188
 3426TIP3    H110242   5.940   2.076   5.107
 3426TIP3    H210243   5.837   1.977   5.159
 3427TIP3   OH210244   5.044   5.071   5.047
 3427TIP3    H110245   4.961   5.061   5.001
 3427TIP3    H210246   5.030   5.025   5.130
 3428TIP3   OH210247   3.429   3.936   4.912
 3428TIP3    H110248   3.383   3.908   4.833
 3428TIP3    H210249   3.519   3.951   4.883
 3429TIP3   OH210250   2.422   1.604   5.274
 3429TIP3    H110251   2.489   1.567   5.333
 3429TIP3    H210252   2.376   1.527   5.240
 3430TIP3   OH210253   1.231   6.163   1.041
 3430TIP3    H110254   1.246   6.206   1.125
 3430TIP3    H210255   1.139   6.181   1.021
 3431TIP3   OH210256   4.584   4.139   0.900
 3431TIP3    H110257   4.635   4.208   0.943
 3431TIP3    H210258   4.636   4.059   0.913
 3432TIP3   OH210259   2.918   2.194   3.577
 3432TIP3    H110260   2.869   2.117   3.546
 3432TIP3    H210261   2.960   2.165   3.658
 3433TIP3   OH210262   6.521   2.178   3.324
 3433TIP3    H110263   6.494   2.242   3.258
 3433TIP3    H210264   6.606   2.210   3.355
 3434TIP3   OH210265   4.156   0.576   2.830
 3434TIP3    H110266   4.143   0.616   2.916
 3434TIP3    H210267   4.244   0.603   2.803
 3435TIP3   OH210268   5.478   0.824   2.444
 3435TIP3    H110269   5.484   0.905   2.495
 3435TIP3    H210270   5.385   0.816   2.423
 3436TIP3   OH210271   4.215   3.436   2.307
 3436TIP3    H110272   4.175   3.504   2.254
 3436TIP3    H210273   4.308   3.458   2.308
 3437TIP3   OH210274   1.006   4.310   0.038
 3437TIP3    H110275   0.992   4.249  -0.034
 3437TIP3    H210276   1.031   4.255   0.112
 3438TIP3   OH210277   3.875   4.953   3.362
 3438TIP3    H110278   3.971   4.944   3.361
 3438TIP3    H210279   3.855   4.987   3.449
 3439TIP3   OH210280   0.186   5.603   4.928
 3439TIP3    H110281   0.254   5.572   4.868
 3439TIP3    H210282   0.114   5.630   4.871
 3440TIP3   OH210283   0.090   5.489   3.515
 3440TIP3    H110284   0.047   5.478   3.430
 3440TIP3    H210285   0.022   5.526   3.572
 3441TIP3   OH210286   3.116   1.718   3.853
 3441TIP3    H110287   3.053   1.666   3.804
 3441TIP3    H210288   3.181   1.744   3.787
 3442TIP3   OH210289   6.462   5.126   1.579
 3442TIP3    H110290   6.489   5.101   1.491
 3442TIP3    H210291   6.479   5.047   1.632
 3443TIP3   OH210292   4.424   2.114   2.048
 3443TIP3    H110293   4.399   2.067   1.969
 3443TIP3    H210294   4.391   2.203   2.034
 3444TIP3   OH210295   1.037   2.224   5.174
 3444TIP3    H110296   0.949   2.201   5.143
 3444TIP3    H210297   1.087   2.143   5.166
 3445TIP3   OH210298   1.090   6.433   2.385
 3445TIP3    H110299   1.168   6.434   2.442
 3445TIP3    H210300   1.020   6.468   2.440
 3446TIP3   OH210301   4.411   3.383   3.134
 3446TIP3    H110302   4.462   3.350   3.060
 3446TIP3    H210303   4.336   3.427   3.095
 3447TIP3   OH210304   4.737   1.143   5.385
 3447TIP3    H110305   4.696   1.123   5.469
 3447TIP3    H210306   4.716   1.234   5.368
 3448TIP3   OH210307   3.521   6.392   2.267
 3448TIP3    H110308   3.536   6.418   2.176
 3448TIP3    H210309   3.489   6.302   2.261
 3449TIP3   OH210310   7.185   4.835   1.475
 3449TIP3    H110311   7.111   4.884   1.439
 3449TIP3    H210312   7.256   4.899   1.478
 3450TIP3   OH210313   5.301   2.141   5.638
 3450TIP3    H110314   5.364   2.171   5.572
 3450TIP3    H210315   5.216   2.146   5.595
 3451TIP3   OH210316   2.170   6.429   0.425
 3451TIP3    H110317   2.194   6.480   0.348
 3451TIP3    H210318   2.142   6.344   0.390
 3452TIP3   OH210319   1.711   2.558   2.255
 3452TIP3    H110320   1.735   2.609   2.178
 3452TIP3    H210321   1.795   2.531   2.293
 3453TIP3   OH210322   4.231   6.662   4.607
 3453TIP3    H110323   4.159   6.725   4.612
 3453TIP3    H210324   4.279   6.687   4.528
 3454TIP3   OH210325   1.235   1.881   2.811
 3454TIP3    H110326   1.188   1.913   2.888
 3454TIP3    H210327   1.298   1.951   2.792
 3455TIP3   OH210328   4.457   2.310   3.602
 3455TIP3    H110329   4.466   2.373   3.530
 3455TIP3    H210330   4.525   2.336   3.665
 3456TIP3   OH210331   5.976   0.284   5.697
 3456TIP3    H110332   5.928   0.204   5.721
 3456TIP3    H210333   6.051   0.286   5.757
 3457TIP3   OH210334   2.026   4.090   4.900
 3457TIP3    H110335   2.033   4.036   4.978
 3457TIP3    H210336   2.034   4.028   4.827
 3458TIP3   OH210337   4.343   0.006   5.825
 3458TIP3    H110338   4.284   0.022   5.899
 3458TIP3    H210339   4.285   0.007   5.748
 3459TIP3   OH210340   4.065   5.643   2.520
 3459TIP3    H110341   4.160   5.640   2.531
 3459TIP3    H210342   4.050   5.612   2.431
 3460TIP3   OH210343   1.196   5.378   4.150
 3460TIP3    H110344   1.226   5.379   4.059
 3460TIP3    H210345   1.263   5.329   4.197
 3461TIP3   OH210346   5.957   3.432   2.147
 3461TIP3    H110347   5.872   3.462   2.179
 3461TIP3    H210348   5.998   3.390   2.223
 3462TIP3   OH210349   5.799   6.455   4.581
 3462TIP3    H110350   5.790   6.524   4.647
 3462TIP3    H210351   5.709   6.436   4.554
 3463TIP3   OH210352   5.376   3.458   1.350
 3463TIP3    H110353   5.466   3.487   1.361
 3463TIP3    H210354   5.383   3.378   1.298
 3464TIP3   OH210355   5.920   2.211   4.052
 3464TIP3    H110356   5.938   2.166   3.969
 3464TIP3    H210357   5.984   2.283   4.054
 3465TIP3   OH210358   1.834   2.770   1.476
 3465TIP3    H110359   1.789   2.687   1.460
 3465TIP3    H210360   1.795   2.803   1.557
 3466TIP3   OH210361   0.738   5.854   4.330
 3466TIP3    H110362   0.780   5.796   4.393
 3466TIP3    H210363   0.808   5.910   4.297
 3467TIP3   OH210364   4.608   2.609   5.569
 3467TIP3    H110365   4.525   2.657   5.559
 3467TIP3    H210366   4.614   2.591   5.662
 3468TIP3   OH210367   0.242   6.456   3.994
 3468TIP3    H110368   0.223   6.538   4.040
 3468TIP3    H210369   0.323   6.424   4.033
 3469TIP3   OH210370   2.536   4.745   1.997
 3469TIP3    H110371   2.564   4.777   1.912
 3469TIP3    H210372   2.471   4.677   1.977
 3470TIP3   OH210373   3.659   6.209   3.759
 3470TIP3    H110374   3.733   6.235   3.814
 3470TIP3    H210375   3.671   6.259   3.678
 3471TIP3   OH210376   4.262   4.707   1.532
 3471TIP3    H110377   4.264   4.623   1.576
 3471TIP3    H210378   4.240   4.686   1.441
 3472TIP3   OH210379   3.559   6.685   0.761
 3472TIP3    H110380   3.639   6.736   0.773
 3472TIP3    H210381   3.489   6.742   0.791
 3473TIP3   OH210382   2.345   0.967   2.876
 3473TIP3    H110383   2.302   1.041   2.918
 3473TIP3    H210384   2.426   0.955   2.925
 3474TIP3   OH210385   0.793   1.577   1.729
 3474TIP3    H110386   0.709   1.573   1.683
 3474TIP3    H210387   0.773   1.619   1.813
 3475TIP3   OH210388   7.212   3.284   1.548
 3475TIP3    H110389   7.186   3.368   1.510
 3475TIP3    H210390   7.252   3.236   1.476
 3476TIP3   OH210391   5.748   5.707   3.744
 3476TIP3    H110392   5.814   5.745   3.687
 3476TIP3    H210393   5.749   5.614   3.725
 3477TIP3   OH210394   4.756   4.184   5.071
 3477TIP3    H110395   4.671   4.181   5.027
 3477TIP3    H210396   4.737   4.224   5.156
 3478TIP3   OH210397   0.355   2.858   4.379
 3478TIP3    H110398   0.393   2.813   4.303
 3478TIP3    H210399   0.312   2.935   4.341
 3479TIP3   OH210400   3.045   2.072   3.810
 3479TIP3    H110401   3.000   2.143   3.856
 3479TIP3    H210402   3.134   2.072   3.846
 3480TIP3   OH210403   5.168   3.298   4.449
 3480TIP3    H110404   5.228   3.309   4.524
 3480TIP3    H210405   5.139   3.207   4.455
 3481TIP3   OH210406   6.333   6.454   2.035
 3481TIP3    H110407   6.278   6.386   1.997
 3481TIP3    H210408   6.339   6.432   2.128
 3482TIP3   OH210409   0.091   1.289   3.648
 3482TIP3    H110410   0.009   1.336   3.665
 3482TIP3    H210411   0.082   1.257   3.558
 3483TIP3   OH210412   1.362   1.840   1.509
 3483TIP3    H110413   1.405   1.915   1.549
 3483TIP3    H210414   1.269   1.864   1.506
 3484TIP3   OH210415   4.417   5.764   2.363
 3484TIP3    H110416   4.429   5.669   2.369
 3484TIP3    H210417   4.347   5.776   2.299
 3485TIP3   OH210418   7.129   2.007   4.038
 3485TIP3    H110419   7.098   2.091   4.071
 3485TIP3    H210420   7.224   2.018   4.030
 3486TIP3   OH210421   6.686   3.193   2.403
 3486TIP3    H110422   6.720   3.281   2.420
 3486TIP3    H210423   6.734   3.137   2.464
 3487TIP3   OH210424   2.457   3.668   4.794
 3487TIP3    H110425   2.393   3.634   4.730
 3487TIP3    H210426   2.438   3.762   4.798
 3488TIP3   OH210427  -0.015   2.716   1.409
 3488TIP3    H110428   0.061   2.768   1.384
 3488TIP3    H210429   0.017   2.626   1.415
 3489TIP3   OH210430   6.160   1.761   2.499
 3489TIP3    H110431   6.199   1.809   2.572
 3489TIP3    H210432   6.091   1.818   2.467
 3490TIP3   OH210433   4.807   5.634   2.303
 3490TIP3    H110434   4.732   5.643   2.245
 3490TIP3    H210435   4.782   5.677   2.384
 3491TIP3   OH210436   2.626   4.868   0.502
 3491TIP3    H110437   2.689   4.857   0.431
 3491TIP3    H210438   2.574   4.787   0.501
 3492TIP3   OH210439   4.347   3.762   4.605
 3492TIP3    H110440   4.316   3.715   4.527
 3492TIP3    H210441   4.440   3.778   4.587
 3493TIP3   OH210442   1.898   4.644   0.765
 3493TIP3    H110443   1.981   4.612   0.800
 3493TIP3    H210444   1.831   4.594   0.811
 3494TIP3   OH210445   4.075   5.459   4.099
 3494TIP3    H110446   4.123   5.377   4.104
 3494TIP3    H210447   4.103   5.509   4.175
 3495TIP3   OH210448   4.836   2.333   2.261
 3495TIP3    H110449   4.838   2.351   2.355
 3495TIP3    H210450   4.763   2.385   2.227
 3496TIP3   OH210451   1.597   5.828   2.142
 3496TIP3    H110452   1.503   5.814   2.128
 3496TIP3    H210453   1.612   5.806   2.234
 3497TIP3   OH210454   1.844   3.756   5.331
 3497TIP3    H110455   1.870   3.733   5.420
 3497TIP3    H210456   1.818   3.674   5.291
 3498TIP3   OH210457   5.531   4.788   4.197
 3498TIP3    H110458   5.624   4.805   4.209
 3498TIP3    H210459   5.527   4.698   4.164
 3499TIP3   OH210460   1.115   6.080   4.909
 3499TIP3    H110461   1.178   6.095   4.979
 3499TIP3    H210462   1.140   6.143   4.841
 3500TIP3   OH210463   6.315   6.149   5.563
 3500TIP3    H110464   6.404   6.160   5.598
 3500TIP3    H210465   6.307   6.055   5.546
 3501TIP3   OH210466   3.818   4.506   2.926
 3501TIP3    H110467   3.756   4.526   2.996
 3501TIP3    H210468   3.806   4.413   2.909
 3502TIP3   OH210469   5.149   6.064   1.080
 3502TIP3    H110470   5.152   6.023   0.993
 3502TIP3    H210471   5.180   5.996   1.140
 3503TIP3   OH210472   4.557   2.175   0.911
 3503TIP3    H110473   4.554   2.080   0.907
 3503TIP3    H210474   4.559   2.195   1.004
 3504TIP3   OH210475   2.668   0.905   2.818
 3504TIP3    H110476   2.630   0.974   2.765
 3504TIP3    H210477   2.702   0.951   2.895
 3505TIP3   OH210478   0.601   2.106   0.713
 3505TIP3    H110479   0.539   2.176   0.691
 3505TIP3    H210480   0.673   2.118   0.651
 3506TIP3   OH210481   4.326   3.541   0.739
 3506TIP3    H110482   4.377   3.616   0.709
 3506TIP3    H210483   4.285   3.570   0.820
 3507TIP3   OH210484   2.612   5.154   2.242
 3507TIP3    H110485   2.706   5.153   2.230
 3507TIP3    H210486   2.596   5.231   2.297
 3508TIP3   OH210487   6.007   4.866   3.983
 3508TIP3    H110488   5.912   4.868   3.979
 3508TIP3    H210489   6.032   4.954   4.010
 3509TIP3   OH210490   6.057   6.611   3.364
 3509TIP3    H110491   6.108   6.554   3.307
 3509TIP3    H210492   6.037   6.557   3.441
 3510TIP3   OH210493   4.657   6.683   3.832
 3510TIP3    H110494   4.684   6.593   3.814
 3510TIP3    H210495   4.603   6.676   3.911
 3511TIP3   OH210496   5.509   1.248   5.689
 3511TIP3    H110497   5.483   1.157   5.707
 3511TIP3    H210498   5.582   1.264   5.748
 3512TIP3   OH210499   5.140   5.332   1.244
 3512TIP3    H110500   5.080   5.369   1.179
 3512TIP3    H210501   5.111   5.242   1.255
 3513TIP3   OH210502   1.276   6.455   5.376
 3513TIP3    H110503   1.361   6.415   5.356
 3513TIP3    H210504   1.252   6.502   5.296
 3514TIP3   OH210505   0.067   0.501   5.729
 3514TIP3    H110506   0.012   0.439   5.682
 3514TIP3    H210507   0.091   0.567   5.664
 3515TIP3   OH210508   2.041   0.203   2.198
 3515TIP3    H110509   2.106   0.150   2.152
 3515TIP3    H210510   1.984   0.139   2.241
 3516TIP3   OH210511   5.130   1.810   1.069
 3516TIP3    H110512   5.069   1.767   1.009
 3516TIP3    H210513   5.142   1.748   1.140
 3517TIP3   OH210514   3.996   2.640   5.717
 3517TIP3    H110515   3.996   2.567   5.780
 3517TIP3    H210516   3.927   2.698   5.749
 3518TIP3   OH210517   4.425   4.047   5.033
 3518TIP3    H110518   4.339   4.057   5.072
 3518TIP3    H210519   4.410   3.996   4.953
 3519TIP3   OH210520   5.442   3.058   1.698
 3519TIP3    H110521   5.389   3.127   1.738
 3519TIP3    H210522   5.383   2.982   1.693
 3520TIP3   OH210523   4.246   0.863   3.106
 3520TIP3    H110524   4.306   0.862   3.032
 3520TIP3    H210525   4.204   0.777   3.105
 3521TIP3   OH210526   2.142   4.368   4.706
 3521TIP3    H110527   2.107   4.399   4.790
 3521TIP3    H210528   2.178   4.447   4.666
 3522TIP3   OH210529   4.247   4.833   1.103
 3522TIP3    H110530   4.216   4.904   1.159
 3522TIP3    H210531   4.235   4.866   1.014
 3523TIP3   OH210532   6.250   1.142   1.708
 3523TIP3    H110533   6.167   1.109   1.674
 3523TIP3    H210534   6.280   1.205   1.642
 3524TIP3   OH210535   0.537   2.913   3.071
 3524TIP3    H110536   0.519   3.007   3.066
 3524TIP3    H210537   0.569   2.891   2.983
 3525TIP3   OH210538   0.332   4.697   4.636
 3525TIP3    H110539   0.350   4.719   4.727
 3525TIP3    H210540   0.399   4.744   4.586
 3526TIP3   OH210541   0.220   5.163   5.360
 3526TIP3    H110542   0.190   5.249   5.390
 3526TIP3    H210543   0.180   5.152   5.274
 3527TIP3   OH210544   0.441   3.962   4.206
 3527TIP3    H110545   0.501   4.024   4.165
 3527TIP3    H210546   0.388   4.016   4.264
 3528TIP3   OH210547   2.152   3.730   2.533
 3528TIP3    H110548   2.111   3.716   2.618
 3528TIP3    H210549   2.243   3.704   2.546
 3529TIP3   OH210550   6.080   1.369   3.676
 3529TIP3    H110551   6.016   1.379   3.747
 3529TIP3    H210552   6.068   1.279   3.646
 3530TIP3   OH210553   6.707   1.135   4.274
 3530TIP3    H110554   6.770   1.064   4.266
 3530TIP3    H210555   6.700   1.150   4.368
 3531TIP3   OH210556   1.186   2.901   1.650
 3531TIP3    H110557   1.260   2.951   1.686
 3531TIP3    H210558   1.148   2.960   1.585
 3532TIP3   OH210559   3.537   5.752   2.670
 3532TIP3    H110560   3.629   5.779   2.677
 3532TIP3    H210561   3.539   5.657   2.669
 3533TIP3   OH210562   6.744   2.976   1.928
 3533TIP3    H110563   6.733   2.890   1.886
 3533TIP3    H210564   6.793   3.028   1.864
 3534TIP3   OH210565   0.533   5.537   5.591
 3534TIP3    H110566   0.526   5.496   5.505
 3534TIP3    H210567   0.570   5.469   5.648
 3535TIP3   OH210568   3.262   3.748   2.657
 3535TIP3    H110569   3.201   3.738   2.584
 3535TIP3    H210570   3.299   3.661   2.670
 3536TIP3   OH210571   1.275   3.236   5.498
 3536TIP3    H110572   1.287   3.143   5.480
 3536TIP3    H210573   1.267   3.277   5.412
 3537TIP3   OH210574   3.856   6.737   4.154
 3537TIP3    H110575   3.876   6.751   4.247
 3537TIP3    H210576   3.775   6.786   4.140
 3538TIP3   OH210577   4.661   3.043   5.425
 3538TIP3    H110578   4.596   2.995   5.373
 3538TIP3    H210579   4.728   2.979   5.445
 3539TIP3   OH210580   1.872   3.047   4.997
 3539TIP3    H110581   1.886   2.965   5.044
 3539TIP3    H210582   1.956   3.092   5.002
 3540TIP3   OH210583   4.435   4.380   1.023
 3540TIP3    H110584   4.452   4.473   1.008
 3540TIP3    H210585   4.480   4.335   0.952
 3541TIP3   OH210586   2.548   3.461   1.328
 3541TIP3    H110587   2.599   3.512   1.392
 3541TIP3    H210588   2.581   3.491   1.243
 3542TIP3   OH210589   0.326   6.770   1.331
 3542TIP3    H110590   0.314   6.684   1.289
 3542TIP3    H210591   0.346   6.749   1.422
 3543TIP3   OH210592   1.409   0.884   4.720
 3543TIP3    H110593   1.321   0.849   4.704
 3543TIP3    H210594   1.467   0.821   4.678
 3544TIP3   OH210595   3.320   5.748   0.667
 3544TIP3    H110596   3.409   5.725   0.693
 3544TIP3    H210597   3.326   5.839   0.638
 3545TIP3   OH210598   3.653   5.348   2.121
 3545TIP3    H110599   3.558   5.335   2.127
 3545TIP3    H210600   3.663   5.436   2.085
 3546TIP3   OH210601   4.574   3.346   1.060
 3546TIP3    H110602   4.634   3.336   1.134
 3546TIP3    H210603   4.619   3.407   1.001
 3547TIP3   OH210604   6.340   3.796   2.317
 3547TIP3    H110605   6.403   3.802   2.389
 3547TIP3    H210606   6.258   3.770   2.358
 3548TIP3   OH210607   4.012   2.559   2.504
 3548TIP3    H110608   4.019   2.478   2.453
 3548TIP3    H210609   3.919   2.581   2.503
 3549TIP3   OH210610   6.657   2.541   3.794
 3549TIP3    H110611   6.613   2.552   3.879
 3549TIP3    H210612   6.733   2.598   3.799
 3550TIP3   OH210613   2.870   5.728   5.603
 3550TIP3    H110614   2.886   5.684   5.687
 3550TIP3    H210615   2.879   5.658   5.538
 3551TIP3   OH210616   6.266   5.882   0.300
 3551TIP3    H110617   6.196   5.817   0.308
 3551TIP3    H210618   6.290   5.903   0.390
 3552TIP3   OH210619   5.955   2.336   2.884
 3552TIP3    H110620   5.974   2.427   2.908
 3552TIP3    H210621   5.955   2.289   2.967
 3553TIP3   OH210622   5.138   1.020   5.219
 3553TIP3    H110623   5.208   1.047   5.278
 3553TIP3    H210624   5.148   0.926   5.211
 3554TIP3   OH210625   6.709   2.784   2.603
 3554TIP3    H110626   6.789   2.758   2.649
 3554TIP3    H210627   6.679   2.704   2.561
 3555TIP3   OH210628   4.917   6.017   5.159
 3555TIP3    H110629   4.847   6.063   5.113
 3555TIP3    H210630   4.944   6.078   5.228
 3556TIP3   OH210631   5.579   3.668   3.357
 3556TIP3    H110632   5.507   3.607   3.376
 3556TIP3    H210633   5.544   3.727   3.290
 3557TIP3   OH210634   3.384   0.689   2.194
 3557TIP3    H110635   3.478   0.684   2.177
 3557TIP3    H210636   3.359   0.599   2.215
 3558TIP3   OH210637   4.084   3.022   5.274
 3558TIP3    H110638   4.045   2.979   5.350
 3558TIP3    H210639   4.016   3.082   5.244
 3559TIP3   OH210640   3.413   2.360   2.804
 3559TIP3    H110641   3.337   2.413   2.781
 3559TIP3    H210642   3.487   2.421   2.803
 3560TIP3   OH210643   1.664   0.243   3.242
 3560TIP3    H110644   1.732   0.281   3.298
 3560TIP3    H210645   1.711   0.205   3.169
 3561TIP3   OH210646   6.505   1.608   3.240
 3561TIP3    H110647   6.515   1.567   3.326
 3561TIP3    H210648   6.480   1.536   3.182
 3562TIP3   OH210649   5.307   1.681   0.085
 3562TIP3    H110650   5.387   1.631   0.101
 3562TIP3    H210651   5.336   1.760   0.040
 3563TIP3   OH210652   3.332   6.400   3.832
 3563TIP3    H110653   3.359   6.461   3.901
 3563TIP3    H210654   3.345   6.313   3.870
 3564TIP3   OH210655   2.621   5.604   2.222
 3564TIP3    H110656   2.545   5.617   2.279
 3564TIP3    H210657   2.677   5.679   2.240
 3565TIP3   OH210658   4.961   5.580   5.363
 3565TIP3    H110659   5.052   5.554   5.383
 3565TIP3    H210660   4.950   5.555   5.271
 3566TIP3   OH210661   6.838   5.171   0.322
 3566TIP3    H110662   6.903   5.103   0.342
 3566TIP3    H210663   6.756   5.124   0.308
 3567TIP3   OH210664   0.120   0.819   0.215
 3567TIP3    H110665   0.197   0.763   0.218
 3567TIP3    H210666   0.079   0.799   0.131
 3568TIP3   OH210667   5.283   6.225   4.985
 3568TIP3    H110668   5.240   6.249   4.902
 3568TIP3    H210669   5.367   6.271   4.982
 3569TIP3   OH210670   4.694   4.214   2.350
 3569TIP3    H110671   4.676   4.222   2.257
 3569TIP3    H210672   4.641   4.139   2.378
 3570TIP3   OH210673   0.538   1.250   3.946
 3570TIP3    H110674   0.633   1.243   3.939
 3570TIP3    H210675   0.522   1.284   4.034
 3571TIP3   OH210676   3.227   0.457   5.321
 3571TIP3    H110677   3.189   0.459   5.409
 3571TIP3    H210678   3.239   0.364   5.302
 3572TIP3   OH210679   3.946   6.234   4.640
 3572TIP3    H110680   4.035   6.238   4.604
 3572TIP3    H210681   3.934   6.319   4.682
 3573TIP3   OH210682   6.683   1.356   0.179
 3573TIP3    H110683   6.690   1.434   0.233
 3573TIP3    H210684   6.591   1.330   0.185
 3574TIP3   OH210685   4.563   6.338   3.088
 3574TIP3    H110686   4.570   6.418   3.036
 3574TIP3    H210687   4.622   6.352   3.161
 3575TIP3   OH210688   0.649   4.341   3.105
 3575TIP3    H110689   0.554   4.343   3.090
 3575TIP3    H210690   0.681   4.423   3.068
 3576TIP3   OH210691   1.413   5.916   2.848
 3576TIP3    H110692   1.432   5.968   2.926
 3576TIP3    H210693   1.479   5.945   2.785
 3577TIP3   OH210694   1.279   0.621   3.437
 3577TIP3    H110695   1.240   0.579   3.360
 3577TIP3    H210696   1.255   0.564   3.510
 3578TIP3   OH210697   0.547   1.213   3.199
 3578TIP3    H110698   0.589   1.162   3.268
 3578TIP3    H210699   0.612   1.215   3.128
 3579TIP3   OH210700   4.619   5.967   2.029
 3579TIP3    H110701   4.535   5.999   2.061
 3579TIP3    H210702   4.626   6.002   1.941
 3580TIP3   OH210703   0.470   2.295   2.000
 3580TIP3    H110704   0.398   2.349   1.970
 3580TIP3    H210705   0.500   2.249   1.922
 3581TIP3   OH210706   0.301   1.906   3.342
 3581TIP3    H110707   0.332   1.816   3.330
 3581TIP3    H210708   0.374   1.961   3.315
 3582TIP3   OH210709   3.997   2.403   2.165
 3582TIP3    H110710   3.935   2.387   2.236
 3582TIP3    H210711   4.082   2.379   2.202
 3583TIP3   OH210712   4.970   6.333   1.398
 3583TIP3    H110713   4.985   6.370   1.485
 3583TIP3    H210714   5.028   6.383   1.340
 3584TIP3   OH210715   6.494   0.987   3.246
 3584TIP3    H110716   6.499   0.892   3.260
 3584TIP3    H210717   6.448   1.020   3.323
 3585TIP3   OH210718   6.582   6.101   1.736
 3585TIP3    H110719   6.538   6.108   1.821
 3585TIP3    H210720   6.652   6.038   1.751
 3586TIP3   OH210721   7.115   5.590   0.293
 3586TIP3    H110722   7.182   5.650   0.326
 3586TIP3    H210723   7.087   5.541   0.371
 3587TIP3   OH210724   2.989   3.043   0.940
 3587TIP3    H110725   3.061   2.986   0.914
 3587TIP3    H210726   3.030   3.118   0.983
 3588TIP3   OH210727   4.563   1.712   4.392
 3588TIP3    H110728   4.593   1.797   4.424
 3588TIP3    H210729   4.622   1.649   4.432
 3589TIP3   OH210730   3.310   1.896   1.959
 3589TIP3    H110731   3.371   1.957   2.001
 3589TIP3    H210732   3.363   1.818   1.942
 3590TIP3   OH210733   7.159   1.445   1.296
 3590TIP3    H110734   7.167   1.498   1.376
 3590TIP3    H210735   7.068   1.455   1.270
 3591TIP3   OH210736   6.636   4.579   0.704
 3591TIP3    H110737   6.558   4.633   0.694
 3591TIP3    H210738   6.707   4.641   0.717
 3592TIP3   OH210739   7.134   2.662   4.798
 3592TIP3    H110740   7.054   2.696   4.839
 3592TIP3    H210741   7.202   2.674   4.864
 3593TIP3   OH210742   2.578   2.501   2.183
 3593TIP3    H110743   2.541   2.581   2.220
 3593TIP3    H210744   2.575   2.514   2.088
 3594TIP3   OH210745   1.358   6.749   3.574
 3594TIP3    H110746   1.324   6.677   3.520
 3594TIP3    H210747   1.347   6.827   3.520
 3595TIP3   OH210748   6.714   5.593   5.092
 3595TIP3    H110749   6.670   5.639   5.164
 3595TIP3    H210750   6.762   5.521   5.134
 3596TIP3   OH210751   5.314   6.788   0.680
 3596TIP3    H110752   5.369   6.714   0.705
 3596TIP3    H210753   5.364   6.833   0.612
 3597TIP3   OH210754   4.078   4.904   3.141
 3597TIP3    H110755   4.012   4.841   3.167
 3597TIP3    H210756   4.084   4.895   3.046
 3598TIP3   OH210757   4.569   5.564   4.651
 3598TIP3    H110758   4.499   5.584   4.713
 3598TIP3    H210759   4.568   5.638   4.590
 3599TIP3   OH210760   2.869   2.469   2.169
 3599TIP3    H110761   2.913   2.547   2.201
 3599TIP3    H210762   2.776   2.484   2.189
 3600TIP3   OH210763   1.484   3.137   2.814
 3600TIP3    H110764   1.518   3.081   2.745
 3600TIP3    H210765   1.511   3.095   2.896
 3601TIP3   OH210766   1.217   3.976   2.162
 3601TIP3    H110767   1.174   3.904   2.117
 3601TIP3    H210768   1.277   3.933   2.223
 3602TIP3   OH210769   4.112   2.623   5.447
 3602TIP3    H110770   4.087   2.600   5.537
 3602TIP3    H210771   4.207   2.611   5.445
 3603TIP3   OH210772   4.378   2.038   3.203
 3603TIP3    H110773   4.396   1.945   3.190
 3603TIP3    H210774   4.464   2.079   3.197
 3604TIP3   OH210775   7.193   5.239   2.399
 3604TIP3    H110776   7.186   5.334   2.401
 3604TIP3    H210777   7.287   5.221   2.406
 3605TIP3   OH210778   5.395   4.631   2.451
 3605TIP3    H110779   5.407   4.549   2.498
 3605TIP3    H210780   5.306   4.625   2.415
 3606TIP3   OH210781   5.939   0.339   1.250
 3606TIP3    H110782   5.931   0.288   1.169
 3606TIP3    H210783   5.978   0.422   1.223
 3607TIP3   OH210784   2.689   1.425   0.370
 3607TIP3    H110785   2.714   1.484   0.441
 3607TIP3    H210786   2.665   1.343   0.414
 3608TIP3   OH210787   2.537   0.159   3.631
 3608TIP3    H110788   2.498   0.222   3.692
 3608TIP3    H210789   2.491   0.077   3.649
 3609TIP3   OH210790   6.598   1.555   5.447
 3609TIP3    H110791   6.556   1.584   5.366
 3609TIP3    H210792   6.544   1.483   5.479
 3610TIP3   OH210793   5.045   1.404   5.215
 3610TIP3    H110794   5.073   1.450   5.294
 3610TIP3    H210795   5.080   1.456   5.143
 3611TIP3   OH210796   5.322   6.580   2.568
 3611TIP3    H110797   5.280   6.609   2.649
 3611TIP3    H210798   5.274   6.625   2.498
 3612TIP3   OH210799   4.518   3.044   4.987
 3612TIP3    H110800   4.531   3.117   4.926
 3612TIP3    H210801   4.605   3.005   4.996
 3613TIP3   OH210802   0.535   0.142   4.978
 3613TIP3    H110803   0.576   0.207   4.921
 3613TIP3    H210804   0.444   0.138   4.948
 3614TIP3   OH210805   0.720   3.995   4.678
 3614TIP3    H110806   0.669   3.958   4.605
 3614TIP3    H210807   0.668   4.069   4.708
 3615TIP3   OH210808   4.178   4.573   4.560
 3615TIP3    H110809   4.254   4.629   4.575
 3615TIP3    H210810   4.106   4.634   4.547
 3616TIP3   OH210811   4.023   6.257   3.539
 3616TIP3    H110812   4.048   6.175   3.496
 3616TIP3    H210813   4.063   6.325   3.485
 3617TIP3   OH210814   1.568   0.827   2.304
 3617TIP3    H110815   1.598   0.747   2.346
 3617TIP3    H210816   1.511   0.798   2.233
 3618TIP3   OH210817   7.033   3.373   5.058
 3618TIP3    H110818   7.112   3.329   5.091
 3618TIP3    H210819   6.979   3.388   5.136
 3619TIP3   OH210820   5.973   2.087   1.567
 3619TIP3    H110821   5.924   2.009   1.595
 3619TIP3    H210822   5.958   2.151   1.636
 3620TIP3   OH210823   1.984   2.058   5.493
 3620TIP3    H110824   1.889   2.045   5.488
 3620TIP3    H210825   1.995   2.153   5.503
 3621TIP3   OH210826   1.588   6.277   1.304
 3621TIP3    H110827   1.538   6.294   1.384
 3621TIP3    H210828   1.577   6.183   1.289
 3622TIP3   OH210829   0.440   5.870   2.568
 3622TIP3    H110830   0.369   5.862   2.505
 3622TIP3    H210831   0.444   5.784   2.610
 3623TIP3   OH210832   4.237   0.687   1.325
 3623TIP3    H110833   4.302   0.706   1.257
 3623TIP3    H210834   4.179   0.763   1.324
 3624TIP3   OH210835   6.105   0.979   2.572
 3624TIP3    H110836   6.041   0.987   2.501
 3624TIP3    H210837   6.065   0.919   2.634
 3625TIP3   OH210838   5.488   1.087   0.053
 3625TIP3    H110839   5.404   1.105   0.010
 3625TIP3    H210840   5.466   1.078   0.145
 3626TIP3   OH210841   1.829   0.566   0.206
 3626TIP3    H110842   1.788   0.486   0.174
 3626TIP3    H210843   1.762   0.608   0.260
 3627TIP3   OH210844   2.134   2.545   4.116
 3627TIP3    H110845   2.115   2.478   4.051
 3627TIP3    H210846   2.048   2.580   4.141
 3628TIP3   OH210847   4.711   1.543   2.814
 3628TIP3    H110848   4.655   1.522   2.888
 3628TIP3    H210849   4.800   1.521   2.843
 3629TIP3   OH210850   0.852   4.396   3.815
 3629TIP3    H110851   0.781   4.335   3.794
 3629TIP3    H210852   0.810   4.465   3.865
 3630TIP3   OH210853   1.010   2.938   4.775
 3630TIP3    H110854   1.017   2.864   4.716
 3630TIP3    H210855   0.936   2.989   4.743
 3631TIP3   OH210856   6.918   1.054   2.786
 3631TIP3    H110857   7.003   1.086   2.817
 3631TIP3    H210858   6.894   0.985   2.847
 3632TIP3   OH210859   1.196   0.884   5.725
 3632TIP3    H110860   1.200   0.878   5.820
 3632TIP3    H210861   1.104   0.868   5.704
 3633TIP3   OH210862   0.891   3.080   0.895
 3633TIP3    H110863   0.904   3.058   0.803
 3633TIP3    H210864   0.857   3.169   0.894
 3634TIP3   OH210865   3.077   0.156   2.466
 3634TIP3    H110866   3.000   0.107   2.496
 3634TIP3    H210867   3.100   0.211   2.541
 3635TIP3   OH210868   7.112   2.850   3.803
 3635TIP3    H110869   7.137   2.929   3.851
 3635TIP3    H210870   7.192   2.798   3.800
 3636TIP3   OH210871   5.458   3.559   1.804
 3636TIP3    H110872   5.431   3.514   1.884
 3636TIP3    H210873   5.386   3.619   1.785
 3637TIP3   OH210874   1.436   0.713   0.257
 3637TIP3    H110875   1.365   0.699   0.319
 3637TIP3    H210876   1.393   0.744   0.178
 3638TIP3   OH210877   5.287   5.342   4.584
 3638TIP3    H110878   5.252   5.290   4.512
 3638TIP3    H210879   5.230   5.321   4.658
 3639TIP3   OH210880   4.825   5.397   3.555
 3639TIP3    H110881   4.796   5.308   3.534
 3639TIP3    H210882   4.778   5.419   3.636
 3640TIP3   OH210883   0.737   3.103   1.263
 3640TIP3    H110884   0.716   3.064   1.179
 3640TIP3    H210885   0.668   3.168   1.277
 3641TIP3   OH210886   3.452   2.600   3.838
 3641TIP3    H110887   3.433   2.671   3.898
 3641TIP3    H210888   3.538   2.567   3.867
 3642TIP3   OH210889   7.106   2.406   1.982
 3642TIP3    H110890   7.142   2.323   1.949
 3642TIP3    H210891   7.166   2.432   2.051
 3643TIP3   OH210892   4.740   0.443   0.798
 3643TIP3    H110893   4.831   0.440   0.767
 3643TIP3    H210894   4.696   0.502   0.737
 3644TIP3   OH210895   2.576   1.567   1.469
 3644TIP3    H110896   2.606   1.657   1.479
 3644TIP3    H210897   2.480   1.574   1.466
 3645TIP3   OH210898   3.963   4.456   5.872
 3645TIP3    H110899   4.011   4.373   5.864
 3645TIP3    H210900   4.031   4.521   5.888
 3646TIP3   OH210901   0.505   5.449   5.327
 3646TIP3    H110902   0.476   5.409   5.246
 3646TIP3    H210903   0.600   5.454   5.319
 3647TIP3   OH210904   0.141   4.166   4.007
 3647TIP3    H110905   0.149   4.071   4.019
 3647TIP3    H210906   0.222   4.202   4.043
 3648TIP3   OH210907   6.360   0.448   2.246
 3648TIP3    H110908   6.409   0.500   2.309
 3648TIP3    H210909   6.280   0.423   2.291
 3649TIP3   OH210910   3.422   1.099   4.546
 3649TIP3    H110911   3.407   1.050   4.464
 3649TIP3    H210912   3.351   1.163   4.549
 3650TIP3   OH210913   5.834   4.725   5.760
 3650TIP3    H110914   5.769   4.788   5.792
 3650TIP3    H210915   5.828   4.731   5.665
 3651TIP3   OH210916   4.405   5.196   5.506
 3651TIP3    H110917   4.330   5.146   5.536
 3651TIP3    H210918   4.417   5.168   5.415
 3652TIP3   OH210919   2.444   1.856   0.919
 3652TIP3    H110920   2.509   1.842   0.987
 3652TIP3    H210921   2.433   1.951   0.915
 3653TIP3   OH210922   0.163   2.706   3.295
 3653TIP3    H110923   0.169   2.783   3.238
 3653TIP3    H210924   0.217   2.640   3.251
 3654TIP3   OH210925   1.486   3.445   3.666
 3654TIP3    H110926   1.480   3.467   3.573
 3654TIP3    H210927   1.578   3.422   3.680
 3655TIP3   OH210928   4.306   5.763   2.673
 3655TIP3    H110929   4.387   5.743   2.626
 3655TIP3    H210930   4.329   5.755   2.765
 3656TIP3   OH210931   2.606   3.944   5.471
 3656TIP3    H110932   2.633   4.032   5.497
 3656TIP3    H210933   2.656   3.925   5.392
 3657TIP3   OH210934   6.471   0.709   3.601
 3657TIP3    H110935   6.561   0.690   3.576
 3657TIP3    H210936   6.418   0.651   3.547
 3658TIP3   OH210937   7.111   0.961   2.421
 3658TIP3    H110938   7.044   1.024   2.397
 3658TIP3    H210939   7.175   0.965   2.350
 3659TIP3   OH210940   2.118   0.095   2.679
 3659TIP3    H110941   2.133   0.186   2.656
 3659TIP3    H210942   2.071   0.098   2.762
 3660TIP3   OH210943   6.979   0.312   0.756
 3660TIP3    H110944   7.026   0.389   0.789
 3660TIP3    H210945   7.026   0.288   0.676
 3661TIP3   OH210946   3.113   6.727   2.647
 3661TIP3    H110947   3.126   6.780   2.569
 3661TIP3    H210948   3.202   6.708   2.679
 3662TIP3   OH210949   6.999   4.922   2.046
 3662TIP3    H110950   6.985   4.971   1.965
 3662TIP3    H210951   6.929   4.952   2.104
 3663TIP3   OH210952   1.745   0.653   4.189
 3663TIP3    H110953   1.752   0.564   4.155
 3663TIP3    H210954   1.826   0.696   4.161
 3664TIP3   OH210955   5.942   5.758   5.160
 3664TIP3    H110956   5.935   5.845   5.122
 3664TIP3    H210957   5.977   5.773   5.248
 3665TIP3   OH210958   3.137   3.669   5.463
 3665TIP3    H110959   3.072   3.732   5.492
 3665TIP3    H210960   3.142   3.682   5.368
 3666TIP3   OH210961   1.438   5.395   4.812
 3666TIP3    H110962   1.495   5.464   4.847
 3666TIP3    H210963   1.440   5.409   4.717
 3667TIP3   OH210964   4.004   0.879   0.157
 3667TIP3    H110965   3.937   0.831   0.107
 3667TIP3    H210966   3.971   0.878   0.247
 3668TIP3   OH210967   4.706   2.852   2.660
 3668TIP3    H110968   4.762   2.788   2.616
 3668TIP3    H210969   4.675   2.807   2.739
 3669TIP3   OH210970   1.393   3.626   1.337
 3669TIP3    H110971   1.389   3.531   1.325
 3669TIP3    H210972   1.482   3.649   1.310
 3670TIP3   OH210973   2.983   1.093   5.797
 3670TIP3    H110974   3.023   1.174   5.765
 3670TIP3    H210975   3.054   1.048   5.843
 3671TIP3   OH210976   1.728   5.137   0.166
 3671TIP3    H110977   1.735   5.219   0.117
 3671TIP3    H210978   1.636   5.131   0.190
 3672TIP3   OH210979   1.377   1.115   5.709
 3672TIP3    H110980   1.472   1.108   5.702
 3672TIP3    H210981   1.345   1.025   5.701
 3673TIP3   OH210982   2.045   4.579   4.900
 3673TIP3    H110983   2.075   4.653   4.952
 3673TIP3    H210984   2.028   4.510   4.964
 3674TIP3   OH210985   2.101   0.361   2.992
 3674TIP3    H110986   2.189   0.373   3.029
 3674TIP3    H210987   2.082   0.268   3.005
 3675TIP3   OH210988   4.150   2.333   4.189
 3675TIP3    H110989   4.239   2.304   4.209
 3675TIP3    H210990   4.144   2.419   4.230
 3676TIP3   OH210991   2.059   0.554   2.150
 3676TIP3    H110992   2.108   0.635   2.167
 3676TIP3    H210993   1.979   0.563   2.203
 3677TIP3   OH210994   2.001   5.144   1.476
 3677TIP3    H110995   2.010   5.099   1.560
 3677TIP3    H210996   2.038   5.084   1.412
 3678TIP3   OH210997   6.131   6.749   2.506
 3678TIP3    H110998   6.188   6.788   2.439
 3678TIP3    H210999   6.110   6.662   2.470
 3679TIP3   OH211000   6.299   0.665   0.113
 3679TIP3    H111001   6.320   0.690   0.022
 3679TIP3    H211002   6.229   0.601   0.104
 3680TIP3   OH211003   4.160   5.683   1.585
 3680TIP3    H111004   4.064   5.677   1.589
 3680TIP3    H211005   4.185   5.717   1.671
 3681TIP3   OH211006   3.516   5.344   1.090
 3681TIP3    H111007   3.479   5.350   1.002
 3681TIP3    H211008   3.604   5.308   1.076
 3682TIP3   OH211009   1.909   0.223   0.413
 3682TIP3    H111010   1.917   0.185   0.325
 3682TIP3    H211011   1.995   0.209   0.453
 3683TIP3   OH211012   3.594   1.071   0.346
 3683TIP3    H111013   3.503   1.045   0.335
 3683TIP3    H211014   3.621   1.100   0.259
 3684TIP3   OH211015   4.293   1.812   4.319
 3684TIP3    H111016   4.323   1.902   4.331
 3684TIP3    H211017   4.370   1.758   4.337
 3685TIP3   OH211018   2.923   2.257   4.526
 3685TIP3    H111019   2.914   2.241   4.432
 3685TIP3    H211020   3.002   2.210   4.552
 3686TIP3   OH211021   0.177   0.807   5.150
 3686TIP3    H111022   0.190   0.728   5.098
 3686TIP3    H211023   0.177   0.878   5.086
 3687TIP3   OH211024   2.400   4.770   0.273
 3687TIP3    H111025   2.314   4.763   0.314
 3687TIP3    H211026   2.454   4.705   0.317
 3688TIP3   OH211027   5.654   0.365   0.968
 3688TIP3    H111028   5.587   0.339   1.031
 3688TIP3    H211029   5.694   0.443   1.006
 3689TIP3   OH211030   3.514   2.977   1.974
 3689TIP3    H111031   3.437   3.012   1.929
 3689TIP3    H211032   3.575   2.957   1.903
 3690TIP3   OH211033   2.213   3.600   5.008
 3690TIP3    H111034   2.190   3.521   4.959
 3690TIP3    H211035   2.165   3.670   4.963
 3691TIP3   OH211036   6.951   1.564   5.409
 3691TIP3    H111037   6.974   1.653   5.383
 3691TIP3    H211038   6.879   1.540   5.350
 3692TIP3   OH211039   6.645   4.261   2.937
 3692TIP3    H111040   6.556   4.263   2.902
 3692TIP3    H211041   6.639   4.201   3.012
 3693TIP3   OH211042   3.304   1.210   1.465
 3693TIP3    H111043   3.243   1.188   1.536
 3693TIP3    H211044   3.254   1.271   1.410
 3694TIP3   OH211045   2.789   2.576   0.939
 3694TIP3    H111046   2.859   2.544   0.996
 3694TIP3    H211047   2.764   2.660   0.977
 3695TIP3   OH211048   0.245   4.407   5.437
 3695TIP3    H111049   0.239   4.337   5.501
 3695TIP3    H211050   0.154   4.427   5.413
 3696TIP3   OH211051   4.746   1.085   4.675
 3696TIP3    H111052   4.806   1.123   4.739
 3696TIP3    H211053   4.693   1.023   4.726
 3697TIP3   OH211054   3.648   1.253   4.581
 3697TIP3    H111055   3.719   1.217   4.528
 3697TIP3    H211056   3.578   1.188   4.576
 3698TIP3   OH211057   6.653   4.201   5.606
 3698TIP3    H111058   6.660   4.264   5.535
 3698TIP3    H211059   6.696   4.244   5.680
 3699TIP3   OH211060   0.589   4.979   0.215
 3699TIP3    H111061   0.624   4.890   0.203
 3699TIP3    H211062   0.546   5.000   0.132
 3700TIP3   OH211063   3.423   4.738   1.966
 3700TIP3    H111064   3.366   4.773   2.034
 3700TIP3    H211065   3.484   4.809   1.947
 3701TIP3   OH211066   1.655   4.224   2.510
 3701TIP3    H111067   1.740   4.191   2.538
 3701TIP3    H211068   1.654   4.316   2.539
 3702TIP3   OH211069   0.999   4.527   3.166
 3702TIP3    H111070   1.007   4.562   3.255
 3702TIP3    H211071   1.085   4.540   3.127
 3703TIP3   OH211072   7.127   2.357   5.863
 3703TIP3    H111073   7.181   2.435   5.870
 3703TIP3    H211074   7.181   2.286   5.897
 3704TIP3   OH211075   3.210   2.472   3.794
 3704TIP3    H111076   3.175   2.536   3.856
 3704TIP3    H211077   3.303   2.495   3.787
 3705TIP3   OH211078   4.264   2.147   0.308
 3705TIP3    H111079   4.343   2.103   0.338
 3705TIP3    H211080   4.248   2.215   0.372
 3706TIP3   OH211081   5.982   0.442   5.477
 3706TIP3    H111082   5.994   0.368   5.537
 3706TIP3    H211083   5.910   0.492   5.515
 3707TIP3   OH211084   4.687   2.437   3.742
 3707TIP3    H111085   4.683   2.363   3.803
 3707TIP3    H211086   4.633   2.505   3.783
 3708TIP3   OH211087   5.916   4.354   5.833
 3708TIP3    H111088   5.939   4.324   5.745
 3708TIP3    H211089   5.821   4.363   5.831
 3709TIP3   OH211090   3.617   5.233   2.739
 3709TIP3    H111091   3.535   5.184   2.738
 3709TIP3    H211092   3.676   5.182   2.794
 3710TIP3   OH211093   3.789   6.195   3.210
 3710TIP3    H111094   3.825   6.106   3.212
 3710TIP3    H211095   3.796   6.225   3.301
 3711TIP3   OH211096   0.564   2.168   1.399
 3711TIP3    H111097   0.638   2.107   1.396
 3711TIP3    H211098   0.603   2.251   1.426
 3712TIP3   OH211099   2.001   6.322   3.516
 3712TIP3    H111100   2.077   6.350   3.567
 3712TIP3    H211101   1.928   6.326   3.577
 3713TIP3   OH211102   1.735   4.835   4.742
 3713TIP3    H111103   1.753   4.857   4.651
 3713TIP3    H211104   1.794   4.892   4.792
 3714TIP3   OH211105   6.510   0.409   5.420
 3714TIP3    H111106   6.548   0.416   5.332
 3714TIP3    H211107   6.416   0.415   5.405
 3715TIP3   OH211108   4.383   2.733   5.524
 3715TIP3    H111109   4.392   2.807   5.464
 3715TIP3    H211110   4.321   2.764   5.590
 3716TIP3   OH211111   1.943   2.969   2.786
 3716TIP3    H111112   1.983   3.033   2.845
 3716TIP3    H211113   1.975   2.994   2.699
 3717TIP3   OH211114   0.034   3.750   3.570
 3717TIP3    H111115   0.122   3.717   3.553
 3717TIP3    H211116  -0.023   3.676   3.553
 3718TIP3   OH211117   3.284   4.473   5.639
 3718TIP3    H111118   3.223   4.454   5.568
 3718TIP3    H211119   3.368   4.489   5.596
 3719TIP3   OH211120   2.029   1.331   4.195
 3719TIP3    H111121   2.124   1.334   4.191
 3719TIP3    H211122   2.006   1.380   4.274
 3720TIP3   OH211123   3.200   2.968   3.811
 3720TIP3    H111124   3.280   2.917   3.798
 3720TIP3    H211125   3.203   2.995   3.903
 3721TIP3   OH211126   5.771   1.392   3.624
 3721TIP3    H111127   5.840   1.411   3.561
 3721TIP3    H211128   5.712   1.333   3.577
 3722TIP3   OH211129   6.445   0.797   5.470
 3722TIP3    H111130   6.469   0.877   5.423
 3722TIP3    H211131   6.525   0.745   5.472
 3723TIP3   OH211132   6.654   1.090   2.674
 3723TIP3    H111133   6.742   1.085   2.711
 3723TIP3    H211134   6.622   1.000   2.676
 3724TIP3   OH211135   4.558   5.212   5.728
 3724TIP3    H111136   4.648   5.243   5.719
 3724TIP3    H211137   4.525   5.210   5.638
 3725TIP3   OH211138   1.849   2.265   0.368
 3725TIP3    H111139   1.794   2.249   0.291
 3725TIP3    H211140   1.845   2.360   0.380
 3726TIP3   OH211141   3.653   5.860   3.521
 3726TIP3    H111142   3.580   5.889   3.467
 3726TIP3    H211143   3.717   5.827   3.458
 3727TIP3   OH211144   0.179   0.617   4.936
 3727TIP3    H111145   0.231   0.652   4.863
 3727TIP3    H211146   0.096   0.593   4.896
 3728TIP3   OH211147   6.696   4.268   1.440
 3728TIP3    H111148   6.618   4.316   1.412
 3728TIP3    H211149   6.737   4.325   1.505
 3729TIP3   OH211150   2.890   1.422   2.102
 3729TIP3    H111151   2.842   1.423   2.184
 3729TIP3    H211152   2.854   1.346   2.055
 3730TIP3   OH211153   0.419   2.285   3.470
 3730TIP3    H111154   0.395   2.208   3.523
 3730TIP3    H211155   0.508   2.307   3.500
 3731TIP3   OH211156   0.439   2.683   2.708
 3731TIP3    H111157   0.420   2.656   2.619
 3731TIP3    H211158   0.528   2.650   2.725
 3732TIP3   OH211159   4.185   1.607   3.441
 3732TIP3    H111160   4.091   1.620   3.431
 3732TIP3    H211161   4.205   1.648   3.525
 3733TIP3   OH211162   2.354   6.309   5.197
 3733TIP3    H111163   2.372   6.215   5.200
 3733TIP3    H211164   2.280   6.317   5.137
 3734TIP3   OH211165   2.656   2.801   4.789
 3734TIP3    H111166   2.689   2.711   4.789
 3734TIP3    H211167   2.696   2.842   4.866
 3735TIP3   OH211168   4.543   3.576   5.604
 3735TIP3    H111169   4.530   3.498   5.551
 3735TIP3    H211170   4.629   3.564   5.644
 3736TIP3   OH211171   6.111   2.687   2.558
 3736TIP3    H111172   6.132   2.775   2.528
 3736TIP3    H211173   6.015   2.683   2.556
 3737TIP3   OH211174   3.213   4.752   1.220
 3737TIP3    H111175   3.142   4.745   1.157
 3737TIP3    H211176   3.194   4.831   1.270
 3738TIP3   OH211177   4.325   4.745   5.054
 3738TIP3    H111178   4.273   4.800   5.112
 3738TIP3    H211179   4.416   4.769   5.073
 3739TIP3   OH211180   1.514   1.617   0.321
 3739TIP3    H111181   1.493   1.658   0.405
 3739TIP3    H211182   1.494   1.524   0.334
 3740TIP3   OH211183   3.145   5.746   2.353
 3740TIP3    H111184   3.072   5.706   2.401
 3740TIP3    H211185   3.135   5.840   2.369
 3741TIP3   OH211186   4.228   4.362   2.096
 3741TIP3    H111187   4.223   4.424   2.023
 3741TIP3    H211188   4.315   4.378   2.134
 3742TIP3   OH211189   6.511   5.743   4.128
 3742TIP3    H111190   6.489   5.683   4.200
 3742TIP3    H211191   6.467   5.705   4.051
 3743TIP3   OH211192   2.578   5.123   0.014
 3743TIP3    H111193   2.582   5.027   0.022
 3743TIP3    H211194   2.537   5.151   0.096
 3744TIP3   OH211195   5.625   3.445   4.308
 3744TIP3    H111196   5.681   3.447   4.231
 3744TIP3    H211197   5.558   3.512   4.291
 3745TIP3   OH211198   4.602   5.853   4.660
 3745TIP3    H111199   4.570   5.852   4.570
 3745TIP3    H211200   4.681   5.908   4.656
 3746TIP3   OH211201   6.208   6.299   2.551
 3746TIP3    H111202   6.287   6.339   2.586
 3746TIP3    H211203   6.166   6.258   2.626
 3747TIP3   OH211204   1.979   5.456   0.602
 3747TIP3    H111205   1.934   5.439   0.520
 3747TIP3    H211206   2.058   5.505   0.577
 3748TIP3   OH211207   1.608   3.535   4.373
 3748TIP3    H111208   1.529   3.542   4.320
 3748TIP3    H211209   1.649   3.621   4.369
 3749TIP3   OH211210   2.601   4.097   0.738
 3749TIP3    H111211   2.608   4.181   0.782
 3749TIP3    H211212   2.635   4.033   0.801
 3750TIP3   OH211213   4.384   4.905   0.323
 3750TIP3    H111214   4.295   4.916   0.355
 3750TIP3    H211215   4.376   4.849   0.246
 3751TIP3   OH211216   2.086   5.004   2.440
 3751TIP3    H111217   2.018   4.970   2.382
 3751TIP3    H211218   2.044   5.076   2.486
 3752TIP3   OH211219   1.725   2.009   1.057
 3752TIP3    H111220   1.709   2.056   0.975
 3752TIP3    H211221   1.768   2.072   1.114
 3753TIP3   OH211222   4.971   4.102   4.419
 3753TIP3    H111223   4.953   4.010   4.435
 3753TIP3    H211224   4.912   4.126   4.347
 3754TIP3   OH211225   5.515   2.647   5.048
 3754TIP3    H111226   5.444   2.710   5.060
 3754TIP3    H211227   5.481   2.584   4.984
 3755TIP3   OH211228   0.891   5.086   4.402
 3755TIP3    H111229   0.802   5.114   4.383
 3755TIP3    H211230   0.940   5.167   4.417
 3756TIP3   OH211231   1.974   0.895   4.888
 3756TIP3    H111232   1.946   0.810   4.855
 3756TIP3    H211233   2.069   0.888   4.897
 3757TIP3   OH211234   4.286   3.024   1.479
 3757TIP3    H111235   4.359   3.078   1.448
 3757TIP3    H211236   4.308   2.935   1.451
 3758TIP3   OH211237   6.002   2.308   2.276
 3758TIP3    H111238   6.066   2.291   2.207
 3758TIP3    H211239   5.969   2.395   2.256
 3759TIP3   OH211240   3.162   4.725   3.750
 3759TIP3    H111241   3.126   4.653   3.802
 3759TIP3    H211242   3.084   4.769   3.714
 3760TIP3   OH211243   0.897   5.023   4.974
 3760TIP3    H111244   0.941   4.939   4.961
 3760TIP3    H211245   0.925   5.052   5.060
 3761TIP3   OH211246   0.139   2.858   3.554
 3761TIP3    H111247   0.081   2.933   3.537
 3761TIP3    H211248   0.128   2.801   3.478
 3762TIP3   OH211249   1.108   3.714   5.540
 3762TIP3    H111250   1.148   3.640   5.585
 3762TIP3    H211251   1.125   3.698   5.447
 3763TIP3   OH211252   6.909   5.275   0.650
 3763TIP3    H111253   6.835   5.336   0.642
 3763TIP3    H211254   6.898   5.234   0.736
 3764TIP3   OH211255   7.173   0.701   3.130
 3764TIP3    H111256   7.109   0.675   3.064
 3764TIP3    H211257   7.124   0.704   3.212
 3765TIP3   OH211258   5.957   2.145   4.932
 3765TIP3    H111259   5.923   2.141   4.842
 3765TIP3    H211260   5.936   2.233   4.962
 3766TIP3   OH211261   5.887   1.110   0.515
 3766TIP3    H111262   5.875   1.040   0.450
 3766TIP3    H211263   5.920   1.184   0.464
 3767TIP3   OH211264   6.218   6.361   3.462
 3767TIP3    H111265   6.268   6.280   3.469
 3767TIP3    H211266   6.258   6.420   3.526
 3768TIP3   OH211267   1.374   6.199   4.382
 3768TIP3    H111268   1.443   6.232   4.440
 3768TIP3    H211269   1.300   6.182   4.440
 3769TIP3   OH211270   5.724   6.073   3.698
 3769TIP3    H111271   5.816   6.045   3.697
 3769TIP3    H211272   5.719   6.134   3.772
 3770TIP3   OH211273   1.849   0.047   2.323
 3770TIP3    H111274   1.765   0.064   2.281
 3770TIP3    H211275   1.836   0.073   2.415
 3771TIP3   OH211276   3.508   0.123   5.371
 3771TIP3    H111277   3.440   0.151   5.309
 3771TIP3    H211278   3.489   0.030   5.385
 3772TIP3   OH211279   5.204   4.311   5.828
 3772TIP3    H111280   5.200   4.261   5.746
 3772TIP3    H211281   5.202   4.244   5.897
 3773TIP3   OH211282   5.830   5.831   4.454
 3773TIP3    H111283   5.840   5.879   4.536
 3773TIP3    H211284   5.816   5.741   4.481
 3774TIP3   OH211285   4.084   1.881   1.610
 3774TIP3    H111286   4.024   1.920   1.547
 3774TIP3    H211287   4.125   1.955   1.654
 3775TIP3   OH211288   6.208   6.130   5.248
 3775TIP3    H111289   6.251   6.164   5.169
 3775TIP3    H211290   6.261   6.162   5.320
 3776TIP3   OH211291   6.107   0.078   4.365
 3776TIP3    H111292   6.201   0.095   4.379
 3776TIP3    H211293   6.068   0.086   4.452
 3777TIP3   OH211294   5.598   6.533   0.272
 3777TIP3    H111295   5.673   6.579   0.236
 3777TIP3    H211296   5.626   6.506   0.360
 3778TIP3   OH211297   1.274   5.283   2.712
 3778TIP3    H111298   1.185   5.249   2.724
 3778TIP3    H211299   1.287   5.285   2.617
 3779TIP3   OH211300   5.000   3.958   1.741
 3779TIP3    H111301   4.993   3.980   1.834
 3779TIP3    H211302   4.919   3.991   1.702
 3780TIP3   OH211303   2.769   1.841   3.151
 3780TIP3    H111304   2.758   1.770   3.215
 3780TIP3    H211305   2.680   1.858   3.120
 3781TIP3   OH211306   2.629   1.754   0.713
 3781TIP3    H111307   2.586   1.706   0.784
 3781TIP3    H211308   2.592   1.842   0.717
 3782TIP3   OH211309   0.683   3.055   4.842
 3782TIP3    H111310   0.759   3.076   4.896
 3782TIP3    H211311   0.701   3.097   4.757
 3783TIP3   OH211312   5.721   6.343   1.934
 3783TIP3    H111313   5.781   6.275   1.906
 3783TIP3    H211314   5.668   6.363   1.857
 3784TIP3   OH211315   3.369   0.301   3.093
 3784TIP3    H111316   3.378   0.321   3.000
 3784TIP3    H211317   3.391   0.208   3.100
 3785TIP3   OH211318   4.789   5.764   5.466
 3785TIP3    H111319   4.864   5.712   5.436
 3785TIP3    H211320   4.828   5.839   5.510
 3786TIP3   OH211321   4.105   6.691   4.067
 3786TIP3    H111322   4.023   6.702   4.116
 3786TIP3    H211323   4.173   6.716   4.130
 3787TIP3   OH211324   4.004   1.611   2.584
 3787TIP3    H111325   4.015   1.627   2.678
 3787TIP3    H211326   4.048   1.684   2.542
 3788TIP3   OH211327   2.806   4.969   5.457
 3788TIP3    H111328   2.884   4.973   5.512
 3788TIP3    H211329   2.814   5.046   5.400
 3789TIP3   OH211330   6.635   5.148   0.713
 3789TIP3    H111331   6.659   5.241   0.712
 3789TIP3    H211332   6.571   5.141   0.784
 3790TIP3   OH211333   1.096   4.668   0.227
 3790TIP3    H111334   1.037   4.595   0.247
 3790TIP3    H211335   1.178   4.626   0.201
 3791TIP3   OH211336   4.625   1.138   1.786
 3791TIP3    H111337   4.645   1.090   1.867
 3791TIP3    H211338   4.708   1.178   1.761
 3792TIP3   OH211339   0.883   0.051   3.056
 3792TIP3    H111340   0.976   0.036   3.044
 3792TIP3    H211341   0.877   0.134   3.103
 3793TIP3   OH211342   6.271   6.796   5.612
 3793TIP3    H111343   6.321   6.829   5.686
 3793TIP3    H211344   6.251   6.705   5.635
 3794TIP3   OH211345   0.026   2.942   0.299
 3794TIP3    H111346   0.042   3.033   0.323
 3794TIP3    H211347  -0.029   2.947   0.220
 3795TIP3   OH211348   5.719   0.454   1.368
 3795TIP3    H111349   5.727   0.513   1.293
 3795TIP3    H211350   5.798   0.400   1.365
 3796TIP3   OH211351   6.592   3.874   3.115
 3796TIP3    H111352   6.656   3.903   3.050
 3796TIP3    H211353   6.585   3.947   3.177
 3797TIP3   OH211354   5.530   5.268   2.713
 3797TIP3    H111355   5.618   5.303   2.702
 3797TIP3    H211356   5.542   5.188   2.765
 3798TIP3   OH211357   2.853   5.905   5.816
 3798TIP3    H111358   2.942   5.873   5.829
 3798TIP3    H211359   2.823   5.864   5.735
 3799TIP3   OH211360   0.730   0.987   2.019
 3799TIP3    H111361   0.772   0.997   2.104
 3799TIP3    H211362   0.739   1.072   1.977
 3800TIP3   OH211363   6.863   1.450   5.748
 3800TIP3    H111364   6.873   1.402   5.830
 3800TIP3    H211365   6.860   1.382   5.681
 3801TIP3   OH211366   6.720   2.636   1.501
 3801TIP3    H111367   6.810   2.669   1.503
 3801TIP3    H211368   6.674   2.697   1.443
 3802TIP3   OH211369   5.452   5.581   0.755
 3802TIP3    H111370   5.545   5.590   0.735
 3802TIP3    H211371   5.449   5.537   0.840
 3803TIP3   OH211372   0.858   0.550   5.267
 3803TIP3    H111373   0.941   0.503   5.275
 3803TIP3    H211374   0.881   0.633   5.226
 3804TIP3   OH211375   5.465   2.917   4.578
 3804TIP3    H111376   5.552   2.903   4.541
 3804TIP3    H211377   5.477   2.907   4.672
 3805TIP3   OH211378   3.588   0.067   5.019
 3805TIP3    H111379   3.598   0.048   4.925
 3805TIP3    H211380   3.496   0.094   5.028
 3806TIP3   OH211381   4.813   2.880   1.383
 3806TIP3    H111382   4.848   2.899   1.296
 3806TIP3    H211383   4.885   2.900   1.443
 3807TIP3   OH211384   5.477   6.634   5.179
 3807TIP3    H111385   5.472   6.646   5.274
 3807TIP3    H211386   5.511   6.717   5.146
 3808TIP3   OH211387   5.556   2.040   0.658
 3808TIP3    H111388   5.555   1.950   0.689
 3808TIP3    H211389   5.538   2.033   0.564
 3809TIP3   OH211390   5.517   0.222   3.758
 3809TIP3    H111391   5.523   0.299   3.814
 3809TIP3    H211392   5.608   0.191   3.751
 3810TIP3   OH211393   6.929   6.372   1.125
 3810TIP3    H111394   6.844   6.384   1.168
 3810TIP3    H211395   6.907   6.331   1.041
 3811TIP3   OH211396   3.068   6.579   2.906
 3811TIP3    H111397   3.010   6.511   2.941
 3811TIP3    H211398   3.103   6.542   2.825
 3812TIP3   OH211399   5.438   5.574   2.670
 3812TIP3    H111400   5.447   5.509   2.740
 3812TIP3    H211401   5.511   5.634   2.684
 3813TIP3   OH211402   6.358   5.155   5.738
 3813TIP3    H111403   6.401   5.089   5.683
 3813TIP3    H211404   6.398   5.238   5.712
 3814TIP3   OH211405   1.368   1.163   2.713
 3814TIP3    H111406   1.331   1.107   2.643
 3814TIP3    H211407   1.352   1.113   2.793
 3815TIP3   OH211408   2.051   5.686   5.195
 3815TIP3    H111409   2.137   5.728   5.192
 3815TIP3    H211410   2.061   5.616   5.260
 3816TIP3   OH211411   5.058   2.233   0.460
 3816TIP3    H111412   5.055   2.157   0.519
 3816TIP3    H211413   4.971   2.272   0.467
 3817TIP3   OH211414   1.278   3.840   3.788
 3817TIP3    H111415   1.316   3.774   3.846
 3817TIP3    H211416   1.347   3.859   3.724
 3818TIP3   OH211417   2.629   5.561   4.722
 3818TIP3    H111418   2.541   5.555   4.686
 3818TIP3    H211419   2.685   5.521   4.656
 3819TIP3   OH211420   3.964   0.753   3.819
 3819TIP3    H111421   3.935   0.686   3.758
 3819TIP3    H211422   4.019   0.706   3.882
 3820TIP3   OH211423   0.315   5.202   2.616
 3820TIP3    H111424   0.303   5.205   2.521
 3820TIP3    H211425   0.229   5.221   2.652
 3821TIP3   OH211426   7.214   6.496   2.407
 3821TIP3    H111427   7.124   6.465   2.392
 3821TIP3    H211428   7.269   6.423   2.378
 3822TIP3   OH211429   4.358   0.802   1.558
 3822TIP3    H111430   4.289   0.778   1.497
 3822TIP3    H211431   4.428   0.739   1.542
 3823TIP3   OH211432   0.026   4.770   4.988
 3823TIP3    H111433   0.059   4.713   5.058
 3823TIP3    H211434   0.087   4.845   4.988
 3824TIP3   OH211435   1.077   5.415   0.612
 3824TIP3    H111436   1.121   5.445   0.691
 3824TIP3    H211437   1.146   5.407   0.547
 3825TIP3   OH211438   2.581   2.460   3.381
 3825TIP3    H111439   2.503   2.445   3.434
 3825TIP3    H211440   2.588   2.383   3.324
 3826TIP3   OH211441   1.411   6.600   2.435
 3826TIP3    H111442   1.367   6.534   2.489
 3826TIP3    H211443   1.448   6.550   2.362
 3827TIP3   OH211444   4.851   3.197   5.666
 3827TIP3    H111445   4.890   3.283   5.654
 3827TIP3    H211446   4.765   3.204   5.625
 3828TIP3   OH211447   1.933   2.700   3.621
 3828TIP3    H111448   1.929   2.702   3.526
 3828TIP3    H211449   2.021   2.731   3.642
 3829TIP3   OH211450   1.360   0.903   4.149
 3829TIP3    H111451   1.290   0.916   4.212
 3829TIP3    H211452   1.348   0.813   4.118
 3830TIP3   OH211453   3.807   6.759   0.605
 3830TIP3    H111454   3.749   6.831   0.579
 3830TIP3    H211455   3.873   6.801   0.660
 3831TIP3   OH211456   2.450   3.702   2.529
 3831TIP3    H111457   2.536   3.729   2.562
 3831TIP3    H211458   2.456   3.607   2.520
 3832TIP3   OH211459   2.976   1.482   3.578
 3832TIP3    H111460   2.949   1.552   3.518
 3832TIP3    H211461   2.963   1.518   3.665
 3833TIP3   OH211462   4.016   1.036   4.026
 3833TIP3    H111463   4.065   0.973   4.078
 3833TIP3    H211464   3.946   1.067   4.084
 3834TIP3   OH211465   1.661   4.538   4.743
 3834TIP3    H111466   1.634   4.450   4.718
 3834TIP3    H211467   1.652   4.590   4.662
 3835TIP3   OH211468   0.831   3.752   4.711
 3835TIP3    H111469   0.809   3.845   4.704
 3835TIP3    H211470   0.869   3.744   4.799
 3836TIP3   OH211471   3.176   5.048   2.558
 3836TIP3    H111472   3.147   5.061   2.468
 3836TIP3    H211473   3.161   4.955   2.575
 3837TIP3   OH211474   3.980   2.671   1.270
 3837TIP3    H111475   3.926   2.614   1.325
 3837TIP3    H211476   3.950   2.653   1.181
 3838TIP3   OH211477   5.909   2.951   5.610
 3838TIP3    H111478   5.864   2.877   5.570
 3838TIP3    H211479   5.867   2.962   5.695
 3839TIP3   OH211480   6.078   4.337   3.633
 3839TIP3    H111481   6.149   4.307   3.577
 3839TIP3    H211482   6.048   4.419   3.594
 3840TIP3   OH211483   2.788   4.423   5.583
 3840TIP3    H111484   2.801   4.491   5.649
 3840TIP3    H211485   2.716   4.454   5.529
 3841TIP3   OH211486   0.684   6.809   4.656
 3841TIP3    H111487   0.637   6.848   4.729
 3841TIP3    H211488   0.624   6.744   4.621
 3842TIP3   OH211489   3.363   1.199   0.690
 3842TIP3    H111490   3.407   1.242   0.617
 3842TIP3    H211491   3.300   1.264   0.722
 3843TIP3   OH211492   0.390   1.684   4.322
 3843TIP3    H111493   0.464   1.661   4.266
 3843TIP3    H211494   0.429   1.712   4.404
 3844TIP3   OH211495   4.643   3.272   2.181
 3844TIP3    H111496   4.596   3.229   2.253
 3844TIP3    H211497   4.600   3.240   2.102
 3845TIP3   OH211498   1.628   1.887   2.839
 3845TIP3    H111499   1.669   1.934   2.765
 3845TIP3    H211500   1.611   1.800   2.804
 3846TIP3   OH211501   2.292   5.998   3.264
 3846TIP3    H111502   2.362   6.054   3.297
 3846TIP3    H211503   2.261   5.951   3.342
 3847TIP3   OH211504   0.266   1.870   4.819
 3847TIP3    H111505   0.347   1.917   4.843
 3847TIP3    H211506   0.198   1.938   4.822
 3848TIP3   OH211507   5.962   5.932   2.865
 3848TIP3    H111508   6.042   5.881   2.848
 3848TIP3    H211509   5.891   5.876   2.834
 3849TIP3   OH211510   5.762   1.143   3.754
 3849TIP3    H111511   5.687   1.126   3.696
 3849TIP3    H211512   5.759   1.238   3.769
 3850TIP3   OH211513   4.501   6.018   4.911
 3850TIP3    H111514   4.517   5.988   4.822
 3850TIP3    H211515   4.442   5.953   4.949
 3851TIP3   OH211516   4.117   1.250   4.718
 3851TIP3    H111517   4.145   1.284   4.633
 3851TIP3    H211518   4.196   1.213   4.756
 3852TIP3   OH211519   1.182   3.170   1.150
 3852TIP3    H111520   1.213   3.120   1.225
 3852TIP3    H211521   1.115   3.114   1.110
 3853TIP3   OH211522   1.262   2.389   0.945
 3853TIP3    H111523   1.195   2.397   0.876
 3853TIP3    H211524   1.308   2.473   0.943
 3854TIP3   OH211525   3.670   3.947   1.627
 3854TIP3    H111526   3.642   3.910   1.543
 3854TIP3    H211527   3.672   4.041   1.611
 3855TIP3   OH211528   2.361   2.532   2.474
 3855TIP3    H111529   2.400   2.599   2.531
 3855TIP3    H211530   2.317   2.472   2.535
 3856TIP3   OH211531   2.911   3.725   4.348
 3856TIP3    H111532   2.845   3.674   4.395
 3856TIP3    H211533   2.865   3.803   4.318
 3857TIP3   OH211534   5.932   4.265   1.866
 3857TIP3    H111535   5.930   4.173   1.840
 3857TIP3    H211536   5.938   4.313   1.784
 3858TIP3   OH211537   5.866   2.943   4.337
 3858TIP3    H111538   5.848   2.849   4.333
 3858TIP3    H211539   5.783   2.984   4.315
 3859TIP3   OH211540   1.777   4.895   4.476
 3859TIP3    H111541   1.749   4.983   4.454
 3859TIP3    H211542   1.849   4.876   4.415
 3860TIP3   OH211543   5.441   5.312   4.846
 3860TIP3    H111544   5.374   5.259   4.891
 3860TIP3    H211545   5.428   5.294   4.753
 3861TIP3   OH211546   1.013   6.352   4.705
 3861TIP3    H111547   0.919   6.372   4.709
 3861TIP3    H211548   1.056   6.437   4.695
 3862TIP3   OH211549   0.959   1.563   1.951
 3862TIP3    H111550   1.011   1.570   1.870
 3862TIP3    H211551   0.923   1.650   1.963
 3863TIP3   OH211552   1.210   5.446   1.581
 3863TIP3    H111553   1.260   5.373   1.545
 3863TIP3    H211554   1.140   5.461   1.518
 3864TIP3   OH211555   3.795   2.527   1.390
 3864TIP3    H111556   3.819   2.476   1.467
 3864TIP3    H211557   3.775   2.461   1.323
 3865TIP3   OH211558   0.619   2.672   4.415
 3865TIP3    H111559   0.691   2.623   4.454
 3865TIP3    H211560   0.593   2.734   4.483
 3866TIP3   OH211561   4.735   4.047   1.664
 3866TIP3    H111562   4.715   4.050   1.570
 3866TIP3    H211563   4.659   4.003   1.703
 3867TIP3   OH211564   6.463   4.420   1.348
 3867TIP3    H111565   6.435   4.507   1.378
 3867TIP3    H211566   6.382   4.376   1.323
 3868TIP3   OH211567   2.025   6.709   1.116
 3868TIP3    H111568   1.961   6.700   1.045
 3868TIP3    H211569   2.069   6.792   1.098
 3869TIP3   OH211570   4.676   3.213   3.193
 3869TIP3    H111571   4.584   3.198   3.170
 3869TIP3    H211572   4.689   3.307   3.180
 3870TIP3   OH211573   6.805   3.977   2.928
 3870TIP3    H111574   6.840   3.896   2.964
 3870TIP3    H211575   6.785   3.957   2.837
 3871TIP3   OH211576   5.144   2.672   0.198
 3871TIP3    H111577   5.110   2.748   0.246
 3871TIP3    H211578   5.207   2.631   0.258
 3872TIP3   OH211579   3.714   2.698   3.651
 3872TIP3    H111580   3.782   2.722   3.588
 3872TIP3    H211581   3.733   2.606   3.672
 3873TIP3   OH211582   2.224   0.840  -0.011
 3873TIP3    H111583   2.181   0.755  -0.023
 3873TIP3    H211584   2.232   0.849   0.084
 3874TIP3   OH211585   4.055   6.546   0.951
 3874TIP3    H111586   4.043   6.641   0.951
 3874TIP3    H211587   4.001   6.515   1.025
 3875TIP3   OH211588   1.530   2.641   1.235
 3875TIP3    H111589   1.614   2.607   1.266
 3875TIP3    H211590   1.465   2.600   1.292
 3876TIP3   OH211591   3.248   6.359   0.460
 3876TIP3    H111592   3.327   6.368   0.406
 3876TIP3    H211593   3.188   6.308   0.406
 3877TIP3   OH211594   0.758   4.560   3.549
 3877TIP3    H111595   0.726   4.642   3.586
 3877TIP3    H211596   0.747   4.496   3.620
 3878TIP3   OH211597   2.553   6.072   3.388
 3878TIP3    H111598   2.550   5.985   3.348
 3878TIP3    H211599   2.624   6.116   3.342
 3879TIP3   OH211600   4.537   2.626   3.858
 3879TIP3    H111601   4.543   2.717   3.887
 3879TIP3    H211602   4.443   2.611   3.843
 3880TIP3   OH211603   6.898   0.991   1.639
 3880TIP3    H111604   6.818   0.996   1.690
 3880TIP3    H211605   6.875   0.940   1.561
 3881TIP3   OH211606   6.484   1.162   1.193
 3881TIP3    H111607   6.542   1.102   1.146
 3881TIP3    H211608   6.449   1.110   1.265
 3882TIP3   OH211609   5.904   4.293   5.560
 3882TIP3    H111610   5.817   4.284   5.521
 3882TIP3    H211611   5.963   4.293   5.485
 3883TIP3   OH211612   1.507   0.823   5.846
 3883TIP3    H111613   1.478   0.745   5.892
 3883TIP3    H211614   1.602   0.823   5.857
 3884TIP3   OH211615   6.905   3.507   0.138
 3884TIP3    H111616   6.989   3.463   0.146
 3884TIP3    H211617   6.867   3.472   0.057
 3885TIP3   OH211618   3.285   4.137   5.532
 3885TIP3    H111619   3.266   4.118   5.440
 3885TIP3    H211620   3.213   4.194   5.560
 3886TIP3   OH211621   3.172   4.162   0.029
 3886TIP3    H111622   3.106   4.108   0.073
 3886TIP3    H211623   3.122   4.214  -0.034
 3887TIP3   OH211624   6.996   0.715   2.436
 3887TIP3    H111625   6.902   0.730   2.423
 3887TIP3    H211626   7.033   0.802   2.450
 3888TIP3   OH211627   0.376   1.454   2.758
 3888TIP3    H111628   0.433   1.391   2.802
 3888TIP3    H211629   0.391   1.439   2.664
 3889TIP3   OH211630   3.944   0.173   0.637
 3889TIP3    H111631   3.890   0.199   0.563
 3889TIP3    H211632   3.891   0.107   0.684
 3890TIP3   OH211633   3.745   3.311   2.689
 3890TIP3    H111634   3.789   3.397   2.691
 3890TIP3    H211635   3.766   3.276   2.602
 3891TIP3   OH211636   5.266   1.112   2.915
 3891TIP3    H111637   5.318   1.070   2.847
 3891TIP3    H211638   5.287   1.205   2.908
 3892TIP3   OH211639   4.511   0.373   3.472
 3892TIP3    H111640   4.542   0.395   3.560
 3892TIP3    H211641   4.576   0.311   3.438
 3893TIP3   OH211642   3.696   0.321   2.650
 3893TIP3    H111643   3.694   0.347   2.558
 3893TIP3    H211644   3.689   0.403   2.698
 3894TIP3   OH211645   5.833   1.032   1.927
 3894TIP3    H111646   5.749   0.993   1.903
 3894TIP3    H211647   5.897   0.962   1.911
 3895TIP3   OH211648   4.870   5.057   4.815
 3895TIP3    H111649   4.784   5.023   4.790
 3895TIP3    H211650   4.923   4.978   4.830
 3896TIP3   OH211651   6.769   5.163   1.777
 3896TIP3    H111652   6.773   5.258   1.787
 3896TIP3    H211653   6.728   5.131   1.857
 3897TIP3   OH211654   4.159   5.586   5.604
 3897TIP3    H111655   4.100   5.515   5.577
 3897TIP3    H211656   4.234   5.580   5.545
 3898TIP3   OH211657   5.916   0.944   2.916
 3898TIP3    H111658   5.990   0.999   2.941
 3898TIP3    H211659   5.840   0.984   2.958
 3899TIP3   OH211660   3.291   1.750   4.266
 3899TIP3    H111661   3.315   1.660   4.286
 3899TIP3    H211662   3.195   1.749   4.262
 3900TIP3   OH211663   3.917   1.866   1.882
 3900TIP3    H111664   3.872   1.936   1.836
 3900TIP3    H211665   3.902   1.788   1.828
 3901TIP3   OH211666   1.181   5.005   0.281
 3901TIP3    H111667   1.232   4.947   0.224
 3901TIP3    H211668   1.214   4.987   0.369
 3902TIP3   OH211669   5.049   6.694   4.536
 3902TIP3    H111670   4.970   6.749   4.537
 3902TIP3    H211671   5.100   6.724   4.611
 3903TIP3   OH211672   6.576   3.470   4.413
 3903TIP3    H111673   6.662   3.481   4.374
 3903TIP3    H211674   6.592   3.475   4.508
 3904TIP3   OH211675   1.277   3.494   3.844
 3904TIP3    H111676   1.342   3.471   3.777
 3904TIP3    H211677   1.324   3.555   3.902
 3905TIP3   OH211678   6.565   4.422   1.098
 3905TIP3    H111679   6.520   4.486   1.043
 3905TIP3    H211680   6.523   4.431   1.184
 3906TIP3   OH211681   2.066   2.060   3.605
 3906TIP3    H111682   2.053   1.995   3.536
 3906TIP3    H211683   1.981   2.104   3.613
 3907TIP3   OH211684   3.806   4.773   2.778
 3907TIP3    H111685   3.831   4.754   2.688
 3907TIP3    H211686   3.843   4.701   2.829
 3908TIP3   OH211687   5.160   5.809   1.509
 3908TIP3    H111688   5.154   5.770   1.596
 3908TIP3    H211689   5.140   5.902   1.523
 3909TIP3   OH211690   4.144   4.533   1.353
 3909TIP3    H111691   4.053   4.533   1.324
 3909TIP3    H211692   4.155   4.450   1.400
 3910TIP3   OH211693   4.371   3.959   4.374
 3910TIP3    H111694   4.420   3.966   4.456
 3910TIP3    H211695   4.343   4.049   4.355
 3911TIP3   OH211696   2.843   1.677   1.778
 3911TIP3    H111697   2.879   1.758   1.742
 3911TIP3    H211698   2.915   1.640   1.829
 3912TIP3   OH211699   6.257   1.128   5.157
 3912TIP3    H111700   6.216   1.051   5.197
 3912TIP3    H211701   6.209   1.202   5.193
 3913TIP3   OH211702   5.974   4.819   3.696
 3913TIP3    H111703   5.988   4.825   3.790
 3913TIP3    H211704   6.059   4.843   3.658
 3914TIP3   OH211705   6.969   1.097   0.543
 3914TIP3    H111706   7.029   1.165   0.514
 3914TIP3    H211707   6.885   1.122   0.505
 3915TIP3   OH211708   7.183   4.420   0.303
 3915TIP3    H111709   7.223   4.356   0.361
 3915TIP3    H211710   7.091   4.394   0.299
 3916TIP3   OH211711   5.141   0.939   3.348
 3916TIP3    H111712   5.052   0.951   3.381
 3916TIP3    H211713   5.130   0.906   3.259
 3917TIP3   OH211714   5.133   2.283   3.599
 3917TIP3    H111715   5.131   2.188   3.587
 3917TIP3    H211716   5.052   2.303   3.646
 3918TIP3   OH211717   3.275   1.334   0.256
 3918TIP3    H111718   3.181   1.315   0.251
 3918TIP3    H211719   3.279   1.428   0.270
 3919TIP3   OH211720   2.730   2.410   2.526
 3919TIP3    H111721   2.731   2.404   2.431
 3919TIP3    H211722   2.771   2.328   2.555
 3920TIP3   OH211723   1.706   0.111   5.109
 3920TIP3    H111724   1.628   0.156   5.140
 3920TIP3    H211725   1.779   0.167   5.137
 3921TIP3   OH211726   4.637   2.688   1.963
 3921TIP3    H111727   4.613   2.699   1.871
 3921TIP3    H211728   4.594   2.761   2.008
 3922TIP3   OH211729   1.826   3.843   0.744
 3922TIP3    H111730   1.799   3.825   0.654
 3922TIP3    H211731   1.918   3.870   0.736
 3923TIP3   OH211732   2.159   0.162   0.417
 3923TIP3    H111733   2.228   0.205   0.366
 3923TIP3    H211734   2.203   0.087   0.459
 3924TIP3   OH211735   4.281   0.255   1.041
 3924TIP3    H111736   4.281   0.350   1.052
 3924TIP3    H211737   4.205   0.225   1.090
 3925TIP3   OH211738   1.336   4.541   0.131
 3925TIP3    H111739   1.377   4.487   0.199
 3925TIP3    H211740   1.381   4.517   0.050
 3926TIP3   OH211741   3.912   2.916   1.397
 3926TIP3    H111742   3.943   2.901   1.487
 3926TIP3    H211743   3.922   2.831   1.354
 3927TIP3   OH211744   5.672   3.039   3.049
 3927TIP3    H111745   5.678   3.133   3.067
 3927TIP3    H211746   5.613   3.005   3.116
 3928TIP3   OH211747   3.047   5.095   2.221
 3928TIP3    H111748   3.127   5.050   2.197
 3928TIP3    H211749   2.984   5.072   2.152
 3929TIP3   OH211750   6.446   4.627   0.956
 3929TIP3    H111751   6.414   4.716   0.947
 3929TIP3    H211752   6.504   4.615   0.881
 3930TIP3   OH211753   6.299   4.417   4.317
 3930TIP3    H111754   6.204   4.421   4.307
 3930TIP3    H211755   6.319   4.480   4.387
 3931TIP3   OH211756   5.743   1.329   0.042
 3931TIP3    H111757   5.653   1.321   0.013
 3931TIP3    H211758   5.751   1.266   0.114
 3932TIP3   OH211759   1.986   1.067   2.619
 3932TIP3    H111760   2.067   1.036   2.579
 3932TIP3    H211761   2.014   1.129   2.686
 3933TIP3   OH211762   3.973   0.178   1.558
 3933TIP3    H111763   3.938   0.261   1.526
 3933TIP3    H211764   3.896   0.130   1.589
 3934TIP3   OH211765   3.828   1.342   2.933
 3934TIP3    H111766   3.910   1.391   2.931
 3934TIP3    H211767   3.821   1.308   3.022
 3935TIP3   OH211768   0.805   0.222   3.846
 3935TIP3    H111769   0.780   0.225   3.939
 3935TIP3    H211770   0.727   0.252   3.799
 3936TIP3   OH211771   1.715   1.361   4.525
 3936TIP3    H111772   1.713   1.287   4.464
 3936TIP3    H211773   1.709   1.321   4.611
 3937TIP3   OH211774   7.139   0.305   5.550
 3937TIP3    H111775   7.231   0.278   5.547
 3937TIP3    H211776   7.132   0.377   5.488
 3938TIP3   OH211777   2.202   4.222   3.513
 3938TIP3    H111778   2.287   4.178   3.503
 3938TIP3    H211779   2.142   4.151   3.536
 3939TIP3   OH211780   5.912   5.659   2.537
 3939TIP3    H111781   5.872   5.704   2.612
 3939TIP3    H211782   5.838   5.637   2.481
 3940TIP3   OH211783   0.790   5.601   1.962
 3940TIP3    H111784   0.753   5.572   1.879
 3940TIP3    H211785   0.870   5.648   1.938
 3941TIP3   OH211786   2.671   0.826   5.535
 3941TIP3    H111787   2.651   0.903   5.588
 3941TIP3    H211788   2.734   0.858   5.470
 3942TIP3   OH211789   5.724   2.719   2.860
 3942TIP3    H111790   5.811   2.735   2.897
 3942TIP3    H211791   5.677   2.672   2.930
 3943TIP3   OH211792   3.584   1.880   1.245
 3943TIP3    H111793   3.626   1.827   1.313
 3943TIP3    H211794   3.657   1.919   1.196
 3944TIP3   OH211795   0.236   3.139   3.682
 3944TIP3    H111796   0.298   3.147   3.610
 3944TIP3    H211797   0.212   3.230   3.703
 3945TIP3   OH211798   2.368   0.852   0.243
 3945TIP3    H111799   2.457   0.886   0.231
 3945TIP3    H211800   2.350   0.866   0.336
 3946TIP3   OH211801   2.943   0.772   1.469
 3946TIP3    H111802   2.922   0.848   1.415
 3946TIP3    H211803   2.908   0.794   1.555
 3947TIP3   OH211804   6.863   5.836   5.243
 3947TIP3    H111805   6.934   5.815   5.304
 3947TIP3    H211806   6.879   5.780   5.167
 3948TIP3   OH211807   3.646   0.196   4.128
 3948TIP3    H111808   3.681   0.108   4.117
 3948TIP3    H211809   3.552   0.187   4.111
 3949TIP3   OH211810   6.540   4.863   2.001
 3949TIP3    H111811   6.495   4.877   1.917
 3949TIP3    H211812   6.580   4.776   1.993
 3950TIP3   OH211813   5.729   4.976   2.762
 3950TIP3    H111814   5.742   5.036   2.836
 3950TIP3    H211815   5.740   5.031   2.685
 3951TIP3   OH211816   2.166   5.165   0.967
 3951TIP3    H111817   2.182   5.254   0.999
 3951TIP3    H211818   2.242   5.115   0.996
 3952TIP3   OH211819   4.335   0.283   4.465
 3952TIP3    H111820   4.400   0.217   4.439
 3952TIP3    H211821   4.262   0.270   4.403
 3953TIP3   OH211822   3.591   0.327   5.836
 3953TIP3    H111823   3.580   0.275   5.915
 3953TIP3    H211824   3.536   0.404   5.850
 3954TIP3   OH211825   3.831   4.176   3.665
 3954TIP3    H111826   3.740   4.164   3.635
 3954TIP3    H211827   3.874   4.222   3.594
 3955TIP3   OH211828   4.014   5.102   2.741
 3955TIP3    H111829   3.967   5.122   2.660
 3955TIP3    H211830   4.062   5.182   2.761
 3956TIP3   OH211831   4.759   1.790   0.097
 3956TIP3    H111832   4.707   1.710   0.093
 3956TIP3    H211833   4.849   1.759   0.106
 3957TIP3   OH211834   3.940   2.675   4.721
 3957TIP3    H111835   3.888   2.685   4.801
 3957TIP3    H211836   3.997   2.752   4.720
 3958TIP3   OH211837   6.374   4.043   5.236
 3958TIP3    H111838   6.448   4.100   5.216
 3958TIP3    H211839   6.413   3.970   5.284
 3959TIP3   OH211840   4.793   2.440   5.444
 3959TIP3    H111841   4.865   2.418   5.502
 3959TIP3    H211842   4.732   2.489   5.499
 3960TIP3   OH211843   1.364   4.647   5.513
 3960TIP3    H111844   1.291   4.676   5.460
 3960TIP3    H211845   1.400   4.572   5.466
 3961TIP3   OH211846   6.708   5.244   3.504
 3961TIP3    H111847   6.627   5.216   3.460
 3961TIP3    H211848   6.698   5.215   3.594
 3962TIP3   OH211849   2.951   6.516   4.629
 3962TIP3    H111850   2.912   6.462   4.698
 3962TIP3    H211851   3.043   6.524   4.654
 3963TIP3   OH211852   1.795   6.431   3.681
 3963TIP3    H111853   1.857   6.411   3.751
 3963TIP3    H211854   1.734   6.358   3.681
 3964TIP3   OH211855   5.517   6.760   4.264
 3964TIP3    H111856   5.426   6.782   4.245
 3964TIP3    H211857   5.539   6.814   4.341
 3965TIP3   OH211858   3.164   4.140   2.118
 3965TIP3    H111859   3.152   4.154   2.024
 3965TIP3    H211860   3.237   4.080   2.124
 3966TIP3   OH211861   5.399   1.573   5.371
 3966TIP3    H111862   5.392   1.479   5.388
 3966TIP3    H211863   5.490   1.594   5.393
 3967TIP3   OH211864   5.079   4.082   2.564
 3967TIP3    H111865   5.147   4.040   2.616
 3967TIP3    H211866   4.997   4.063   2.611
 3968TIP3   OH211867   3.172   5.367   5.288
 3968TIP3    H111868   3.191   5.422   5.212
 3968TIP3    H211869   3.250   5.311   5.297
 3969TIP3   OH211870   0.555   2.198   5.734
 3969TIP3    H111871   0.518   2.245   5.659
 3969TIP3    H211872   0.649   2.196   5.716
 3970TIP3   OH211873   1.005   0.577   3.756
 3970TIP3    H111874   0.973   0.547   3.670
 3970TIP3    H211875   0.935   0.634   3.788
 3971TIP3   OH211876   6.005   4.684   2.228
 3971TIP3    H111877   6.079   4.694   2.168
 3971TIP3    H211878   5.988   4.772   2.260
 3972TIP3   OH211879   1.641   6.586   4.560
 3972TIP3    H111880   1.639   6.682   4.565
 3972TIP3    H211881   1.570   6.558   4.617
 3973TIP3   OH211882  -0.009  -0.002   3.210
 3973TIP3    H111883   0.079   0.014   3.174
 3973TIP3    H211884  -0.008   0.041   3.295
 3974TIP3   OH211885   4.815   2.054   4.006
 3974TIP3    H111886   4.872   2.093   4.073
 3974TIP3    H211887   4.871   1.988   3.964
 3975TIP3   OH211888   0.813   1.390   2.390
 3975TIP3    H111889   0.790   1.298   2.394
 3975TIP3    H211890   0.741   1.430   2.340
 3976TIP3   OH211891   5.271   2.875   5.542
 3976TIP3    H111892   5.325   2.859   5.620
 3976TIP3    H211893   5.332   2.865   5.469
 3977TIP3   OH211894   2.668   3.754   3.536
 3977TIP3    H111895   2.618   3.835   3.528
 3977TIP3    H211896   2.680   3.741   3.630
 3978TIP3   OH211897   1.040   2.945   1.054
 3978TIP3    H111898   0.988   3.002   0.998
 3978TIP3    H211899   1.080   2.883   0.993
 3979TIP3   OH211900   4.906   0.909   1.282
 3979TIP3    H111901   4.855   0.895   1.362
 3979TIP3    H211902   4.847   0.954   1.223
 3980TIP3   OH211903   5.163   3.416   3.291
 3980TIP3    H111904   5.204   3.502   3.282
 3980TIP3    H211905   5.083   3.421   3.239
 3981TIP3   OH211906   0.644   1.014   5.623
 3981TIP3    H111907   0.617   1.106   5.617
 3981TIP3    H211908   0.733   1.018   5.659
 3982TIP3   OH211909   6.024   6.524   3.681
 3982TIP3    H111910   6.001   6.598   3.737
 3982TIP3    H211911   6.119   6.518   3.688
 3983TIP3   OH211912   0.950   1.015   3.157
 3983TIP3    H111913   0.926   0.994   3.067
 3983TIP3    H211914   0.991   0.935   3.190
 3984TIP3   OH211915   0.117   5.811   0.562
 3984TIP3    H111916   0.045   5.871   0.584
 3984TIP3    H211917   0.186   5.868   0.528
 3985TIP3   OH211918   4.021   4.827   4.635
 3985TIP3    H111919   4.051   4.851   4.722
 3985TIP3    H211920   3.953   4.891   4.614
 3986TIP3   OH211921   1.406   4.788   1.525
 3986TIP3    H111922   1.459   4.708   1.525
 3986TIP3    H211923   1.319   4.760   1.498
 3987TIP3   OH211924   5.657   4.914   5.836
 3987TIP3    H111925   5.601   4.921   5.913
 3987TIP3    H211926   5.685   5.004   5.819
 3988TIP3   OH211927   2.409   5.279   4.583
 3988TIP3    H111928   2.479   5.263   4.646
 3988TIP3    H211929   2.330   5.287   4.637
 3989TIP3   OH211930   4.133   1.691   0.229
 3989TIP3    H111931   4.041   1.665   0.216
 3989TIP3    H211932   4.132   1.740   0.311
 3990TIP3   OH211933   6.080   6.205   4.709
 3990TIP3    H111934   6.129   6.271   4.757
 3990TIP3    H211935   6.115   6.122   4.739
 3991TIP3   OH211936   4.513   5.023   0.746
 3991TIP3    H111937   4.535   5.101   0.797
 3991TIP3    H211938   4.533   4.949   0.803
 3992TIP3   OH211939   6.380   1.169   0.945
 3992TIP3    H111940   6.436   1.236   0.906
 3992TIP3    H211941   6.401   1.172   1.038
 3993TIP3   OH211942   2.211   0.718   4.127
 3993TIP3    H111943   2.226   0.641   4.181
 3993TIP3    H211944   2.251   0.697   4.043
 3994TIP3   OH211945   3.949   5.532   0.681
 3994TIP3    H111946   3.894   5.456   0.699
 3994TIP3    H211947   4.015   5.501   0.619
 3995TIP3   OH211948   1.177   1.126   2.084
 3995TIP3    H111949   1.125   1.205   2.099
 3995TIP3    H211950   1.126   1.076   2.020
 3996TIP3   OH211951   6.965   0.348   2.296
 3996TIP3    H111952   6.982   0.320   2.386
 3996TIP3    H211953   6.870   0.355   2.291
 3997TIP3   OH211954   1.337   1.193   5.437
 3997TIP3    H111955   1.404   1.156   5.380
 3997TIP3    H211956   1.380   1.202   5.522
 3998TIP3   OH211957   5.289   1.275   4.460
 3998TIP3    H111958   5.302   1.285   4.555
 3998TIP3    H211959   5.217   1.212   4.452
 3999TIP3   OH211960   5.066   3.546   4.032
 3999TIP3    H111961   5.088   3.491   3.957
 3999TIP3    H211962   5.040   3.630   3.993
 4000TIP3   OH211963   3.382   2.984   0.083
 4000TIP3    H111964   3.422   2.968  -0.003
 4000TIP3    H211965   3.417   2.916   0.139
 4001TIP3   OH211966   5.806   6.667   2.544
 4001TIP3    H111967   5.715   6.698   2.539
 4001TIP3    H211968   5.802   6.576   2.516
 4002TIP3   OH211969   0.755   0.876   0.687
 4002TIP3    H111970   0.827   0.935   0.708
 4002TIP3    H211971   0.797   0.797   0.654
 4003TIP3   OH211972   5.793   3.034   5.229
 4003TIP3    H111973   5.796   2.941   5.252
 4003TIP3    H211974   5.705   3.062   5.253
 4004TIP3   OH211975   5.194   3.603   5.630
 4004TIP3    H111976   5.278   3.568   5.599
 4004TIP3    H211977   5.198   3.696   5.606
 4005TIP3   OH211978   1.454   1.725   0.554
 4005TIP3    H111979   1.546   1.744   0.538
 4005TIP3    H211980   1.414   1.811   0.569
 4006TIP3   OH211981   4.335   4.622   5.705
 4006TIP3    H111982   4.308   4.589   5.791
 4006TIP3    H211983   4.262   4.602   5.647
 4007TIP3   OH211984   2.075   2.404   5.255
 4007TIP3    H111985   2.052   2.397   5.348
 4007TIP3    H211986   1.991   2.401   5.210
 4008TIP3   OH211987   1.341   3.649   3.312
 4008TIP3    H111988   1.395   3.689   3.244
 4008TIP3    H211989   1.313   3.721   3.368
 4009TIP3   OH211990   0.360   5.492   4.725
 4009TIP3    H111991   0.324   5.403   4.724
 4009TIP3    H211992   0.444   5.482   4.770
 4010TIP3   OH211993   3.327   3.192   2.326
 4010TIP3    H111994   3.301   3.111   2.281
 4010TIP3    H211995   3.288   3.262   2.274
 4011TIP3   OH211996   2.504   2.277   5.172
 4011TIP3    H111997   2.429   2.263   5.231
 4011TIP3    H211998   2.476   2.349   5.116
 4012TIP3   OH211999   6.436   5.768   2.389
 4012TIP3    H112000   6.356   5.716   2.391
 4012TIP3    H212001   6.507   5.704   2.378
 4013TIP3   OH212002   2.840   5.697   3.428
 4013TIP3    H112003   2.907   5.667   3.489
 4013TIP3    H212004   2.877   5.777   3.389
 4014TIP3   OH212005   0.913   1.510   4.783
 4014TIP3    H112006   0.827   1.469   4.782
 4014TIP3    H212007   0.924   1.541   4.873
 4015TIP3   OH212008   0.474   1.748   5.080
 4015TIP3    H112009   0.544   1.715   5.137
 4015TIP3    H212010   0.435   1.821   5.129
 4016TIP3   OH212011   5.454   5.120   3.179
 4016TIP3    H112012   5.401   5.161   3.247
 4016TIP3    H212013   5.427   5.028   3.180
 4017TIP3   OH212014   2.470   2.143   2.669
 4017TIP3    H112015   2.483   2.050   2.648
 4017TIP3    H212016   2.478   2.188   2.585
 4018TIP3   OH212017   1.267   0.076   1.153
 4018TIP3    H112018   1.338   0.120   1.106
 4018TIP3    H212019   1.309   0.038   1.230
 4019TIP3   OH212020   5.868   4.915   5.068
 4019TIP3    H112021   5.792   4.961   5.031
 4019TIP3    H212022   5.897   4.856   4.998
 4020TIP3   OH212023   6.742   3.644   1.390
 4020TIP3    H112024   6.783   3.705   1.452
 4020TIP3    H212025   6.810   3.626   1.325
 4021TIP3   OH212026   2.954   3.290   2.757
 4021TIP3    H112027   2.882   3.255   2.704
 4021TIP3    H212028   2.964   3.380   2.727
 4022TIP3   OH212029   4.006   0.933   2.744
 4022TIP3    H112030   3.934   0.994   2.727
 4022TIP3    H212031   4.056   0.976   2.814
 4023TIP3   OH212032   4.556   2.317   4.428
 4023TIP3    H112033   4.580   2.295   4.518
 4023TIP3    H212034   4.499   2.393   4.437
 4024TIP3   OH212035   5.877   1.872   4.451
 4024TIP3    H112036   5.932   1.805   4.491
 4024TIP3    H212037   5.929   1.908   4.380
 4025TIP3   OH212038   1.436   3.427   1.682
 4025TIP3    H112039   1.396   3.509   1.653
 4025TIP3    H212040   1.506   3.411   1.619
 4026TIP3   OH212041   6.622   0.482   3.761
 4026TIP3    H112042   6.667   0.484   3.676
 4026TIP3    H212043   6.674   0.420   3.813
 4027TIP3   OH212044   4.185   5.038   5.608
 4027TIP3    H112045   4.231   4.969   5.559
 4027TIP3    H212046   4.183   5.006   5.698
 4028TIP3   OH212047   3.280   3.277   2.904
 4028TIP3    H112048   3.283   3.362   2.949
 4028TIP3    H212049   3.291   3.213   2.974
 4029TIP3   OH212050   6.767   2.566   4.233
 4029TIP3    H112051   6.780   2.495   4.170
 4029TIP3    H212052   6.835   2.630   4.211
 4030TIP3   OH212053   1.801   2.944   0.738
 4030TIP3    H112054   1.777   2.885   0.809
 4030TIP3    H212055   1.897   2.942   0.738
 4031TIP3   OH212056   0.317   3.098   4.244
 4031TIP3    H112057   0.234   3.144   4.232
 4031TIP3    H212058   0.378   3.144   4.187
 4032TIP3   OH212059   4.836   6.573   5.464
 4032TIP3    H112060   4.782   6.569   5.385
 4032TIP3    H212061   4.790   6.635   5.522
 4033TIP3   OH212062   4.829   3.066   1.090
 4033TIP3    H112063   4.744   3.035   1.058
 4033TIP3    H212064   4.893   3.029   1.029
 4034TIP3   OH212065   3.901   2.843   3.106
 4034TIP3    H112066   3.851   2.830   3.026
 4034TIP3    H212067   3.903   2.757   3.148
 4035TIP3   OH212068   3.925   4.223   4.383
 4035TIP3    H112069   3.933   4.134   4.417
 4035TIP3    H212070   3.876   4.270   4.450
 4036TIP3   OH212071   6.256   1.886   0.256
 4036TIP3    H112072   6.168   1.849   0.257
 4036TIP3    H212073   6.289   1.868   0.168
 4037TIP3   OH212074   5.709   5.739   1.946
 4037TIP3    H112075   5.615   5.728   1.931
 4037TIP3    H212076   5.718   5.829   1.978
 4038TIP3   OH212077   1.609   4.732   3.027
 4038TIP3    H112078   1.684   4.691   3.069
 4038TIP3    H212079   1.570   4.663   2.974
 4039TIP3   OH212080   4.966   1.330   5.643
 4039TIP3    H112081   4.882   1.356   5.605
 4039TIP3    H212082   5.030   1.387   5.601
 4040TIP3   OH212083   1.138   3.739   1.996
 4040TIP3    H112084   1.188   3.666   1.959
 4040TIP3    H212085   1.056   3.739   1.946
 4041TIP3   OH212086   5.669   2.286   2.254
 4041TIP3    H112087   5.672   2.371   2.297
 4041TIP3    H212088   5.738   2.290   2.187
 4042TIP3   OH212089   4.434   0.967   0.223
 4042TIP3    H112090   4.447   0.967   0.128
 4042TIP3    H212091   4.523   0.970   0.259
 4043TIP3   OH212092   1.610   2.352   1.643
 4043TIP3    H112093   1.704   2.370   1.652
 4043TIP3    H212094   1.600   2.261   1.671
 4044TIP3   OH212095   1.603   0.451   0.796
 4044TIP3    H112096   1.584   0.427   0.706
 4044TIP3    H212097   1.519   0.479   0.832
 4045TIP3   OH212098   7.037   1.017   5.898
 4045TIP3    H112099   7.016   1.072   5.823
 4045TIP3    H212100   7.099   1.068   5.949
 4046TIP3   OH212101   0.052   2.022   5.045
 4046TIP3    H112102   0.092   1.935   5.050
 4046TIP3    H212103   0.083   2.058   4.962
 4047TIP3   OH212104   1.059   5.973   2.505
 4047TIP3    H112105   1.145   5.949   2.471
 4047TIP3    H212106   1.023   6.033   2.439
 4048TIP3   OH212107   2.569   3.379   4.234
 4048TIP3    H112108   2.629   3.316   4.273
 4048TIP3    H212109   2.493   3.327   4.209
 4049TIP3   OH212110   5.100   0.537   0.114
 4049TIP3    H112111   5.040   0.529   0.040
 4049TIP3    H212112   5.056   0.492   0.187
 4050TIP3   OH212113   6.492   4.508   3.818
 4050TIP3    H112114   6.558   4.439   3.826
 4050TIP3    H212115   6.492   4.552   3.902
 4051TIP3   OH212116   2.377   0.158   4.631
 4051TIP3    H112117   2.449   0.102   4.601
 4051TIP3    H212118   2.340   0.111   4.706
 4052TIP3   OH212119   1.831   4.249   1.652
 4052TIP3    H112120   1.801   4.220   1.738
 4052TIP3    H212121   1.924   4.265   1.663
 4053TIP3   OH212122   6.524   3.446   5.624
 4053TIP3    H112123   6.463   3.373   5.624
 4053TIP3    H212124   6.485   3.511   5.683
 4054TIP3   OH212125   0.558   2.426   1.546
 4054TIP3    H112126   0.627   2.475   1.590
 4054TIP3    H212127   0.488   2.491   1.532
 4055TIP3   OH212128   4.856   0.204   1.576
 4055TIP3    H112129   4.794   0.266   1.537
 4055TIP3    H212130   4.941   0.231   1.541
 4056TIP3   OH212131   4.290   2.483   1.520
 4056TIP3    H112132   4.199   2.454   1.509
 4056TIP3    H212133   4.341   2.402   1.517
 4057TIP3   OH212134   3.564   3.932   1.343
 4057TIP3    H112135   3.526   3.928   1.255
 4057TIP3    H212136   3.519   4.005   1.385
 4058TIP3   OH212137   5.302   5.879   4.723
 4058TIP3    H112138   5.386   5.853   4.760
 4058TIP3    H212139   5.237   5.846   4.785
 4059TIP3   OH212140   2.195   1.154   0.215
 4059TIP3    H112141   2.228   1.066   0.234
 4059TIP3    H212142   2.254   1.189   0.149
 4060TIP3   OH212143   1.081   0.378   5.296
 4060TIP3    H112144   1.101   0.350   5.385
 4060TIP3    H212145   1.122   0.312   5.240
 4061TIP3   OH212146   4.205   0.619   4.571
 4061TIP3    H112147   4.178   0.607   4.480
 4061TIP3    H212148   4.277   0.557   4.583
 4062TIP3   OH212149   2.410   4.470   3.375
 4062TIP3    H112150   2.410   4.375   3.364
 4062TIP3    H212151   2.443   4.504   3.292
 4063TIP3   OH212152   1.483   2.713   0.370
 4063TIP3    H112153   1.563   2.720   0.422
 4063TIP3    H212154   1.488   2.788   0.310
 4064TIP3   OH212155   1.987   0.898   1.357
 4064TIP3    H112156   1.933   0.951   1.415
 4064TIP3    H212157   1.930   0.878   1.283
 4065TIP3   OH212158   3.694   1.478   2.106
 4065TIP3    H112159   3.689   1.491   2.011
 4065TIP3    H212160   3.703   1.383   2.116
 4066TIP3   OH212161   0.991   3.486   5.810
 4066TIP3    H112162   1.057   3.427   5.846
 4066TIP3    H212163   0.984   3.461   5.718
 4067TIP3   OH212164   2.152   6.051   5.137
 4067TIP3    H112165   2.056   6.057   5.130
 4067TIP3    H212166   2.184   6.072   5.049
 4068TIP3   OH212167   3.049   4.607   5.144
 4068TIP3    H112168   3.039   4.700   5.128
 4068TIP3    H212169   2.960   4.576   5.161
 4069TIP3   OH212170   6.112   1.024   0.667
 4069TIP3    H112171   6.204   1.021   0.642
 4069TIP3    H212172   6.066   1.041   0.585
 4070TIP3   OH212173   5.436   6.668   5.700
 4070TIP3    H112174   5.422   6.605   5.771
 4070TIP3    H212175   5.486   6.739   5.740
 4071TIP3   OH212176   4.522   6.014   5.206
 4071TIP3    H112177   4.592   6.039   5.146
 4071TIP3    H212178   4.469   6.093   5.215
 4072TIP3   OH212179   5.319   2.888   0.793
 4072TIP3    H112180   5.406   2.880   0.753
 4072TIP3    H212181   5.286   2.972   0.760
 4073TIP3   OH212182   5.254   6.505   2.241
 4073TIP3    H112183   5.252   6.593   2.279
 4073TIP3    H212184   5.179   6.460   2.281
 4074TIP3   OH212185   3.247   0.980   4.072
 4074TIP3    H112186   3.157   1.003   4.094
 4074TIP3    H212187   3.287   1.062   4.042
 4075TIP3   OH212188   6.335   2.626   5.101
 4075TIP3    H112189   6.335   2.666   5.188
 4075TIP3    H212190   6.314   2.697   5.041
 4076TIP3   OH212191   6.565   5.165   0.327
 4076TIP3    H112192   6.541   5.139   0.416
 4076TIP3    H212193   6.537   5.256   0.319
 4077TIP3   OH212194   5.068   3.992   0.527
 4077TIP3    H112195   5.006   4.037   0.584
 4077TIP3    H212196   5.047   3.899   0.536
 4078TIP3   OH212197   2.567   1.874   4.145
 4078TIP3    H112198   2.527   1.959   4.125
 4078TIP3    H212199   2.515   1.811   4.094
 4079TIP3   OH212200   0.576   4.191   5.028
 4079TIP3    H112201   0.540   4.201   4.939
 4079TIP3    H212202   0.521   4.248   5.082
 4080TIP3   OH212203   1.414   5.263   4.254
 4080TIP3    H112204   1.479   5.281   4.187
 4080TIP3    H212205   1.418   5.168   4.267
 4081TIP3   OH212206   2.358   6.078   1.903
 4081TIP3    H112207   2.448   6.099   1.929
 4081TIP3    H212208   2.349   5.985   1.921
 4082TIP3   OH212209   0.302   4.962   4.781
 4082TIP3    H112210   0.296   4.934   4.873
 4082TIP3    H212211   0.382   4.921   4.749
 4083TIP3   OH212212   0.447   0.055   5.272
 4083TIP3    H112213   0.490   0.035   5.189
 4083TIP3    H212214   0.461   0.149   5.284
 4084TIP3   OH212215   2.769   1.968   3.525
 4084TIP3    H112216   2.731   1.917   3.596
 4084TIP3    H212217   2.701   1.970   3.457
 4085TIP3   OH212218   4.292   0.338   2.675
 4085TIP3    H112219   4.200   0.355   2.659
 4085TIP3    H212220   4.293   0.277   2.749
 4086TIP3   OH212221   0.822   3.544   3.613
 4086TIP3    H112222   0.744   3.561   3.559
 4086TIP3    H212223   0.887   3.608   3.582
 4087TIP3   OH212224   5.232   4.354   5.114
 4087TIP3    H112225   5.272   4.267   5.115
 4087TIP3    H212226   5.250   4.388   5.026
 4088TIP3   OH212227   0.835   0.120   4.668
 4088TIP3    H112228   0.823   0.193   4.729
 4088TIP3    H212229   0.768   0.057   4.693
 4089TIP3   OH212230   2.015   1.825   0.416
 4089TIP3    H112231   1.979   1.849   0.502
 4089TIP3    H212232   2.106   1.857   0.418
 4090TIP3   OH212233   6.487   0.005   0.966
 4090TIP3    H112234   6.555   0.045   1.020
 4090TIP3    H212235   6.427   0.077   0.946
 4091TIP3   OH212236   0.111   6.428   3.507
 4091TIP3    H112237   0.175   6.393   3.569
 4091TIP3    H212238   0.160   6.439   3.426
 4092TIP3   OH212239   5.109   1.490   2.402
 4092TIP3    H112240   5.042   1.442   2.450
 4092TIP3    H212241   5.191   1.467   2.445
 4093TIP3   OH212242   0.500   5.373   3.009
 4093TIP3    H112243   0.447   5.308   3.055
 4093TIP3    H212244   0.582   5.376   3.059
 4094TIP3   OH212245   4.789   5.401   0.657
 4094TIP3    H112246   4.829   5.315   0.668
 4094TIP3    H212247   4.807   5.446   0.739
 4095TIP3   OH212248   1.615   4.262   0.228
 4095TIP3    H112249   1.659   4.190   0.182
 4095TIP3    H212250   1.522   4.250   0.208
 4096TIP3   OH212251   4.658   6.477   0.959
 4096TIP3    H112252   4.605   6.492   0.881
 4096TIP3    H212253   4.730   6.540   0.952
 4097TIP3   OH212254   1.880   1.056   0.454
 4097TIP3    H112255   1.905   1.137   0.409
 4097TIP3    H212256   1.963   1.013   0.475
 4098TIP3   OH212257   4.784   5.692   3.152
 4098TIP3    H112258   4.746   5.613   3.113
 4098TIP3    H212259   4.815   5.664   3.238
 4099TIP3   OH212260   2.045   2.073   5.233
 4099TIP3    H112261   2.030   1.990   5.188
 4099TIP3    H212262   2.050   2.049   5.325
 4100TIP3   OH212263   2.904   3.852   1.371
 4100TIP3    H112264   2.970   3.921   1.359
 4100TIP3    H212265   2.859   3.876   1.452
 4101TIP3   OH212266   0.903   5.083   2.385
 4101TIP3    H112267   0.878   5.079   2.293
 4101TIP3    H212268   0.854   5.157   2.420
 4102TIP3   OH212269   2.221   5.356   1.184
 4102TIP3    H112270   2.301   5.392   1.222
 4102TIP3    H212271   2.160   5.430   1.183
 4103TIP3   OH212272   4.036   0.801   5.379
 4103TIP3    H112273   4.039   0.867   5.309
 4103TIP3    H212274   3.947   0.808   5.414
 4104TIP3   OH212275   0.850   1.100   4.267
 4104TIP3    H112276   0.907   1.175   4.252
 4104TIP3    H212277   0.840   1.097   4.362
 4105TIP3   OH212278   6.019   6.087   3.515
 4105TIP3    H112279   5.995   6.132   3.434
 4105TIP3    H212280   6.115   6.080   3.510
 4106TIP3   OH212281   6.051   0.579   0.359
 4106TIP3    H112282   6.112   0.557   0.429
 4106TIP3    H212283   6.085   0.535   0.281
 4107TIP3   OH212284   6.295   6.551   5.000
 4107TIP3    H112285   6.390   6.559   5.003
 4107TIP3    H212286   6.269   6.538   5.091
 4108TIP3   OH212287   7.204   3.144   4.481
 4108TIP3    H112288   7.183   3.083   4.411
 4108TIP3    H212289   7.205   3.230   4.439
 4109TIP3   OH212290   5.193   1.869   1.866
 4109TIP3    H112291   5.201   1.777   1.840
 4109TIP3    H212292   5.100   1.882   1.882
 4110TIP3   OH212293   0.384   0.548   5.536
 4110TIP3    H112294   0.473   0.585   5.538
 4110TIP3    H212295   0.387   0.475   5.598
 4111TIP3   OH212296   2.308   2.523   1.586
 4111TIP3    H112297   2.230   2.550   1.538
 4111TIP3    H212298   2.275   2.484   1.667
 4112TIP3   OH212299   3.916   1.448   2.341
 4112TIP3    H112300   3.854   1.489   2.281
 4112TIP3    H212301   3.936   1.516   2.405
 4113TIP3   OH212302   0.397   0.625   3.579
 4113TIP3    H112303   0.326   0.564   3.555
 4113TIP3    H212304   0.462   0.612   3.510
 4114TIP3   OH212305   1.792   2.415   4.670
 4114TIP3    H112306   1.860   2.397   4.604
 4114TIP3    H212307   1.830   2.483   4.725
 4115TIP3   OH212308   0.469   2.629   0.634
 4115TIP3    H112309   0.397   2.654   0.691
 4115TIP3    H212310   0.544   2.677   0.668
 4116TIP3   OH212311   1.216   5.927   0.851
 4116TIP3    H112312   1.214   5.989   0.923
 4116TIP3    H212313   1.292   5.871   0.868
 4117TIP3   OH212314   1.707   2.975   5.369
 4117TIP3    H112315   1.751   2.896   5.400
 4117TIP3    H212316   1.718   3.038   5.440
 4118TIP3   OH212317   5.676   6.492   3.138
 4118TIP3    H112318   5.621   6.508   3.061
 4118TIP3    H212319   5.754   6.449   3.102
 4119TIP3   OH212320   3.096   2.818   5.367
 4119TIP3    H112321   3.103   2.766   5.447
 4119TIP3    H212322   3.173   2.876   5.369
 4120TIP3   OH212323   1.018   1.103   3.914
 4120TIP3    H112324   1.024   1.070   3.824
 4120TIP3    H212325   0.998   1.027   3.967
 4121TIP3   OH212326   3.320   0.786   1.033
 4121TIP3    H112327   3.286   0.784   0.944
 4121TIP3    H212328   3.405   0.743   1.029
 4122TIP3   OH212329   1.508   5.568   1.974
 4122TIP3    H112330   1.481   5.659   1.991
 4122TIP3    H212331   1.515   5.528   2.061
 4123TIP3   OH212332   0.933   1.359   1.764
 4123TIP3    H112333   0.865   1.415   1.727
 4123TIP3    H212334   0.955   1.401   1.848
 4124TIP3   OH212335   1.706   1.437   1.791
 4124TIP3    H112336   1.634   1.421   1.851
 4124TIP3    H212337   1.687   1.383   1.715
 4125TIP3   OH212338   6.933   1.832   3.983
 4125TIP3    H112339   6.958   1.742   3.999
 4125TIP3    H212340   7.015   1.880   3.978
 4126TIP3   OH212341   3.749   5.390   0.244
 4126TIP3    H112342   3.733   5.304   0.204
 4126TIP3    H212343   3.744   5.452   0.171
 4127TIP3   OH212344   6.524   6.354   3.201
 4127TIP3    H112345   6.515   6.261   3.224
 4127TIP3    H212346   6.596   6.356   3.137
 4128TIP3   OH212347   2.892   0.897   5.373
 4128TIP3    H112348   2.971   0.948   5.393
 4128TIP3    H212349   2.924   0.823   5.322
 4129TIP3   OH212350   2.508   5.514   3.233
 4129TIP3    H112351   2.598   5.483   3.235
 4129TIP3    H212352   2.488   5.536   3.324
 4130TIP3   OH212353   5.778   4.344   4.638
 4130TIP3    H112354   5.865   4.381   4.630
 4130TIP3    H212355   5.726   4.390   4.572
 4131TIP3   OH212356   2.379   6.471   2.199
 4131TIP3    H112357   2.311   6.410   2.170
 4131TIP3    H212358   2.342   6.511   2.278
 4132TIP3   OH212359   1.130   3.281   4.227
 4132TIP3    H112360   1.195   3.244   4.167
 4132TIP3    H212361   1.068   3.327   4.169
 4133TIP3   OH212362   3.394   4.421   1.139
 4133TIP3    H112363   3.450   4.356   1.097
 4133TIP3    H212364   3.393   4.495   1.077
 4134TIP3   OH212365   0.786   1.067   5.338
 4134TIP3    H112366   0.878   1.089   5.350
 4134TIP3    H212367   0.741   1.113   5.409
 4135TIP3   OH212368   1.568   6.481   4.280
 4135TIP3    H112369   1.490   6.427   4.265
 4135TIP3    H212370   1.641   6.420   4.268
 4136TIP3   OH212371   6.209   0.541   4.317
 4136TIP3    H112372   6.232   0.580   4.401
 4136TIP3    H212373   6.148   0.470   4.339
 4137TIP3   OH212374   0.236   6.259   2.334
 4137TIP3    H112375   0.298   6.209   2.280
 4137TIP3    H212376   0.150   6.229   2.304
 4138TIP3   OH212377   6.816   2.233   5.733
 4138TIP3    H112378   6.743   2.187   5.692
 4138TIP3    H212379   6.792   2.237   5.826
 4139TIP3   OH212380   2.758   1.049   0.454
 4139TIP3    H112381   2.806   0.976   0.494
 4139TIP3    H212382   2.713   1.010   0.379
 4140TIP3   OH212383   1.313   5.853   2.509
 4140TIP3    H112384   1.390   5.807   2.475
 4140TIP3    H212385   1.281   5.797   2.580
 4141TIP3   OH212386   2.819   6.259   4.742
 4141TIP3    H112387   2.740   6.266   4.795
 4141TIP3    H212388   2.800   6.190   4.679
 4142TIP3   OH212389   3.371   2.115   2.149
 4142TIP3    H112390   3.454   2.143   2.188
 4142TIP3    H212391   3.317   2.194   2.147
 4143TIP3   OH212392   5.722   0.511   4.223
 4143TIP3    H112393   5.690   0.576   4.161
 4143TIP3    H212394   5.765   0.445   4.169
 4144TIP3   OH212395   4.620   4.910   4.020
 4144TIP3    H112396   4.674   4.923   4.097
 4144TIP3    H212397   4.647   4.824   3.987
 4145TIP3   OH212398   3.400   0.337   1.200
 4145TIP3    H112399   3.436   0.252   1.225
 4145TIP3    H212400   3.344   0.361   1.274
 4146TIP3   OH212401   6.152   2.507   4.767
 4146TIP3    H112402   6.153   2.445   4.694
 4146TIP3    H212403   6.158   2.453   4.845
 4147TIP3   OH212404   4.149   1.930   4.111
 4147TIP3    H112405   4.094   1.887   4.046
 4147TIP3    H212406   4.184   1.858   4.164
 4148TIP3   OH212407   2.956   1.461   0.910
 4148TIP3    H112408   2.986   1.529   0.850
 4148TIP3    H212409   2.861   1.464   0.905
 4149TIP3   OH212410   4.467   3.622   3.837
 4149TIP3    H112411   4.427   3.702   3.801
 4149TIP3    H212412   4.528   3.594   3.768
 4150TIP3   OH212413   1.079   4.764   5.385
 4150TIP3    H112414   1.117   4.696   5.328
 4150TIP3    H212415   1.020   4.716   5.443
 4151TIP3   OH212416   2.257   0.925   1.175
 4151TIP3    H112417   2.312   0.851   1.203
 4151TIP3    H212418   2.193   0.934   1.246
 4152TIP3   OH212419   5.032   4.896   0.076
 4152TIP3    H112420   4.966   4.945   0.027
 4152TIP3    H212421   5.092   4.863   0.009
 4153TIP3   OH212422   3.071   0.315   0.470
 4153TIP3    H112423   3.131   0.267   0.413
 4153TIP3    H212424   3.127   0.358   0.534
 4154TIP3   OH212425   3.023   1.826   5.302
 4154TIP3    H112426   3.077   1.899   5.333
 4154TIP3    H212427   2.950   1.869   5.256
 4155TIP3   OH212428   2.948   2.182   0.692
 4155TIP3    H112429   2.938   2.087   0.689
 4155TIP3    H212430   2.919   2.212   0.606
 4156TIP3   OH212431   4.265   2.644   3.860
 4156TIP3    H112432   4.291   2.617   3.948
 4156TIP3    H212433   4.189   2.701   3.874
 4157TIP3   OH212434   5.115   4.403   1.237
 4157TIP3    H112435   5.202   4.438   1.223
 4157TIP3    H212436   5.064   4.433   1.162
 4158TIP3   OH212437   1.570   4.998   2.466
 4158TIP3    H112438   1.541   4.957   2.547
 4158TIP3    H212439   1.596   4.924   2.410
 4159TIP3   OH212440   2.843   2.890   1.732
 4159TIP3    H112441   2.932   2.920   1.750
 4159TIP3    H212442   2.855   2.816   1.672
 4160TIP3   OH212443   2.983   6.700   1.404
 4160TIP3    H112444   2.976   6.687   1.499
 4160TIP3    H212445   3.077   6.690   1.386
 4161TIP3   OH212446   6.951   5.890   4.220
 4161TIP3    H112447   6.996   5.885   4.136
 4161TIP3    H212448   6.858   5.887   4.198
 4162TIP3   OH212449   5.003   2.594   1.147
 4162TIP3    H112450   4.997   2.510   1.102
 4162TIP3    H212451   4.919   2.636   1.131
 4163TIP3   OH212452   7.150   6.196   0.293
 4163TIP3    H112453   7.072   6.228   0.247
 4163TIP3    H212454   7.192   6.275   0.327
 4164TIP3   OH212455   2.944   2.041   1.388
 4164TIP3    H112456   2.896   2.121   1.406
 4164TIP3    H212457   2.974   2.050   1.297
 4165TIP3   OH212458   3.258   4.401   2.769
 4165TIP3    H112459   3.268   4.337   2.839
 4165TIP3    H212460   3.325   4.378   2.704
 4166TIP3   OH212461   5.442   5.667   1.895
 4166TIP3    H112462   5.407   5.665   1.984
 4166TIP3    H212463   5.465   5.576   1.876
 4167TIP3   OH212464   1.683   4.935   5.862
 4167TIP3    H112465   1.720   4.874   5.798
 4167TIP3    H212466   1.753   4.950   5.925
 4168TIP3   OH212467   2.608   0.550   2.986
 4168TIP3    H112468   2.688   0.502   3.008
 4168TIP3    H212469   2.626   0.586   2.899
 4169TIP3   OH212470   5.781   0.623   0.288
 4169TIP3    H112471   5.729   0.560   0.237
 4169TIP3    H212472   5.867   0.583   0.294
 4170TIP3   OH212473   2.006   5.775   0.923
 4170TIP3    H112474   2.012   5.689   0.964
 4170TIP3    H212475   1.939   5.765   0.856
 4171TIP3   OH212476   3.435   4.920   3.272
 4171TIP3    H112477   3.354   4.877   3.243
 4171TIP3    H212478   3.485   4.850   3.314
 4172TIP3   OH212479   6.698   1.583   1.082
 4172TIP3    H112480   6.763   1.554   1.147
 4172TIP3    H212481   6.614   1.551   1.116
 4173TIP3   OH212482   6.683  -0.012   4.335
 4173TIP3    H112483   6.680   0.070   4.384
 4173TIP3    H212484   6.752   0.002   4.269
 4174TIP3   OH212485   4.049   1.377   4.468
 4174TIP3    H112486   4.042   1.462   4.424
 4174TIP3    H212487   4.048   1.313   4.397
 4175TIP3   OH212488   2.761   5.778   2.802
 4175TIP3    H112489   2.674   5.761   2.839
 4175TIP3    H212490   2.756   5.742   2.713
 4176TIP3   OH212491   5.558   1.231   0.937
 4176TIP3    H112492   5.536   1.300   0.874
 4176TIP3    H212493   5.523   1.151   0.898
 4177TIP3   OH212494   6.303   6.673   2.835
 4177TIP3    H112495   6.325   6.580   2.846
 4177TIP3    H212496   6.362   6.702   2.764
 4178TIP3   OH212497   6.291   5.447   3.663
 4178TIP3    H112498   6.285   5.542   3.666
 4178TIP3    H212499   6.297   5.427   3.569
 4179TIP3   OH212500   0.652   4.340   2.177
 4179TIP3    H112501   0.724   4.318   2.236
 4179TIP3    H212502   0.630   4.431   2.199
 4180TIP3   OH212503   0.129   3.862   1.087
 4180TIP3    H112504   0.179   3.877   1.006
 4180TIP3    H212505   0.145   3.941   1.139
 4181TIP3   OH212506   1.394   2.269   0.102
 4181TIP3    H112507   1.422   2.199   0.043
 4181TIP3    H212508   1.307   2.294   0.070
 4182TIP3   OH212509   6.906   4.414   2.078
 4182TIP3    H112510   6.922   4.509   2.072
 4182TIP3    H212511   6.968   4.375   2.016
 4183TIP3   OH212512   0.646   1.598   5.341
 4183TIP3    H112513   0.715   1.598   5.407
 4183TIP3    H212514   0.568   1.626   5.389
 4184TIP3   OH212515   6.277   3.970   3.077
 4184TIP3    H112516   6.206   4.033   3.069
 4184TIP3    H212517   6.332   3.985   3.000
 4185TIP3   OH212518   6.126   4.078   4.136
 4185TIP3    H112519   6.032   4.058   4.141
 4185TIP3    H212520   6.139   4.148   4.201
 4186TIP3   OH212521   0.099   5.233   0.633
 4186TIP3    H112522   0.183   5.249   0.676
 4186TIP3    H212523   0.037   5.290   0.678
 4187TIP3   OH212524   0.495   3.817   2.506
 4187TIP3    H112525   0.477   3.828   2.599
 4187TIP3    H212526   0.561   3.748   2.502
 4188TIP3   OH212527   0.075   5.227   3.613
 4188TIP3    H112528   0.044   5.306   3.568
 4188TIP3    H212529  -0.003   5.172   3.621
 4189TIP3   OH212530   3.525   4.918   1.755
 4189TIP3    H112531   3.594   4.864   1.717
 4189TIP3    H212532   3.461   4.929   1.685
 4190TIP3   OH212533   0.636   3.769   4.299
 4190TIP3    H112534   0.658   3.741   4.210
 4190TIP3    H212535   0.573   3.840   4.287
 4191TIP3   OH212536   3.245   2.938   1.095
 4191TIP3    H112537   3.270   2.962   1.184
 4191TIP3    H212538   3.218   3.021   1.055
 4192TIP3   OH212539   3.586   5.339   1.804
 4192TIP3    H112540   3.642   5.415   1.819
 4192TIP3    H212541   3.531   5.334   1.882
 4193TIP3   OH212542   6.037   6.076   0.079
 4193TIP3    H112543   6.045   6.040  -0.010
 4193TIP3    H212544   6.126   6.101   0.102
 4194TIP3   OH212545   0.178   2.531   3.535
 4194TIP3    H112546   0.138   2.523   3.448
 4194TIP3    H212547   0.255   2.474   3.531
 4195TIP3   OH212548   0.720   4.986   3.594
 4195TIP3    H112549   0.657   5.001   3.664
 4195TIP3    H212550   0.689   4.906   3.550
 4196TIP3   OH212551   1.084   1.326   2.866
 4196TIP3    H112552   1.151   1.303   2.931
 4196TIP3    H212553   1.086   1.421   2.862
 4197TIP3   OH212554   4.799   2.796   3.514
 4197TIP3    H112555   4.751   2.866   3.558
 4197TIP3    H212556   4.889   2.828   3.508
 4198TIP3   OH212557   5.732   4.232   4.046
 4198TIP3    H112558   5.774   4.211   3.963
 4198TIP3    H212559   5.641   4.203   4.034
 4199TIP3   OH212560   3.830   6.340   0.536
 4199TIP3    H112561   3.894   6.278   0.502
 4199TIP3    H212562   3.830   6.326   0.630
 4200TIP3   OH212563   2.354   3.140   1.349
 4200TIP3    H112564   2.334   3.221   1.396
 4200TIP3    H212565   2.334   3.070   1.412
 4201TIP3   OH212566   6.637   3.138   5.668
 4201TIP3    H112567   6.610   3.089   5.746
 4201TIP3    H212568   6.707   3.196   5.699
 4202TIP3   OH212569   7.051   0.325   4.560
 4202TIP3    H112570   7.058   0.420   4.563
 4202TIP3    H212571   6.988   0.303   4.628
 4203TIP3   OH212572   5.251   2.867   1.745
 4203TIP3    H112573   5.208   2.864   1.830
 4203TIP3    H212574   5.184   2.835   1.684
 4204TIP3   OH212575   7.045   5.027   4.199
 4204TIP3    H112576   7.115   5.082   4.164
 4204TIP3    H212577   6.987   5.087   4.245
 4205TIP3   OH212578   0.734   1.039   1.018
 4205TIP3    H112579   0.766   1.083   0.939
 4205TIP3    H212580   0.800   0.971   1.035
 4206TIP3   OH212581   2.714   1.925   5.462
 4206TIP3    H112582   2.785   1.989   5.456
 4206TIP3    H212583   2.664   1.938   5.381
 4207TIP3   OH212584   6.164   0.226   0.533
 4207TIP3    H112585   6.239   0.247   0.477
 4207TIP3    H212586   6.100   0.187   0.474
 4208TIP3   OH212587   1.419   6.632   5.519
 4208TIP3    H112588   1.444   6.671   5.602
 4208TIP3    H212589   1.493   6.650   5.461
 4209TIP3   OH212590   4.597   4.899   4.496
 4209TIP3    H112591   4.675   4.865   4.540
 4209TIP3    H212592   4.588   4.989   4.528
 4210TIP3   OH212593   3.848   3.127   4.104
 4210TIP3    H112594   3.784   3.062   4.076
 4210TIP3    H212595   3.805   3.211   4.091
 4211TIP3   OH212596   5.228   2.532   5.136
 4211TIP3    H112597   5.220   2.550   5.229
 4211TIP3    H212598   5.269   2.445   5.132
 4212TIP3   OH212599   3.554   4.557   2.234
 4212TIP3    H112600   3.621   4.540   2.168
 4212TIP3    H212601   3.542   4.652   2.232
 4213TIP3   OH212602   3.519   2.393   4.298
 4213TIP3    H112603   3.433   2.414   4.335
 4213TIP3    H212604   3.558   2.332   4.360
 4214TIP3   OH212605   3.937   0.759   5.741
 4214TIP3    H112606   3.987   0.700   5.685
 4214TIP3    H212607   3.848   0.755   5.706
 4215TIP3   OH212608   6.857   6.296   5.514
 4215TIP3    H112609   6.934   6.258   5.557
 4215TIP3    H212610   6.890   6.375   5.471
 4216TIP3   OH212611   1.972   5.514   2.641
 4216TIP3    H112612   2.052   5.567   2.640
 4216TIP3    H212613   1.905   5.572   2.606
 4217TIP3   OH212614   2.735   4.941   2.567
 4217TIP3    H112615   2.759   5.003   2.636
 4217TIP3    H212616   2.771   4.858   2.597
 4218TIP3   OH212617   0.096   0.390   4.436
 4218TIP3    H112618   0.052   0.450   4.375
 4218TIP3    H212619   0.025   0.355   4.490
 4219TIP3   OH212620   5.851   6.444   3.499
 4219TIP3    H112621   5.773   6.497   3.513
 4219TIP3    H212622   5.902   6.455   3.579
 4220TIP3   OH212623   1.037   5.873   1.721
 4220TIP3    H112624   1.116   5.826   1.695
 4220TIP3    H212625   1.060   5.965   1.714
 4221TIP3   OH212626   0.965   1.338   4.164
 4221TIP3    H112627   0.926   1.401   4.225
 4221TIP3    H212628   0.914   1.347   4.084
 4222TIP3   OH212629   6.287   1.173   2.649
 4222TIP3    H112630   6.225   1.237   2.615
 4222TIP3    H212631   6.247   1.088   2.631
 4223TIP3   OH212632   5.382   6.218   5.375
 4223TIP3    H112633   5.469   6.225   5.416
 4223TIP3    H212634   5.390   6.143   5.315
 4224TIP3   OH212635   0.539   5.919   0.518
 4224TIP3    H112636   0.518   5.886   0.431
 4224TIP3    H212637   0.469   5.982   0.537
 4225TIP3   OH212638   3.180   3.158   5.449
 4225TIP3    H112639   3.233   3.212   5.390
 4225TIP3    H212640   3.218   3.070   5.441
 4226TIP3   OH212641   3.877   5.328   4.744
 4226TIP3    H112642   3.884   5.348   4.837
 4226TIP3    H212643   3.869   5.413   4.701
 4227TIP3   OH212644   1.468   6.035   0.441
 4227TIP3    H112645   1.539   6.000   0.387
 4227TIP3    H212646   1.460   6.127   0.414
 4228TIP3   OH212647   1.149   4.288   1.634
 4228TIP3    H112648   1.121   4.282   1.725
 4228TIP3    H212649   1.234   4.330   1.637
 4229TIP3   OH212650   3.305   6.412   0.912
 4229TIP3    H112651   3.250   6.333   0.915
 4229TIP3    H212652   3.322   6.425   0.819
 4230TIP3   OH212653   2.783   5.425   1.021
 4230TIP3    H112654   2.707   5.456   1.071
 4230TIP3    H212655   2.787   5.484   0.945
 4231TIP3   OH212656   6.353   1.009   3.009
 4231TIP3    H112657   6.400   1.028   3.090
 4231TIP3    H212658   6.415   1.029   2.939
 4232TIP3   OH212659   0.792   4.520   5.632
 4232TIP3    H112660   0.879   4.536   5.668
 4232TIP3    H212661   0.744   4.477   5.703
 4233TIP3   OH212662   2.326   3.192   4.255
 4233TIP3    H112663   2.373   3.117   4.293
 4233TIP3    H212664   2.306   3.164   4.166
 4234TIP3   OH212665   5.249   5.933   3.490
 4234TIP3    H112666   5.330   5.901   3.449
 4234TIP3    H212667   5.279   5.987   3.563
 4235TIP3   OH212668   4.490   3.653   4.113
 4235TIP3    H112669   4.520   3.744   4.107
 4235TIP3    H212670   4.439   3.639   4.034
 4236TIP3   OH212671   4.290   5.438   1.886
 4236TIP3    H112672   4.305   5.408   1.797
 4236TIP3    H212673   4.313   5.531   1.884
 4237TIP3   OH212674   6.229   3.550   2.677
 4237TIP3    H112675   6.202   3.458   2.687
 4237TIP3    H212676   6.248   3.579   2.766
 4238TIP3   OH212677   6.484   5.710   0.223
 4238TIP3    H112678   6.435   5.628   0.215
 4238TIP3    H212679   6.416   5.777   0.237
 4239TIP3   OH212680   0.918   2.635   2.582
 4239TIP3    H112681   0.926   2.545   2.613
 4239TIP3    H212682   0.950   2.632   2.492
 4240TIP3   OH212683   0.806   1.415   3.525
 4240TIP3    H112684   0.779   1.339   3.576
 4240TIP3    H212685   0.899   1.425   3.545
 4241TIP3   OH212686   6.670   5.941   4.021
 4241TIP3    H112687   6.750   5.899   3.989
 4241TIP3    H212688   6.618   5.869   4.057
 4242TIP3   OH212689   3.964   3.633   5.832
 4242TIP3    H112690   3.893   3.583   5.873
 4242TIP3    H212691   3.998   3.688   5.903
 4243TIP3   OH212692   3.627   1.088   0.715
 4243TIP3    H112693   3.670   1.168   0.744
 4243TIP3    H212694   3.533   1.106   0.724
 4244TIP3   OH212695   4.511   4.408   2.717
 4244TIP3    H112696   4.542   4.420   2.806
 4244TIP3    H212697   4.462   4.488   2.698
 4245TIP3   OH212698   6.484   3.475   4.159
 4245TIP3    H112699   6.519   3.473   4.247
 4245TIP3    H212700   6.416   3.408   4.158
 4246TIP3   OH212701   3.198   5.752   4.070
 4246TIP3    H112702   3.126   5.689   4.077
 4246TIP3    H212703   3.277   5.701   4.090
 4247TIP3   OH212704   3.207   0.554   3.732
 4247TIP3    H112705   3.198   0.463   3.760
 4247TIP3    H212706   3.117   0.588   3.732
 4248TIP3   OH212707   3.943   5.383   1.184
 4248TIP3    H112708   3.944   5.289   1.168
 4248TIP3    H212709   3.967   5.422   1.100
 4249TIP3   OH212710   5.414   2.263   0.786
 4249TIP3    H112711   5.456   2.186   0.748
 4249TIP3    H212712   5.486   2.323   0.803
 4250TIP3   OH212713   0.942   2.386   1.470
 4250TIP3    H112714   0.939   2.390   1.375
 4250TIP3    H212715   0.914   2.473   1.499
 4251TIP3   OH212716   5.853   2.366   3.401
 4251TIP3    H112717   5.926   2.315   3.435
 4251TIP3    H212718   5.885   2.402   3.319
 4252TIP3   OH212719   4.905   4.334   2.484
 4252TIP3    H112720   4.849   4.308   2.411
 4252TIP3    H212721   4.884   4.272   2.554
 4253TIP3   OH212722   0.319   4.340   1.826
 4253TIP3    H112723   0.414   4.349   1.839
 4253TIP3    H212724   0.293   4.275   1.891
 4254TIP3   OH212725   0.105   1.294   4.425
 4254TIP3    H112726   0.136   1.230   4.360
 4254TIP3    H212727   0.010   1.295   4.415
 4255TIP3   OH212728   4.273   5.189   4.336
 4255TIP3    H112729   4.181   5.167   4.320
 4255TIP3    H212730   4.293   5.149   4.421
 4256TIP3   OH212731   2.650   4.414   0.080
 4256TIP3    H112732   2.710   4.373   0.142
 4256TIP3    H212733   2.572   4.358   0.081
 4257TIP3   OH212734   4.383   3.543   1.960
 4257TIP3    H112735   4.302   3.591   1.976
 4257TIP3    H212736   4.418   3.579   1.879
 4258TIP3   OH212737   3.229   0.971   0.610
 4258TIP3    H112738   3.268   1.047   0.652
 4258TIP3    H212739   3.230   0.991   0.517
 4259TIP3   OH212740   4.309   2.684   0.952
 4259TIP3    H112741   4.313   2.780   0.953
 4259TIP3    H212742   4.322   2.661   0.860
 4260TIP3   OH212743   1.485   0.225   2.622
 4260TIP3    H112744   1.434   0.286   2.675
 4260TIP3    H212745   1.452   0.236   2.533
 4261TIP3   OH212746   4.926   5.963   5.604
 4261TIP3    H112747   5.016   5.938   5.626
 4261TIP3    H212748   4.931   6.055   5.580
 4262TIP3   OH212749   1.311   5.321   2.010
 4262TIP3    H112750   1.392   5.300   1.964
 4262TIP3    H212751   1.340   5.349   2.097
 4263TIP3   OH212752   2.025   0.707   1.035
 4263TIP3    H112753   2.076   0.639   1.079
 4263TIP3    H212754   1.948   0.662   1.001
 4264TIP3   OH212755   6.929   2.295   0.135
 4264TIP3    H112756   6.879   2.272   0.213
 4264TIP3    H212757   6.965   2.212   0.105
 4265TIP3   OH212758   2.368   2.102   4.729
 4265TIP3    H112759   2.289   2.139   4.770
 4265TIP3    H212760   2.344   2.011   4.709
 4266TIP3   OH212761   4.900   2.077   1.433
 4266TIP3    H112762   4.930   2.152   1.484
 4266TIP3    H212763   4.945   2.002   1.473
 4267TIP3   OH212764   0.767   4.396   4.625
 4267TIP3    H112765   0.689   4.347   4.650
 4267TIP3    H212766   0.840   4.347   4.662
 4268TIP3   OH212767   2.294   0.657   1.671
 4268TIP3    H112768   2.238   0.652   1.593
 4268TIP3    H212769   2.265   0.737   1.715
 4269TIP3   OH212770   5.332   2.403   1.337
 4269TIP3    H112771   5.395   2.352   1.389
 4269TIP3    H212772   5.246   2.380   1.374
 4270TIP3   OH212773   4.175   4.959   4.825
 4270TIP3    H112774   4.144   5.015   4.896
 4270TIP3    H212775   4.265   4.988   4.809
 4271TIP3   OH212776  -0.024   5.997   4.490
 4271TIP3    H112777   0.002   5.969   4.578
 4271TIP3    H212778   0.041   5.958   4.432
 4272TIP3   OH212779   0.319   3.901   0.711
 4272TIP3    H112780   0.384   3.895   0.782
 4272TIP3    H212781   0.281   3.813   0.706
 4273TIP3   OH212782   5.830   0.298   4.086
 4273TIP3    H112783   5.904   0.237   4.080
 4273TIP3    H212784   5.766   0.252   4.142
 4274TIP3   OH212785   0.252   6.457   5.680
 4274TIP3    H112786   0.233   6.363   5.673
 4274TIP3    H212787   0.321   6.462   5.746
 4275TIP3   OH212788   0.913   5.734   1.497
 4275TIP3    H112789   0.884   5.797   1.432
 4275TIP3    H212790   0.965   5.785   1.559
 4276TIP3   OH212791   5.373   6.403   0.210
 4276TIP3    H112792   5.448   6.446   0.250
 4276TIP3    H212793   5.410   6.326   0.167
 4277TIP3   OH212794   0.314   5.197   3.221
 4277TIP3    H112795   0.221   5.178   3.233
 4277TIP3    H212796   0.359   5.125   3.266
 4278TIP3   OH212797   2.261   2.832   1.056
 4278TIP3    H112798   2.272   2.924   1.076
 4278TIP3    H212799   2.174   2.825   1.017
 4279TIP3   OH212800   4.062   3.641   5.504
 4279TIP3    H112801   4.131   3.682   5.556
 4279TIP3    H212802   3.987   3.700   5.514
 4280TIP3   OH212803   2.906   5.822   3.845
 4280TIP3    H112804   2.812   5.822   3.867
 4280TIP3    H212805   2.950   5.840   3.928
 4281TIP3   OH212806   3.623   2.196   2.193
 4281TIP3    H112807   3.667   2.263   2.140
 4281TIP3    H212808   3.680   2.183   2.268
 4282TIP3   OH212809   0.412   3.517   4.135
 4282TIP3    H112810   0.383   3.512   4.226
 4282TIP3    H212811   0.462   3.437   4.121
 4283TIP3   OH212812   7.227   2.522   4.576
 4283TIP3    H112813   7.195   2.573   4.650
 4283TIP3    H212814   7.174   2.553   4.502
 4284TIP3   OH212815   4.405   3.682   2.444
 4284TIP3    H112816   4.372   3.621   2.509
 4284TIP3    H212817   4.436   3.627   2.372
 4285TIP3   OH212818   3.076   3.004   1.846
 4285TIP3    H112819   3.030   3.086   1.830
 4285TIP3    H212820   3.168   3.023   1.824
 4286TIP3   OH212821   6.299   0.571   3.400
 4286TIP3    H112822   6.256   0.538   3.321
 4286TIP3    H212823   6.288   0.501   3.465
 4287TIP3   OH212824   7.123   5.649   5.768
 4287TIP3    H112825   7.149   5.560   5.791
 4287TIP3    H212826   7.134   5.700   5.848
 4288TIP3   OH212827   5.911   5.173   5.535
 4288TIP3    H112828   5.966   5.224   5.476
 4288TIP3    H212829   5.963   5.165   5.615
 4289TIP3   OH212830   4.904   0.301   2.506
 4289TIP3    H112831   4.918   0.231   2.443
 4289TIP3    H212832   4.845   0.264   2.571
 4290TIP3   OH212833   5.472   4.464   5.578
 4290TIP3    H112834   5.396   4.474   5.521
 4290TIP3    H212835   5.486   4.552   5.614
 4291TIP3   OH212836   2.680   1.006   4.498
 4291TIP3    H112837   2.615   1.075   4.489
 4291TIP3    H212838   2.630   0.930   4.528
 4292TIP3   OH212839   0.305   6.305   4.944
 4292TIP3    H112840   0.388   6.271   4.975
 4292TIP3    H212841   0.243   6.233   4.955
 4293TIP3   OH212842   4.637   2.527   2.841
 4293TIP3    H112843   4.714   2.494   2.889
 4293TIP3    H212844   4.616   2.610   2.883
 4294TIP3   OH212845   6.015   3.971   1.877
 4294TIP3    H112846   6.087   3.927   1.832
 4294TIP3    H212847   6.045   3.982   1.966
 4295TIP3   OH212848   3.781   0.574   4.039
 4295TIP3    H112849   3.727   0.641   4.081
 4295TIP3    H212850   3.859   0.620   4.011
 4296TIP3   OH212851   6.300   2.281   5.359
 4296TIP3    H112852   6.376   2.337   5.344
 4296TIP3    H212853   6.276   2.297   5.450
 4297TIP3   OH212854   6.424   5.254   0.882
 4297TIP3    H112855   6.376   5.249   0.799
 4297TIP3    H212856   6.356   5.261   0.949
 4298TIP3   OH212857   2.495   2.779   2.200
 4298TIP3    H112858   2.434   2.824   2.143
 4298TIP3    H212859   2.495   2.829   2.282
 4299TIP3   OH212860   1.823   1.878   2.145
 4299TIP3    H112861   1.789   1.830   2.070
 4299TIP3    H212862   1.876   1.814   2.193
 4300TIP3   OH212863   6.053   5.455   0.697
 4300TIP3    H112864   5.971   5.446   0.648
 4300TIP3    H212865   6.053   5.545   0.728
 4301TIP3   OH212866   5.116   4.672   4.280
 4301TIP3    H112867   5.052   4.743   4.271
 4301TIP3    H212868   5.195   4.716   4.313
 4302TIP3   OH212869   6.193   3.145   0.104
 4302TIP3    H112870   6.105   3.149   0.140
 4302TIP3    H212871   6.209   3.233   0.071
 4303TIP3   OH212872   1.555   4.711   5.147
 4303TIP3    H112873   1.583   4.728   5.237
 4303TIP3    H212874   1.637   4.691   5.101
 4304TIP3   OH212875   4.398   6.608   3.308
 4304TIP3    H112876   4.440   6.607   3.394
 4304TIP3    H212877   4.304   6.613   3.328
 4305TIP3   OH212878   2.957   3.620   0.616
 4305TIP3    H112879   2.933   3.661   0.699
 4305TIP3    H212880   2.928   3.529   0.624
 4306TIP3   OH212881   2.103   3.427   4.826
 4306TIP3    H112882   2.157   3.362   4.781
 4306TIP3    H212883   2.060   3.475   4.756
 4307TIP3   OH212884   3.530   3.123   3.729
 4307TIP3    H112885   3.610   3.119   3.677
 4307TIP3    H212886   3.464   3.158   3.669
 4308TIP3   OH212887   2.095   0.856   0.820
 4308TIP3    H112888   2.075   0.827   0.909
 4308TIP3    H212889   2.085   0.777   0.766
 4309TIP3   OH212890   3.023   1.283   0.324
 4309TIP3    H112891   2.975   1.200   0.316
 4309TIP3    H212892   3.041   1.291   0.418
 4310TIP3   OH212893   5.336   6.585   0.918
 4310TIP3    H112894   5.383   6.515   0.964
 4310TIP3    H212895   5.316   6.549   0.832
 4311TIP3   OH212896   2.092   5.976   4.852
 4311TIP3    H112897   2.010   5.993   4.806
 4311TIP3    H212898   2.096   5.880   4.860
 4312TIP3   OH212899   4.575   3.775   1.481
 4312TIP3    H112900   4.495   3.781   1.428
 4312TIP3    H212901   4.634   3.720   1.428
 4313TIP3   OH212902   3.190   0.869   2.161
 4313TIP3    H112903   3.263   0.812   2.183
 4313TIP3    H212904   3.186   0.932   2.234
 4314TIP3   OH212905   3.861   4.033   0.147
 4314TIP3    H112906   3.954   4.050   0.164
 4314TIP3    H212907   3.815   4.079   0.217
 4315TIP3   OH212908   0.344   5.844   4.066
 4315TIP3    H112909   0.323   5.917   4.008
 4315TIP3    H212910   0.358   5.885   4.151
 4316TIP3   OH212911   6.978   3.312   3.154
 4316TIP3    H112912   6.895   3.269   3.135
 4316TIP3    H212913   6.988   3.303   3.249
 4317TIP3   OH212914   6.477   4.681   5.339
 4317TIP3    H112915   6.484   4.749   5.271
 4317TIP3    H212916   6.405   4.625   5.309
 4318TIP3   OH212917   2.409   3.279   0.201
 4318TIP3    H112918   2.416   3.326   0.118
 4318TIP3    H212919   2.367   3.196   0.179
 4319TIP3   OH212920   4.410   6.606   1.505
 4319TIP3    H112921   4.408   6.548   1.582
 4319TIP3    H212922   4.430   6.548   1.432
 4320TIP3   OH212923   2.625   0.080   1.086
 4320TIP3    H112924   2.656   0.036   1.165
 4320TIP3    H212925   2.683   0.048   1.017
 4321TIP3   OH212926   3.990   3.814   2.731
 4321TIP3    H112927   3.962   3.736   2.683
 4321TIP3    H212928   3.917   3.876   2.721
 4322TIP3   OH212929   0.522   1.984   1.642
 4322TIP3    H112930   0.479   1.906   1.676
 4322TIP3    H212931   0.555   1.957   1.556
 4323TIP3   OH212932   5.981   6.287   0.786
 4323TIP3    H112933   5.967   6.192   0.781
 4323TIP3    H212934   5.965   6.308   0.878
 4324TIP3   OH212935   0.680   5.553   2.852
 4324TIP3    H112936   0.772   5.529   2.849
 4324TIP3    H212937   0.643   5.503   2.924
 4325TIP3   OH212938   4.298   2.548   0.720
 4325TIP3    H112939   4.217   2.500   0.703
 4325TIP3    H212940   4.332   2.569   0.633
 4326TIP3   OH212941   4.148   5.772   0.574
 4326TIP3    H112942   4.153   5.780   0.479
 4326TIP3    H212943   4.154   5.678   0.591
 4327TIP3   OH212944   3.785   3.132   3.555
 4327TIP3    H112945   3.831   3.215   3.545
 4327TIP3    H212946   3.831   3.071   3.498
 4328TIP3   OH212947   4.940   0.756   4.991
 4328TIP3    H112948   4.853   0.772   5.029
 4328TIP3    H212949   4.922   0.729   4.901
 4329TIP3   OH212950   2.046   5.550   3.164
 4329TIP3    H112951   2.126   5.603   3.162
 4329TIP3    H212952   2.026   5.533   3.072
 4330TIP3   OH212953   1.270   6.062   3.676
 4330TIP3    H112954   1.274   6.129   3.744
 4330TIP3    H212955   1.317   6.100   3.602
 4331TIP3   OH212956   0.146   5.733   1.520
 4331TIP3    H112957   0.228   5.749   1.473
 4331TIP3    H212958   0.148   5.795   1.593
 4332TIP3   OH212959   3.761   2.632   2.546
 4332TIP3    H112960   3.687   2.572   2.535
 4332TIP3    H212961   3.723   2.719   2.536
 4333TIP3   OH212962   6.858   1.674   1.563
 4333TIP3    H112963   6.822   1.675   1.651
 4333TIP3    H212964   6.786   1.703   1.507
 4334TIP3   OH212965   6.496   5.371   1.274
 4334TIP3    H112966   6.419   5.314   1.273
 4334TIP3    H212967   6.526   5.369   1.364
 4335TIP3   OH212968   1.859   1.868   3.851
 4335TIP3    H112969   1.791   1.924   3.815
 4335TIP3    H212970   1.897   1.918   3.923
 4336TIP3   OH212971   3.274   0.686   1.330
 4336TIP3    H112972   3.214   0.615   1.353
 4336TIP3    H212973   3.351   0.642   1.293
 4337TIP3   OH212974   5.416   2.079   3.024
 4337TIP3    H112975   5.360   2.006   3.051
 4337TIP3    H212976   5.400   2.147   3.089
 4338TIP3   OH212977   2.036   6.179   1.570
 4338TIP3    H112978   2.112   6.129   1.600
 4338TIP3    H212979   2.008   6.133   1.490
 4339TIP3   OH212980   5.107   4.545   3.137
 4339TIP3    H112981   5.156   4.474   3.096
 4339TIP3    H212982   5.116   4.619   3.077
 4340TIP3   OH212983   5.574   2.082   4.560
 4340TIP3    H112984   5.586   1.987   4.562
 4340TIP3    H212985   5.606   2.108   4.474
 4341TIP3   OH212986   5.038   1.574   4.441
 4341TIP3    H112987   4.967   1.573   4.376
 4341TIP3    H212988   5.015   1.647   4.499
 4342TIP3   OH212989   2.095   1.782   1.065
 4342TIP3    H112990   2.127   1.717   1.002
 4342TIP3    H212991   2.019   1.740   1.106
 4343TIP3   OH212992   5.465   2.885   2.902
 4343TIP3    H112993   5.460   2.940   2.980
 4343TIP3    H212994   5.524   2.932   2.843
 4344TIP3   OH212995   0.379   1.322   4.464
 4344TIP3    H112996   0.432   1.386   4.512
 4344TIP3    H212997   0.289   1.344   4.486
 4345TIP3   OH212998   5.440   1.434   4.277
 4345TIP3    H112999   5.426   1.385   4.196
 4345TIP3    H213000   5.379   1.395   4.339
 4346TIP3   OH213001   4.075   1.429   2.851
 4346TIP3    H113002   4.143   1.473   2.799
 4346TIP3    H213003   4.066   1.484   2.929
 4347TIP3   OH213004   4.286   0.456   1.513
 4347TIP3    H113005   4.377   0.432   1.496
 4347TIP3    H213006   4.265   0.520   1.446
 4348TIP3   OH213007   3.375   5.116   1.253
 4348TIP3    H113008   3.282   5.101   1.238
 4348TIP3    H213009   3.406   5.157   1.172
 4349TIP3   OH213010   1.623   3.510   3.965
 4349TIP3    H113011   1.585   3.501   3.878
 4349TIP3    H213012   1.681   3.586   3.958
 4350TIP3   OH213013   6.291   5.391   3.397
 4350TIP3    H113014   6.241   5.316   3.365
 4350TIP3    H213015   6.330   5.429   3.318
 4351TIP3   OH213016   1.292   2.172   4.727
 4351TIP3    H113017   1.265   2.261   4.704
 4351TIP3    H213018   1.333   2.180   4.812
 4352TIP3   OH213019   2.467   0.417   5.703
 4352TIP3    H113020   2.394   0.359   5.725
 4352TIP3    H213021   2.507   0.377   5.626
 4353TIP3   OH213022   1.383   1.064   0.751
 4353TIP3    H113023   1.400   1.077   0.658
 4353TIP3    H213024   1.395   1.150   0.791
 4354TIP3   OH213025   1.955   4.946   1.220
 4354TIP3    H113026   1.989   4.876   1.165
 4354TIP3    H213027   1.887   4.905   1.273
 4355TIP3   OH213028   6.331   3.217   3.866
 4355TIP3    H113029   6.343   3.152   3.935
 4355TIP3    H213030   6.261   3.181   3.811
 4356TIP3   OH213031   0.572   2.117   3.818
 4356TIP3    H113032   0.552   2.206   3.846
 4356TIP3    H213033   0.668   2.114   3.812
 4357TIP3   OH213034   6.272   2.121   5.791
 4357TIP3    H113035   6.274   2.132   5.886
 4357TIP3    H213036   6.209   2.049   5.777
 4358TIP3   OH213037   6.024   4.497   4.365
 4358TIP3    H113038   5.986   4.427   4.312
 4358TIP3    H213039   5.971   4.574   4.347
 4359TIP3   OH213040   5.128   5.047   1.245
 4359TIP3    H113041   5.103   4.989   1.173
 4359TIP3    H213042   5.075   5.018   1.319
 4360TIP3   OH213043   0.668   6.597   1.408
 4360TIP3    H113044   0.580   6.614   1.442
 4360TIP3    H213045   0.683   6.666   1.343
 4361TIP3   OH213046   1.611   3.983   3.352
 4361TIP3    H113047   1.618   4.078   3.351
 4361TIP3    H213048   1.695   3.952   3.318
 4362TIP3   OH213049   5.457   0.505   4.839
 4362TIP3    H113050   5.442   0.584   4.788
 4362TIP3    H213051   5.502   0.446   4.778
 4363TIP3   OH213052   2.786   6.327   5.133
 4363TIP3    H113053   2.849   6.372   5.077
 4363TIP3    H213054   2.754   6.255   5.079
 4364TIP3   OH213055   1.308   0.795   5.148
 4364TIP3    H113056   1.294   0.708   5.186
 4364TIP3    H213057   1.223   0.838   5.156
 4365TIP3   OH213058   1.896   5.495   3.373
 4365TIP3    H113059   1.806   5.506   3.343
 4365TIP3    H213060   1.950   5.524   3.300
 4366TIP3   OH213061   5.638   0.920   4.247
 4366TIP3    H113062   5.577   0.991   4.268
 4366TIP3    H213063   5.715   0.965   4.211
 4367TIP3   OH213064   2.483   0.833   1.860
 4367TIP3    H113065   2.541   0.806   1.931
 4367TIP3    H213066   2.396   0.803   1.887
 4368TIP3   OH213067   5.704   1.782   3.406
 4368TIP3    H113068   5.667   1.860   3.364
 4368TIP3    H213069   5.749   1.735   3.336
 4369TIP3   OH213070   2.045   5.673   3.536
 4369TIP3    H113071   2.011   5.605   3.477
 4369TIP3    H213072   1.980   5.743   3.530
 4370TIP3   OH213073   2.291   1.445   4.813
 4370TIP3    H113074   2.363   1.386   4.793
 4370TIP3    H213075   2.255   1.412   4.896
 4371TIP3   OH213076   2.871   6.582   3.593
 4371TIP3    H113077   2.840   6.668   3.623
 4371TIP3    H213078   2.922   6.548   3.666
 4372TIP3   OH213079   2.205   4.131   2.080
 4372TIP3    H113080   2.283   4.169   2.121
 4372TIP3    H213081   2.231   4.115   1.989
 4373TIP3   OH213082   5.248   5.888   0.183
 4373TIP3    H113083   5.186   5.830   0.228
 4373TIP3    H213084   5.290   5.833   0.117
 4374TIP3   OH213085   6.812   4.788   0.475
 4374TIP3    H113086   6.849   4.702   0.498
 4374TIP3    H213087   6.887   4.848   0.480
 4375TIP3   OH213088   2.594   1.839   5.688
 4375TIP3    H113089   2.660   1.867   5.625
 4375TIP3    H213090   2.622   1.877   5.772
 4376TIP3   OH213091   2.090   2.246   4.840
 4376TIP3    H113092   2.040   2.239   4.759
 4376TIP3    H213093   2.075   2.163   4.885
 4377TIP3   OH213094   7.030   1.637   1.079
 4377TIP3    H113095   7.071   1.605   0.999
 4377TIP3    H213096   7.089   1.705   1.112
 4378TIP3   OH213097   6.850   4.933   3.488
 4378TIP3    H113098   6.871   4.855   3.538
 4378TIP3    H213099   6.762   4.958   3.518
 4379TIP3   OH213100   6.262   6.576   1.693
 4379TIP3    H113101   6.208   6.514   1.644
 4379TIP3    H213102   6.303   6.630   1.626
 4380TIP3   OH213103   3.944   1.125   3.334
 4380TIP3    H113104   3.874   1.155   3.275
 4380TIP3    H213105   3.979   1.047   3.291
 4381TIP3   OH213106   5.751   5.090   3.024
 4381TIP3    H113107   5.805   5.041   3.086
 4381TIP3    H213108   5.706   5.155   3.078
 4382TIP3   OH213109   0.587   4.414   0.538
 4382TIP3    H113110   0.585   4.469   0.460
 4382TIP3    H213111   0.661   4.448   0.589
 4383TIP3   OH213112   4.136   3.958   4.271
 4383TIP3    H113113   4.219   3.927   4.306
 4383TIP3    H213114   4.149   3.961   4.176
 4384TIP3   OH213115   1.376   3.683   4.021
 4384TIP3    H113116   1.429   3.613   4.058
 4384TIP3    H213117   1.300   3.688   4.079
 4385TIP3   OH213118   5.001   1.430   3.536
 4385TIP3    H113119   4.931   1.366   3.528
 4385TIP3    H213120   4.976   1.484   3.611
 4386TIP3   OH213121   5.703   6.261   0.939
 4386TIP3    H113122   5.780   6.218   0.975
 4386TIP3    H213123   5.629   6.207   0.968
 4387TIP3   OH213124   2.819   0.308   0.721
 4387TIP3    H113125   2.747   0.256   0.686
 4387TIP3    H213126   2.779   0.361   0.790
 4388TIP3   OH213127   6.495   5.389   3.842
 4388TIP3    H113128   6.522   5.475   3.873
 4388TIP3    H213129   6.428   5.407   3.776
 4389TIP3   OH213130   3.617   3.779   5.645
 4389TIP3    H113131   3.552   3.785   5.575
 4389TIP3    H213132   3.598   3.696   5.689
 4390TIP3   OH213133   0.438   6.742   3.538
 4390TIP3    H113134   0.411   6.660   3.496
 4390TIP3    H213135   0.489   6.713   3.614
 4391TIP3   OH213136   0.674   0.308   3.340
 4391TIP3    H113137   0.766   0.310   3.314
 4391TIP3    H213138   0.656   0.397   3.370
 4392TIP3   OH213139   6.870   4.089   5.414
 4392TIP3    H113140   6.788   4.052   5.447
 4392TIP3    H213141   6.928   4.014   5.406
 4393TIP3   OH213142   4.762   5.879   1.431
 4393TIP3    H113143   4.700   5.811   1.404
 4393TIP3    H213144   4.815   5.837   1.498
 4394TIP3   OH213145   1.745   5.503   3.634
 4394TIP3    H113146   1.735   5.408   3.627
 4394TIP3    H213147   1.801   5.527   3.561
 4395TIP3   OH213148   3.407   5.358   3.804
 4395TIP3    H113149   3.466   5.432   3.819
 4395TIP3    H213150   3.465   5.281   3.804
 4396TIP3   OH213151   4.682   4.589   1.736
 4396TIP3    H113152   4.610   4.616   1.679
 4396TIP3    H213153   4.730   4.669   1.755
 4397TIP3   OH213154   5.321   0.052   4.691
 4397TIP3    H113155   5.373  -0.009   4.639
 4397TIP3    H213156   5.299   0.003   4.771
 4398TIP3   OH213157   6.066   0.689   3.827
 4398TIP3    H113158   6.007   0.652   3.761
 4398TIP3    H213159   6.116   0.613   3.859
 4399TIP3   OH213160   4.795   1.827   0.591
 4399TIP3    H113161   4.855   1.754   0.610
 4399TIP3    H213162   4.790   1.830   0.495
 4400TIP3   OH213163   1.136   4.061   4.691
 4400TIP3    H113164   1.062   4.033   4.637
 4400TIP3    H213165   1.213   4.036   4.640
 4401TIP3   OH213166   6.207   1.557   5.394
 4401TIP3    H113167   6.178   1.576   5.304
 4401TIP3    H213168   6.248   1.638   5.423
 4402TIP3   OH213169   7.096   1.459   4.617
 4402TIP3    H113170   7.156   1.457   4.692
 4402TIP3    H213171   7.120   1.539   4.570
 4403TIP3   OH213172   7.175   2.118   0.529
 4403TIP3    H113173   7.119   2.103   0.605
 4403TIP3    H213174   7.239   2.047   0.533
 4404TIP3   OH213175   0.297   1.132   2.332
 4404TIP3    H113176   0.231   1.142   2.401
 4404TIP3    H213177   0.320   1.039   2.334
 4405TIP3   OH213178   1.813   6.521   3.187
 4405TIP3    H113179   1.788   6.437   3.148
 4405TIP3    H213180   1.892   6.502   3.236
 4406TIP3   OH213181   2.326   6.048   0.909
 4406TIP3    H113182   2.233   6.069   0.899
 4406TIP3    H213183   2.338   5.970   0.854
 4407TIP3   OH213184   6.706   4.775   1.614
 4407TIP3    H113185   6.801   4.758   1.616
 4407TIP3    H213186   6.667   4.688   1.614
 4408TIP3   OH213187   0.666   2.312   3.568
 4408TIP3    H113188   0.744   2.310   3.514
 4408TIP3    H213189   0.699   2.308   3.658
 4409TIP3   OH213190   6.575   2.292   4.989
 4409TIP3    H113191   6.486   2.282   4.954
 4409TIP3    H213192   6.630   2.246   4.926
 4410TIP3   OH213193   5.899   5.879   5.749
 4410TIP3    H113194   5.840   5.925   5.809
 4410TIP3    H213195   5.983   5.877   5.794
 4411TIP3   OH213196   1.871   6.378   1.284
 4411TIP3    H113197   1.949   6.334   1.317
 4411TIP3    H213198   1.801   6.314   1.297
 4412TIP3   OH213199   2.739   0.810   1.993
 4412TIP3    H113200   2.711   0.765   2.072
 4412TIP3    H213201   2.829   0.835   2.010
 4413TIP3   OH213202   4.724   3.798   3.367
 4413TIP3    H113203   4.640   3.788   3.411
 4413TIP3    H213204   4.788   3.765   3.431
 4414TIP3   OH213205   3.390   4.338   3.390
 4414TIP3    H113206   3.328   4.410   3.383
 4414TIP3    H213207   3.357   4.284   3.462
 4415TIP3   OH213208   4.970   1.499   0.229
 4415TIP3    H113209   4.990   1.575   0.175
 4415TIP3    H213210   4.888   1.465   0.193
 4416TIP3   OH213211   6.847   3.238   0.702
 4416TIP3    H113212   6.894   3.274   0.626
 4416TIP3    H213213   6.838   3.311   0.762
 4417TIP3   OH213214   6.185   4.573   0.336
 4417TIP3    H113215   6.257   4.636   0.343
 4417TIP3    H213216   6.207   4.505   0.399
 4418TIP3   OH213217   0.996   5.058   3.597
 4418TIP3    H113218   1.007   5.131   3.658
 4418TIP3    H213219   0.908   5.026   3.613
 4419TIP3   OH213220   2.111   2.784   0.011
 4419TIP3    H113221   2.079   2.742   0.091
 4419TIP3    H213222   2.059   2.746  -0.059
 4420TIP3   OH213223   0.646   6.601   1.002
 4420TIP3    H113224   0.632   6.527   1.061
 4420TIP3    H213225   0.585   6.588   0.930
 4421TIP3   OH213226   4.346   4.076   0.777
 4421TIP3    H113227   4.287   4.119   0.839
 4421TIP3    H213228   4.433   4.092   0.812
 4422TIP3   OH213229   7.059   5.109   2.630
 4422TIP3    H113230   7.090   5.143   2.546
 4422TIP3    H213231   7.120   5.146   2.694
 4423TIP3   OH213232   3.077   4.703   4.047
 4423TIP3    H113233   3.026   4.758   3.988
 4423TIP3    H213234   3.125   4.765   4.102
 4424TIP3   OH213235   5.405   3.454   5.499
 4424TIP3    H113236   5.409   3.483   5.408
 4424TIP3    H213237   5.366   3.367   5.495
 4425TIP3   OH213238   1.552   1.074   3.093
 4425TIP3    H113239   1.636   1.099   3.055
 4425TIP3    H213240   1.562   1.091   3.187
 4426TIP3   OH213241   4.152   1.720   0.802
 4426TIP3    H113242   4.096   1.793   0.825
 4426TIP3    H213243   4.195   1.695   0.884
 4427TIP3   OH213244   7.124   0.532   4.747
 4427TIP3    H113245   7.106   0.529   4.841
 4427TIP3    H213246   7.128   0.626   4.727
 4428TIP3   OH213247   6.301   4.017   3.902
 4428TIP3    H113248   6.293   4.111   3.885
 4428TIP3    H213249   6.237   4.000   3.971
 4429TIP3   OH213250   5.446   5.730   5.108
 4429TIP3    H113251   5.397   5.667   5.055
 4429TIP3    H213252   5.537   5.701   5.103
 4430TIP3   OH213253   0.349   5.977   4.318
 4430TIP3    H113254   0.308   6.050   4.365
 4430TIP3    H213255   0.432   5.964   4.363
 4431TIP3   OH213256   4.617   5.162   5.299
 4431TIP3    H113257   4.622   5.067   5.307
 4431TIP3    H213258   4.578   5.176   5.212
 4432TIP3   OH213259   3.314   5.008   4.029
 4432TIP3    H113260   3.387   5.039   3.975
 4432TIP3    H213261   3.236   5.029   3.978
 4433TIP3   OH213262   0.799   4.623   5.160
 4433TIP3    H113263   0.812   4.537   5.120
 4433TIP3    H213264   0.880   4.671   5.141
 4434TIP3   OH213265   0.187   0.410   1.964
 4434TIP3    H113266   0.128   0.438   1.894
 4434TIP3    H213267   0.178   0.477   2.032
 4435TIP3   OH213268   1.420   2.175   3.096
 4435TIP3    H113269   1.488   2.195   3.161
 4435TIP3    H213270   1.389   2.260   3.067
 4436TIP3   OH213271   1.914   0.234   5.209
 4436TIP3    H113272   1.904   0.308   5.269
 4436TIP3    H213273   1.996   0.252   5.163
 4437TIP3   OH213274   2.990   3.267   3.441
 4437TIP3    H113275   3.058   3.304   3.386
 4437TIP3    H213276   3.004   3.306   3.527
 4438TIP3   OH213277   5.755   4.380   2.630
 4438TIP3    H113278   5.808   4.368   2.552
 4438TIP3    H213279   5.665   4.374   2.600
 4439TIP3   OH213280   4.160   2.671   1.722
 4439TIP3    H113281   4.164   2.614   1.798
 4439TIP3    H213282   4.218   2.630   1.658
 4440TIP3   OH213283   5.329   0.470   3.054
 4440TIP3    H113284   5.353   0.382   3.083
 4440TIP3    H213285   5.303   0.459   2.962
 4441TIP3   OH213286   6.338   4.553   5.708
 4441TIP3    H113287   6.404   4.601   5.658
 4441TIP3    H213288   6.263   4.612   5.714
 4442TIP3   OH213289   7.022   4.389   1.477
 4442TIP3    H113290   7.042   4.303   1.441
 4442TIP3    H213291   7.041   4.382   1.570
 4443TIP3   OH213292   4.111   1.315   0.247
 4443TIP3    H113293   4.034   1.274   0.208
 4443TIP3    H213294   4.160   1.242   0.286
 4444TIP3   OH213295   4.669   5.355   3.274
 4444TIP3    H113296   4.764   5.362   3.265
 4444TIP3    H213297   4.639   5.328   3.187
 4445TIP3   OH213298   3.364   2.114   0.898
 4445TIP3    H113299   3.373   2.068   0.982
 4445TIP3    H213300   3.449   2.157   0.886
 4446TIP3   OH213301   2.936   2.236   2.071
 4446TIP3    H113302   2.905   2.318   2.110
 4446TIP3    H213303   2.970   2.262   1.986
 4447TIP3   OH213304   4.560   4.033   5.548
 4447TIP3    H113305   4.483   4.089   5.545
 4447TIP3    H213306   4.570   4.000   5.458
 4448TIP3   OH213307   2.316   6.060   1.353
 4448TIP3    H113308   2.317   6.083   1.446
 4448TIP3    H213309   2.302   6.143   1.307
 4449TIP3   OH213310   3.540   1.033   1.765
 4449TIP3    H113311   3.568   1.002   1.851
 4449TIP3    H213312   3.619   1.026   1.711
 4450TIP3   OH213313   4.679   0.489   2.724
 4450TIP3    H113314   4.600   0.532   2.693
 4450TIP3    H213315   4.648   0.420   2.783
 4451TIP3   OH213316   6.189   2.151   2.528
 4451TIP3    H113317   6.143   2.156   2.612
 4451TIP3    H213318   6.226   2.238   2.515
 4452TIP3   OH213319   3.554   1.378   0.208
 4452TIP3    H113320   3.465   1.345   0.203
 4452TIP3    H213321   3.559   1.445   0.141
 4453TIP3   OH213322   4.667   4.544   2.043
 4453TIP3    H113323   4.586   4.595   2.051
 4453TIP3    H213324   4.671   4.520   1.950
 4454TIP3   OH213325   1.716   0.429   4.814
 4454TIP3    H113326   1.727   0.505   4.757
 4454TIP3    H213327   1.677   0.464   4.894
 4455TIP3   OH213328   1.539   5.980   0.687
 4455TIP3    H113329   1.631   5.995   0.666
 4455TIP3    H213330   1.493   5.994   0.605
 4456TIP3   OH213331   0.158   2.973   0.712
 4456TIP3    H113332   0.158   3.065   0.684
 4456TIP3    H213333   0.173   2.977   0.806
 4457TIP3   OH213334   6.986   6.339   1.990
 4457TIP3    H113335   6.967   6.305   2.078
 4457TIP3    H213336   6.906   6.386   1.965
 4458TIP3   OH213337   0.457   0.381   2.773
 4458TIP3    H113338   0.446   0.474   2.758
 4458TIP3    H213339   0.372   0.352   2.807
 4459TIP3   OH213340   0.708   1.024   2.894
 4459TIP3    H113341   0.773   0.953   2.894
 4459TIP3    H213342   0.760   1.104   2.893
 4460TIP3   OH213343   2.231   2.885   3.293
 4460TIP3    H113344   2.193   2.949   3.232
 4460TIP3    H213345   2.272   2.820   3.236
 4461TIP3   OH213346   4.842   6.130   2.167
 4461TIP3    H113347   4.776   6.184   2.210
 4461TIP3    H213348   4.830   6.147   2.074
 4462TIP3   OH213349   5.377   5.453   2.431
 4462TIP3    H113350   5.405   5.518   2.367
 4462TIP3    H213351   5.393   5.495   2.516
 4463TIP3   OH213352   3.601   2.893   0.704
 4463TIP3    H113353   3.605   2.931   0.791
 4463TIP3    H213354   3.532   2.827   0.710
 4464TIP3   OH213355   2.773   6.590   4.248
 4464TIP3    H113356   2.767   6.644   4.327
 4464TIP3    H213357   2.826   6.515   4.275
 4465TIP3   OH213358   4.854   2.576   3.355
 4465TIP3    H113359   4.793   2.580   3.281
 4465TIP3    H213360   4.825   2.646   3.413
 4466TIP3   OH213361   6.239   2.378   5.019
 4466TIP3    H113362   6.183   2.349   5.091
 4466TIP3    H213363   6.266   2.466   5.043
 4467TIP3   OH213364   4.525   5.698   4.222
 4467TIP3    H113365   4.479   5.704   4.139
 4467TIP3    H213366   4.578   5.619   4.215
 4468TIP3   OH213367   2.034   6.042   3.523
 4468TIP3    H113368   2.027   6.058   3.617
 4468TIP3    H213369   2.093   6.111   3.491
 4469TIP3   OH213370   5.543   2.973   0.626
 4469TIP3    H113371   5.582   2.968   0.539
 4469TIP3    H213372   5.488   3.051   0.624
 4470TIP3   OH213373   5.095   1.590   5.709
 4470TIP3    H113374   5.064   1.681   5.713
 4470TIP3    H213375   5.030   1.541   5.759
 4471TIP3   OH213376   6.162   0.155   0.195
 4471TIP3    H113377   6.074   0.189   0.211
 4471TIP3    H213378   6.221   0.218   0.238
 4472TIP3   OH213379   4.836   1.643   4.918
 4472TIP3    H113380   4.821   1.552   4.893
 4472TIP3    H213381   4.754   1.688   4.897
 4473TIP3   OH213382   1.366   0.520   1.262
 4473TIP3    H113383   1.379   0.599   1.210
 4473TIP3    H213384   1.394   0.448   1.205
 4474TIP3   OH213385   0.491   6.260   2.698
 4474TIP3    H113386   0.581   6.235   2.720
 4474TIP3    H213387   0.437   6.202   2.751
 4475TIP3   OH213388   1.515   5.149   5.086
 4475TIP3    H113389   1.518   5.107   5.000
 4475TIP3    H213390   1.527   5.242   5.068
 4476TIP3   OH213391   5.004   0.565   2.121
 4476TIP3    H113392   4.926   0.619   2.138
 4476TIP3    H213393   5.021   0.576   2.028
 4477TIP3   OH213394   1.318   0.381   2.778
 4477TIP3    H113395   1.223   0.387   2.770
 4477TIP3    H213396   1.334   0.372   2.872
 4478TIP3   OH213397   2.161   4.612   3.686
 4478TIP3    H113398   2.147   4.694   3.733
 4478TIP3    H213399   2.077   4.566   3.692
 4479TIP3   OH213400   2.145   3.328   2.785
 4479TIP3    H113401   2.060   3.359   2.753
 4479TIP3    H213402   2.166   3.385   2.858
 4480TIP3   OH213403   2.930   4.582   1.198
 4480TIP3    H113404   2.872   4.652   1.228
 4480TIP3    H213405   2.983   4.560   1.275
 4481TIP3   OH213406   4.936   1.775   4.238
 4481TIP3    H113407   5.009   1.768   4.176
 4481TIP3    H213408   4.946   1.861   4.278
 4482TIP3   OH213409   4.642   6.128   5.527
 4482TIP3    H113410   4.715   6.069   5.508
 4482TIP3    H213411   4.621   6.169   5.443
 4483TIP3   OH213412   3.888   3.065   1.127
 4483TIP3    H113413   3.837   3.012   1.188
 4483TIP3    H213414   3.878   3.021   1.042
 4484TIP3   OH213415   5.998   6.501   0.599
 4484TIP3    H113416   6.009   6.427   0.659
 4484TIP3    H213417   6.046   6.475   0.520
 4485TIP3   OH213418   0.830   1.821   0.358
 4485TIP3    H113419   0.769   1.762   0.403
 4485TIP3    H213420   0.857   1.773   0.280
 4486TIP3   OH213421   3.198   3.466   5.651
 4486TIP3    H113422   3.273   3.419   5.613
 4486TIP3    H213423   3.177   3.533   5.586
 4487TIP3   OH213424   2.649   4.748   3.352
 4487TIP3    H113425   2.682   4.669   3.309
 4487TIP3    H213426   2.656   4.730   3.446
 4488TIP3   OH213427   2.978   2.617   0.653
 4488TIP3    H113428   2.931   2.537   0.630
 4488TIP3    H213429   3.001   2.656   0.569
 4489TIP3   OH213430   4.084   2.895   3.611
 4489TIP3    H113431   4.051   2.805   3.607
 4489TIP3    H213432   4.022   2.945   3.558
 4490TIP3   OH213433   3.556   2.866   3.833
 4490TIP3    H113434   3.522   2.948   3.796
 4490TIP3    H213435   3.577   2.812   3.758
 4491TIP3   OH213436   1.878   1.420   1.131
 4491TIP3    H113437   1.865   1.479   1.057
 4491TIP3    H213438   1.883   1.333   1.091
 4492TIP3   OH213439   1.148   4.804   1.031
 4492TIP3    H113440   1.193   4.871   0.980
 4492TIP3    H213441   1.056   4.810   1.002
 4493TIP3   OH213442   1.624   6.062   2.696
 4493TIP3    H113443   1.701   6.117   2.679
 4493TIP3    H213444   1.556   6.098   2.638
 4494TIP3   OH213445   5.780   6.737   0.872
 4494TIP3    H113446   5.725   6.748   0.795
 4494TIP3    H213447   5.801   6.827   0.899
 4495TIP3   OH213448   2.616   3.504   2.867
 4495TIP3    H113449   2.533   3.544   2.892
 4495TIP3    H213450   2.611   3.415   2.902
 4496TIP3   OH213451   1.908   5.393   4.151
 4496TIP3    H113452   1.980   5.345   4.190
 4496TIP3    H213453   1.933   5.405   4.060
 4497TIP3   OH213454   3.974   4.750   2.111
 4497TIP3    H113455   3.926   4.678   2.069
 4497TIP3    H213456   3.945   4.828   2.063
 4498TIP3   OH213457   2.859   6.349   4.367
 4498TIP3    H113458   2.943   6.304   4.357
 4498TIP3    H213459   2.858   6.377   4.458
 4499TIP3   OH213460   0.229   4.189   4.327
 4499TIP3    H113461   0.289   4.163   4.397
 4499TIP3    H213462   0.273   4.260   4.282
 4500TIP3   OH213463   2.192   0.122   3.225
 4500TIP3    H113464   2.226   0.209   3.246
 4500TIP3    H213465   2.256   0.086   3.163
 4501TIP3   OH213466   1.937   1.411   5.588
 4501TIP3    H113467   1.972   1.449   5.669
 4501TIP3    H213468   1.896   1.329   5.617
 4502TIP3   OH213469   1.990   4.969   5.609
 4502TIP3    H113470   1.928   5.027   5.564
 4502TIP3    H213471   2.000   5.007   5.696
 4503TIP3   OH213472   6.322   0.120   2.409
 4503TIP3    H113473   6.346   0.042   2.459
 4503TIP3    H213474   6.400   0.174   2.409
 4504TIP3   OH213475   2.024   2.098   2.154
 4504TIP3    H113476   2.056   2.028   2.212
 4504TIP3    H213477   1.931   2.106   2.175
 4505TIP3   OH213478   0.981   1.993   4.871
 4505TIP3    H113479   0.938   1.926   4.923
 4505TIP3    H213480   1.063   2.011   4.917
 4506TIP3   OH213481   1.613   0.792   3.550
 4506TIP3    H113482   1.637   0.846   3.625
 4506TIP3    H213483   1.662   0.829   3.476
 4507TIP3   OH213484   5.917   5.344   1.089
 4507TIP3    H113485   5.825   5.354   1.063
 4507TIP3    H213486   5.915   5.282   1.162
 4508TIP3   OH213487   0.991   6.061   3.870
 4508TIP3    H113488   1.085   6.060   3.887
 4508TIP3    H213489   0.975   5.980   3.821
 4509TIP3   OH213490   4.593   5.745   5.261
 4509TIP3    H113491   4.651   5.747   5.337
 4509TIP3    H213492   4.533   5.818   5.275
 4510TIP3   OH213493   1.033   5.508   2.186
 4510TIP3    H113494   1.127   5.519   2.198
 4510TIP3    H213495   1.011   5.567   2.113
 4511TIP3   OH213496   5.416   0.186   3.102
 4511TIP3    H113497   5.438   0.126   3.173
 4511TIP3    H213498   5.440   0.138   3.022
 4512TIP3   OH213499   0.454   5.463   1.673
 4512TIP3    H113500   0.520   5.472   1.604
 4512TIP3    H213501   0.412   5.549   1.677
 4513TIP3   OH213502   7.156   4.376   2.478
 4513TIP3    H113503   7.250   4.377   2.494
 4513TIP3    H213504   7.139   4.453   2.424
 4514TIP3   OH213505   2.285   5.922   0.569
 4514TIP3    H113506   2.333   5.998   0.537
 4514TIP3    H213507   2.193   5.942   0.549
 4515TIP3   OH213508   0.131   2.783   0.495
 4515TIP3    H113509   0.100   2.843   0.428
 4515TIP3    H213510   0.148   2.839   0.571
 4516TIP3   OH213511   6.185   5.432   0.338
 4516TIP3    H113512   6.137   5.369   0.393
 4516TIP3    H213513   6.169   5.517   0.379
 4517TIP3   OH213514   2.338   2.922   2.414
 4517TIP3    H113515   2.406   2.987   2.433
 4517TIP3    H213516   2.288   2.961   2.342
 4518TIP3   OH213517   6.302   0.122   2.053
 4518TIP3    H113518   6.216   0.121   2.096
 4518TIP3    H213519   6.349   0.048   2.091
 4519TIP3   OH213520   1.675   4.940   2.829
 4519TIP3    H113521   1.761   4.977   2.808
 4519TIP3    H213522   1.692   4.877   2.899
 4520TIP3   OH213523   1.568   4.474   1.198
 4520TIP3    H113524   1.554   4.490   1.291
 4520TIP3    H213525   1.501   4.526   1.154
 4521TIP3   OH213526   3.235   5.479   3.459
 4521TIP3    H113527   3.179   5.482   3.536
 4521TIP3    H213528   3.178   5.449   3.389
 4522TIP3   OH213529   3.537   4.085   2.667
 4522TIP3    H113530   3.617   4.059   2.712
 4522TIP3    H213531   3.469   4.078   2.734
 4523TIP3   OH213532   4.235   5.676   5.873
 4523TIP3    H113533   4.189   5.624   5.939
 4523TIP3    H213534   4.194   5.649   5.790
 4524TIP3   OH213535   5.438   1.222   3.272
 4524TIP3    H113536   5.489   1.277   3.212
 4524TIP3    H213537   5.430   1.276   3.351
 4525TIP3   OH213538   0.651   0.399   5.702
 4525TIP3    H113539   0.639   0.454   5.624
 4525TIP3    H213540   0.726   0.343   5.680
 4526TIP3   OH213541   3.986   0.717   1.777
 4526TIP3    H113542   3.992   0.702   1.682
 4526TIP3    H213543   4.067   0.761   1.800
 4527TIP3   OH213544   1.278   3.189   0.461
 4527TIP3    H113545   1.268   3.152   0.373
 4527TIP3    H213546   1.333   3.266   0.448
 4528TIP3   OH213547   4.259   5.828   5.461
 4528TIP3    H113548   4.329   5.828   5.527
 4528TIP3    H213549   4.178   5.831   5.512
 4529TIP3   OH213550   3.587   6.835   0.417
 4529TIP3    H113551   3.647   6.836   0.343
 4529TIP3    H213552   3.591   6.745   0.450
 4530TIP3   OH213553   4.852   3.083   3.972
 4530TIP3    H113554   4.762   3.057   3.955
 4530TIP3    H213555   4.889   3.099   3.886
 4531TIP3   OH213556   4.520   4.960   2.094
 4531TIP3    H113557   4.470   5.016   2.035
 4531TIP3    H213558   4.601   5.008   2.110
 4532TIP3   OH213559   1.847   4.824   3.545
 4532TIP3    H113560   1.911   4.762   3.513
 4532TIP3    H213561   1.762   4.789   3.517
 4533TIP3   OH213562   3.991   3.989   1.722
 4533TIP3    H113563   4.045   3.911   1.708
 4533TIP3    H213564   3.912   3.974   1.670
 4534TIP3   OH213565   2.703   2.552   1.696
 4534TIP3    H113566   2.749   2.501   1.629
 4534TIP3    H213567   2.656   2.620   1.647
 4535TIP3   OH213568   1.796   1.071   5.544
 4535TIP3    H113569   1.825   1.064   5.635
 4535TIP3    H213570   1.720   1.014   5.539
 4536TIP3   OH213571   3.160  -0.005   4.374
 4536TIP3    H113572   3.077  -0.043   4.347
 4536TIP3    H213573   3.161  -0.013   4.469
 4537TIP3   OH213574   6.179   3.937   4.708
 4537TIP3    H113575   6.222   3.952   4.792
 4537TIP3    H213576   6.109   3.875   4.727
 4538TIP3   OH213577   3.341   5.338   4.251
 4538TIP3    H113578   3.300   5.259   4.284
 4538TIP3    H213579   3.423   5.308   4.211
 4539TIP3   OH213580   3.857   2.178   1.448
 4539TIP3    H113581   3.790   2.179   1.516
 4539TIP3    H213582   3.818   2.130   1.375
 4540TIP3   OH213583   1.716   1.280   4.763
 4540TIP3    H113584   1.634   1.263   4.809
 4540TIP3    H213585   1.781   1.229   4.811
 4541TIP3   OH213586   4.548   0.345   5.335
 4541TIP3    H113587   4.605   0.349   5.258
 4541TIP3    H213588   4.583   0.273   5.387
 4542TIP3   OH213589   6.054   6.332   2.326
 4542TIP3    H113590   6.061   6.269   2.254
 4542TIP3    H213591   6.099   6.291   2.399
 4543TIP3   OH213592   3.355   6.727   3.400
 4543TIP3    H113593   3.308   6.745   3.481
 4543TIP3    H213594   3.432   6.677   3.427
 4544TIP3   OH213595   2.683   3.831   4.553
 4544TIP3    H113596   2.751   3.881   4.507
 4544TIP3    H213597   2.619   3.810   4.484
 4545TIP3   OH213598   1.230   2.427   3.598
 4545TIP3    H113599   1.294   2.469   3.656
 4545TIP3    H213600   1.165   2.390   3.657
 4546TIP3   OH213601   4.553   6.555   0.160
 4546TIP3    H113602   4.545   6.489   0.229
 4546TIP3    H213603   4.546   6.505   0.078
 4547TIP3   OH213604   3.807   2.268   2.788
 4547TIP3    H113605   3.883   2.310   2.748
 4547TIP3    H213606   3.777   2.206   2.721
 4548TIP3   OH213607   5.125   4.616   1.053
 4548TIP3    H113608   5.181   4.562   0.997
 4548TIP3    H213609   5.187   4.670   1.102
 4549TIP3   OH213610   4.198   6.769   2.777
 4549TIP3    H113611   4.266   6.815   2.727
 4549TIP3    H213612   4.247   6.717   2.841
 4550TIP3   OH213613   0.371   2.630   1.539
 4550TIP3    H113614   0.312   2.652   1.611
 4550TIP3    H213615   0.418   2.711   1.521
 4551TIP3   OH213616   5.328   0.164   0.766
 4551TIP3    H113617   5.373   0.236   0.723
 4551TIP3    H213618   5.331   0.093   0.702
 4552TIP3   OH213619   4.194   0.754   4.991
 4552TIP3    H113620   4.248   0.748   4.912
 4552TIP3    H213621   4.249   0.717   5.061
 4553TIP3   OH213622   4.188   3.832   2.341
 4553TIP3    H113623   4.260   3.812   2.402
 4553TIP3    H213624   4.206   3.921   2.311
 4554TIP3   OH213625   3.835   4.157   4.108
 4554TIP3    H113626   3.880   4.194   4.185
 4554TIP3    H213627   3.765   4.220   4.089
 4555TIP3   OH213628   0.122   6.105   3.313
 4555TIP3    H113629   0.120   6.111   3.409
 4555TIP3    H213630   0.146   6.193   3.284
 4556TIP3   OH213631   3.305   1.774   3.655
 4556TIP3    H113632   3.302   1.739   3.566
 4556TIP3    H213633   3.315   1.868   3.644
 4557TIP3   OH213634   1.142   1.321   0.741
 4557TIP3    H113635   1.222   1.307   0.791
 4557TIP3    H213636   1.170   1.322   0.650
 4558TIP3   OH213637   5.377   6.461   0.676
 4558TIP3    H113638   5.452   6.402   0.665
 4558TIP3    H213639   5.368   6.505   0.592
 4559TIP3   OH213640   2.793   6.089   4.999
 4559TIP3    H113641   2.712   6.063   5.043
 4559TIP3    H213642   2.782   6.060   4.909
 4560TIP3   OH213643   0.909   0.629   4.932
 4560TIP3    H113644   0.831   0.597   4.886
 4560TIP3    H213645   0.884   0.716   4.963
 4561TIP3   OH213646   5.465   5.306   0.813
 4561TIP3    H113647   5.465   5.357   0.732
 4561TIP3    H213648   5.440   5.218   0.786
 4562TIP3   OH213649   1.805   4.711   0.072
 4562TIP3    H113650   1.741   4.774   0.039
 4562TIP3    H213651   1.871   4.765   0.116
 4563TIP3   OH213652   1.536   4.521   1.474
 4563TIP3    H113653   1.474   4.467   1.523
 4563TIP3    H213654   1.621   4.503   1.515
 4564TIP3   OH213655   5.762   0.031   4.723
 4564TIP3    H113656   5.796   0.109   4.681
 4564TIP3    H213657   5.759   0.052   4.816
 4565TIP3   OH213658   6.863   1.971   1.865
 4565TIP3    H113659   6.861   2.027   1.788
 4565TIP3    H213660   6.771   1.950   1.883
 4566TIP3   OH213661   1.392   4.430   1.699
 4566TIP3    H113662   1.486   4.448   1.705
 4566TIP3    H213663   1.352   4.499   1.751
 4567TIP3   OH213664   1.487   0.277   5.178
 4567TIP3    H113665   1.465   0.253   5.268
 4567TIP3    H213666   1.403   0.291   5.135
 4568TIP3   OH213667   1.489   5.877   4.780
 4568TIP3    H113668   1.506   5.798   4.831
 4568TIP3    H213669   1.410   5.856   4.729
 4569TIP3   OH213670   1.157   5.182   5.884
 4569TIP3    H113671   1.083   5.122   5.895
 4569TIP3    H213672   1.211   5.140   5.817
 4570TIP3   OH213673   5.233   2.475   2.428
 4570TIP3    H113674   5.204   2.468   2.337
 4570TIP3    H213675   5.308   2.535   2.425
 4571TIP3   OH213676   4.482   1.453   5.607
 4571TIP3    H113677   4.416   1.420   5.668
 4571TIP3    H213678   4.439   1.527   5.563
 4572TIP3   OH213679   1.379   2.442   5.545
 4572TIP3    H113680   1.327   2.402   5.475
 4572TIP3    H213681   1.423   2.368   5.587
 4573TIP3   OH213682   1.193   5.521   2.946
 4573TIP3    H113683   1.173   5.442   2.997
 4573TIP3    H213684   1.279   5.503   2.908
 4574TIP3   OH213685   2.534   6.549   3.669
 4574TIP3    H113686   2.580   6.522   3.748
 4574TIP3    H213687   2.458   6.598   3.700
 4575TIP3   OH213688   0.203   2.842   5.438
 4575TIP3    H113689   0.259   2.814   5.366
 4575TIP3    H213690   0.152   2.764   5.461
 4576TIP3   OH213691   0.383   4.565   1.026
 4576TIP3    H113692   0.397   4.477   0.991
 4576TIP3    H213693   0.288   4.575   1.025
 4577TIP3   OH213694   7.144   0.913   1.740
 4577TIP3    H113695   7.056   0.940   1.714
 4577TIP3    H213696   7.188   0.892   1.658
 4578TIP3   OH213697   0.154   3.062   4.952
 4578TIP3    H113698   0.154   2.970   4.926
 4578TIP3    H213699   0.246   3.081   4.972
 4579TIP3   OH213700   6.770   1.538   2.436
 4579TIP3    H113701   6.755   1.482   2.513
 4579TIP3    H213702   6.782   1.476   2.364
 4580TIP3   OH213703   5.134   4.421   1.927
 4580TIP3    H113704   5.071   4.386   1.991
 4580TIP3    H213705   5.216   4.376   1.947
 4581TIP3   OH213706   5.419   2.184   1.469
 4581TIP3    H113707   5.337   2.186   1.518
 4581TIP3    H213708   5.433   2.092   1.449
 4582TIP3   OH213709   6.911   1.398   1.728
 4582TIP3    H113710   6.858   1.361   1.657
 4582TIP3    H213711   6.989   1.433   1.685
 4583TIP3   OH213712   0.152   1.439   1.133
 4583TIP3    H113713   0.076   1.424   1.191
 4583TIP3    H213714   0.183   1.351   1.112
 4584TIP3   OH213715   5.760   5.953   1.291
 4584TIP3    H113716   5.789   5.922   1.377
 4584TIP3    H213717   5.665   5.939   1.292
 4585TIP3   OH213718   4.201   1.555   5.217
 4585TIP3    H113719   4.225   1.595   5.134
 4585TIP3    H213720   4.157   1.473   5.193
 4586TIP3   OH213721   3.139   4.782   4.564
 4586TIP3    H113722   3.079   4.851   4.536
 4586TIP3    H213723   3.113   4.763   4.655
 4587TIP3   OH213724   1.852   4.701   0.455
 4587TIP3    H113725   1.861   4.753   0.375
 4587TIP3    H213726   1.805   4.622   0.427
 4588TIP3   OH213727   3.851   4.202   3.342
 4588TIP3    H113728   3.867   4.233   3.253
 4588TIP3    H213729   3.915   4.133   3.355
 4589TIP3   OH213730   4.887   2.678   2.067
 4589TIP3    H113731   4.804   2.678   2.018
 4589TIP3    H213732   4.908   2.586   2.078
 4590TIP3   OH213733   0.690   2.599   2.755
 4590TIP3    H113734   0.708   2.505   2.750
 4590TIP3    H213735   0.761   2.639   2.704
 4591TIP3   OH213736   0.400   0.134   1.549
 4591TIP3    H113737   0.326   0.080   1.575
 4591TIP3    H213738   0.362   0.199   1.490
 4592TIP3   OH213739   3.370   2.726   0.190
 4592TIP3    H113740   3.458   2.704   0.221
 4592TIP3    H213741   3.351   2.660   0.124
 4593TIP3   OH213742   5.959  -0.030   2.183
 4593TIP3    H113743   5.926  -0.002   2.098
 4593TIP3    H213744   5.958   0.050   2.236
 4594TIP3   OH213745   3.615   4.658   2.574
 4594TIP3    H113746   3.666   4.651   2.654
 4594TIP3    H213747   3.602   4.568   2.545
 4595TIP3   OH213748   1.092   3.109   5.028
 4595TIP3    H113749   1.052   3.186   4.986
 4595TIP3    H213750   1.167   3.089   4.972
 4596TIP3   OH213751   0.300   2.599   5.299
 4596TIP3    H113752   0.311   2.536   5.370
 4596TIP3    H213753   0.246   2.554   5.234
 4597TIP3   OH213754   0.446   0.309   5.307
 4597TIP3    H113755   0.418   0.348   5.224
 4597TIP3    H213756   0.388   0.350   5.372
 4598TIP3   OH213757   6.439   0.487   5.140
 4598TIP3    H113758   6.391   0.557   5.096
 4598TIP3    H213759   6.530   0.500   5.115
 4599TIP3   OH213760   2.106   4.445   0.834
 4599TIP3    H113761   2.113   4.425   0.927
 4599TIP3    H213762   2.139   4.367   0.790
 4600TIP3   OH213763   2.575   4.226   4.097
 4600TIP3    H113764   2.655   4.192   4.137
 4600TIP3    H213765   2.518   4.149   4.089
 4601TIP3   OH213766   2.815   0.738   2.287
 4601TIP3    H113767   2.745   0.688   2.330
 4601TIP3    H213768   2.889   0.677   2.283
 4602TIP3   OH213769   3.151   2.423   0.470
 4602TIP3    H113770   3.149   2.373   0.552
 4602TIP3    H213771   3.134   2.358   0.402
 4603TIP3   OH213772   3.581   5.734   0.727
 4603TIP3    H113773   3.636   5.741   0.805
 4603TIP3    H213774   3.602   5.813   0.676
 4604TIP3   OH213775   1.265   4.379   0.796
 4604TIP3    H113776   1.189   4.436   0.781
 4604TIP3    H213777   1.229   4.291   0.797
 4605TIP3   OH213778   3.343   1.699   5.359
 4605TIP3    H113779   3.295   1.726   5.438
 4605TIP3    H213780   3.274   1.679   5.295
 4606TIP3   OH213781   0.288   1.574   2.297
 4606TIP3    H113782   0.313   1.635   2.227
 4606TIP3    H213783   0.360   1.579   2.360
 4607TIP3   OH213784   3.028   5.660   3.642
 4607TIP3    H113785   2.981   5.720   3.699
 4607TIP3    H213786   3.067   5.596   3.701
 4608TIP3   OH213787   1.260   4.173   0.612
 4608TIP3    H113788   1.236   4.227   0.537
 4608TIP3    H213789   1.347   4.202   0.637
 4609TIP3   OH213790   6.817   4.934   2.410
 4609TIP3    H113791   6.751   4.924   2.478
 4609TIP3    H213792   6.783   5.002   2.352
 4610TIP3   OH213793   2.532   2.263   1.260
 4610TIP3    H113794   2.469   2.193   1.279
 4610TIP3    H213795   2.512   2.290   1.171
 4611TIP3   OH213796   1.556   5.136   4.612
 4611TIP3    H113797   1.539   5.093   4.696
 4611TIP3    H213798   1.492   5.207   4.608
 4612TIP3   OH213799   3.637   5.287   3.653
 4612TIP3    H113800   3.607   5.246   3.571
 4612TIP3    H213801   3.654   5.378   3.630
 4613TIP3   OH213802   2.557   3.511   3.470
 4613TIP3    H113803   2.600   3.590   3.504
 4613TIP3    H213804   2.625   3.466   3.420
 4614TIP3   OH213805   1.251   4.629   1.876
 4614TIP3    H113806   1.286   4.716   1.896
 4614TIP3    H213807   1.238   4.589   1.962
 4615TIP3   OH213808   1.477   4.171   2.729
 4615TIP3    H113809   1.542   4.200   2.665
 4615TIP3    H213810   1.404   4.232   2.719
 4616TIP3   OH213811   4.721   3.558   2.453
 4616TIP3    H113812   4.726   3.513   2.369
 4616TIP3    H213813   4.754   3.646   2.434
 4617TIP3   OH213814   6.774   3.832   2.436
 4617TIP3    H113815   6.724   3.811   2.357
 4617TIP3    H213816   6.860   3.793   2.419
 4618TIP3   OH213817   6.200   1.193   4.840
 4618TIP3    H113818   6.158   1.125   4.893
 4618TIP3    H213819   6.190   1.273   4.892
 4619TIP3   OH213820   2.644   1.193   2.341
 4619TIP3    H113821   2.693   1.269   2.370
 4619TIP3    H213822   2.674   1.178   2.251
 4620TIP3   OH213823   0.593   4.785   3.444
 4620TIP3    H113824   0.574   4.860   3.387
 4620TIP3    H213825   0.608   4.712   3.384
 4621TIP3   OH213826   1.685   2.865   1.688
 4621TIP3    H113827   1.640   2.803   1.746
 4621TIP3    H213828   1.638   2.947   1.700
 4622TIP3   OH213829   6.249   3.628   1.438
 4622TIP3    H113830   6.211   3.650   1.523
 4622TIP3    H213831   6.333   3.673   1.437
 4623TIP3   OH213832   2.841   0.943   3.605
 4623TIP3    H113833   2.746   0.933   3.611
 4623TIP3    H213834   2.854   1.035   3.583
 4624TIP3   OH213835   1.445   2.757   3.935
 4624TIP3    H113836   1.354   2.780   3.949
 4624TIP3    H213837   1.481   2.832   3.886
 4625TIP3   OH213838   2.355   6.192   1.582
 4625TIP3    H113839   2.325   6.219   1.669
 4625TIP3    H213840   2.431   6.247   1.565
 4626TIP3   OH213841   1.831   1.129   3.895
 4626TIP3    H113842   1.856   1.221   3.903
 4626TIP3    H213843   1.847   1.108   3.803
 4627TIP3   OH213844   6.602   0.167   2.255
 4627TIP3    H113845   6.617   0.260   2.243
 4627TIP3    H213846   6.625   0.128   2.170
 4628TIP3   OH213847   2.177   5.829   1.317
 4628TIP3    H113848   2.249   5.890   1.331
 4628TIP3    H213849   2.099   5.878   1.341
 4629TIP3   OH213850   6.306   4.256   3.486
 4629TIP3    H113851   6.388   4.305   3.491
 4629TIP3    H213852   6.328   4.177   3.437
 4630TIP3   OH213853   1.817   5.892   3.933
 4630TIP3    H113854   1.811   5.799   3.911
 4630TIP3    H213855   1.730   5.926   3.914
 4631TIP3   OH213856   5.891   6.428   2.987
 4631TIP3    H113857   5.889   6.333   2.991
 4631TIP3    H213858   5.935   6.447   2.904
 4632TIP3   OH213859   2.119   3.133   3.206
 4632TIP3    H113860   2.044   3.125   3.148
 4632TIP3    H213861   2.171   3.205   3.169
 4633TIP3   OH213862   2.424   6.372   3.368
 4633TIP3    H113863   2.378   6.452   3.395
 4633TIP3    H213864   2.470   6.344   3.447
 4634TIP3   OH213865   5.186   5.351   0.830
 4634TIP3    H113866   5.281   5.341   0.838
 4634TIP3    H213867   5.155   5.265   0.802
 4635TIP3   OH213868   5.466   2.288   1.733
 4635TIP3    H113869   5.549   2.335   1.732
 4635TIP3    H213870   5.474   2.223   1.664
 4636TIP3   OH213871   1.609   1.060   1.866
 4636TIP3    H113872   1.522   1.021   1.852
 4636TIP3    H213873   1.590   1.152   1.885
 4637TIP3   OH213874   4.563   0.978   4.868
 4637TIP3    H113875   4.530   0.889   4.878
 4637TIP3    H213876   4.614   0.993   4.948
 4638TIP3   OH213877   5.898   0.399   3.352
 4638TIP3    H113878   5.869   0.476   3.303
 4638TIP3    H213879   5.927   0.433   3.437
 4639TIP3   OH213880   4.557   0.385   0.288
 4639TIP3    H113881   4.629   0.349   0.237
 4639TIP3    H213882   4.567   0.346   0.375
 4640TIP3   OH213883   5.677   1.345   5.349
 4640TIP3    H113884   5.724   1.319   5.428
 4640TIP3    H213885   5.588   1.311   5.361
 4641TIP3   OH213886   4.586   4.890   4.798
 4641TIP3    H113887   4.591   4.887   4.894
 4641TIP3    H213888   4.510   4.944   4.780
 4642TIP3   OH213889   0.676   3.197   0.157
 4642TIP3    H113890   0.745   3.144   0.197
 4642TIP3    H213891   0.635   3.139   0.093
 4643TIP3   OH213892  -0.020   0.091   5.271
 4643TIP3    H113893   0.045   0.062   5.334
 4643TIP3    H213894   0.005   0.182   5.253
 4644TIP3   OH213895   3.284   1.508   4.038
 4644TIP3    H113896   3.361   1.536   3.988
 4644TIP3    H213897   3.212   1.558   4.000
 4645TIP3   OH213898   3.589   6.195   0.793
 4645TIP3    H113899   3.521   6.136   0.761
 4645TIP3    H213900   3.560   6.282   0.765
 4646TIP3   OH213901   2.192   6.597   0.213
 4646TIP3    H113902   2.223   6.569   0.127
 4646TIP3    H213903   2.228   6.685   0.224
 4647TIP3   OH213904   4.977   6.406   2.324
 4647TIP3    H113905   5.019   6.321   2.337
 4647TIP3    H213906   4.883   6.386   2.324
 4648TIP3   OH213907   5.969   0.767   2.713
 4648TIP3    H113908   5.957   0.679   2.747
 4648TIP3    H213909   5.947   0.825   2.786
 4649TIP3   OH213910   2.805   0.237   1.800
 4649TIP3    H113911   2.828   0.260   1.890
 4649TIP3    H213912   2.733   0.175   1.809
 4650TIP3   OH213913   1.925   3.993   5.493
 4650TIP3    H113914   2.006   3.943   5.477
 4650TIP3    H213915   1.868   3.970   5.420
 4651TIP3   OH213916   4.476   2.956   2.571
 4651TIP3    H113917   4.412   2.936   2.639
 4651TIP3    H213918   4.560   2.926   2.606
 4652TIP3   OH213919   6.837   5.318   2.421
 4652TIP3    H113920   6.742   5.313   2.424
 4652TIP3    H213921   6.866   5.266   2.496
 4653TIP3   OH213922   0.975   4.860   0.587
 4653TIP3    H113923   0.982   4.840   0.493
 4653TIP3    H213924   0.900   4.919   0.594
 4654TIP3   OH213925   6.412   1.541   5.122
 4654TIP3    H113926   6.481   1.569   5.062
 4654TIP3    H213927   6.446   1.461   5.163
 4655TIP3   OH213928   5.451   2.341   2.760
 4655TIP3    H113929   5.470   2.412   2.820
 4655TIP3    H213930   5.362   2.314   2.781
 4656TIP3   OH213931   1.897   1.178   1.018
 4656TIP3    H113932   1.892   1.095   1.065
 4656TIP3    H213933   1.929   1.155   0.931
 4657TIP3   OH213934   4.724   2.814   3.934
 4657TIP3    H113935   4.729   2.828   3.839
 4657TIP3    H213936   4.780   2.739   3.951
 4658TIP3   OH213937   0.076   3.651   4.199
 4658TIP3    H113938   0.088   3.701   4.280
 4658TIP3    H213939   0.149   3.677   4.144
 4659TIP3   OH213940   2.592   4.959   3.851
 4659TIP3    H113941   2.610   4.996   3.765
 4659TIP3    H213942   2.512   4.909   3.840
 4660TIP3   OH213943   6.778   4.376   2.322
 4660TIP3    H113944   6.786   4.459   2.369
 4660TIP3    H213945   6.830   4.389   2.242
 4661TIP3   OH213946   5.396   2.741   2.073
 4661TIP3    H113947   5.473   2.758   2.018
 4661TIP3    H213948   5.322   2.743   2.013
 4662TIP3   OH213949   3.348   0.386   2.332
 4662TIP3    H113950   3.381   0.296   2.339
 4662TIP3    H213951   3.288   0.384   2.258
 4663TIP3   OH213952   0.355   0.660   2.844
 4663TIP3    H113953   0.291   0.666   2.914
 4663TIP3    H213954   0.361   0.749   2.808
 4664TIP3   OH213955   4.368   3.331   2.751
 4664TIP3    H113956   4.399   3.262   2.809
 4664TIP3    H213957   4.441   3.393   2.746
 4665TIP3   OH213958   6.138   5.524   5.103
 4665TIP3    H113959   6.215   5.554   5.151
 4665TIP3    H213960   6.065   5.538   5.163
 4666TIP3   OH213961   4.609   6.142   2.500
 4666TIP3    H113962   4.575   6.079   2.436
 4666TIP3    H213963   4.654   6.088   2.565
 4667TIP3   OH213964   0.435   1.817   0.411
 4667TIP3    H113965   0.393   1.897   0.443
 4667TIP3    H213966   0.441   1.829   0.316
 4668TIP3   OH213967   3.059   1.944   2.081
 4668TIP3    H113968   3.135   1.902   2.040
 4668TIP3    H213969   3.091   1.974   2.166
 4669TIP3   OH213970   6.727   3.633   3.192
 4669TIP3    H113971   6.748   3.637   3.285
 4669TIP3    H213972   6.696   3.721   3.171
 4670TIP3   OH213973   5.533   1.733   0.566
 4670TIP3    H113974   5.499   1.692   0.646
 4670TIP3    H213975   5.605   1.675   0.540
 4671TIP3   OH213976   4.330   0.952   4.566
 4671TIP3    H113977   4.369   1.038   4.549
 4671TIP3    H213978   4.243   0.957   4.526
 4672TIP3   OH213979   6.586   2.154   3.827
 4672TIP3    H113980   6.548   2.108   3.901
 4672TIP3    H213981   6.652   2.094   3.793
 4673TIP3   OH213982   1.364   0.863   3.123
 4673TIP3    H113983   1.337   0.882   3.213
 4673TIP3    H213984   1.436   0.924   3.106
 4674TIP3   OH213985   5.913   3.029   1.987
 4674TIP3    H113986   5.915   3.004   2.079
 4674TIP3    H213987   5.904   2.946   1.940
 4675TIP3   OH213988   2.451   1.469   1.910
 4675TIP3    H113989   2.487   1.507   1.990
 4675TIP3    H213990   2.520   1.479   1.845
 4676TIP3   OH213991   1.739   5.834   0.359
 4676TIP3    H113992   1.703   5.831   0.270
 4676TIP3    H213993   1.816   5.777   0.356
 4677TIP3   OH213994   2.734   5.925   4.771
 4677TIP3    H113995   2.731   5.993   4.703
 4677TIP3    H213996   2.650   5.880   4.763
 4678TIP3   OH213997   0.082   5.680   5.506
 4678TIP3    H113998   0.130   5.740   5.563
 4678TIP3    H213999   0.142   5.662   5.434
 4679TIP3   OH214000   2.005   1.906   1.409
 4679TIP3    H114001   1.999   1.830   1.352
 4679TIP3    H214002   2.088   1.896   1.455
 4680TIP3   OH214003   4.785   6.050   2.697
 4680TIP3    H114004   4.820   6.131   2.661
 4680TIP3    H214005   4.746   6.076   2.781
 4681TIP3   OH214006   0.495   3.700   0.542
 4681TIP3    H114007   0.441   3.754   0.484
 4681TIP3    H214008   0.584   3.711   0.508
 4682TIP3   OH214009   6.057   3.016   3.242
 4682TIP3    H114010   6.149   2.992   3.236
 4682TIP3    H214011   6.010   2.933   3.248
 4683TIP3   OH214012   4.956   2.677   4.411
 4683TIP3    H114013   5.028   2.630   4.452
 4683TIP3    H214014   4.981   2.769   4.416
 4684TIP3   OH214015   6.553   6.187   3.569
 4684TIP3    H114016   6.610   6.258   3.543
 4684TIP3    H214017   6.611   6.111   3.577
 4685TIP3   OH214018   6.426   6.573   4.211
 4685TIP3    H114019   6.409   6.667   4.218
 4685TIP3    H214020   6.393   6.536   4.292
 4686TIP3   OH214021   2.408   5.783   1.120
 4686TIP3    H114022   2.370   5.779   1.032
 4686TIP3    H214023   2.336   5.760   1.178
 4687TIP3   OH214024   2.523  -0.033   2.638
 4687TIP3    H114025   2.521   0.037   2.703
 4687TIP3    H214026   2.448  -0.089   2.659
 4688TIP3   OH214027   2.341   2.569   5.583
 4688TIP3    H114028   2.348   2.475   5.568
 4688TIP3    H214029   2.377   2.609   5.504
 4689TIP3   OH214030   3.360   6.747   0.947
 4689TIP3    H114031   3.267   6.745   0.967
 4689TIP3    H214032   3.380   6.658   0.917
 4690TIP3   OH214033   6.213   4.939   1.465
 4690TIP3    H114034   6.262   4.991   1.528
 4690TIP3    H214035   6.229   4.982   1.381
 4691TIP3   OH214036   3.110   5.368   0.071
 4691TIP3    H114037   3.033   5.423   0.086
 4691TIP3    H214038   3.098   5.336  -0.019
 4692TIP3   OH214039   2.144   5.230   0.665
 4692TIP3    H114040   2.211   5.256   0.601
 4692TIP3    H214041   2.136   5.306   0.722
 4693TIP3   OH214042   7.172   6.638   1.238
 4693TIP3    H114043   7.095   6.603   1.284
 4693TIP3    H214044   7.208   6.702   1.299
 4694TIP3   OH214045   5.954   5.142   4.778
 4694TIP3    H114046   5.876   5.182   4.739
 4694TIP3    H214047   5.959   5.180   4.866
 4695TIP3   OH214048   0.368   4.357   4.138
 4695TIP3    H114049   0.415   4.317   4.065
 4695TIP3    H214050   0.424   4.428   4.167
 4696TIP3   OH214051   5.887   5.062   0.270
 4696TIP3    H114052   5.925   5.103   0.192
 4696TIP3    H214053   5.842   4.985   0.237
 4697TIP3   OH214054   3.967   4.578   3.879
 4697TIP3    H114055   4.016   4.544   3.954
 4697TIP3    H214056   3.959   4.672   3.895
 4698TIP3   OH214057   2.563   4.138   4.461
 4698TIP3    H114058   2.500   4.208   4.442
 4698TIP3    H214059   2.510   4.060   4.470
 4699TIP3   OH214060   6.509   1.616   2.339
 4699TIP3    H114061   6.450   1.546   2.314
 4699TIP3    H214062   6.590   1.572   2.365
 4700TIP3   OH214063   4.363   2.200   0.655
 4700TIP3    H114064   4.372   2.106   0.673
 4700TIP3    H214065   4.434   2.240   0.705
 4701TIP3   OH214066   0.630   5.666   2.163
 4701TIP3    H114067   0.555   5.615   2.131
 4701TIP3    H214068   0.700   5.647   2.102
 4702TIP3   OH214069   3.591   1.418   1.848
 4702TIP3    H114070   3.537   1.371   1.784
 4702TIP3    H214071   3.660   1.357   1.871
 4703TIP3   OH214072   3.609   6.614   3.513
 4703TIP3    H114073   3.640   6.597   3.424
 4703TIP3    H214074   3.571   6.531   3.541
 4704TIP3   OH214075   3.091   2.152   2.503
 4704TIP3    H114076   3.125   2.187   2.421
 4704TIP3    H214077   3.091   2.226   2.563
 4705TIP3   OH214078   2.346   6.283   2.876
 4705TIP3    H114079   2.260   6.251   2.903
 4705TIP3    H214080   2.402   6.272   2.953
 4706TIP3   OH214081   1.794   3.173   5.643
 4706TIP3    H114082   1.816   3.178   5.736
 4706TIP3    H214083   1.698   3.169   5.642
 4707TIP3   OH214084   3.492   0.760   3.402
 4707TIP3    H114085   3.406   0.732   3.434
 4707TIP3    H214086   3.486   0.856   3.398
 4708TIP3   OH214087   5.591   3.431   0.899
 4708TIP3    H114088   5.645   3.428   0.978
 4708TIP3    H214089   5.653   3.442   0.827
 4709TIP3   OH214090   1.977   1.556   5.848
 4709TIP3    H114091   2.061   1.598   5.832
 4709TIP3    H214092   1.999   1.473   5.889
 4710TIP3   OH214093   0.235   2.940   1.003
 4710TIP3    H114094   0.149   2.939   1.046
 4710TIP3    H214095   0.272   2.854   1.023
 4711TIP3   OH214096   4.174   3.941   4.005
 4711TIP3    H114097   4.104   3.963   3.944
 4711TIP3    H214098   4.197   3.850   3.983
 4712TIP3   OH214099   3.068   4.363   3.209
 4712TIP3    H114100   3.150   4.408   3.188
 4712TIP3    H214101   3.094   4.274   3.230
 4713TIP3   OH214102   2.740   1.147   5.848
 4713TIP3    H114103   2.705   1.090   5.916
 4713TIP3    H214104   2.832   1.121   5.839
 4714TIP3   OH214105   0.108   4.502   4.813
 4714TIP3    H114106   0.057   4.539   4.741
 4714TIP3    H214107   0.177   4.567   4.829
 4715TIP3   OH214108   2.268   1.874   1.488
 4715TIP3    H114109   2.323   1.953   1.493
 4715TIP3    H214110   2.316   1.815   1.430
 4716TIP3   OH214111   4.130   6.106   4.940
 4716TIP3    H114112   4.166   6.187   4.976
 4716TIP3    H214113   4.087   6.132   4.859
 4717TIP3   OH214114   5.830   6.232   1.477
 4717TIP3    H114115   5.802   6.188   1.397
 4717TIP3    H214116   5.919   6.202   1.491
 4718TIP3   OH214117   5.338   5.915   5.498
 4718TIP3    H114118   5.373   5.837   5.541
 4718TIP3    H214119   5.291   5.961   5.567
 4719TIP3   OH214120   6.423   3.325   2.851
 4719TIP3    H114121   6.398   3.268   2.779
 4719TIP3    H214122   6.510   3.295   2.876
 4720TIP3   OH214123   6.458   4.912   1.726
 4720TIP3    H114124   6.515   4.842   1.693
 4720TIP3    H214125   6.369   4.876   1.718
 4721TIP3   OH214126   3.013   3.376   3.029
 4721TIP3    H114127   2.991   3.469   3.017
 4721TIP3    H214128   3.010   3.340   2.940
 4722TIP3   OH214129   1.823   0.588   0.883
 4722TIP3    H114130   1.751   0.541   0.843
 4722TIP3    H214131   1.795   0.680   0.882
 4723TIP3   OH214132   4.780   0.130   2.686
 4723TIP3    H114133   4.830   0.053   2.660
 4723TIP3    H214134   4.778   0.125   2.782
 4724TIP3   OH214135   4.241   2.715   4.906
 4724TIP3    H114136   4.337   2.709   4.910
 4724TIP3    H214137   4.219   2.783   4.969
 4725TIP3   OH214138   0.114   2.674   3.753
 4725TIP3    H114139   0.110   2.605   3.686
 4725TIP3    H214140   0.153   2.749   3.707
 4726TIP3   OH214141   1.065   0.438   4.151
 4726TIP3    H114142   1.133   0.411   4.090
 4726TIP3    H214143   1.031   0.520   4.117
 4727TIP3   OH214144   3.487   5.247   5.646
 4727TIP3    H114145   3.410   5.249   5.703
 4727TIP3    H214146   3.451   5.256   5.557
 4728TIP3   OH214147   1.955   6.643   0.124
 4728TIP3    H114148   2.029   6.609   0.175
 4728TIP3    H214149   1.905   6.696   0.186
 4729TIP3   OH214150   1.655   6.757   2.701
 4729TIP3    H114151   1.690   6.747   2.790
 4729TIP3    H214152   1.598   6.681   2.689
 4730TIP3   OH214153   4.829   2.744   3.056
 4730TIP3    H114154   4.744   2.726   3.097
 4730TIP3    H214155   4.824   2.835   3.029
 4731TIP3   OH214156   6.267   0.168   1.763
 4731TIP3    H114157   6.196   0.231   1.775
 4731TIP3    H214158   6.270   0.119   1.845
 4732TIP3   OH214159   0.178   1.780   5.109
 4732TIP3    H114160   0.223   1.745   5.033
 4732TIP3    H214161   0.228   1.748   5.185
 4733TIP3   OH214162   4.011   0.081   2.026
 4733TIP3    H114163   4.105   0.098   2.023
 4733TIP3    H214164   4.002  -0.008   1.992
 4734TIP3   OH214165   1.505   5.086   2.984
 4734TIP3    H114166   1.552   5.026   2.927
 4734TIP3    H214167   1.442   5.031   3.032
 4735TIP3   OH214168   1.019   5.683   0.609
 4735TIP3    H114169   1.028   5.588   0.601
 4735TIP3    H214170   0.942   5.695   0.665
 4736TIP3   OH214171   5.000   1.784   2.735
 4736TIP3    H114172   4.962   1.764   2.821
 4736TIP3    H214173   5.095   1.776   2.748
 4737TIP3   OH214174   0.379   6.403   4.690
 4737TIP3    H114175   0.400   6.311   4.707
 4737TIP3    H214176   0.340   6.435   4.772
 4738TIP3   OH214177   6.058   6.793   5.294
 4738TIP3    H114178   6.003   6.735   5.347
 4738TIP3    H214179   6.055   6.877   5.340
 4739TIP3   OH214180   2.453   2.645   5.332
 4739TIP3    H114181   2.530   2.675   5.284
 4739TIP3    H214182   2.379   2.679   5.282
 4740TIP3   OH214183   0.628   0.861   3.400
 4740TIP3    H114184   0.616   0.854   3.306
 4740TIP3    H214185   0.614   0.953   3.420
 4741TIP3   OH214186   6.277   2.536   2.727
 4741TIP3    H114187   6.214   2.601   2.694
 4741TIP3    H214188   6.300   2.485   2.649
 4742TIP3   OH214189   4.696   4.218   4.710
 4742TIP3    H114190   4.724   4.266   4.632
 4742TIP3    H214191   4.692   4.285   4.779
 4743TIP3   OH214192   1.653   0.493   5.100
 4743TIP3    H114193   1.601   0.417   5.128
 4743TIP3    H214194   1.589   0.563   5.090
 4744TIP3   OH214195   3.323   2.331   2.461
 4744TIP3    H114196   3.275   2.392   2.517
 4744TIP3    H214197   3.272   2.327   2.381
 4745TIP3   OH214198   4.372   4.825   4.169
 4745TIP3    H114199   4.314   4.893   4.202
 4745TIP3    H214200   4.430   4.871   4.108
 4746TIP3   OH214201   6.334   2.922   0.305
 4746TIP3    H114202   6.413   2.892   0.350
 4746TIP3    H214203   6.322   3.012   0.336
 4747TIP3   OH214204   4.918   0.061   2.012
 4747TIP3    H114205   4.922   0.155   2.030
 4747TIP3    H214206   4.894   0.055   1.920
 4748TIP3   OH214207   1.928   1.254   1.599
 4748TIP3    H114208   1.833   1.271   1.595
 4748TIP3    H214209   1.939   1.198   1.676
 4749TIP3   OH214210   2.497   6.688   5.695
 4749TIP3    H114211   2.421   6.733   5.660
 4749TIP3    H214212   2.463   6.606   5.730
 4750TIP3   OH214213   2.486   5.263   0.881
 4750TIP3    H114214   2.489   5.328   0.952
 4750TIP3    H214215   2.417   5.295   0.823
 4751TIP3   OH214216   0.651   3.466   4.791
 4751TIP3    H114217   0.727   3.520   4.812
 4751TIP3    H214218   0.576   3.524   4.808
 4752TIP3   OH214219   2.345   1.486   2.383
 4752TIP3    H114220   2.253   1.504   2.365
 4752TIP3    H214221   2.390   1.505   2.301
 4753TIP3   OH214222   3.002   1.474   4.699
 4753TIP3    H114223   3.086   1.437   4.726
 4753TIP3    H214224   2.944   1.399   4.689
 4754TIP3   OH214225   7.195   0.402   3.096
 4754TIP3    H114226   7.289   0.386   3.099
 4754TIP3    H214227   7.184   0.492   3.126
 4755TIP3   OH214228   5.346   3.693   3.623
 4755TIP3    H114229   5.383   3.639   3.693
 4755TIP3    H214230   5.275   3.741   3.664
 4756TIP3   OH214231   1.714   3.189   2.099
 4756TIP3    H114232   1.671   3.243   2.032
 4756TIP3    H214233   1.680   3.223   2.182
 4757TIP3   OH214234   0.802   2.176   5.004
 4757TIP3    H114235   0.827   2.092   4.966
 4757TIP3    H214236   0.803   2.237   4.930
 4758TIP3   OH214237   0.967   2.955   5.564
 4758TIP3    H114238   0.907   2.909   5.624
 4758TIP3    H214239   0.909   3.012   5.513
 4759TIP3   OH214240   5.552   6.730   2.467
 4759TIP3    H114241   5.464   6.703   2.493
 4759TIP3    H214242   5.545   6.822   2.445
 4760TIP3   OH214243   2.563   1.470   4.845
 4760TIP3    H114244   2.490   1.526   4.872
 4760TIP3    H214245   2.629   1.531   4.811
 4761TIP3   OH214246   0.706   1.360   4.430
 4761TIP3    H114247   0.674   1.414   4.502
 4761TIP3    H214248   0.738   1.281   4.472
 4762TIP3   OH214249   4.063   0.871   1.382
 4762TIP3    H114250   3.984   0.882   1.329
 4762TIP3    H214251   4.031   0.849   1.469
 4763TIP3   OH214252   5.974   6.691   3.049
 4763TIP3    H114253   6.030   6.699   3.125
 4763TIP3    H214254   5.934   6.605   3.057
 4764TIP3   OH214255   0.227   4.837   3.035
 4764TIP3    H114256   0.138   4.833   3.000
 4764TIP3    H214257   0.272   4.762   2.995
 4765TIP3   OH214258   6.428   6.442   0.188
 4765TIP3    H114259   6.435   6.475   0.099
 4765TIP3    H214260   6.509   6.469   0.230
 4766TIP3   OH214261   7.035   2.674   2.010
 4766TIP3    H114262   7.053   2.581   2.019
 4766TIP3    H214263   6.961   2.690   2.068
 4767TIP3   OH214264   1.076   1.291   2.426
 4767TIP3    H114265   1.049   1.248   2.507
 4767TIP3    H214266   1.166   1.262   2.413
 4768TIP3   OH214267   7.034   0.199   3.166
 4768TIP3    H114268   7.080   0.276   3.135
 4768TIP3    H214269   7.101   0.131   3.172
 4769TIP3   OH214270   2.573   0.523   5.253
 4769TIP3    H114271   2.511   0.595   5.247
 4769TIP3    H214272   2.543   0.459   5.189
 4770TIP3   OH214273   1.999   3.239   4.388
 4770TIP3    H114274   2.054   3.316   4.398
 4770TIP3    H214275   1.910   3.270   4.408
 4771TIP3   OH214276   3.428   0.981   5.519
 4771TIP3    H114277   3.481   1.054   5.487
 4771TIP3    H214278   3.396   0.939   5.439
 4772TIP3   OH214279   2.524   4.638   3.582
 4772TIP3    H114280   2.471   4.572   3.537
 4772TIP3    H214281   2.604   4.591   3.607
 4773TIP3   OH214282   3.052   6.133   5.096
 4773TIP3    H114283   2.958   6.118   5.087
 4773TIP3    H214284   3.092   6.073   5.032
 4774TIP3   OH214285   1.600   3.057   3.475
 4774TIP3    H114286   1.665   3.119   3.443
 4774TIP3    H214287   1.519   3.108   3.483
 4775TIP3   OH214288   6.315   4.280   4.921
 4775TIP3    H114289   6.388   4.235   4.879
 4775TIP3    H214290   6.333   4.373   4.906
 4776TIP3   OH214291   6.177   5.708   0.488
 4776TIP3    H114292   6.232   5.760   0.547
 4776TIP3    H214293   6.095   5.697   0.535
 4777TIP3   OH214294   2.593   0.165   4.902
 4777TIP3    H114295   2.570   0.111   4.827
 4777TIP3    H214296   2.613   0.103   4.971
 4778TIP3   OH214297   2.193   4.697   0.085
 4778TIP3    H114298   2.239   4.773   0.122
 4778TIP3    H214299   2.240   4.678   0.003
 4779TIP3   OH214300   6.913   6.737   4.507
 4779TIP3    H114301   6.929   6.808   4.570
 4779TIP3    H214302   6.838   6.767   4.455
 4780TIP3   OH214303   4.005   5.553   1.907
 4780TIP3    H114304   4.000   5.474   1.854
 4780TIP3    H214305   4.098   5.562   1.928
 4781TIP3   OH214306   0.197   4.724   0.198
 4781TIP3    H114307   0.103   4.712   0.186
 4781TIP3    H214308   0.206   4.817   0.219
 4782TIP3   OH214309   1.321   1.219   3.454
 4782TIP3    H114310   1.334   1.301   3.407
 4782TIP3    H214311   1.324   1.243   3.547
 4783TIP3   OH214312   2.211   5.260   5.547
 4783TIP3    H114313   2.149   5.331   5.562
 4783TIP3    H214314   2.291   5.287   5.592
 4784TIP3   OH214315   1.891   3.118   3.015
 4784TIP3    H114316   1.840   3.184   3.062
 4784TIP3    H214317   1.825   3.057   2.980
 4785TIP3   OH214318   0.403   0.219   3.455
 4785TIP3    H114319   0.474   0.156   3.444
 4785TIP3    H214320   0.446   0.303   3.468
 4786TIP3   OH214321   2.065   2.442   3.676
 4786TIP3    H114322   1.989   2.418   3.624
 4786TIP3    H214323   2.081   2.534   3.654
 4787TIP3   OH214324   0.491   3.708   2.133
 4787TIP3    H114325   0.472   3.657   2.212
 4787TIP3    H214326   0.409   3.708   2.084
 4788TIP3   OH214327   5.913   1.299   1.800
 4788TIP3    H114328   5.883   1.209   1.785
 4788TIP3    H214329   5.957   1.324   1.718
 4789TIP3   OH214330   6.430   4.248   4.491
 4789TIP3    H114331   6.363   4.201   4.541
 4789TIP3    H214332   6.382   4.318   4.448
 4790TIP3   OH214333   5.756   4.030   2.755
 4790TIP3    H114334   5.741   4.089   2.681
 4790TIP3    H214335   5.743   3.942   2.718
 4791TIP3   OH214336   1.442   2.576   1.653
 4791TIP3    H114337   1.491   2.499   1.624
 4791TIP3    H214338   1.351   2.546   1.659
 4792TIP3   OH214339   6.759   5.983   3.589
 4792TIP3    H114340   6.812   6.022   3.659
 4792TIP3    H214341   6.822   5.937   3.534
 4793TIP3   OH214342   3.436   6.333   4.996
 4793TIP3    H114343   3.397   6.322   5.083
 4793TIP3    H214344   3.449   6.427   4.988
 4794TIP3   OH214345   2.974   3.074   2.119
 4794TIP3    H114346   2.925   3.004   2.162
 4794TIP3    H214347   2.980   3.046   2.027
 4795TIP3   OH214348   6.573   5.873   4.452
 4795TIP3    H114349   6.643   5.808   4.450
 4795TIP3    H214350   6.592   5.931   4.379
 4796TIP3   OH214351   2.610   5.508   4.981
 4796TIP3    H114352   2.614   5.541   4.891
 4796TIP3    H214353   2.650   5.577   5.034
 4797TIP3   OH214354   6.269   1.573   1.389
 4797TIP3    H114355   6.300   1.663   1.399
 4797TIP3    H214356   6.174   1.580   1.386
 4798TIP3   OH214357   6.293   6.071   3.492
 4798TIP3    H114358   6.382   6.076   3.526
 4798TIP3    H214359   6.304   6.065   3.397
 4799TIP3   OH214360   1.889   2.674   3.084
 4799TIP3    H114361   1.918   2.762   3.109
 4799TIP3    H214362   1.881   2.628   3.167
 4800TIP3   OH214363   7.052   4.549   5.016
 4800TIP3    H114364   7.106   4.621   4.984
 4800TIP3    H214365   7.114   4.478   5.033
 4801TIP3   OH214366   1.329   2.749   3.529
 4801TIP3    H114367   1.257   2.779   3.585
 4801TIP3    H214368   1.285   2.709   3.454
 4802TIP3   OH214369   3.265   6.678   3.057
 4802TIP3    H114370   3.182   6.641   3.027
 4802TIP3    H214371   3.305   6.607   3.108
 4803TIP3   OH214372   3.715   0.362   1.126
 4803TIP3    H114373   3.736   0.271   1.104
 4803TIP3    H214374   3.750   0.375   1.214
 4804TIP3   OH214375   0.008   2.542   2.868
 4804TIP3    H114376  -0.007   2.511   2.957
 4804TIP3    H214377   0.102   2.559   2.865
 4805TIP3   OH214378   3.634   4.626   0.509
 4805TIP3    H114379   3.552   4.675   0.506
 4805TIP3    H214380   3.608   4.537   0.534
 4806TIP3   OH214381   3.173   5.630   4.316
 4806TIP3    H114382   3.250   5.613   4.263
 4806TIP3    H214383   3.099   5.604   4.261
 4807TIP3   OH214384   4.389   5.476   0.938
 4807TIP3    H114385   4.447   5.401   0.926
 4807TIP3    H214386   4.327   5.471   0.866
 4808TIP3   OH214387   2.664   0.632   5.002
 4808TIP3    H114388   2.689   0.569   4.934
 4808TIP3    H214389   2.682   0.587   5.084
 4809TIP3   OH214390   3.652   2.464   3.179
 4809TIP3    H114391   3.663   2.474   3.084
 4809TIP3    H214392   3.624   2.550   3.210
 4810TIP3   OH214393   5.603   0.484   2.002
 4810TIP3    H114394   5.642   0.452   2.083
 4810TIP3    H214395   5.514   0.510   2.027
 4811TIP3   OH214396   0.946   3.613   2.172
 4811TIP3    H114397   1.033   3.601   2.136
 4811TIP3    H214398   0.893   3.542   2.133
 4812TIP3   OH214399   6.475   4.900   1.100
 4812TIP3    H114400   6.567   4.903   1.076
 4812TIP3    H214401   6.428   4.910   1.017
 4813TIP3   OH214402   5.731   3.678   3.803
 4813TIP3    H114403   5.644   3.661   3.839
 4813TIP3    H214404   5.717   3.687   3.709
 4814TIP3   OH214405   5.328   1.144   2.306
 4814TIP3    H114406   5.263   1.179   2.244
 4814TIP3    H214407   5.364   1.222   2.349
 4815TIP3   OH214408   6.480   4.120   4.794
 4815TIP3    H114409   6.561   4.115   4.742
 4815TIP3    H214410   6.488   4.048   4.857
 4816TIP3   OH214411   1.625   5.514   3.342
 4816TIP3    H114412   1.571   5.558   3.407
 4816TIP3    H214413   1.583   5.534   3.258
 4817TIP3   OH214414   2.183   2.478   0.524
 4817TIP3    H114415   2.226   2.488   0.439
 4817TIP3    H214416   2.252   2.488   0.588
 4818TIP3   OH214417   0.891   5.249   4.819
 4818TIP3    H114418   0.899   5.167   4.868
 4818TIP3    H214419   0.981   5.279   4.807
 4819TIP3   OH214420   1.368   3.926   1.494
 4819TIP3    H114421   1.338   3.962   1.411
 4819TIP3    H214422   1.289   3.926   1.550
 4820TIP3   OH214423   2.317   5.838   2.445
 4820TIP3    H114424   2.321   5.885   2.528
 4820TIP3    H214425   2.378   5.885   2.388
 4821TIP3   OH214426   4.962   1.488   2.940
 4821TIP3    H114427   5.017   1.484   2.862
 4821TIP3    H214428   4.997   1.561   2.991
 4822TIP3   OH214429   6.587   0.911   2.925
 4822TIP3    H114430   6.602   0.882   2.835
 4822TIP3    H214431   6.529   0.844   2.962
 4823TIP3   OH214432   6.916   0.137   5.270
 4823TIP3    H114433   7.007   0.112   5.288
 4823TIP3    H214434   6.896   0.099   5.185
 4824TIP3   OH214435   1.200   5.928   4.405
 4824TIP3    H114436   1.136   5.971   4.348
 4824TIP3    H214437   1.285   5.963   4.375
 4825TIP3   OH214438   3.968   6.535   3.738
 4825TIP3    H114439   3.899   6.570   3.794
 4825TIP3    H214440   3.958   6.440   3.745
 4826TIP3   OH214441   1.847   2.095   4.263
 4826TIP3    H114442   1.792   2.050   4.327
 4826TIP3    H214443   1.817   2.186   4.267
 4827TIP3   OH214444   4.154   4.433   2.528
 4827TIP3    H114445   4.204   4.352   2.527
 4827TIP3    H214446   4.115   4.439   2.441
 4828TIP3   OH214447   2.942   4.182   2.464
 4828TIP3    H114448   2.875   4.116   2.444
 4828TIP3    H214449   3.015   4.132   2.498
 4829TIP3   OH214450   6.702   5.713   0.376
 4829TIP3    H114451   6.624   5.713   0.322
 4829TIP3    H214452   6.713   5.622   0.403
 4830TIP3   OH214453   6.695   6.056   4.274
 4830TIP3    H114454   6.656   6.046   4.187
 4830TIP3    H214455   6.752   6.132   4.267
 4831TIP3   OH214456   4.213   2.181   3.035
 4831TIP3    H114457   4.253   2.115   3.091
 4831TIP3    H214458   4.123   2.188   3.067
 4832TIP3   OH214459   4.748   1.351   0.137
 4832TIP3    H114460   4.676   1.347   0.074
 4832TIP3    H214461   4.707   1.377   0.219
 4833TIP3   OH214462   5.516   4.509   0.851
 4833TIP3    H114463   5.600   4.465   0.834
 4833TIP3    H214464   5.531   4.600   0.825
 4834TIP3   OH214465   7.105   5.000   3.555
 4834TIP3    H114466   7.094   4.962   3.468
 4834TIP3    H214467   7.023   4.979   3.600
 4835TIP3   OH214468   2.573   5.789   1.948
 4835TIP3    H114469   2.611   5.874   1.971
 4835TIP3    H214470   2.504   5.774   2.013
 4836TIP3   OH214471   0.310   3.911   3.731
 4836TIP3    H114472   0.405   3.903   3.745
 4836TIP3    H214473   0.297   4.004   3.711
 4837TIP3   OH214474   3.693   2.264   4.124
 4837TIP3    H114475   3.677   2.178   4.163
 4837TIP3    H214476   3.633   2.323   4.171
 4838TIP3   OH214477   1.790   4.419   0.100
 4838TIP3    H114478   1.783   4.513   0.116
 4838TIP3    H214479   1.723   4.380   0.157
 4839TIP3   OH214480   4.954   5.188   4.318
 4839TIP3    H114481   4.920   5.277   4.326
 4839TIP3    H214482   5.049   5.199   4.314
 4840TIP3   OH214483   1.157   2.608   1.603
 4840TIP3    H114484   1.180   2.701   1.611
 4840TIP3    H214485   1.132   2.597   1.511
 4841TIP3   OH214486   5.174   1.611   1.622
 4841TIP3    H114487   5.224   1.598   1.703
 4841TIP3    H214488   5.213   1.550   1.559
 4842TIP3   OH214489   3.166   3.207   0.622
 4842TIP3    H114490   3.168   3.114   0.600
 4842TIP3    H214491   3.076   3.234   0.604
 4843TIP3   OH214492   3.776   0.237   2.089
 4843TIP3    H114493   3.848   0.198   2.041
 4843TIP3    H214494   3.749   0.312   2.035
 4844TIP3   OH214495   3.209   5.976   2.042
 4844TIP3    H114496   3.141   6.022   2.092
 4844TIP3    H214497   3.187   5.883   2.051
 4845TIP3   OH214498   2.208   6.272   2.091
 4845TIP3    H114499   2.264   6.211   2.043
 4845TIP3    H214500   2.123   6.229   2.095
 4846TIP3   OH214501   0.291   4.422   2.149
 4846TIP3    H114502   0.275   4.378   2.066
 4846TIP3    H214503   0.207   4.464   2.171
 4847TIP3   OH214504   3.047   0.565   2.324
 4847TIP3    H114505   3.108   0.636   2.306
 4847TIP3    H214506   3.076   0.494   2.268
 4848TIP3   OH214507   5.840   2.108   1.132
 4848TIP3    H114508   5.894   2.151   1.065
 4848TIP3    H214509   5.773   2.173   1.154
 4849TIP3   OH214510   1.556   3.830   2.456
 4849TIP3    H114511   1.514   3.892   2.516
 4849TIP3    H214512   1.631   3.878   2.421
 4850TIP3   OH214513   5.826   3.126   0.650
 4850TIP3    H114514   5.758   3.060   0.639
 4850TIP3    H214515   5.885   3.090   0.715
 4851TIP3   OH214516   1.765   2.455   5.637
 4851TIP3    H114517   1.720   2.525   5.684
 4851TIP3    H214518   1.748   2.472   5.545
 4852TIP3   OH214519   3.081   0.520   5.544
 4852TIP3    H114520   3.083   0.605   5.587
 4852TIP3    H214521   2.989   0.492   5.551
 4853TIP3   OH214522   7.134   6.347   5.405
 4853TIP3    H114523   7.200   6.416   5.414
 4853TIP3    H214524   7.153   6.307   5.320
 4854TIP3   OH214525   2.060   6.224   0.249
 4854TIP3    H114526   1.979   6.275   0.252
 4854TIP3    H214527   2.072   6.203   0.157
 4855TIP3   OH214528   4.458   6.537   0.760
 4855TIP3    H114529   4.367   6.520   0.734
 4855TIP3    H214530   4.486   6.610   0.705
 4856TIP3   OH214531   3.544   3.852   0.681
 4856TIP3    H114532   3.525   3.804   0.600
 4856TIP3    H214533   3.467   3.907   0.695
 4857TIP3   OH214534   3.599   3.675   3.015
 4857TIP3    H114535   3.667   3.614   2.987
 4857TIP3    H214536   3.563   3.710   2.933
 4858TIP3   OH214537   2.819   5.122   3.859
 4858TIP3    H114538   2.795   5.135   3.767
 4858TIP3    H214539   2.770   5.045   3.887
 4859TIP3   OH214540   3.612   5.046   5.453
 4859TIP3    H114541   3.637   4.979   5.389
 4859TIP3    H214542   3.654   5.017   5.535
 4860TIP3   OH214543   3.703   0.124   5.697
 4860TIP3    H114544   3.705   0.143   5.603
 4860TIP3    H214545   3.660   0.200   5.736
 4861TIP3   OH214546   5.321   4.194   1.617
 4861TIP3    H114547   5.264   4.131   1.572
 4861TIP3    H214548   5.278   4.279   1.603
 4862TIP3   OH214549   5.830   4.706   2.508
 4862TIP3    H114550   5.742   4.738   2.528
 4862TIP3    H214551   5.865   4.678   2.592
 4863TIP3   OH214552   6.778   0.488   4.550
 4863TIP3    H114553   6.848   0.510   4.489
 4863TIP3    H214554   6.746   0.572   4.582
 4864TIP3   OH214555   6.398   5.797   4.785
 4864TIP3    H114556   6.326   5.801   4.848
 4864TIP3    H214557   6.465   5.855   4.822
 4865TIP3   OH214558   6.216   3.062   2.429
 4865TIP3    H114559   6.299   3.100   2.401
 4865TIP3    H214560   6.202   2.988   2.370
 4866TIP3   OH214561   1.715   2.894   0.989
 4866TIP3    H114562   1.631   2.903   1.033
 4866TIP3    H214563   1.733   2.800   0.991
 4867TIP3   OH214564   1.714   2.791   4.605
 4867TIP3    H114565   1.629   2.790   4.649
 4867TIP3    H214566   1.774   2.750   4.667
 4868TIP3   OH214567   5.198   3.316   1.084
 4868TIP3    H114568   5.278   3.263   1.079
 4868TIP3    H214569   5.144   3.272   1.150
 4869TIP3   OH214570   4.340   2.975   1.831
 4869TIP3    H114571   4.400   2.950   1.761
 4869TIP3    H214572   4.276   3.032   1.789
 4870TIP3   OH214573   6.373   4.779   0.176
 4870TIP3    H114574   6.397   4.727   0.099
 4870TIP3    H214575   6.367   4.869   0.143
 4871TIP3   OH214576   2.715   1.494   2.882
 4871TIP3    H114577   2.776   1.423   2.863
 4871TIP3    H214578   2.756   1.543   2.954
 4872TIP3   OH214579   4.489   0.114   2.645
 4872TIP3    H114580   4.450   0.179   2.587
 4872TIP3    H214581   4.578   0.144   2.660
 4873TIP3   OH214582   4.795   4.062   4.198
 4873TIP3    H114583   4.731   4.105   4.142
 4873TIP3    H214584   4.748   3.986   4.233
 4874TIP3   OH214585   4.931   1.575   1.355
 4874TIP3    H114586   4.896   1.570   1.444
 4874TIP3    H214587   4.895   1.656   1.319
 4875TIP3   OH214588   6.063   5.719   0.205
 4875TIP3    H114589   6.096   5.666   0.133
 4875TIP3    H214590   6.000   5.663   0.250
 4876TIP3   OH214591   1.198   0.024   2.288
 4876TIP3    H114592   1.249   0.034   2.208
 4876TIP3    H214593   1.182  -0.070   2.295
 4877TIP3   OH214594   2.116   1.431   5.062
 4877TIP3    H114595   2.132   1.389   5.147
 4877TIP3    H214596   2.026   1.463   5.068
 4878TIP3   OH214597   5.897   4.971   3.235
 4878TIP3    H114598   5.841   4.893   3.231
 4878TIP3    H214599   5.985   4.939   3.216
 4879TIP3   OH214600   4.682   2.584   5.227
 4879TIP3    H114601   4.773   2.612   5.219
 4879TIP3    H214602   4.684   2.518   5.296
 4880TIP3   OH214603   1.954   6.311   3.862
 4880TIP3    H114604   1.974   6.368   3.935
 4880TIP3    H214605   1.998   6.228   3.883
 4881TIP3   OH214606   2.372   2.317   5.580
 4881TIP3    H114607   2.369   2.273   5.495
 4881TIP3    H214608   2.445   2.276   5.626
 4882TIP3   OH214609   3.710   5.295   4.445
 4882TIP3    H114610   3.743   5.296   4.534
 4882TIP3    H214611   3.736   5.380   4.409
 4883TIP3   OH214612   7.091   5.588   3.666
 4883TIP3    H114613   7.042   5.542   3.597
 4883TIP3    H214614   7.066   5.543   3.747
 4884TIP3   OH214615   7.011   1.029   2.109
 4884TIP3    H114616   7.099   1.058   2.131
 4884TIP3    H214617   6.971   1.104   2.065
 4885TIP3   OH214618   2.026   6.042   3.833
 4885TIP3    H114619   1.955   5.981   3.851
 4885TIP3    H214620   2.106   5.994   3.856
 4886TIP3   OH214621   0.878   3.190   2.164
 4886TIP3    H114622   0.915   3.199   2.076
 4886TIP3    H214623   0.949   3.154   2.217
 4887TIP3   OH214624   6.361   3.758   2.827
 4887TIP3    H114625   6.302   3.826   2.795
 4887TIP3    H214626   6.441   3.771   2.776
 4888TIP3   OH214627   5.277   3.636   2.163
 4888TIP3    H114628   5.303   3.567   2.102
 4888TIP3    H214629   5.184   3.618   2.180
 4889TIP3   OH214630   2.402   3.916   4.465
 4889TIP3    H114631   2.356   3.839   4.431
 4889TIP3    H214632   2.393   3.909   4.560
 4890TIP3   OH214633   6.964   1.808   2.103
 4890TIP3    H114634   6.898   1.837   2.166
 4890TIP3    H214635   6.916   1.796   2.021
 4891TIP3   OH214636   3.112   3.297   3.832
 4891TIP3    H114637   3.156   3.382   3.838
 4891TIP3    H214638   3.139   3.263   3.746
 4892TIP3   OH214639   1.232   5.364   2.473
 4892TIP3    H114640   1.140   5.388   2.482
 4892TIP3    H214641   1.267   5.426   2.409
 4893TIP3   OH214642   1.150   3.015   4.439
 4893TIP3    H114643   1.229   3.013   4.385
 4893TIP3    H214644   1.105   3.095   4.413
 4894TIP3   OH214645   2.920   4.294   2.875
 4894TIP3    H114646   2.959   4.208   2.857
 4894TIP3    H214647   2.905   4.294   2.969
 4895TIP3   OH214648   1.174   0.522   4.950
 4895TIP3    H114649   1.209   0.495   4.865
 4895TIP3    H214650   1.080   0.531   4.935
 4896TIP3   OH214651   1.626   1.254   3.690
 4896TIP3    H114652   1.711   1.254   3.734
 4896TIP3    H214653   1.644   1.290   3.603
 4897TIP3   OH214654   3.495   4.837   0.782
 4897TIP3    H114655   3.564   4.798   0.836
 4897TIP3    H214656   3.414   4.800   0.818
 4898TIP3   OH214657   0.449   0.566   1.072
 4898TIP3    H114658   0.511   0.494   1.061
 4898TIP3    H214659   0.491   0.641   1.030
 4899TIP3   OH214660   3.308   4.423   5.915
 4899TIP3    H114661   3.238   4.359   5.924
 4899TIP3    H214662   3.297   4.459   5.827
 4900TIP3   OH214663   4.280   5.017   4.555
 4900TIP3    H114664   4.286   5.100   4.602
 4900TIP3    H214665   4.191   4.987   4.571
 4901TIP3   OH214666   4.625   5.570   0.556
 4901TIP3    H114667   4.559   5.527   0.501
 4901TIP3    H214668   4.678   5.498   0.590
 4902TIP3   OH214669   6.039   5.410   2.582
 4902TIP3    H114670   5.969   5.356   2.546
 4902TIP3    H214671   6.008   5.500   2.572
 4903TIP3   OH214672   1.868   0.181   4.130
 4903TIP3    H114673   1.843   0.272   4.149
 4903TIP3    H214674   1.851   0.171   4.036
 4904TIP3   OH214675   1.530   4.838   5.626
 4904TIP3    H114676   1.482   4.780   5.568
 4904TIP3    H214677   1.609   4.789   5.650
 4905TIP3   OH214678   1.845   5.851   3.426
 4905TIP3    H114679   1.821   5.847   3.334
 4905TIP3    H214680   1.904   5.926   3.433
 4906TIP3   OH214681   1.410   3.893   4.640
 4906TIP3    H114682   1.473   3.842   4.591
 4906TIP3    H214683   1.355   3.828   4.684
 4907TIP3   OH214684   5.067   4.998   2.038
 4907TIP3    H114685   5.034   4.915   2.003
 4907TIP3    H214686   5.161   4.984   2.051
 4908TIP3   OH214687   5.204   5.739   3.947
 4908TIP3    H114688   5.175   5.654   3.915
 4908TIP3    H214689   5.209   5.794   3.869
 4909TIP3   OH214690   0.245   4.163   2.028
 4909TIP3    H114691   0.275   4.076   2.002
 4909TIP3    H214692   0.216   4.151   2.119
 4910TIP3   OH214693   7.052   2.206   5.598
 4910TIP3    H114694   7.017   2.243   5.517
 4910TIP3    H214695   6.993   2.237   5.666
 4911TIP3   OH214696   0.161   3.730   3.852
 4911TIP3    H114697   0.236   3.727   3.911
 4911TIP3    H214698   0.177   3.806   3.796
 4912TIP3   OH214699   5.600   6.537   3.399
 4912TIP3    H114700   5.506   6.518   3.392
 4912TIP3    H214701   5.633   6.528   3.309
 4913TIP3   OH214702   4.234   0.784   0.273
 4913TIP3    H114703   4.319   0.828   0.272
 4913TIP3    H214704   4.181   0.833   0.210
 4914TIP3   OH214705   4.237   0.871   5.808
 4914TIP3    H114706   4.146   0.843   5.799
 4914TIP3    H214707   4.287   0.789   5.812
 4915TIP3   OH214708   4.302   0.454   5.734
 4915TIP3    H114709   4.266   0.367   5.753
 4915TIP3    H214710   4.264   0.477   5.649
 4916TIP3   OH214711   5.864   3.096   2.738
 4916TIP3    H114712   5.888   3.114   2.829
 4916TIP3    H214713   5.843   3.182   2.702
 4917TIP3   OH214714   0.783   1.189   5.081
 4917TIP3    H114715   0.796   1.143   5.164
 4917TIP3    H214716   0.718   1.257   5.102
 4918TIP3   OH214717   6.195   5.686   1.568
 4918TIP3    H114718   6.290   5.696   1.579
 4918TIP3    H214719   6.174   5.604   1.612
 4919TIP3   OH214720   3.614   2.656   1.561
 4919TIP3    H114721   3.546   2.594   1.538
 4919TIP3    H214722   3.684   2.639   1.498
 4920TIP3   OH214723   3.578   4.221   4.202
 4920TIP3    H114724   3.592   4.132   4.171
 4920TIP3    H214725   3.509   4.213   4.269
 4921TIP3   OH214726   0.825   1.539   1.087
 4921TIP3    H114727   0.886   1.605   1.054
 4921TIP3    H214728   0.860   1.456   1.055
 4922TIP3   OH214729   0.228   2.452   4.961
 4922TIP3    H114730   0.290   2.380   4.968
 4922TIP3    H214731   0.147   2.418   5.001
 4923TIP3   OH214732   2.211   2.257   1.373
 4923TIP3    H114733   2.265   2.178   1.370
 4923TIP3    H214734   2.247   2.313   1.304
 4924TIP3   OH214735   1.079   1.303   5.101
 4924TIP3    H114736   1.125   1.342   5.175
 4924TIP3    H214737   0.992   1.284   5.134
 4925TIP3   OH214738   1.827   2.426   5.129
 4925TIP3    H114739   1.779   2.347   5.152
 4925TIP3    H214740   1.795   2.448   5.041
 4926TIP3   OH214741   2.119   5.630   0.129
 4926TIP3    H114742   2.143   5.540   0.105
 4926TIP3    H214743   2.187   5.684   0.089
 4927TIP3   OH214744   6.081   1.333   2.267
 4927TIP3    H114745   5.989   1.329   2.240
 4927TIP3    H214746   6.106   1.424   2.252
 4928TIP3   OH214747   3.623   1.349   3.502
 4928TIP3    H114748   3.594   1.260   3.522
 4928TIP3    H214749   3.719   1.345   3.511
 4929TIP3   OH214750   0.649   2.309  -0.006
 4929TIP3    H114751   0.671   2.302   0.086
 4929TIP3    H214752   0.556   2.288  -0.011
 4930TIP3   OH214753   6.201   0.464   3.913
 4930TIP3    H114754   6.201   0.409   3.991
 4930TIP3    H214755   6.256   0.416   3.850
 4931TIP3   OH214756   5.356   2.849   3.458
 4931TIP3    H114757   5.309   2.809   3.531
 4931TIP3    H214758   5.444   2.812   3.463
 4932TIP3   OH214759   0.191   3.900   2.470
 4932TIP3    H114760   0.163   3.839   2.402
 4932TIP3    H214761   0.280   3.871   2.493
 4933TIP3   OH214762   2.918   5.622   4.843
 4933TIP3    H114763   2.861   5.628   4.920
 4933TIP3    H214764   2.871   5.564   4.783
 4934TIP3   OH214765   1.305   2.728   3.049
 4934TIP3    H114766   1.393   2.745   3.083
 4934TIP3    H214767   1.280   2.810   3.006
 4935TIP3   OH214768   5.123   0.526   4.174
 4935TIP3    H114769   5.171   0.585   4.232
 4935TIP3    H214770   5.040   0.572   4.158
 4936TIP3   OH214771   2.279   6.214   2.352
 4936TIP3    H114772   2.337   6.138   2.354
 4936TIP3    H214773   2.264   6.230   2.259
 4937TIP3   OH214774   3.128   5.393   2.928
 4937TIP3    H114775   3.222   5.382   2.916
 4937TIP3    H214776   3.089   5.336   2.862
 4938TIP3   OH214777   0.279   0.277   0.973
 4938TIP3    H114778   0.218   0.335   0.927
 4938TIP3    H214779   0.310   0.330   1.046
 4939TIP3   OH214780   0.198   3.574   0.363
 4939TIP3    H114781   0.115   3.529   0.379
 4939TIP3    H214782   0.243   3.571   0.447
 4940TIP3   OH214783   5.889   5.317   2.172
 4940TIP3    H114784   5.881   5.376   2.097
 4940TIP3    H214785   5.869   5.372   2.247
 4941TIP3   OH214786   1.079   2.815   3.203
 4941TIP3    H114787   1.095   2.786   3.113
 4941TIP3    H214788   1.095   2.737   3.256
 4942TIP3   OH214789   4.701   2.643   4.566
 4942TIP3    H114790   4.777   2.652   4.508
 4942TIP3    H214791   4.625   2.653   4.508
 4943TIP3   OH214792   3.723   1.241   2.223
 4943TIP3    H114793   3.661   1.287   2.280
 4943TIP3    H214794   3.801   1.230   2.277
 4944TIP3   OH214795   1.956   3.487   0.498
 4944TIP3    H114796   2.015   3.513   0.568
 4944TIP3    H214797   1.979   3.396   0.479
 4945TIP3   OH214798   1.713   1.557   3.490
 4945TIP3    H114799   1.761   1.604   3.422
 4945TIP3    H214800   1.629   1.603   3.495
 4946TIP3   OH214801   5.750   6.303   3.899
 4946TIP3    H114802   5.807   6.316   3.823
 4946TIP3    H214803   5.807   6.317   3.975
 4947TIP3   OH214804   3.818   0.878   4.383
 4947TIP3    H114805   3.765   0.856   4.306
 4947TIP3    H214806   3.775   0.833   4.456
 4948TIP3   OH214807   0.799   1.101   2.519
 4948TIP3    H114808   0.882   1.084   2.563
 4948TIP3    H214809   0.733   1.057   2.572
 4949TIP3   OH214810   4.993   2.866   3.764
 4949TIP3    H114811   5.010   2.955   3.793
 4949TIP3    H214812   5.017   2.811   3.838
 4950TIP3   OH214813   3.425   0.161   3.468
 4950TIP3    H114814   3.341   0.202   3.488
 4950TIP3    H214815   3.405   0.068   3.459
 4951TIP3   OH214816   0.138   5.948   1.696
 4951TIP3    H114817   0.196   6.023   1.684
 4951TIP3    H214818   0.051   5.987   1.700
 4952TIP3   OH214819   5.269   3.385   4.987
 4952TIP3    H114820   5.196   3.331   4.956
 4952TIP3    H214821   5.327   3.392   4.911
 4953TIP3   OH214822   1.826   4.458   5.880
 4953TIP3    H114823   1.881   4.522   5.926
 4953TIP3    H214824   1.884   4.421   5.813
 4954TIP3   OH214825   6.713   0.038   2.514
 4954TIP3    H114826   6.703   0.056   2.420
 4954TIP3    H214827   6.736  -0.055   2.517
 4955TIP3   OH214828   0.387   3.509   2.375
 4955TIP3    H114829   0.338   3.489   2.455
 4955TIP3    H214830   0.378   3.431   2.321
 4956TIP3   OH214831   3.345   0.388   2.834
 4956TIP3    H114832   3.338   0.446   2.758
 4956TIP3    H214833   3.376   0.305   2.799
 4957TIP3   OH214834   1.594   1.267   0.401
 4957TIP3    H114835   1.528   1.259   0.470
 4957TIP3    H214836   1.676   1.281   0.448
 4958TIP3   OH214837   4.623   2.807   3.279
 4958TIP3    H114838   4.648   2.834   3.367
 4958TIP3    H214839   4.538   2.764   3.290
 4959TIP3   OH214840   4.305   0.187   4.788
 4959TIP3    H114841   4.330   0.236   4.710
 4959TIP3    H214842   4.218   0.221   4.811
 4960TIP3   OH214843   3.728   6.302   3.494
 4960TIP3    H114844   3.823   6.291   3.508
 4960TIP3    H214845   3.721   6.387   3.451
 4961TIP3   OH214846   2.779   5.447   4.510
 4961TIP3    H114847   2.816   5.525   4.471
 4961TIP3    H214848   2.784   5.380   4.442
 4962TIP3   OH214849   5.126   0.177   1.215
 4962TIP3    H114850   5.034   0.204   1.211
 4962TIP3    H214851   5.143   0.165   1.308
 4963TIP3   OH214852   5.591   5.594   1.581
 4963TIP3    H114853   5.580   5.522   1.643
 4963TIP3    H214854   5.519   5.654   1.601
 4964TIP3   OH214855   1.433   5.443   2.869
 4964TIP3    H114856   1.399   5.363   2.829
 4964TIP3    H214857   1.528   5.437   2.858
 4965TIP3   OH214858   3.586   4.155   0.993
 4965TIP3    H114859   3.510   4.173   0.937
 4965TIP3    H214860   3.605   4.063   0.978
 4966TIP3   OH214861   0.158   4.858   1.736
 4966TIP3    H114862   0.124   4.930   1.789
 4966TIP3    H214863   0.173   4.896   1.650
 4967TIP3   OH214864   4.512   2.669   1.156
 4967TIP3    H114865   4.418   2.683   1.164
 4967TIP3    H214866   4.520   2.591   1.101
 4968TIP3   OH214867   4.079   4.335   4.842
 4968TIP3    H114868   4.170   4.330   4.813
 4968TIP3    H214869   4.061   4.428   4.849
 4969TIP3   OH214870   6.256   6.261   1.157
 4969TIP3    H114871   6.200   6.198   1.200
 4969TIP3    H214872   6.296   6.213   1.085
 4970TIP3   OH214873   1.889   4.754   3.169
 4970TIP3    H114874   1.961   4.788   3.222
 4970TIP3    H214875   1.812   4.803   3.198
 4971TIP3   OH214876   1.798   0.871   2.939
 4971TIP3    H114877   1.780   0.889   2.846
 4971TIP3    H214878   1.821   0.957   2.976
 4972TIP3   OH214879   3.759   5.937   0.918
 4972TIP3    H114880   3.718   5.991   0.851
 4972TIP3    H214881   3.769   5.994   0.993
 4973TIP3   OH214882   3.211   1.965   1.713
 4973TIP3    H114883   3.175   2.053   1.729
 4973TIP3    H214884   3.249   1.939   1.797
 4974TIP3   OH214885   0.524   0.589   3.919
 4974TIP3    H114886   0.534   0.566   4.012
 4974TIP3    H214887   0.442   0.548   3.892
 4975TIP3   OH214888   3.853   1.907   4.963
 4975TIP3    H114889   3.764   1.873   4.955
 4975TIP3    H214890   3.886   1.910   4.873
 4976TIP3   OH214891   6.733   1.072   3.132
 4976TIP3    H114892   6.725   1.071   3.037
 4976TIP3    H214893   6.653   1.030   3.164
 4977TIP3   OH214894   4.902   5.622   3.405
 4977TIP3    H114895   4.963   5.665   3.465
 4977TIP3    H214896   4.862   5.553   3.458
 4978TIP3   OH214897   0.022   4.886   5.290
 4978TIP3    H114898  -0.046   4.825   5.319
 4978TIP3    H214899   0.103   4.852   5.327
 4979TIP3   OH214900   4.451   0.149   5.008
 4979TIP3    H114901   4.413   0.217   5.064
 4979TIP3    H214902   4.409   0.163   4.923
 4980TIP3   OH214903   1.718   3.114   4.755
 4980TIP3    H114904   1.778   3.104   4.829
 4980TIP3    H214905   1.661   3.038   4.760
 4981TIP3   OH214906   4.912   3.696   1.644
 4981TIP3    H114907   4.926   3.677   1.552
 4981TIP3    H214908   4.946   3.784   1.656
 4982TIP3   OH214909   1.387   3.439   2.165
 4982TIP3    H114910   1.416   3.507   2.225
 4982TIP3    H214911   1.457   3.432   2.100
 4983TIP3   OH214912   5.584   0.909   1.881
 4983TIP3    H114913   5.520   0.872   1.820
 4983TIP3    H214914   5.538   0.912   1.965
 4984TIP3   OH214915   5.062   5.342   5.724
 4984TIP3    H114916   5.144   5.385   5.702
 4984TIP3    H214917   5.083   5.248   5.725
 4985TIP3   OH214918   6.473   3.811   3.440
 4985TIP3    H114919   6.447   3.729   3.398
 4985TIP3    H214920   6.408   3.823   3.510
 4986TIP3   OH214921   7.198   1.228   5.783
 4986TIP3    H114922   7.162   1.269   5.705
 4986TIP3    H214923   7.259   1.161   5.750
 4987TIP3   OH214924   1.430   6.162   1.786
 4987TIP3    H114925   1.497   6.113   1.834
 4987TIP3    H214926   1.368   6.189   1.853
 4988TIP3   OH214927   2.293   5.048   3.272
 4988TIP3    H114928   2.299   5.143   3.259
 4988TIP3    H214929   2.368   5.027   3.327
 4989TIP3   OH214930   3.145   3.816   5.176
 4989TIP3    H114931   3.111   3.802   5.087
 4989TIP3    H214932   3.234   3.782   5.173
 4990TIP3   OH214933   4.300   2.893   2.827
 4990TIP3    H114934   4.230   2.874   2.765
 4990TIP3    H214935   4.255   2.910   2.910
 4991TIP3   OH214936   2.963   5.306   1.605
 4991TIP3    H114937   3.055   5.287   1.623
 4991TIP3    H214938   2.966   5.383   1.548
 4992TIP3   OH214939   0.356   5.782   0.772
 4992TIP3    H114940   0.422   5.830   0.722
 4992TIP3    H214941   0.274   5.829   0.755
 4993TIP3   OH214942   6.584   3.948   0.069
 4993TIP3    H114943   6.499   3.905   0.058
 4993TIP3    H214944   6.627   3.937  -0.015
 4994TIP3   OH214945   6.534   4.710   2.440
 4994TIP3    H114946   6.572   4.779   2.495
 4994TIP3    H214947   6.517   4.638   2.500
 4995TIP3   OH214948   1.085   2.801   3.688
 4995TIP3    H114949   1.136   2.761   3.759
 4995TIP3    H214950   1.002   2.754   3.689
 4996TIP3   OH214951   6.809   5.060   1.203
 4996TIP3    H114952   6.771   5.023   1.122
 4996TIP3    H214953   6.887   5.007   1.218
 4997TIP3   OH214954   5.528   5.564   4.723
 4997TIP3    H114955   5.526   5.638   4.783
 4997TIP3    H214956   5.473   5.498   4.765
 4998TIP3   OH214957   3.539   3.492   4.667
 4998TIP3    H114958   3.592   3.481   4.587
 4998TIP3    H214959   3.602   3.482   4.738
 4999TIP3   OH214960   4.272   5.502   1.404
 4999TIP3    H114961   4.235   5.577   1.450
 4999TIP3    H214962   4.334   5.540   1.343
 5000TIP3   OH214963   4.888   4.741   1.076
 5000TIP3    H114964   4.918   4.800   1.007
 5000TIP3    H214965   4.955   4.673   1.081
 5001TIP3   OH214966   1.776   6.741   1.602
 5001TIP3    H114967   1.769   6.724   1.508
 5001TIP3    H214968   1.702   6.799   1.621
 5002TIP3   OH214969   3.760   4.374   0.944
 5002TIP3    H114970   3.712   4.292   0.931
 5002TIP3    H214971   3.834   4.368   0.884
 5003TIP3   OH214972   6.774   2.186   4.719
 5003TIP3    H114973   6.770   2.143   4.633
 5003TIP3    H214974   6.764   2.279   4.699
 5004TIP3   OH214975   3.087   0.162   2.192
 5004TIP3    H114976   3.062   0.070   2.191
 5004TIP3    H214977   3.086   0.186   2.285
 5005TIP3   OH214978   5.119   1.309   2.143
 5005TIP3    H114979   5.148   1.400   2.150
 5005TIP3    H214980   5.029   1.310   2.174
 5006TIP3   OH214981   5.771   1.239   1.102
 5006TIP3    H114982   5.762   1.304   1.172
 5006TIP3    H214983   5.690   1.246   1.053
 5007TIP3   OH214984   1.452   4.424   2.292
 5007TIP3    H114985   1.466   4.330   2.290
 5007TIP3    H214986   1.438   4.445   2.384
 5008TIP3   OH214987   2.100   4.623   1.333
 5008TIP3    H114988   2.024   4.566   1.320
 5008TIP3    H214989   2.174   4.563   1.336
 5009TIP3   OH214990   0.033   2.901   3.113
 5009TIP3    H114991   0.116   2.883   3.070
 5009TIP3    H214992   0.021   2.996   3.103
 5010TIP3   OH214993   0.845   0.500   3.543
 5010TIP3    H114994   0.850   0.404   3.540
 5010TIP3    H214995   0.755   0.520   3.520
 5011TIP3   OH214996   3.468   0.741   4.827
 5011TIP3    H114997   3.489   0.655   4.789
 5011TIP3    H214998   3.383   0.729   4.868
 5012TIP3   OH214999   2.826   4.448   5.228
 5012TIP3    H115000   2.805   4.502   5.305
 5012TIP3    H215001   2.750   4.459   5.171
 5013TIP3   OH215002   6.547   1.277   4.841
 5013TIP3    H115003   6.464   1.272   4.889
 5013TIP3    H215004   6.530   1.338   4.770
 5014TIP3   OH215005   5.351   0.892   3.520
 5014TIP3    H115006   5.408   0.824   3.484
 5014TIP3    H215007   5.281   0.902   3.455
 5015TIP3   OH215008   6.533   3.897   1.267
 5015TIP3    H115009   6.590   3.933   1.200
 5015TIP3    H215010   6.580   3.912   1.349
 5016TIP3   OH215011   0.058   5.109   5.122
 5016TIP3    H115012   0.133   5.070   5.077
 5016TIP3    H215013   0.019   5.037   5.172
 5017TIP3   OH215014   1.859   3.369   5.443
 5017TIP3    H115015   1.855   3.314   5.521
 5017TIP3    H215016   1.939   3.341   5.398
 5018TIP3   OH215017   1.784   3.361   4.517
 5018TIP3    H115018   1.734   3.330   4.593
 5018TIP3    H215019   1.724   3.421   4.472
 5019TIP3   OH215020   2.913   1.495   5.649
 5019TIP3    H115021   2.861   1.439   5.591
 5019TIP3    H215022   2.882   1.584   5.630
 5020TIP3   OH215023   0.780   4.654   2.565
 5020TIP3    H115024   0.728   4.580   2.534
 5020TIP3    H215025   0.727   4.731   2.542
 5021TIP3   OH215026   4.955   0.910   2.959
 5021TIP3    H115027   4.864   0.886   2.938
 5021TIP3    H215028   4.948   0.998   2.995
 5022TIP3   OH215029   2.793   0.239   1.334
 5022TIP3    H115030   2.744   0.293   1.271
 5022TIP3    H215031   2.762   0.150   1.317
 5023TIP3   OH215032   5.548   3.611   4.714
 5023TIP3    H115033   5.522   3.701   4.696
 5023TIP3    H215034   5.552   3.606   4.810
 5024TIP3   OH215035   4.813   6.063   4.623
 5024TIP3    H115036   4.853   6.148   4.609
 5024TIP3    H215037   4.886   6.005   4.645
 5025TIP3   OH215038   0.302   0.495   3.807
 5025TIP3    H115039   0.216   0.536   3.813
 5025TIP3    H215040   0.335   0.519   3.721
 5026TIP3   OH215041   0.861   5.808   5.254
 5026TIP3    H115042   0.905   5.764   5.327
 5026TIP3    H215043   0.880   5.901   5.267
 5027TIP3   OH215044   1.322   5.694   2.726
 5027TIP3    H115045   1.379   5.620   2.747
 5027TIP3    H215046   1.356   5.767   2.777
 5028TIP3   OH215047   0.471   2.571   3.565
 5028TIP3    H115048   0.554   2.589   3.519
 5028TIP3    H215049   0.456   2.478   3.551
 5029TIP3   OH215050   1.397   0.578   2.603
 5029TIP3    H115051   1.360   0.504   2.650
 5029TIP3    H215052   1.386   0.652   2.662
 5030TIP3   OH215053   6.831   3.292   3.651
 5030TIP3    H115054   6.772   3.257   3.717
 5030TIP3    H215055   6.849   3.381   3.679
 5031TIP3   OH215056   2.561   5.803   3.041
 5031TIP3    H115057   2.629   5.855   3.085
 5031TIP3    H215058   2.527   5.746   3.109
 5032TIP3   OH215059   2.605   1.256   4.703
 5032TIP3    H115060   2.584   1.328   4.763
 5032TIP3    H215061   2.548   1.185   4.730
 5033TIP3   OH215062   3.699   4.242   5.112
 5033TIP3    H115063   3.755   4.170   5.084
 5033TIP3    H215064   3.752   4.320   5.098
 5034TIP3   OH215065   1.897   4.963   0.619
 5034TIP3    H115066   1.852   5.047   0.627
 5034TIP3    H215067   1.978   4.973   0.669
 5035TIP3   OH215068   0.028   2.612   5.499
 5035TIP3    H115069  -0.010   2.646   5.419
 5035TIP3    H215070  -0.047   2.596   5.557
 5036TIP3   OH215071   3.769   3.717   3.805
 5036TIP3    H115072   3.692   3.693   3.753
 5036TIP3    H215073   3.745   3.799   3.847
 5037TIP3   OH215074   3.779   2.238   5.835
 5037TIP3    H115075   3.853   2.227   5.776
 5037TIP3    H215076   3.731   2.313   5.800
 5038TIP3   OH215077   6.940   1.146   3.505
 5038TIP3    H115078   6.929   1.214   3.571
 5038TIP3    H215079   6.852   1.111   3.491
 5039TIP3   OH215080   2.915   0.976   2.194
 5039TIP3    H115081   2.875   0.909   2.250
 5039TIP3    H215082   3.007   0.951   2.189
 5040TIP3   OH215083   0.311   4.828   2.714
 5040TIP3    H115084   0.294   4.919   2.741
 5040TIP3    H215085   0.403   4.814   2.737
 5041TIP3   OH215086   7.070   5.447   1.971
 5041TIP3    H115087   7.048   5.360   2.004
 5041TIP3    H215088   7.116   5.489   2.044
 5042TIP3   OH215089   5.671   0.431   2.294
 5042TIP3    H115090   5.738   0.465   2.353
 5042TIP3    H215091   5.592   0.481   2.315
 5043TIP3   OH215092   6.263   5.050   2.413
 5043TIP3    H115093   6.295   4.989   2.346
 5043TIP3    H215094   6.225   5.122   2.363
 5044TIP3   OH215095   4.721   3.926   2.137
 5044TIP3    H115096   4.711   3.858   2.071
 5044TIP3    H215097   4.742   4.005   2.086
 5045TIP3   OH215098   0.220   6.100   4.659
 5045TIP3    H115099   0.188   6.163   4.724
 5045TIP3    H215100   0.232   6.018   4.708
 5046TIP3   OH215101   2.532   2.203   3.184
 5046TIP3    H115102   2.458   2.150   3.212
 5046TIP3    H215103   2.511   2.230   3.094
 5047TIP3   OH215104   5.797   0.940   5.251
 5047TIP3    H115105   5.784   0.845   5.258
 5047TIP3    H215106   5.822   0.954   5.159
 5048TIP3   OH215107   3.974   2.640   3.578
 5048TIP3    H115108   4.019   2.556   3.590
 5048TIP3    H215109   3.945   2.639   3.487
 5049TIP3   OH215110   6.439   4.217   1.850
 5049TIP3    H115111   6.483   4.134   1.865
 5049TIP3    H215112   6.463   4.272   1.924
 5050TIP3   OH215113   6.463   1.816   3.701
 5050TIP3    H115114   6.406   1.790   3.629
 5050TIP3    H215115   6.544   1.845   3.659
 5051TIP3   OH215116   0.373   6.430   1.707
 5051TIP3    H115117   0.309   6.500   1.718
 5051TIP3    H215118   0.413   6.420   1.794
 5052TIP3   OH215119   2.257   3.617   4.617
 5052TIP3    H115120   2.259   3.661   4.532
 5052TIP3    H215121   2.164   3.606   4.636
 5053TIP3   OH215122   0.979   6.156   2.310
 5053TIP3    H115123   1.017   6.233   2.352
 5053TIP3    H215124   0.909   6.191   2.255
 5054TIP3   OH215125   3.145   5.152   4.571
 5054TIP3    H115126   3.074   5.089   4.553
 5054TIP3    H215127   3.223   5.111   4.533
 5055TIP3   OH215128   4.460   5.158   2.795
 5055TIP3    H115129   4.391   5.120   2.741
 5055TIP3    H215130   4.501   5.224   2.740
 5056TIP3   OH215131   5.919   2.697   0.475
 5056TIP3    H115132   5.909   2.626   0.411
 5056TIP3    H215133   6.013   2.712   0.480
 5057TIP3   OH215134   5.541   5.116   0.321
 5057TIP3    H115135   5.590   5.079   0.247
 5057TIP3    H215136   5.475   5.171   0.280
 5058TIP3   OH215137   6.344   2.734   3.441
 5058TIP3    H115138   6.314   2.817   3.404
 5058TIP3    H215139   6.434   2.725   3.409
 5059TIP3   OH215140   1.466   5.025   1.647
 5059TIP3    H115141   1.487   5.020   1.741
 5059TIP3    H215142   1.440   4.936   1.625
 5060TIP3   OH215143   3.760   4.229   2.196
 5060TIP3    H115144   3.776   4.197   2.108
 5060TIP3    H215145   3.729   4.153   2.245
 5061TIP3   OH215146   2.076   0.185   4.627
 5061TIP3    H115147   2.029   0.210   4.707
 5061TIP3    H215148   2.158   0.234   4.632
 5062TIP3   OH215149   3.904   1.889   1.387
 5062TIP3    H115150   3.871   1.802   1.365
 5062TIP3    H215151   3.919   1.931   1.303
 5063TIP3   OH215152   6.310   0.057   5.822
 5063TIP3    H115153   6.242  -0.005   5.851
 5063TIP3    H215154   6.269   0.143   5.830
 5064TIP3   OH215155   3.943   2.536   4.449
 5064TIP3    H115156   3.926   2.565   4.539
 5064TIP3    H215157   3.909   2.606   4.394
 5065TIP3   OH215158   2.668   6.362   5.817
 5065TIP3    H115159   2.747   6.311   5.799
 5065TIP3    H215160   2.689   6.411   5.897
 5066TIP3   OH215161   2.428   3.331   3.782
 5066TIP3    H115162   2.341   3.321   3.743
 5066TIP3    H215163   2.416   3.303   3.873
 5067TIP3   OH215164   2.279   4.276   2.988
 5067TIP3    H115165   2.249   4.200   3.037
 5067TIP3    H215166   2.200   4.307   2.943
 5068TIP3   OH215167   5.713   3.383   2.716
 5068TIP3    H115168   5.777   3.433   2.765
 5068TIP3    H215169   5.670   3.447   2.659
 5069TIP3   OH215170   1.874   2.071   3.256
 5069TIP3    H115171   1.805   2.011   3.283
 5069TIP3    H215172   1.874   2.139   3.323
 5070TIP3   OH215173   3.877   5.460   5.863
 5070TIP3    H115174   3.895   5.415   5.780
 5070TIP3    H215175   3.896   5.395   5.931
 5071TIP3   OH215176   6.469   1.884   5.021
 5071TIP3    H115177   6.444   1.946   5.089
 5071TIP3    H215178   6.549   1.843   5.054
 5072TIP3   OH215179   0.618   6.349   1.230
 5072TIP3    H115180   0.691   6.405   1.257
 5072TIP3    H215181   0.606   6.289   1.303
 5073TIP3   OH215182   1.207   6.366   5.656
 5073TIP3    H115183   1.126   6.332   5.694
 5073TIP3    H215184   1.274   6.345   5.721
 5074TIP3   OH215185   3.774   4.395   4.536
 5074TIP3    H115186   3.825   4.475   4.539
 5074TIP3    H215187   3.683   4.424   4.529
 5075TIP3   OH215188   3.830   4.896   3.957
 5075TIP3    H115189   3.886   4.929   3.887
 5075TIP3    H215190   3.746   4.877   3.914
 5076TIP3   OH215191   0.879   2.693   0.690
 5076TIP3    H115192   0.836   2.616   0.728
 5076TIP3    H215193   0.825   2.715   0.614
 5077TIP3   OH215194   1.604   4.324   4.600
 5077TIP3    H115195   1.545   4.310   4.527
 5077TIP3    H215196   1.569   4.268   4.670
 5078TIP3   OH215197   3.393   5.067   2.739
 5078TIP3    H115198   3.357   4.996   2.791
 5078TIP3    H215199   3.331   5.078   2.667
 5079TIP3   OH215200   3.544   5.818   4.290
 5079TIP3    H115201   3.522   5.842   4.380
 5079TIP3    H215202   3.515   5.727   4.282
 5080TIP3   OH215203   0.273   4.942   3.802
 5080TIP3    H115204   0.365   4.961   3.817
 5080TIP3    H215205   0.230   4.964   3.885
 5081TIP3   OH215206   4.349   0.509   0.084
 5081TIP3    H115207   4.271   0.518   0.140
 5081TIP3    H215208   4.421   0.496   0.145
 5082TIP3   OH215209   6.442   6.424   2.720
 5082TIP3    H115210   6.476   6.459   2.637
 5082TIP3    H215211   6.519   6.394   2.767
 5083TIP3   OH215212   5.780   3.939  -0.002
 5083TIP3    H115213   5.816   4.008  -0.058
 5083TIP3    H215214   5.799   3.968   0.087
 5084TIP3   OH215215  -0.003   1.494   2.294
 5084TIP3    H115216   0.058   1.461   2.227
 5084TIP3    H215217   0.044   1.483   2.376
 5085TIP3   OH215218   4.542   2.591   2.603
 5085TIP3    H115219   4.581   2.556   2.683
 5085TIP3    H215220   4.447   2.585   2.619
 5086TIP3   OH215221   6.082   3.812   2.202
 5086TIP3    H115222   6.098   3.902   2.175
 5086TIP3    H215223   6.038   3.820   2.287
 5087TIP3   OH215224   0.153   2.975   3.893
 5087TIP3    H115225   0.233   2.929   3.917
 5087TIP3    H215226   0.169   3.007   3.804
 5088TIP3   OH215227   3.101   2.651   3.305
 5088TIP3    H115228   3.141   2.565   3.300
 5088TIP3    H215229   3.137   2.689   3.386
 5089TIP3   OH215230   5.747   2.769   4.780
 5089TIP3    H115231   5.657   2.798   4.789
 5089TIP3    H215232   5.740   2.679   4.748
 5090TIP3   OH215233   5.254   4.905   3.960
 5090TIP3    H115234   5.226   4.978   3.904
 5090TIP3    H215235   5.183   4.841   3.953
 5091TIP3   OH215236   1.113   1.413   3.225
 5091TIP3    H115237   1.026   1.396   3.260
 5091TIP3    H215238   1.112   1.506   3.203
 5092TIP3   OH215239   1.083   4.138   0.240
 5092TIP3    H115240   1.115   4.121   0.328
 5092TIP3    H215241   1.021   4.066   0.223
 5093TIP3   OH215242   1.386   0.193   0.877
 5093TIP3    H115243   1.391   0.100   0.900
 5093TIP3    H215244   1.404   0.196   0.783
 5094TIP3   OH215245   1.929   4.384   5.465
 5094TIP3    H115246   1.947   4.473   5.437
 5094TIP3    H215247   1.923   4.334   5.384
 5095TIP3   OH215248   7.027   0.604   1.180
 5095TIP3    H115249   6.972   0.677   1.150
 5095TIP3    H215250   7.108   0.646   1.208
 5096TIP3   OH215251   0.881   0.520   1.064
 5096TIP3    H115252   0.855   0.611   1.083
 5096TIP3    H215253   0.798   0.473   1.055
 5097TIP3   OH215254   6.241   1.898   0.971
 5097TIP3    H115255   6.193   1.956   0.912
 5097TIP3    H215256   6.217   1.927   1.059
 5098TIP3   OH215257   0.233   0.526   1.238
 5098TIP3    H115258   0.316   0.562   1.208
 5098TIP3    H215259   0.171   0.599   1.232
 5099TIP3   OH215260   3.065   4.692   4.810
 5099TIP3    H115261   3.119   4.657   4.881
 5099TIP3    H215262   3.020   4.615   4.774
 5100TIP3   OH215263   2.463   1.210   3.942
 5100TIP3    H115264   2.405   1.139   3.914
 5100TIP3    H215265   2.525   1.169   4.002
 5101TIP3   OH215266   3.221   1.309   4.693
 5101TIP3    H115267   3.142   1.269   4.657
 5101TIP3    H215268   3.244   1.253   4.767
 5102TIP3   OH215269   7.084   2.125   4.696
 5102TIP3    H115270   7.053   2.197   4.752
 5102TIP3    H215271   7.041   2.047   4.730
 5103TIP3   OH215272   3.584   3.586   4.990
 5103TIP3    H115273   3.594   3.662   4.934
 5103TIP3    H215274   3.657   3.528   4.965
 5104TIP3   OH215275   4.436   1.750   2.761
 5104TIP3    H115276   4.387   1.828   2.787
 5104TIP3    H215277   4.522   1.784   2.735
 5105TIP3   OH215278   2.401   5.504   1.726
 5105TIP3    H115279   2.450   5.476   1.804
 5105TIP3    H215280   2.333   5.562   1.760
 5106TIP3   OH215281   1.094   3.698   0.149
 5106TIP3    H115282   1.183   3.712   0.180
 5106TIP3    H215283   1.078   3.605   0.164
 5107TIP3   OH215284   0.074   3.986   0.375
 5107TIP3    H115285   0.158   3.956   0.409
 5107TIP3    H215286   0.017   3.910   0.380
 5108TIP3   OH215287   4.891   4.647   2.192
 5108TIP3    H115288   4.946   4.660   2.115
 5108TIP3    H215289   4.812   4.605   2.158
 5109TIP3   OH215290   4.305   4.573   4.263
 5109TIP3    H115291   4.259   4.618   4.333
 5109TIP3    H215292   4.329   4.642   4.201
 5110TIP3   OH215293   6.734   1.275   5.071
 5110TIP3    H115294   6.700   1.285   4.982
 5110TIP3    H215295   6.660   1.301   5.127
 5111TIP3   OH215296   6.275   4.176   2.605
 5111TIP3    H115297   6.236   4.122   2.536
 5111TIP3    H215298   6.255   4.128   2.686
 5112TIP3   OH215299   6.393   3.820   3.717
 5112TIP3    H115300   6.310   3.783   3.684
 5112TIP3    H215301   6.367   3.871   3.794
 5113TIP3   OH215302   6.853   0.667   0.850
 5113TIP3    H115303   6.779   0.717   0.816
 5113TIP3    H215304   6.922   0.732   0.863
 5114TIP3   OH215305   6.801   3.464   2.430
 5114TIP3    H115306   6.888   3.506   2.429
 5114TIP3    H215307   6.772   3.471   2.521
 5115TIP3   OH215308   7.018   3.807   5.715
 5115TIP3    H115309   6.934   3.812   5.760
 5115TIP3    H215310   7.059   3.891   5.731
 5116TIP3   OH215311   0.689   1.850   5.720
 5116TIP3    H115312   0.747   1.775   5.707
 5116TIP3    H215313   0.612   1.830   5.667
 5117TIP3   OH215314   4.924   1.802   4.642
 5117TIP3    H115315   4.985   1.876   4.640
 5117TIP3    H215316   4.839   1.841   4.661
 5118TIP3   OH215317   6.434   3.002   0.012
 5118TIP3    H115318   6.418   2.946   0.089
 5118TIP3    H215319   6.382   3.080   0.028
 5119TIP3   OH215320   6.003   2.562   4.470
 5119TIP3    H115321   6.062   2.630   4.439
 5119TIP3    H215322   6.058   2.483   4.473
 5120TIP3   OH215323   6.541   0.948   0.875
 5120TIP3    H115324   6.479   1.019   0.888
 5120TIP3    H215325   6.626   0.992   0.867
 5121TIP3   OH215326   2.921   3.860   5.525
 5121TIP3    H115327   2.954   3.944   5.556
 5121TIP3    H215328   2.871   3.882   5.447
 5122TIP3   OH215329   6.667   5.107   2.302
 5122TIP3    H115330   6.592   5.049   2.320
 5122TIP3    H215331   6.646   5.188   2.348
 5123TIP3   OH215332   0.792   5.388   5.044
 5123TIP3    H115333   0.838   5.346   4.972
 5123TIP3    H215334   0.841   5.469   5.061
 5124TIP3   OH215335   2.406   5.348   4.985
 5124TIP3    H115336   2.458   5.424   5.011
 5124TIP3    H215337   2.423   5.283   5.054
 5125TIP3   OH215338   1.038   3.855   1.399
 5125TIP3    H115339   1.005   3.769   1.428
 5125TIP3    H215340   1.045   3.906   1.480
 5126TIP3   OH215341   0.959   3.570   1.420
 5126TIP3    H115342   0.981   3.535   1.507
 5126TIP3    H215343   1.011   3.517   1.359
 5127TIP3   OH215344   5.389   0.635   3.365
 5127TIP3    H115345   5.459   0.570   3.353
 5127TIP3    H215346   5.312   0.595   3.325
 5128TIP3   OH215347   0.800   2.714   0.434
 5128TIP3    H115348   0.716   2.691   0.395
 5128TIP3    H215349   0.861   2.649   0.398
 5129TIP3   OH215350   6.700   1.666   5.678
 5129TIP3    H115351   6.663   1.631   5.597
 5129TIP3    H215352   6.755   1.595   5.711
 5130TIP3   OH215353   2.932   4.457   2.481
 5130TIP3    H115354   2.929   4.363   2.500
 5130TIP3    H215355   2.977   4.495   2.557
 5131TIP3   OH215356   1.413   2.106   5.884
 5131TIP3    H115357   1.498   2.141   5.912
 5131TIP3    H215358   1.403   2.137   5.794
 5132TIP3   OH215359   6.554   2.278   0.340
 5132TIP3    H115360   6.565   2.228   0.259
 5132TIP3    H215361   6.517   2.215   0.402
 5133TIP3   OH215362   4.912   0.727   3.203
 5133TIP3    H115363   4.990   0.735   3.148
 5133TIP3    H215364   4.843   0.773   3.155
 5134TIP3   OH215365   6.654   4.143   0.250
 5134TIP3    H115366   6.636   4.073   0.187
 5134TIP3    H215367   6.749   4.153   0.247
 5135TIP3   OH215368   1.419   0.335   4.415
 5135TIP3    H115369   1.512   0.317   4.432
 5135TIP3    H215370   1.382   0.251   4.388
 5136TIP3   OH215371   0.049   0.745   1.178
 5136TIP3    H115372   0.053   0.719   1.086
 5136TIP3    H215373   0.096   0.829   1.182
 5137TIP3   OH215374   2.001   3.118   0.168
 5137TIP3    H115375   1.938   3.155   0.106
 5137TIP3    H215376   2.086   3.131   0.127
 5138TIP3   OH215377   6.571   1.253   0.664
 5138TIP3    H115378   6.601   1.293   0.745
 5138TIP3    H215379   6.530   1.324   0.615
 5139TIP3   OH215380   0.110   4.508   4.151
 5139TIP3    H115381   0.154   4.530   4.233
 5139TIP3    H215382   0.137   4.419   4.131
 5140TIP3   OH215383   4.206   3.167   2.242
 5140TIP3    H115384   4.211   3.250   2.289
 5140TIP3    H215385   4.120   3.169   2.200
 5141TIP3   OH215386   5.978   5.773   3.309
 5141TIP3    H115387   6.055   5.803   3.261
 5141TIP3    H215388   5.999   5.682   3.333
 5142TIP3   OH215389   3.719   2.753   2.156
 5142TIP3    H115390   3.808   2.745   2.188
 5142TIP3    H215391   3.721   2.829   2.097
 5143TIP3   OH215392   0.898   4.513   0.318
 5143TIP3    H115393   0.825   4.554   0.365
 5143TIP3    H215394   0.861   4.432   0.284
 5144TIP3   OH215395   2.535   5.805   4.418
 5144TIP3    H115396   2.507   5.768   4.335
 5144TIP3    H215397   2.478   5.881   4.432
 5145TIP3   OH215398   5.792   6.626   1.894
 5145TIP3    H115399   5.787   6.546   1.947
 5145TIP3    H215400   5.755   6.601   1.810
 5146TIP3   OH215401   0.963   0.136   1.728
 5146TIP3    H115402   1.018   0.098   1.659
 5146TIP3    H215403   0.907   0.063   1.756
 5147TIP3   OH215404   2.071   5.390   2.368
 5147TIP3    H115405   2.132   5.341   2.423
 5147TIP3    H215406   2.124   5.462   2.332
 5148TIP3   OH215407   1.827   2.682   0.831
 5148TIP3    H115408   1.841   2.659   0.923
 5148TIP3    H215409   1.915   2.696   0.796
 5149TIP3   OH215410   0.186   3.120   5.339
 5149TIP3    H115411   0.245   3.049   5.312
 5149TIP3    H215412   0.233   3.164   5.409
 5150TIP3   OH215413   4.359   0.789   4.028
 5150TIP3    H115414   4.306   0.745   3.962
 5150TIP3    H215415   4.424   0.837   3.977
 5151TIP3   OH215416   3.396   1.542   1.403
 5151TIP3    H115417   3.319   1.506   1.358
 5151TIP3    H215418   3.377   1.531   1.496
 5152TIP3   OH215419   3.272   1.773   1.153
 5152TIP3    H115420   3.367   1.761   1.154
 5152TIP3    H215421   3.237   1.687   1.127
 5153TIP3   OH215422   4.787   0.681   2.499
 5153TIP3    H115423   4.739   0.758   2.531
 5153TIP3    H215424   4.752   0.608   2.549
 5154TIP3   OH215425   2.258   0.945   2.520
 5154TIP3    H115426   2.294   0.905   2.600
 5154TIP3    H215427   2.314   1.021   2.505
 5155TIP3   OH215428   3.053   0.495   4.079
 5155TIP3    H115429   3.089   0.576   4.041
 5155TIP3    H215430   3.069   0.504   4.173
 5156TIP3   OH215431   1.437   6.403   3.788
 5156TIP3    H115432   1.461   6.482   3.739
 5156TIP3    H215433   1.496   6.336   3.754
 5157TIP3   OH215434   6.506   1.441   1.207
 5157TIP3    H115435   6.427   1.474   1.166
 5157TIP3    H215436   6.495   1.346   1.206
 5158TIP3   OH215437   1.750   2.525   1.332
 5158TIP3    H115438   1.735   2.456   1.397
 5158TIP3    H215439   1.837   2.505   1.296
 5159TIP3   OH215440   2.740   4.085   3.336
 5159TIP3    H115441   2.723   4.109   3.428
 5159TIP3    H215442   2.772   3.995   3.341
 5160TIP3   OH215443   4.163   1.070   0.969
 5160TIP3    H115444   4.215   1.059   0.889
 5160TIP3    H215445   4.133   0.982   0.991
 5161TIP3   OH215446   1.782   4.131   1.876
 5161TIP3    H115447   1.809   4.041   1.862
 5161TIP3    H215448   1.758   4.135   1.969
 5162TIP3   OH215449   4.610   3.541   3.617
 5162TIP3    H115450   4.549   3.565   3.548
 5162TIP3    H215451   4.692   3.522   3.571
 5163TIP3   OH215452   5.589   1.384   3.981
 5163TIP3    H115453   5.529   1.390   3.906
 5163TIP3    H215454   5.657   1.449   3.961
 5164TIP3   OH215455   2.713   0.424   3.838
 5164TIP3    H115456   2.791   0.422   3.894
 5164TIP3    H215457   2.745   0.403   3.750
 5165TIP3   OH215458   1.202   3.861   3.428
 5165TIP3    H115459   1.246   3.935   3.470
 5165TIP3    H215460   1.152   3.901   3.357
 5166TIP3   OH215461   1.274   4.676   4.680
 5166TIP3    H115462   1.339   4.729   4.725
 5166TIP3    H215463   1.285   4.588   4.715
 5167TIP3   OH215464   0.571   2.226   1.756
 5167TIP3    H115465   0.547   2.271   1.675
 5167TIP3    H215466   0.571   2.133   1.734
 5168TIP3   OH215467   3.649   1.461   1.517
 5168TIP3    H115468   3.610   1.391   1.570
 5168TIP3    H215469   3.581   1.482   1.453
 5169TIP3   OH215470   3.087   3.219   1.389
 5169TIP3    H115471   3.061   3.129   1.406
 5169TIP3    H215472   3.075   3.230   1.294
 5170TIP3   OH215473   6.671   1.709   1.379
 5170TIP3    H115474   6.601   1.763   1.343
 5170TIP3    H215475   6.625   1.636   1.421
 5171TIP3   OH215476   3.301   6.250   4.102
 5171TIP3    H115477   3.274   6.164   4.133
 5171TIP3    H215478   3.319   6.300   4.181
 5172TIP3   OH215479   1.340   4.414   4.247
 5172TIP3    H115480   1.301   4.344   4.299
 5172TIP3    H215481   1.431   4.386   4.233
 5173TIP3   OH215482   4.667   6.364   5.677
 5173TIP3    H115483   4.641   6.287   5.626
 5173TIP3    H215484   4.755   6.385   5.644
 5174TIP3   OH215485   6.284   3.441   2.171
 5174TIP3    H115486   6.315   3.484   2.250
 5174TIP3    H215487   6.262   3.513   2.111
 5175TIP3   OH215488   0.878   4.792   3.919
 5175TIP3    H115489   0.926   4.837   3.989
 5175TIP3    H215490   0.820   4.732   3.966
 5176TIP3   OH215491   0.276   3.403   4.954
 5176TIP3    H115492   0.325   3.321   4.942
 5176TIP3    H215493   0.202   3.378   5.010
 5177TIP3   OH215494   4.113   1.174   1.656
 5177TIP3    H115495   4.206   1.160   1.641
 5177TIP3    H215496   4.076   1.190   1.569
 5178TIP3   OH215497   3.177   1.337   2.794
 5178TIP3    H115498   3.214   1.252   2.772
 5178TIP3    H215499   3.131   1.365   2.715
 5179TIP3   OH215500   7.173   1.188   1.826
 5179TIP3    H115501   7.171   1.093   1.818
 5179TIP3    H215502   7.096   1.210   1.879
 5180TIP3   OH215503   6.682   0.248   3.541
 5180TIP3    H115504   6.714   0.214   3.457
 5180TIP3    H215505   6.730   0.198   3.607
 5181TIP3   OH215506   0.596   1.306   1.526
 5181TIP3    H115507   0.681   1.277   1.493
 5181TIP3    H215508   0.537   1.299   1.450
 5182TIP3   OH215509   5.661   3.432   1.463
 5182TIP3    H115510   5.700   3.442   1.550
 5182TIP3    H215511   5.596   3.362   1.475
 5183TIP3   OH215512   6.075   1.981   0.752
 5183TIP3    H115513   6.051   1.890   0.768
 5183TIP3    H215514   6.057   1.995   0.660
 5184TIP3   OH215515   1.639   0.274   4.607
 5184TIP3    H115516   1.645   0.320   4.690
 5184TIP3    H215517   1.631   0.181   4.631
 5185TIP3   OH215518   0.428   1.952   5.288
 5185TIP3    H115519   0.499   2.006   5.253
 5185TIP3    H215520   0.354   2.011   5.297
 5186TIP3   OH215521   4.757   0.650   2.242
 5186TIP3    H115522   4.783   0.664   2.333
 5186TIP3    H215523   4.704   0.726   2.220
 5187TIP3   OH215524   0.344   2.379   4.676
 5187TIP3    H115525   0.296   2.435   4.737
 5187TIP3    H215526   0.435   2.404   4.687
 5188TIP3   OH215527   4.504   4.602   0.896
 5188TIP3    H115528   4.451   4.605   0.816
 5188TIP3    H215529   4.544   4.689   0.902
 5189TIP3   OH215530   3.243   0.173   0.317
 5189TIP3    H115531   3.223   0.147   0.228
 5189TIP3    H215532   3.324   0.126   0.339
 5190TIP3   OH215533   6.948   2.276   5.279
 5190TIP3    H115534   6.873   2.252   5.333
 5190TIP3    H215535   6.969   2.197   5.230
 5191TIP3   OH215536   0.332   1.621   1.413
 5191TIP3    H115537   0.272   1.564   1.460
 5191TIP3    H215538   0.375   1.563   1.350
 5192TIP3   OH215539   5.662   4.475   1.591
 5192TIP3    H115540   5.602   4.450   1.521
 5192TIP3    H215541   5.748   4.447   1.559
 5193TIP3   OH215542   0.730   6.296   5.346
 5193TIP3    H115543   0.642   6.258   5.345
 5193TIP3    H215544   0.735   6.339   5.432
 5194TIP3   OH215545   3.384   1.724   5.747
 5194TIP3    H115546   3.330   1.772   5.685
 5194TIP3    H215547   3.439   1.667   5.692
 5195TIP3   OH215548   6.861   1.342   4.156
 5195TIP3    H115549   6.785   1.297   4.194
 5195TIP3    H215550   6.935   1.286   4.181
 5196TIP3   OH215551   6.178   5.343   0.994
 5196TIP3    H115552   6.092   5.357   1.033
 5196TIP3    H215553   6.202   5.427   0.956
 5197TIP3   OH215554   0.258   3.424   3.076
 5197TIP3    H115555   0.261   3.435   3.171
 5197TIP3    H215556   0.173   3.460   3.051
 5198TIP3   OH215557   0.756   1.097   4.540
 5198TIP3    H115558   0.674   1.081   4.491
 5198TIP3    H215559   0.731   1.090   4.632
 5199TIP3   OH215560   5.764   1.177   3.353
 5199TIP3    H115561   5.741   1.242   3.286
 5199TIP3    H215562   5.806   1.106   3.304
 5200TIP3   OH215563   2.864   2.747   3.522
 5200TIP3    H115564   2.885   2.773   3.611
 5200TIP3    H215565   2.856   2.651   3.527
 5201TIP3   OH215566   1.452   6.780   5.893
 5201TIP3    H115567   1.392   6.839   5.847
 5201TIP3    H215568   1.528   6.772   5.835
 5202TIP3   OH215569   2.087   0.801   0.478
 5202TIP3    H115570   2.166   0.850   0.499
 5202TIP3    H215571   2.079   0.737   0.548
 5203TIP3   OH215572   1.079   3.358   3.311
 5203TIP3    H115573   1.110   3.279   3.265
 5203TIP3    H215574   1.005   3.328   3.362
 5204TIP3   OH215575   6.670   1.232   4.550
 5204TIP3    H115576   6.611   1.306   4.558
 5204TIP3    H215577   6.622   1.158   4.588
 5205TIP3   OH215578   6.181   5.737   2.845
 5205TIP3    H115579   6.270   5.701   2.843
 5205TIP3    H215580   6.125   5.662   2.867
 5206TIP3   OH215581   4.093   0.645   3.089
 5206TIP3    H115582   4.004   0.619   3.063
 5206TIP3    H215583   4.124   0.573   3.144
 5207TIP3   OH215584   5.684   6.432   0.046
 5207TIP3    H115585   5.626   6.462  -0.024
 5207TIP3    H215586   5.643   6.464   0.126
 5208TIP3   OH215587   5.017   3.292   4.908
 5208TIP3    H115588   5.013   3.197   4.918
 5208TIP3    H215589   5.016   3.307   4.813
 5209TIP3   OH215590   4.366   2.845   0.674
 5209TIP3    H115591   4.281   2.837   0.630
 5209TIP3    H215592   4.346   2.887   0.758
 5210TIP3   OH215593   1.229   4.085   4.104
 5210TIP3    H115594   1.309   4.112   4.060
 5210TIP3    H215595   1.160   4.136   4.063
 5211TIP3   OH215596   4.447   1.054   1.345
 5211TIP3    H115597   4.375   1.090   1.292
 5211TIP3    H215598   4.426   1.080   1.434
 5212TIP3   OH215599   2.453   3.916   3.496
 5212TIP3    H115600   2.405   3.845   3.453
 5212TIP3    H215601   2.402   3.934   3.576
 5213TIP3   OH215602   3.662   4.942   1.332
 5213TIP3    H115603   3.605   4.932   1.256
 5213TIP3    H215604   3.749   4.915   1.301
 5214TIP3   OH215605   5.583   5.514   2.155
 5214TIP3    H115606   5.673   5.518   2.122
 5214TIP3    H215607   5.549   5.431   2.120
 5215TIP3   OH215608   5.316   0.068   3.658
 5215TIP3    H115609   5.264   0.129   3.606
 5215TIP3    H215610   5.387   0.121   3.695
 5216TIP3   OH215611   1.785   0.438   3.374
 5216TIP3    H115612   1.843   0.514   3.382
 5216TIP3    H215613   1.697   0.475   3.375
 5217TIP3   OH215614   1.765   3.501   5.220
 5217TIP3    H115615   1.800   3.458   5.297
 5217TIP3    H215616   1.797   3.449   5.146
 5218TIP3   OH215617   3.133   1.359   0.642
 5218TIP3    H115618   3.044   1.323   0.636
 5218TIP3    H215619   3.122   1.442   0.688
 5219TIP3   OH215620   0.735   0.325   5.107
 5219TIP3    H115621   0.799   0.385   5.146
 5219TIP3    H215622   0.680   0.381   5.052
 5220TIP3   OH215623   4.798   0.773   0.097
 5220TIP3    H115624   4.813   0.867   0.088
 5220TIP3    H215625   4.798   0.740   0.007
 5221TIP3   OH215626   4.911   3.211   3.401
 5221TIP3    H115627   4.859   3.205   3.321
 5221TIP3    H215628   5.001   3.218   3.371
 5222TIP3   OH215629   2.188   5.643   5.656
 5222TIP3    H115630   2.236   5.709   5.606
 5222TIP3    H215631   2.220   5.653   5.746
 5223TIP3   OH215632   2.365   1.346   5.181
 5223TIP3    H115633   2.387   1.277   5.244
 5223TIP3    H215634   2.326   1.299   5.107
 5224TIP3   OH215635   3.180   0.330   3.910
 5224TIP3    H115636   3.272   0.345   3.932
 5224TIP3    H215637   3.132   0.364   3.985
 5225TIP3   OH215638   5.088   2.656   5.472
 5225TIP3    H115639   5.110   2.739   5.514
 5225TIP3    H215640   5.060   2.599   5.543
 5226TIP3   OH215641   3.857   4.953   0.454
 5226TIP3    H115642   3.772   4.998   0.451
 5226TIP3    H215643   3.835   4.861   0.468
 5227TIP3   OH215644   3.396   2.349   4.856
 5227TIP3    H115645   3.351   2.433   4.868
 5227TIP3    H215646   3.445   2.359   4.775
 5228TIP3   OH215647   0.819   6.404   5.114
 5228TIP3    H115648   0.817   6.335   5.048
 5228TIP3    H215649   0.786   6.361   5.194
 5229TIP3   OH215650   6.650   6.351   0.992
 5229TIP3    H115651   6.631   6.409   0.919
 5229TIP3    H215652   6.634   6.404   1.070
 5230TIP3   OH215653   5.059   2.587   3.056
 5230TIP3    H115654   5.079   2.586   3.149
 5230TIP3    H215655   4.980   2.641   3.049
 5231TIP3   OH215656   1.455   2.450   1.932
 5231TIP3    H115657   1.387   2.487   1.988
 5231TIP3    H215658   1.497   2.527   1.892
 5232TIP3   OH215659   4.224   6.622   5.846
 5232TIP3    H115660   4.298   6.599   5.789
 5232TIP3    H215661   4.154   6.646   5.785
 5233TIP3   OH215662   1.894   3.726   2.379
 5233TIP3    H115663   1.853   3.811   2.396
 5233TIP3    H215664   1.927   3.698   2.465
 5234TIP3   OH215665   3.412   4.652   1.520
 5234TIP3    H115666   3.385   4.632   1.610
 5234TIP3    H215667   3.368   4.734   1.499
 5235TIP3   OH215668   3.847   0.967   0.420
 5235TIP3    H115669   3.756   0.994   0.406
 5235TIP3    H215670   3.842   0.901   0.489
 5236TIP3   OH215671   2.992   6.253   2.481
 5236TIP3    H115672   2.946   6.197   2.419
 5236TIP3    H215673   2.945   6.337   2.477
 5237TIP3   OH215674   5.989   2.194   3.583
 5237TIP3    H115675   6.052   2.198   3.655
 5237TIP3    H215676   6.011   2.113   3.536
 5238TIP3   OH215677   6.948   6.604   2.975
 5238TIP3    H115678   7.011   6.587   3.045
 5238TIP3    H215679   6.992   6.575   2.895
 5239TIP3   OH215680   1.115   1.069   0.369
 5239TIP3    H115681   1.025   1.037   0.377
 5239TIP3    H215682   1.107   1.165   0.369
 5240TIP3   OH215683   0.273   5.092   2.918
 5240TIP3    H115684   0.236   5.041   2.989
 5240TIP3    H215685   0.367   5.075   2.922
 5241TIP3   OH215686   5.634   0.772   3.308
 5241TIP3    H115687   5.549   0.815   3.296
 5241TIP3    H215688   5.616   0.679   3.292
 5242TIP3   OH215689   0.309   2.301   1.337
 5242TIP3    H115690   0.392   2.265   1.366
 5242TIP3    H215691   0.243   2.240   1.370
 5243TIP3   OH215692   6.938   3.238   2.054
 5243TIP3    H115693   6.977   3.318   2.019
 5243TIP3    H215694   6.848   3.240   2.023
 5244TIP3   OH215695   1.165   6.668   1.461
 5244TIP3    H115696   1.228   6.597   1.452
 5244TIP3    H215697   1.109   6.641   1.535
 5245TIP3   OH215698   4.621   3.981   1.232
 5245TIP3    H115699   4.605   4.019   1.318
 5245TIP3    H215700   4.705   3.936   1.241
 5246TIP3   OH215701   2.131   4.864   3.782
 5246TIP3    H115702   2.092   4.901   3.702
 5246TIP3    H215703   2.093   4.916   3.853
 5247TIP3   OH215704   1.661   6.347   5.386
 5247TIP3    H115705   1.692   6.262   5.415
 5247TIP3    H215706   1.673   6.404   5.461
 5248TIP3   OH215707   4.174   6.525   1.976
 5248TIP3    H115708   4.170   6.434   1.945
 5248TIP3    H215709   4.224   6.571   1.909
 5249TIP3   OH215710   3.142   4.702   5.462
 5249TIP3    H115711   3.095   4.622   5.486
 5249TIP3    H215712   3.157   4.746   5.545
 5250TIP3   OH215713   6.155   4.930   5.096
 5250TIP3    H115714   6.071   4.917   5.052
 5250TIP3    H215715   6.219   4.935   5.025
 5251TIP3   OH215716   5.673   2.797   3.752
 5251TIP3    H115717   5.646   2.877   3.707
 5251TIP3    H215718   5.715   2.828   3.832
 5252TIP3   OH215719   5.834   5.730   0.557
 5252TIP3    H115720   5.853   5.770   0.472
 5252TIP3    H215721   5.776   5.794   0.600
 5253TIP3   OH215722   1.070   4.964   0.834
 5253TIP3    H115723   1.042   4.917   0.755
 5253TIP3    H215724   1.028   5.050   0.826
 5254TIP3   OH215725   3.225   5.645   4.589
 5254TIP3    H115726   3.145   5.592   4.591
 5254TIP3    H215727   3.245   5.655   4.496
 5255TIP3   OH215728   2.853   0.398   2.988
 5255TIP3    H115729   2.942   0.419   2.961
 5255TIP3    H215730   2.853   0.407   3.083
 5256TIP3   OH215731   0.318   5.460   3.346
 5256TIP3    H115732   0.301   5.371   3.314
 5256TIP3    H215733   0.239   5.482   3.397
 5257TIP3   OH215734   2.446   5.019   2.538
 5257TIP3    H115735   2.536   4.991   2.556
 5257TIP3    H215736   2.405   4.943   2.497
 5258TIP3   OH215737   1.062   0.381   2.869
 5258TIP3    H115738   1.073   0.288   2.888
 5258TIP3    H215739   1.028   0.418   2.950
 5259TIP3   OH215740   3.604   5.480   2.648
 5259TIP3    H115741   3.609   5.390   2.680
 5259TIP3    H215742   3.692   5.515   2.661
 5260TIP3   OH215743   5.035   6.359   1.959
 5260TIP3    H115744   5.065   6.274   1.991
 5260TIP3    H215745   5.080   6.423   2.013
 5261TIP3   OH215746   3.214   0.752   4.917
 5261TIP3    H115747   3.138   0.699   4.897
 5261TIP3    H215748   3.251   0.711   4.996
 5262TIP3   OH215749   5.388   3.838   0.096
 5262TIP3    H115750   5.418   3.812   0.009
 5262TIP3    H215751   5.323   3.906   0.079
 5263TIP3   OH215752   2.970   1.567   1.469
 5263TIP3    H115753   2.888   1.603   1.502
 5263TIP3    H215754   3.023   1.643   1.446
 5264TIP3   OH215755   5.164   0.782   1.660
 5264TIP3    H115756   5.160   0.765   1.566
 5264TIP3    H215757   5.141   0.874   1.669
 5265TIP3   OH215758   5.888   4.618   0.677
 5265TIP3    H115759   5.879   4.712   0.696
 5265TIP3    H215760   5.971   4.594   0.718
 5266TIP3   OH215761   1.765   4.412   4.155
 5266TIP3    H115762   1.786   4.425   4.248
 5266TIP3    H215763   1.844   4.372   4.118
 5267TIP3   OH215764   1.723   2.518   3.703
 5267TIP3    H115765   1.764   2.434   3.682
 5267TIP3    H215766   1.791   2.583   3.684
 5268TIP3   OH215767   1.063   0.966   3.644
 5268TIP3    H115768   1.015   0.987   3.564
 5268TIP3    H215769   1.071   0.870   3.643
 5269TIP3   OH215770   7.114   3.240   2.831
 5269TIP3    H115771   7.023   3.213   2.824
 5269TIP3    H215772   7.134   3.280   2.747
 5270TIP3   OH215773   5.551   1.549   0.160
 5270TIP3    H115774   5.581   1.477   0.215
 5270TIP3    H215775   5.606   1.544   0.082
 5271TIP3   OH215776   5.527   0.217   1.353
 5271TIP3    H115777   5.584   0.293   1.361
 5271TIP3    H215778   5.585   0.146   1.327
 5272TIP3   OH215779   4.016   3.315   3.453
 5272TIP3    H115780   3.979   3.364   3.380
 5272TIP3    H215781   4.022   3.379   3.524
 5273TIP3   OH215782   6.895   2.150   2.101
 5273TIP3    H115783   6.872   2.099   2.023
 5273TIP3    H215784   6.928   2.233   2.066
 5274TIP3   OH215785   2.967   1.760   3.466
 5274TIP3    H115786   2.912   1.713   3.403
 5274TIP3    H215787   2.920   1.842   3.482
 5275TIP3   OH215788   0.926   1.551   0.479
 5275TIP3    H115789   0.974   1.488   0.424
 5275TIP3    H215790   0.902   1.501   0.557
 5276TIP3   OH215791   3.680   3.634   1.656
 5276TIP3    H115792   3.641   3.669   1.576
 5276TIP3    H215793   3.620   3.564   1.682
 5277TIP3   OH215794   7.136   3.693   0.101
 5277TIP3    H115795   7.140   3.682   0.196
 5277TIP3    H215796   7.134   3.603   0.066
 5278TIP3   OH215797   4.499   4.020   4.654
 5278TIP3    H115798   4.467   3.964   4.724
 5278TIP3    H215799   4.559   4.081   4.698
 5279TIP3   OH215800   3.380   3.521   0.833
 5279TIP3    H115801   3.452   3.529   0.894
 5279TIP3    H215802   3.317   3.587   0.861
 5280TIP3   OH215803   3.458   6.061   5.643
 5280TIP3    H115804   3.377   6.038   5.598
 5280TIP3    H215805   3.515   5.985   5.631
 5281TIP3   OH215806   6.545   2.355   1.901
 5281TIP3    H115807   6.460   2.396   1.884
 5281TIP3    H215808   6.526   2.287   1.966
 5282TIP3   OH215809   3.455   3.757   5.143
 5282TIP3    H115810   3.470   3.840   5.098
 5282TIP3    H215811   3.500   3.692   5.089
 5283TIP3   OH215812   1.617   5.515   0.645
 5283TIP3    H115813   1.582   5.583   0.588
 5283TIP3    H215814   1.602   5.433   0.598
 5284TIP3   OH215815   1.553   0.645   2.116
 5284TIP3    H115816   1.506   0.561   2.122
 5284TIP3    H215817   1.593   0.643   2.029
 5285TIP3   OH215818   2.126   3.031   5.800
 5285TIP3    H115819   2.118   3.116   5.757
 5285TIP3    H215820   2.082   2.970   5.740
 5286TIP3   OH215821   5.114   6.128   4.503
 5286TIP3    H115822   5.111   6.032   4.498
 5286TIP3    H215823   5.067   6.157   4.425
 5287TIP3   OH215824   2.620   0.299   4.371
 5287TIP3    H115825   2.617   0.229   4.305
 5287TIP3    H215826   2.530   0.308   4.401
 5288TIP3   OH215827   1.562   3.412   1.946
 5288TIP3    H115828   1.515   3.370   1.874
 5288TIP3    H215829   1.616   3.479   1.904
 5289TIP3   OH215830   0.025   6.214   2.802
 5289TIP3    H115831   0.023   6.157   2.725
 5289TIP3    H215832   0.054   6.299   2.768
 5290TIP3   OH215833   2.776   4.654   5.793
 5290TIP3    H115834   2.688   4.655   5.830
 5290TIP3    H215835   2.834   4.656   5.870
 5291TIP3   OH215836   0.631   0.767   2.285
 5291TIP3    H115837   0.554   0.763   2.341
 5291TIP3    H215838   0.626   0.853   2.243
 5292TIP3   OH215839   5.321   5.026   0.497
 5292TIP3    H115840   5.399   5.056   0.450
 5292TIP3    H215841   5.250   5.038   0.434
 5293TIP3   OH215842   5.920   4.074   4.922
 5293TIP3    H115843   5.890   3.986   4.896
 5293TIP3    H215844   6.006   4.060   4.960
 5294TIP3   OH215845   3.591   1.740   5.214
 5294TIP3    H115846   3.550   1.800   5.153
 5294TIP3    H215847   3.520   1.684   5.245
 5295TIP3   OH215848   5.388   3.960   0.478
 5295TIP3    H115849   5.301   3.984   0.446
 5295TIP3    H215850   5.372   3.909   0.557
 5296TIP3   OH215851   2.128   1.610   0.029
 5296TIP3    H115852   2.046   1.598   0.077
 5296TIP3    H215853   2.108   1.677  -0.036
 5297TIP3   OH215854   4.895   0.998   3.463
 5297TIP3    H115855   4.803   0.974   3.468
 5297TIP3    H215856   4.941   0.931   3.515
 5298TIP3   OH215857   2.470   3.046   3.377
 5298TIP3    H115858   2.380   3.014   3.365
 5298TIP3    H215859   2.459   3.136   3.406
 5299TIP3   OH215860   6.252   6.626   0.347
 5299TIP3    H115861   6.252   6.587   0.260
 5299TIP3    H215862   6.344   6.646   0.364
 5300TIP3   OH215863   5.114   6.060   2.972
 5300TIP3    H115864   5.188   6.017   3.016
 5300TIP3    H215865   5.089   6.000   2.903
 5301TIP3   OH215866   1.519   6.416   0.585
 5301TIP3    H115867   1.576   6.484   0.549
 5301TIP3    H215868   1.430   6.442   0.560
 5302TIP3   OH215869   4.944   2.906   4.760
 5302TIP3    H115870   4.938   2.819   4.799
 5302TIP3    H215871   4.871   2.955   4.798
 5303TIP3   OH215872   0.186   5.683   4.620
 5303TIP3    H115873   0.251   5.615   4.639
 5303TIP3    H215874   0.119   5.671   4.688
 5304TIP3   OH215875   3.923   3.671   2.407
 5304TIP3    H115876   3.945   3.764   2.417
 5304TIP3    H215877   3.972   3.643   2.330
 5305TIP3   OH215878   5.250   3.201   2.662
 5305TIP3    H115879   5.345   3.194   2.670
 5305TIP3    H215880   5.222   3.118   2.623
 5306TIP3   OH215881   4.313   1.223   4.145
 5306TIP3    H115882   4.309   1.213   4.050
 5306TIP3    H215883   4.396   1.267   4.162
 5307TIP3   OH215884   4.207   6.391   0.284
 5307TIP3    H115885   4.296   6.400   0.318
 5307TIP3    H215886   4.172   6.481   0.284
 5308TIP3   OH215887   6.761   3.396   1.883
 5308TIP3    H115888   6.825   3.460   1.915
 5308TIP3    H215889   6.777   3.389   1.789
 5309TIP3   OH215890   0.312   5.234   0.814
 5309TIP3    H115891   0.343   5.198   0.897
 5309TIP3    H215892   0.300   5.328   0.831
 5310TIP3   OH215893   6.131   0.793   3.391
 5310TIP3    H115894   6.049   0.763   3.352
 5310TIP3    H215895   6.173   0.712   3.422
 5311TIP3   OH215896   0.597   4.869   5.452
 5311TIP3    H115897   0.545   4.791   5.472
 5311TIP3    H215898   0.532   4.936   5.433
 5312TIP3   OH215899   0.209   2.192   2.965
 5312TIP3    H115900   0.259   2.116   2.996
 5312TIP3    H215901   0.121   2.176   2.997
 5313TIP3   OH215902   6.702   6.473   1.270
 5313TIP3    H115903   6.607   6.466   1.268
 5313TIP3    H215904   6.719   6.561   1.305
 5314TIP3   OH215905   1.105   3.785   0.909
 5314TIP3    H115906   1.105   3.878   0.886
 5314TIP3    H215907   1.163   3.778   0.985
 5315TIP3   OH215908   1.526   4.661   4.250
 5315TIP3    H115909   1.568   4.659   4.336
 5315TIP3    H215910   1.463   4.589   4.252
 5316TIP3   OH215911   4.307   3.973   1.172
 5316TIP3    H115912   4.251   4.029   1.118
 5316TIP3    H215913   4.393   3.980   1.132
 5317TIP3   OH215914   4.308   5.125   3.769
 5317TIP3    H115915   4.264   5.071   3.834
 5317TIP3    H215916   4.400   5.098   3.774
 5318TIP3   OH215917   4.281   6.550   3.898
 5318TIP3    H115918   4.226   6.608   3.952
 5318TIP3    H215919   4.269   6.463   3.937
 5319TIP3   OH215920   1.439   1.662   3.496
 5319TIP3    H115921   1.453   1.706   3.580
 5319TIP3    H215922   1.415   1.732   3.436
 5320TIP3   OH215923   2.304   6.625   2.892
 5320TIP3    H115924   2.276   6.574   2.968
 5320TIP3    H215925   2.309   6.561   2.821
 5321TIP3   OH215926   2.576   2.649   1.202
 5321TIP3    H115927   2.568   2.659   1.297
 5321TIP3    H215928   2.660   2.689   1.181
 5322TIP3   OH215929   4.762   5.924   3.313
 5322TIP3    H115930   4.800   5.839   3.288
 5322TIP3    H215931   4.795   5.985   3.247
 5323TIP3   OH215932   4.831   0.876   5.292
 5323TIP3    H115933   4.817   0.971   5.291
 5323TIP3    H215934   4.802   0.849   5.379
 5324TIP3   OH215935   1.460   4.428   5.358
 5324TIP3    H115936   1.511   4.425   5.277
 5324TIP3    H215937   1.521   4.397   5.425
 5325TIP3   OH215938   3.325   3.978   3.191
 5325TIP3    H115939   3.253   4.033   3.219
 5325TIP3    H215940   3.341   4.004   3.100
 5326TIP3   OH215941   2.298   5.267   2.571
 5326TIP3    H115942   2.319   5.175   2.587
 5326TIP3    H215943   2.323   5.311   2.652
 5327TIP3   OH215944   3.937   5.138   3.114
 5327TIP3    H115945   3.994   5.079   3.163
 5327TIP3    H215946   3.897   5.083   3.047
 5328TIP3   OH215947   7.138   2.039   1.304
 5328TIP3    H115948   7.110   1.976   1.239
 5328TIP3    H215949   7.116   1.999   1.388
 5329TIP3   OH215950   5.442   0.750   1.726
 5329TIP3    H115951   5.348   0.753   1.708
 5329TIP3    H215952   5.470   0.665   1.691
 5330TIP3   OH215953   6.179   6.679   4.417
 5330TIP3    H115954   6.131   6.649   4.494
 5330TIP3    H215955   6.220   6.600   4.382
 5331TIP3   OH215956   3.230   2.372   1.434
 5331TIP3    H115957   3.243   2.279   1.449
 5331TIP3    H215958   3.256   2.386   1.343
 5332TIP3   OH215959   3.781   0.059   2.600
 5332TIP3    H115960   3.727   0.001   2.653
 5332TIP3    H215961   3.761   0.147   2.631
 5333TIP3   OH215962   3.430   2.472   3.478
 5333TIP3    H115963   3.396   2.463   3.389
 5333TIP3    H215964   3.353   2.494   3.531
 5334TIP3   OH215965   7.039   0.340   3.734
 5334TIP3    H115966   7.026   0.339   3.829
 5334TIP3    H215967   7.083   0.257   3.715
 5335TIP3   OH215968   6.779   1.356   3.210
 5335TIP3    H115969   6.845   1.380   3.145
 5335TIP3    H215970   6.710   1.313   3.160
 5336TIP3   OH215971   3.015   4.511   2.753
 5336TIP3    H115972   2.965   4.439   2.792
 5336TIP3    H215973   3.106   4.492   2.774
 5337TIP3   OH215974   5.050   4.390   3.813
 5337TIP3    H115975   5.045   4.415   3.905
 5337TIP3    H215976   4.962   4.409   3.779
 5338TIP3   OH215977   2.446   1.540   3.254
 5338TIP3    H115978   2.451   1.533   3.349
 5338TIP3    H215979   2.355   1.520   3.233
 5339TIP3   OH215980   5.072   5.701   2.320
 5339TIP3    H115981   4.985   5.660   2.315
 5339TIP3    H215982   5.054   5.792   2.343
 5340TIP3   OH215983   0.051   2.693   1.023
 5340TIP3    H115984   0.014   2.750   1.090
 5340TIP3    H215985   0.007   2.608   1.037
 5341TIP3   OH215986   5.556   6.400   4.472
 5341TIP3    H115987   5.593   6.368   4.389
 5341TIP3    H215988   5.466   6.422   4.450
 5342TIP3   OH215989   4.760   4.389   0.336
 5342TIP3    H115990   4.718   4.474   0.355
 5342TIP3    H215991   4.775   4.390   0.241
 5343TIP3   OH215992   0.466   3.989   2.282
 5343TIP3    H115993   0.545   3.972   2.232
 5343TIP3    H215994   0.466   3.922   2.351
 5344TIP3   OH215995   3.826   3.622   4.480
 5344TIP3    H115996   3.768   3.679   4.429
 5344TIP3    H215997   3.867   3.565   4.415
 5345TIP3   OH215998   2.901   3.499   2.560
 5345TIP3    H115999   2.981   3.476   2.514
 5345TIP3    H216000   2.830   3.476   2.500
 5346TIP3   OH216001   3.056   5.361   3.257
 5346TIP3    H116002   3.034   5.368   3.164
 5346TIP3    H216003   2.977   5.325   3.298
 5347TIP3   OH216004   1.443   5.757   3.349
 5347TIP3    H116005   1.473   5.807   3.273
 5347TIP3    H216006   1.375   5.699   3.314
 5348TIP3   OH216007   0.859   3.808   0.809
 5348TIP3    H116008   0.953   3.801   0.824
 5348TIP3    H216009   0.820   3.768   0.887
 5349TIP3   OH216010   5.410   5.671   2.292
 5349TIP3    H116011   5.345   5.688   2.224
 5349TIP3    H216012   5.491   5.653   2.244
 5350TIP3   OH216013   0.559   5.319   3.487
 5350TIP3    H116014   0.486   5.321   3.427
 5350TIP3    H216015   0.521   5.336   3.573
 5351TIP3   OH216016   6.002   6.757   3.838
 5351TIP3    H116017   6.006   6.715   3.924
 5351TIP3    H216018   5.976   6.847   3.856
 5352TIP3   OH216019   2.081   4.397   1.122
 5352TIP3    H116020   2.025   4.366   1.193
 5352TIP3    H216021   2.161   4.427   1.166
 5353TIP3   OH216022   4.061   0.569   4.042
 5353TIP3    H116023   4.062   0.536   4.132
 5353TIP3    H216024   4.139   0.532   4.002
 5354TIP3   OH216025   1.608   0.979   3.752
 5354TIP3    H116026   1.665   1.054   3.769
 5354TIP3    H216027   1.521   1.009   3.778
 5355TIP3   OH216028   1.600   2.909   1.252
 5355TIP3    H116029   1.564   2.821   1.238
 5355TIP3    H216030   1.681   2.894   1.300
 5356TIP3   OH216031   2.639   5.950   1.047
 5356TIP3    H116032   2.569   5.896   1.084
 5356TIP3    H216033   2.610   6.040   1.060
 5357TIP3   OH216034   2.614   1.314   0.611
 5357TIP3    H116035   2.591   1.223   0.630
 5357TIP3    H216036   2.552   1.366   0.661
 5358TIP3   OH216037   0.625   5.243   1.888
 5358TIP3    H116038   0.682   5.239   1.964
 5358TIP3    H216039   0.668   5.303   1.828
 5359TIP3   OH216040   3.077   2.412   4.124
 5359TIP3    H116041   3.087   2.494   4.075
 5359TIP3    H216042   3.157   2.363   4.107
 5360TIP3   OH216043   1.224   5.721   1.582
 5360TIP3    H116044   1.314   5.732   1.552
 5360TIP3    H216045   1.212   5.626   1.587
 5361TIP3   OH216046   5.924   0.834   5.001
 5361TIP3    H116047   5.852   0.780   4.971
 5361TIP3    H216048   5.956   0.789   5.080
 5362TIP3   OH216049   4.436   5.479   5.466
 5362TIP3    H116050   4.401   5.392   5.485
 5362TIP3    H216051   4.530   5.465   5.455
 5363TIP3   OH216052   2.410   0.203   2.360
 5363TIP3    H116053   2.339   0.267   2.364
 5363TIP3    H216054   2.442   0.197   2.450
 5364TIP3   OH216055   2.860   6.660   5.455
 5364TIP3    H116056   2.913   6.737   5.474
 5364TIP3    H216057   2.779   6.694   5.417
 5365TIP3   OH216058   0.665   3.502   1.509
 5365TIP3    H116059   0.724   3.576   1.498
 5365TIP3    H216060   0.578   3.537   1.488
 5366TIP3   OH216061   0.235   1.666   5.361
 5366TIP3    H116062   0.249   1.756   5.391
 5366TIP3    H216063   0.168   1.632   5.420
 5367TIP3   OH216064   5.658   1.978   4.842
 5367TIP3    H116065   5.673   2.011   4.754
 5367TIP3    H216066   5.611   2.049   4.886
 5368TIP3   OH216067   3.618   1.332   3.983
 5368TIP3    H116068   3.675   1.282   4.040
 5368TIP3    H216069   3.674   1.359   3.910
 5369TIP3   OH216070   4.357   5.405   3.865
 5369TIP3    H116071   4.353   5.333   3.802
 5369TIP3    H216072   4.315   5.369   3.944
 5370TIP3   OH216073   1.410   3.721  -0.036
 5370TIP3    H116074   1.386   3.730   0.056
 5370TIP3    H216075   1.485   3.779  -0.048
 5371TIP3   OH216076   1.118   5.636   4.235
 5371TIP3    H116077   1.180   5.689   4.185
 5371TIP3    H216078   1.137   5.546   4.210
 5372TIP3   OH216079   2.586   5.679   5.269
 5372TIP3    H116080   2.520   5.619   5.303
 5372TIP3    H216081   2.539   5.735   5.208
 5373TIP3   OH216082   0.351   2.557   3.151
 5373TIP3    H116083   0.389   2.471   3.170
 5373TIP3    H216084   0.342   2.559   3.056
 5374TIP3   OH216085   0.444   4.338   5.269
 5374TIP3    H116086   0.507   4.404   5.298
 5374TIP3    H216087   0.370   4.346   5.330
 5375TIP3   OH216088   6.503   6.534   1.814
 5375TIP3    H116089   6.425   6.579   1.782
 5375TIP3    H216090   6.473   6.486   1.892
 5376TIP3   OH216091   0.170   2.101   4.033
 5376TIP3    H116092   0.197   2.173   3.977
 5376TIP3    H216093   0.137   2.143   4.113
 5377TIP3   OH216094   6.357   2.212   4.830
 5377TIP3    H116095   6.310   2.129   4.818
 5377TIP3    H216096   6.303   2.261   4.893
 5378TIP3   OH216097   1.327   6.137   2.545
 5378TIP3    H116098   1.320   6.042   2.535
 5378TIP3    H216099   1.399   6.162   2.487
 5379TIP3   OH216100   0.155   2.329   3.331
 5379TIP3    H116101   0.244   2.310   3.361
 5379TIP3    H216102   0.128   2.250   3.285
 5380TIP3   OH216103   6.399   2.575   0.781
 5380TIP3    H116104   6.482   2.590   0.736
 5380TIP3    H216105   6.372   2.662   0.811
 5381TIP3   OH216106   5.567   2.279   3.767
 5381TIP3    H116107   5.532   2.280   3.857
 5381TIP3    H216108   5.506   2.225   3.718
 5382TIP3   OH216109   4.140   4.953   3.514
 5382TIP3    H116110   4.171   5.044   3.506
 5382TIP3    H216111   4.220   4.901   3.507
 5383TIP3   OH216112   1.755   3.726   4.671
 5383TIP3    H116113   1.708   3.755   4.749
 5383TIP3    H216114   1.784   3.808   4.629
 5384TIP3   OH216115   2.193   5.707   2.675
 5384TIP3    H116116   2.272   5.700   2.728
 5384TIP3    H216117   2.224   5.700   2.585
 5385TIP3   OH216118   4.686   3.722   0.520
 5385TIP3    H116119   4.660   3.775   0.595
 5385TIP3    H216120   4.781   3.724   0.520
 5386TIP3   OH216121   3.497   1.262   1.635
 5386TIP3    H116122   3.486   1.180   1.683
 5386TIP3    H216123   3.446   1.251   1.555
 5387TIP3   OH216124   5.178   4.835   5.641
 5387TIP3    H116125   5.208   4.746   5.661
 5387TIP3    H216126   5.193   4.884   5.721
 5388TIP3   OH216127   0.146   0.946   5.365
 5388TIP3    H116128   0.063   0.983   5.334
 5388TIP3    H216129   0.174   0.888   5.294
 5389TIP3   OH216130   5.626   1.639   0.836
 5389TIP3    H116131   5.578   1.604   0.911
 5389TIP3    H216132   5.643   1.730   0.859
 5390TIP3   OH216133   3.060   5.420   2.219
 5390TIP3    H116134   2.971   5.410   2.255
 5390TIP3    H216135   3.058   5.369   2.137
 5391TIP3   OH216136   6.586   3.281   3.769
 5391TIP3    H116137   6.494   3.292   3.790
 5391TIP3    H216138   6.603   3.188   3.785
 5392TIP3   OH216139   6.462   3.730   4.019
 5392TIP3    H116140   6.371   3.740   4.047
 5392TIP3    H216141   6.504   3.813   4.044
 5393TIP3   OH216142   1.782   3.793   3.120
 5393TIP3    H116143   1.802   3.856   3.051
 5393TIP3    H216144   1.718   3.734   3.081
 5394TIP3   OH216145   1.578   2.857   3.286
 5394TIP3    H116146   1.549   2.783   3.339
 5394TIP3    H216147   1.596   2.927   3.349
 5395TIP3   OH216148   1.021   4.186   3.962
 5395TIP3    H116149   1.000   4.272   3.925
 5395TIP3    H216150   0.987   4.123   3.898
 5396TIP3   OH216151   2.021   1.611   2.453
 5396TIP3    H116152   2.005   1.571   2.367
 5396TIP3    H216153   1.954   1.574   2.510
 5397TIP3   OH216154   6.309   2.861   0.834
 5397TIP3    H116155   6.376   2.921   0.803
 5397TIP3    H216156   6.231   2.914   0.845
 5398TIP3   OH216157   2.311   3.139   2.867
 5398TIP3    H116158   2.285   3.108   2.781
 5398TIP3    H216159   2.256   3.217   2.882
 5399TIP3   OH216160   3.107   5.016   3.822
 5399TIP3    H116161   3.102   4.921   3.810
 5399TIP3    H216162   3.017   5.042   3.846
 5400TIP3   OH216163   6.057   6.783   4.969
 5400TIP3    H116164   5.963   6.791   4.980
 5400TIP3    H216165   6.088   6.751   5.054
 5401TIP3   OH216166   6.929   5.723   4.659
 5401TIP3    H116167   6.890   5.651   4.610
 5401TIP3    H216168   6.873   5.798   4.639
 5402TIP3   OH216169   6.435   1.411   0.433
 5402TIP3    H116170   6.440   1.505   0.455
 5402TIP3    H216171   6.451   1.408   0.339
 5403TIP3   OH216172   0.163   6.794   3.913
 5403TIP3    H116173   0.118   6.869   3.954
 5403TIP3    H216174   0.099   6.759   3.852
 5404TIP3   OH216175   1.807   4.084   0.468
 5404TIP3    H116176   1.891   4.094   0.512
 5404TIP3    H216177   1.802   3.990   0.448
 5405TIP3   OH216178   2.057   0.093   2.947
 5405TIP3    H116179   2.136   0.061   2.989
 5405TIP3    H216180   1.985   0.051   2.995
 5406TIP3   OH216181   3.890   1.180   0.221
 5406TIP3    H116182   3.827   1.166   0.151
 5406TIP3    H216183   3.877   1.105   0.280
 5407TIP3   OH216184   4.280   6.055   4.446
 5407TIP3    H116185   4.247   6.103   4.369
 5407TIP3    H216186   4.350   6.110   4.480
 5408TIP3   OH216187   6.188   5.270   2.246
 5408TIP3    H116188   6.224   5.345   2.294
 5408TIP3    H216189   6.105   5.302   2.210
 5409TIP3   OH216190   4.583   4.511   4.499
 5409TIP3    H116191   4.507   4.455   4.483
 5409TIP3    H216192   4.657   4.450   4.499
 5410TIP3   OH216193   4.653   2.524   3.144
 5410TIP3    H116194   4.565   2.496   3.118
 5410TIP3    H216195   4.712   2.458   3.108
 5411TIP3   OH216196   3.222   1.061   4.858
 5411TIP3    H116197   3.130   1.035   4.849
 5411TIP3    H216198   3.270   0.979   4.867
 5412TIP3   OH216199   1.161   2.450   2.816
 5412TIP3    H116200   1.236   2.438   2.874
 5412TIP3    H216201   1.184   2.525   2.762
 5413TIP3   OH216202   4.715   1.720   1.143
 5413TIP3    H116203   4.637   1.732   1.197
 5413TIP3    H216204   4.775   1.788   1.172
 5414TIP3   OH216205   2.260   2.156   3.176
 5414TIP3    H116206   2.188   2.201   3.219
 5414TIP3    H216207   2.277   2.208   3.097
 5415TIP3   OH216208   6.999   0.476   1.772
 5415TIP3    H116209   6.952   0.430   1.703
 5415TIP3    H216210   6.990   0.420   1.849
 5416TIP3   OH216211   2.649   5.757   0.111
 5416TIP3    H116212   2.630   5.787   0.200
 5416TIP3    H216213   2.611   5.824   0.054
 5417TIP3   OH216214   0.666   0.739   1.948
 5417TIP3    H116215   0.606   0.692   2.006
 5417TIP3    H216216   0.700   0.810   2.002
 5418TIP3   OH216217   2.919   5.657   2.469
 5418TIP3    H116218   2.852   5.649   2.401
 5418TIP3    H216219   2.909   5.747   2.500
 5419TIP3   OH216220   2.099   0.369   3.512
 5419TIP3    H116221   2.172   0.378   3.450
 5419TIP3    H216222   2.047   0.448   3.499
 5420TIP3   OH216223   6.182   4.145   1.705
 5420TIP3    H116224   6.149   4.100   1.783
 5420TIP3    H216225   6.257   4.195   1.737
 5421TIP3   OH216226   1.428   5.606   0.842
 5421TIP3    H116227   1.482   5.548   0.789
 5421TIP3    H216228   1.485   5.679   0.864
 5422TIP3   OH216229   0.973   1.907   2.980
 5422TIP3    H116230   0.881   1.916   2.957
 5422TIP3    H216231   1.005   1.998   2.986
 5423TIP3   OH216232   0.370   2.220  -0.006
 5423TIP3    H116233   0.317   2.150  -0.043
 5423TIP3    H216234   0.309   2.271   0.048
 5424TIP3   OH216235   2.985   2.557   0.152
 5424TIP3    H116236   2.912   2.496   0.137
 5424TIP3    H216237   3.060   2.515   0.109
 5425TIP3   OH216238   6.085   4.018   2.467
 5425TIP3    H116239   6.094   3.926   2.490
 5425TIP3    H216240   5.993   4.028   2.442
 5426TIP3   OH216241   3.442   3.294   5.588
 5426TIP3    H116242   3.530   3.258   5.594
 5426TIP3    H216243   3.390   3.224   5.550
 5427TIP3   OH216244   4.307   2.721   3.606
 5427TIP3    H116245   4.253   2.800   3.604
 5427TIP3    H216246   4.296   2.686   3.695
 5428TIP3   OH216247   2.803   1.622   3.319
 5428TIP3    H116248   2.722   1.594   3.362
 5428TIP3    H216249   2.846   1.540   3.295
 5429TIP3   OH216250   3.980   6.688   2.501
 5429TIP3    H116251   3.892   6.653   2.513
 5429TIP3    H216252   4.038   6.624   2.544
 5430TIP3   OH216253   0.912   5.023   5.276
 5430TIP3    H116254   0.970   5.013   5.352
 5430TIP3    H216255   0.914   4.937   5.233
 5431TIP3   OH216256   7.203   0.149   1.428
 5431TIP3    H116257   7.144   0.190   1.492
 5431TIP3    H216258   7.274   0.212   1.417
 5432TIP3   OH216259   4.616   2.211   3.889
 5432TIP3    H116260   4.682   2.175   3.948
 5432TIP3    H216261   4.533   2.189   3.930
 5433TIP3   OH216262   5.552   6.190   0.184
 5433TIP3    H116263   5.643   6.221   0.192
 5433TIP3    H216264   5.552   6.137   0.104
 5434TIP3   OH216265   6.950   4.697   3.588
 5434TIP3    H116266   7.020   4.677   3.526
 5434TIP3    H216267   6.967   4.640   3.663
 5435TIP3   OH216268   6.898   4.196   4.052
 5435TIP3    H116269   6.860   4.278   4.084
 5435TIP3    H216270   6.870   4.130   4.116
 5436TIP3   OH216271   1.031   2.278   2.017
 5436TIP3    H116272   1.028   2.334   2.095
 5436TIP3    H216273   0.961   2.312   1.960
 5437TIP3   OH216274   2.947   4.420   0.635
 5437TIP3    H116275   2.883   4.490   0.648
 5437TIP3    H216276   2.897   4.347   0.601
 5438TIP3   OH216277   1.222   4.705   2.505
 5438TIP3    H116278   1.154   4.637   2.511
 5438TIP3    H216279   1.176   4.786   2.524
 5439TIP3   OH216280   1.257   5.300   5.521
 5439TIP3    H116281   1.295   5.218   5.553
 5439TIP3    H216282   1.247   5.354   5.599
 5440TIP3   OH216283   6.193   1.783   3.917
 5440TIP3    H116284   6.161   1.749   3.833
 5440TIP3    H216285   6.230   1.707   3.961
 5441TIP3   OH216286   1.370   0.092   1.780
 5441TIP3    H116287   1.421   0.028   1.731
 5441TIP3    H216288   1.413   0.176   1.763
 5442TIP3   OH216289   1.644   4.456   2.667
 5442TIP3    H116290   1.631   4.523   2.600
 5442TIP3    H216291   1.719   4.485   2.717
 5443TIP3   OH216292   2.780   0.503   4.259
 5443TIP3    H116293   2.874   0.493   4.275
 5443TIP3    H216294   2.739   0.441   4.319
 5444TIP3   OH216295   4.297   5.941   3.569
 5444TIP3    H116296   4.353   5.982   3.635
 5444TIP3    H216297   4.208   5.950   3.604
 5445TIP3   OH216298   3.567   1.066   3.569
 5445TIP3    H116299   3.639   1.007   3.545
 5445TIP3    H216300   3.541   1.037   3.656
 5446TIP3   OH216301   5.492   5.099   1.443
 5446TIP3    H116302   5.451   5.141   1.368
 5446TIP3    H216303   5.420   5.077   1.501
 5447TIP3   OH216304   3.031   4.899   2.812
 5447TIP3    H116305   3.007   4.861   2.728
 5447TIP3    H216306   3.127   4.899   2.811
 5448TIP3   OH216307   6.469   5.015   5.534
 5448TIP3    H116308   6.522   5.087   5.501
 5448TIP3    H216309   6.401   5.003   5.468
 5449TIP3   OH216310   2.529   6.695   0.158
 5449TIP3    H116311   2.443   6.734   0.170
 5449TIP3    H216312   2.541   6.691   0.063
 5450TIP3   OH216313   6.257   2.097   4.203
 5450TIP3    H116314   6.320   2.026   4.211
 5450TIP3    H216315   6.270   2.131   4.114
 5451TIP3   OH216316   4.469   2.352   0.226
 5451TIP3    H116317   4.489   2.445   0.211
 5451TIP3    H216318   4.398   2.334   0.165
 5452TIP3   OH216319   5.477   0.286   0.546
 5452TIP3    H116320   5.556   0.325   0.583
 5452TIP3    H216321   5.502   0.195   0.528
 5453TIP3   OH216322   2.983   1.027   1.148
 5453TIP3    H116323   2.979   1.120   1.124
 5453TIP3    H216324   3.076   1.009   1.157
 5454TIP3   OH216325   1.196   1.337   3.972
 5454TIP3    H116326   1.105   1.320   3.995
 5454TIP3    H216327   1.228   1.252   3.940
 5455TIP3   OH216328   0.835   4.421   4.210
 5455TIP3    H116329   0.885   4.386   4.136
 5455TIP3    H216330   0.884   4.498   4.237
 5456TIP3   OH216331   6.247   0.770   5.061
 5456TIP3    H116332   6.271   0.828   4.988
 5456TIP3    H216333   6.252   0.826   5.139
 5457TIP3   OH216334   5.124   6.322   3.874
 5457TIP3    H116335   5.209   6.304   3.833
 5457TIP3    H216336   5.115   6.253   3.940
 5458TIP3   OH216337   2.738   3.628   2.239
 5458TIP3    H116338   2.723   3.554   2.298
 5458TIP3    H216339   2.657   3.679   2.244
 5459TIP3   OH216340   1.241   6.498   3.490
 5459TIP3    H116341   1.199   6.429   3.439
 5459TIP3    H216342   1.335   6.481   3.481
 5460TIP3   OH216343   0.128   4.014   0.105
 5460TIP3    H116344   0.089   4.028   0.191
 5460TIP3    H216345   0.184   3.937   0.115
 5461TIP3   OH216346   5.049   3.577   0.992
 5461TIP3    H116347   5.056   3.489   0.955
 5461TIP3    H216348   5.102   3.575   1.071
 5462TIP3   OH216349   3.342   4.006   1.874
 5462TIP3    H116350   3.370   3.988   1.784
 5462TIP3    H216351   3.280   3.936   1.894
 5463TIP3   OH216352   1.642   0.905   4.854
 5463TIP3    H116353   1.666   0.997   4.845
 5463TIP3    H216354   1.548   0.903   4.840
 5464TIP3   OH216355   1.358   0.978   1.803
 5464TIP3    H116356   1.264   0.957   1.798
 5464TIP3    H216357   1.388   0.974   1.713
 5465TIP3   OH216358   7.052   1.205   4.334
 5465TIP3    H116359   7.025   1.115   4.354
 5465TIP3    H216360   7.007   1.258   4.400
 5466TIP3   OH216361   5.027   2.975   5.457
 5466TIP3    H116362   4.955   2.936   5.505
 5466TIP3    H216363   5.106   2.944   5.502
 5467TIP3   OH216364   3.812   3.914   3.993
 5467TIP3    H116365   3.860   3.838   4.026
 5467TIP3    H216366   3.864   3.990   4.021
 5468TIP3   OH216367   3.039   5.271   2.699
 5468TIP3    H116368   3.094   5.215   2.644
 5468TIP3    H216369   2.949   5.247   2.676
 5469TIP3   OH216370   3.318   1.038   5.794
 5469TIP3    H116371   3.308   1.055   5.700
 5469TIP3    H216372   3.393   0.979   5.800
 5470TIP3   OH216373   1.104   6.016   0.150
 5470TIP3    H116374   1.124   5.934   0.196
 5470TIP3    H216375   1.034   5.992   0.089
 5471TIP3   OH216376   3.086   4.310   1.196
 5471TIP3    H116377   3.113   4.324   1.287
 5471TIP3    H216378   3.047   4.393   1.170
 5472TIP3   OH216379   3.976   2.077   3.812
 5472TIP3    H116380   3.966   2.135   3.737
 5472TIP3    H216381   3.976   2.136   3.888
 5473TIP3   OH216382   6.514   6.787   0.312
 5473TIP3    H116383   6.562   6.767   0.232
 5473TIP3    H216384   6.576   6.767   0.383
 5474TIP3   OH216385   0.768   2.043   1.878
 5474TIP3    H116386   0.737   2.060   1.789
 5474TIP3    H216387   0.728   2.112   1.931
 5475TIP3   OH216388   0.700   2.576   3.991
 5475TIP3    H116389   0.635   2.627   4.040
 5475TIP3    H216390   0.780   2.627   3.997
 5476TIP3   OH216391   4.579   5.013   3.743
 5476TIP3    H116392   4.583   4.999   3.838
 5476TIP3    H216393   4.588   4.925   3.706
 5477TIP3   OH216394   4.510   2.894   5.230
 5477TIP3    H116395   4.486   2.811   5.189
 5477TIP3    H216396   4.539   2.949   5.157
 5478TIP3   OH216397   3.508   6.793   3.693
 5478TIP3    H116398   3.557   6.733   3.637
 5478TIP3    H216399   3.465   6.853   3.632
 5479TIP3   OH216400   4.163   0.240   1.760
 5479TIP3    H116401   4.106   0.302   1.806
 5479TIP3    H216402   4.118   0.222   1.677
 5480TIP3   OH216403   5.417   4.798   3.105
 5480TIP3    H116404   5.505   4.836   3.106
 5480TIP3    H216405   5.423   4.722   3.164
 5481TIP3   OH216406   7.010   2.935   2.242
 5481TIP3    H116407   6.970   2.969   2.162
 5481TIP3    H216408   6.969   2.850   2.255
 5482TIP3   OH216409   4.844   6.504   3.585
 5482TIP3    H116410   4.877   6.498   3.675
 5482TIP3    H216411   4.887   6.431   3.539
 5483TIP3   OH216412   2.493   6.575   4.450
 5483TIP3    H116413   2.559   6.593   4.517
 5483TIP3    H216414   2.495   6.652   4.394
 5484TIP3   OH216415   6.514   2.133   4.381
 5484TIP3    H116416   6.442   2.156   4.439
 5484TIP3    H216417   6.483   2.056   4.334
 5485TIP3   OH216418   0.608   3.252   1.487
 5485TIP3    H116419   0.605   3.348   1.480
 5485TIP3    H216420   0.553   3.232   1.562
 5486TIP3   OH216421   4.506   5.149   4.079
 5486TIP3    H116422   4.536   5.169   4.168
 5486TIP3    H216423   4.583   5.112   4.036
 5487TIP3   OH216424   3.987   3.344   2.480
 5487TIP3    H116425   4.033   3.376   2.402
 5487TIP3    H216426   3.904   3.311   2.446
 5488TIP3   OH216427   2.276   3.683   3.373
 5488TIP3    H116428   2.354   3.627   3.378
 5488TIP3    H216429   2.211   3.638   3.426
 5489TIP3   OH216430   1.685   2.160   0.176
 5489TIP3    H116431   1.646   2.109   0.247
 5489TIP3    H216432   1.611   2.187   0.122
 5490TIP3   OH216433   4.059   2.933   2.688
 5490TIP3    H116434   3.982   2.980   2.717
 5490TIP3    H216435   4.115   3.000   2.648
 5491TIP3   OH216436   4.931   0.213   3.250
 5491TIP3    H116437   4.945   0.301   3.287
 5491TIP3    H216438   4.994   0.208   3.178
 5492TIP3   OH216439   3.555   0.817   4.548
 5492TIP3    H116440   3.582   0.839   4.637
 5492TIP3    H216441   3.487   0.881   4.528
 5493TIP3   OH216442   2.811   1.252   2.785
 5493TIP3    H116443   2.869   1.225   2.714
 5493TIP3    H216444   2.851   1.214   2.864
 5494TIP3   OH216445   3.942   0.525   4.682
 5494TIP3    H116446   3.957   0.605   4.631
 5494TIP3    H216447   3.978   0.545   4.768
 5495TIP3   OH216448   0.536   5.801   5.694
 5495TIP3    H116449   0.626   5.789   5.665
 5495TIP3    H216450   0.500   5.712   5.698
 5496TIP3   OH216451   5.035   0.518   2.396
 5496TIP3    H116452   5.043   0.508   2.301
 5496TIP3    H216453   4.968   0.454   2.421
 5497TIP3   OH216454   3.718   4.797   2.329
 5497TIP3    H116455   3.668   4.755   2.399
 5497TIP3    H216456   3.719   4.890   2.354
 5498TIP3   OH216457   0.956   1.074   0.716
 5498TIP3    H116458   0.971   1.168   0.711
 5498TIP3    H216459   1.000   1.047   0.797
 5499TIP3   OH216460   3.345   5.731   3.492
 5499TIP3    H116461   3.337   5.637   3.474
 5499TIP3    H216462   3.316   5.741   3.582
 5500TIP3   OH216463   1.218   5.860   4.666
 5500TIP3    H116464   1.201   5.954   4.673
 5500TIP3    H216465   1.234   5.846   4.572
 5501TIP3   OH216466   5.293   5.962   2.258
 5501TIP3    H116467   5.386   5.984   2.251
 5501TIP3    H216468   5.287   5.906   2.336
 5502TIP3   OH216469   5.724   1.333   5.867
 5502TIP3    H116470   5.727   1.422   5.901
 5502TIP3    H216471   5.803   1.291   5.903
 5503TIP3   OH216472   1.153   0.890   0.582
 5503TIP3    H116473   1.105   0.936   0.652
 5503TIP3    H216474   1.134   0.941   0.503
 5504TIP3   OH216475   3.401   5.357   2.006
 5504TIP3    H116476   3.377   5.264   2.008
 5504TIP3    H216477   3.351   5.396   2.077
 5505TIP3   OH216478   6.767   0.407   5.237
 5505TIP3    H116479   6.820   0.330   5.258
 5505TIP3    H216480   6.818   0.481   5.270
 5506TIP3   OH216481   2.464   5.434   0.645
 5506TIP3    H116482   2.489   5.515   0.601
 5506TIP3    H216483   2.546   5.395   0.672
 5507TIP3   OH216484   0.086   5.006   4.026
 5507TIP3    H116485   0.111   5.090   3.989
 5507TIP3    H216486   0.160   4.981   4.082
 5508TIP3   OH216487   2.248   2.238   3.688
 5508TIP3    H116488   2.197   2.319   3.690
 5508TIP3    H216489   2.185   2.171   3.660
 5509TIP3   OH216490   6.533   0.184   4.036
 5509TIP3    H116491   6.496   0.111   3.987
 5509TIP3    H216492   6.596   0.224   3.976
 5510TIP3   OH216493   5.697   3.167   1.084
 5510TIP3    H116494   5.791   3.150   1.077
 5510TIP3    H216495   5.656   3.104   1.025
 5511TIP3   OH216496   2.811   5.508   0.607
 5511TIP3    H116497   2.905   5.494   0.596
 5511TIP3    H216498   2.795   5.595   0.572
 5512TIP3   OH216499   1.904   4.737   4.270
 5512TIP3    H116500   1.955   4.693   4.202
 5512TIP3    H216501   1.813   4.716   4.249
 5513TIP3   OH216502   0.599   1.255   5.475
 5513TIP3    H116503   0.677   1.310   5.474
 5513TIP3    H216504   0.528   1.315   5.495
 5514TIP3   OH216505   7.109   5.412   1.359
 5514TIP3    H116506   7.170   5.366   1.300
 5514TIP3    H216507   7.041   5.347   1.378
 5515TIP3   OH216508   3.138   2.396   3.568
 5515TIP3    H116509   3.156   2.400   3.662
 5515TIP3    H216510   3.064   2.336   3.561
 5516TIP3   OH216511   5.471   6.748   3.181
 5516TIP3    H116512   5.430   6.693   3.115
 5516TIP3    H216513   5.559   6.765   3.148
 5517TIP3   OH216514   1.093   5.562   3.859
 5517TIP3    H116515   1.104   5.628   3.791
 5517TIP3    H216516   1.182   5.533   3.879
 5518TIP3   OH216517   3.183   2.726   0.444
 5518TIP3    H116518   3.238   2.757   0.373
 5518TIP3    H216519   3.159   2.637   0.418
 5519TIP3   OH216520   4.569   0.175   5.629
 5519TIP3    H116521   4.619   0.250   5.600
 5519TIP3    H216522   4.579   0.110   5.559
 5520TIP3   OH216523   2.062   2.162   1.872
 5520TIP3    H116524   2.090   2.071   1.858
 5520TIP3    H216525   2.052   2.169   1.967
 5521TIP3   OH216526   1.553   4.481   2.924
 5521TIP3    H116527   1.592   4.445   2.845
 5521TIP3    H216528   1.472   4.431   2.937
 5522TIP3   OH216529   3.196   2.383   5.574
 5522TIP3    H116530   3.230   2.300   5.539
 5522TIP3    H216531   3.123   2.405   5.517
 5523TIP3   OH216532   6.253   2.516   0.070
 5523TIP3    H116533   6.222   2.598   0.109
 5523TIP3    H216534   6.174   2.462   0.062
 5524TIP3   OH216535   6.275   1.508   4.370
 5524TIP3    H116536   6.220   1.453   4.313
 5524TIP3    H216537   6.342   1.544   4.311
 5525TIP3   OH216538   0.466   5.928   0.086
 5525TIP3    H116539   0.462   5.865   0.158
 5525TIP3    H216540   0.430   5.881   0.011
 5526TIP3   OH216541   1.508   4.333   5.653
 5526TIP3    H116542   1.562   4.255   5.644
 5526TIP3    H216543   1.437   4.306   5.712
 5527TIP3   OH216544   6.413   5.471   0.560
 5527TIP3    H116545   6.373   5.384   0.553
 5527TIP3    H216546   6.343   5.531   0.535
 5528TIP3   OH216547   1.900   0.669   5.090
 5528TIP3    H116548   1.824   0.690   5.036
 5528TIP3    H216549   1.877   0.585   5.131
 5529TIP3   OH216550   1.374   2.497   1.380
 5529TIP3    H116551   1.332   2.420   1.419
 5529TIP3    H216552   1.304   2.560   1.368
 5530TIP3   OH216553   2.921   2.691   3.068
 5530TIP3    H116554   2.874   2.609   3.054
 5530TIP3    H216555   2.971   2.676   3.149
 5531TIP3   OH216556   2.901   4.814   3.688
 5531TIP3    H116557   2.840   4.755   3.733
 5531TIP3    H216558   2.845   4.878   3.645
 5532TIP3   OH216559   0.215   3.602   2.791
 5532TIP3    H116560   0.283   3.568   2.733
 5532TIP3    H216561   0.256   3.678   2.834
 5533TIP3   OH216562   3.071   3.349   2.125
 5533TIP3    H116563   3.047   3.257   2.124
 5533TIP3    H216564   2.995   3.394   2.088
 5534TIP3   OH216565   2.534   5.008   2.963
 5534TIP3    H116566   2.528   4.982   3.055
 5534TIP3    H216567   2.572   5.096   2.965
 5535TIP3   OH216568   7.276   2.820   1.916
 5535TIP3    H116569   7.199   2.773   1.948
 5535TIP3    H216570   7.241   2.889   1.860
 5536TIP3   OH216571   2.575   4.216   4.853
 5536TIP3    H116572   2.483   4.202   4.876
 5536TIP3    H216573   2.572   4.275   4.777
 5537TIP3   OH216574   4.709   4.349   1.530
 5537TIP3    H116575   4.776   4.367   1.596
 5537TIP3    H216576   4.753   4.368   1.446
 5538TIP3   OH216577   5.095   5.892   2.763
 5538TIP3    H116578   5.097   5.808   2.717
 5538TIP3    H216579   5.183   5.927   2.753
 5539TIP3   OH216580   0.520   2.865   1.205
 5539TIP3    H116581   0.596   2.907   1.165
 5539TIP3    H216582   0.501   2.791   1.148
 5540TIP3   OH216583   6.618   4.924   3.892
 5540TIP3    H116584   6.676   4.856   3.925
 5540TIP3    H216585   6.668   5.005   3.903
 5541TIP3   OH216586   5.400   3.994   0.982
 5541TIP3    H116587   5.375   3.936   1.053
 5541TIP3    H216588   5.472   4.047   1.017
 5542TIP3   OH216589   4.961   3.970   3.493
 5542TIP3    H116590   4.985   4.012   3.576
 5542TIP3    H216591   4.957   3.877   3.514
 5543TIP3   OH216592   6.586   3.541   0.145
 5543TIP3    H116593   6.644   3.580   0.210
 5543TIP3    H216594   6.517   3.500   0.197
 5544TIP3   OH216595   0.572   1.454   2.273
 5544TIP3    H116596   0.600   1.393   2.205
 5544TIP3    H216597   0.608   1.539   2.246
 5545TIP3   OH216598   5.415   5.393   5.309
 5545TIP3    H116599   5.471   5.413   5.235
 5545TIP3    H216600   5.326   5.394   5.273
 5546TIP3   OH216601   5.195   0.381   4.894
 5546TIP3    H116602   5.252   0.332   4.954
 5546TIP3    H216603   5.241   0.464   4.880
 5547TIP3   OH216604   1.542   5.568   1.516
 5547TIP3    H116605   1.501   5.490   1.553
 5547TIP3    H216606   1.622   5.579   1.566
 5548TIP3   OH216607   4.200   5.246   0.842
 5548TIP3    H116608   4.129   5.289   0.793
 5548TIP3    H216609   4.272   5.240   0.779
 5549TIP3   OH216610   1.915   3.800   1.052
 5549TIP3    H116611   1.931   3.717   1.006
 5549TIP3    H216612   1.838   3.836   1.009
 5550TIP3   OH216613   5.654   2.787   3.415
 5550TIP3    H116614   5.716   2.730   3.460
 5550TIP3    H216615   5.680   2.783   3.323
 5551TIP3   OH216616   2.239   4.603   4.669
 5551TIP3    H116617   2.321   4.649   4.688
 5551TIP3    H216618   2.175   4.642   4.729
 5552TIP3   OH216619   0.258   0.880   1.497
 5552TIP3    H116620   0.269   0.913   1.586
 5552TIP3    H216621   0.303   0.796   1.497
 5553TIP3   OH216622   0.578   0.184   1.754
 5553TIP3    H116623   0.622   0.269   1.747
 5553TIP3    H216624   0.531   0.175   1.672
 5554TIP3   OH216625   2.716   1.795   2.659
 5554TIP3    H116626   2.798   1.763   2.697
 5554TIP3    H216627   2.734   1.886   2.636
 5555TIP3   OH216628   6.433   0.132   3.522
 5555TIP3    H116629   6.508   0.191   3.524
 5555TIP3    H216630   6.435   0.087   3.607
 5556TIP3   OH216631   1.450   2.453   5.133
 5556TIP3    H116632   1.375   2.502   5.167
 5556TIP3    H216633   1.488   2.511   5.066
 5557TIP3   OH216634   1.450   3.866   3.140
 5557TIP3    H116635   1.436   3.897   3.229
 5557TIP3    H216636   1.535   3.902   3.115
 5558TIP3   OH216637   3.357   3.736   4.710
 5558TIP3    H116638   3.287   3.711   4.648
 5558TIP3    H216639   3.402   3.654   4.729
 5559TIP3   OH216640   1.718   5.653   1.731
 5559TIP3    H116641   1.681   5.583   1.784
 5559TIP3    H216642   1.698   5.733   1.778
 5560TIP3   OH216643   7.106   2.472   1.034
 5560TIP3    H116644   7.108   2.443   0.943
 5560TIP3    H216645   7.067   2.398   1.082
 5561TIP3   OH216646   5.681   4.094   4.463
 5561TIP3    H116647   5.689   4.152   4.539
 5561TIP3    H216648   5.725   4.013   4.490
 5562TIP3   OH216649   3.264   2.703   2.376
 5562TIP3    H116650   3.296   2.714   2.466
 5562TIP3    H216651   3.323   2.757   2.323
 5563TIP3   OH216652   7.139   4.592   4.570
 5563TIP3    H116653   7.053   4.564   4.602
 5563TIP3    H216654   7.119   4.655   4.500
 5564TIP3   OH216655   0.232   2.018   5.797
 5564TIP3    H116656   0.325   2.039   5.792
 5564TIP3    H216657   0.229   1.928   5.830
 5565TIP3   OH216658   7.088   4.649   3.295
 5565TIP3    H116659   7.024   4.591   3.253
 5565TIP3    H216660   7.173   4.608   3.276
 5566TIP3   OH216661   6.924   4.850   0.010
 5566TIP3    H116662   6.891   4.922  -0.045
 5566TIP3    H216663   6.854   4.835   0.073
 5567TIP3   OH216664   6.048   2.111   1.881
 5567TIP3    H116665   6.141   2.133   1.880
 5567TIP3    H216666   6.045   2.016   1.888
 5568TIP3   OH216667   6.476   3.837   0.854
 5568TIP3    H116668   6.462   3.910   0.915
 5568TIP3    H216669   6.410   3.772   0.879
 5569TIP3   OH216670   3.032   0.120   1.682
 5569TIP3    H116671   3.048   0.154   1.594
 5569TIP3    H216672   2.942   0.146   1.703
 5570TIP3   OH216673   0.311   6.374   3.742
 5570TIP3    H116674   0.283   6.283   3.755
 5570TIP3    H216675   0.291   6.417   3.824
 5571TIP3   OH216676   1.865   0.031   4.344
 5571TIP3    H116677   1.869   0.104   4.281
 5571TIP3    H216678   1.780  -0.009   4.329
 5572TIP3   OH216679   2.735   4.760   0.246
 5572TIP3    H116680   2.714   4.707   0.169
 5572TIP3    H216681   2.789   4.832   0.211
 5573TIP3   OH216682   2.016   6.104   0.544
 5573TIP3    H116683   1.925   6.077   0.550
 5573TIP3    H216684   2.012   6.196   0.519
 5574TIP3   OH216685   5.561   4.125   4.771
 5574TIP3    H116686   5.480   4.163   4.805
 5574TIP3    H216687   5.631   4.179   4.808
 5575TIP3   OH216688   4.752   1.136   4.401
 5575TIP3    H116689   4.742   1.124   4.496
 5575TIP3    H216690   4.811   1.065   4.375
 5576TIP3   OH216691   4.582   1.351   4.997
 5576TIP3    H116692   4.593   1.261   5.029
 5576TIP3    H216693   4.641   1.357   4.922
 5577TIP3   OH216694   5.739   0.822   2.325
 5577TIP3    H116695   5.649   0.800   2.348
 5577TIP3    H216696   5.759   0.900   2.377
 5578TIP3   OH216697   2.890   1.276   0.573
 5578TIP3    H116698   2.817   1.328   0.607
 5578TIP3    H216699   2.847   1.208   0.520
 5579TIP3   OH216700   3.434   2.590   1.931
 5579TIP3    H116701   3.522   2.627   1.918
 5579TIP3    H216702   3.422   2.531   1.857
 5580TIP3   OH216703   3.235   1.811   0.200
 5580TIP3    H116704   3.317   1.804   0.248
 5580TIP3    H216705   3.261   1.807   0.107
 5581TIP3   OH216706   0.952   6.523   2.690
 5581TIP3    H116707   0.994   6.444   2.724
 5581TIP3    H216708   0.859   6.512   2.711
 5582TIP3   OH216709   0.570   2.057   0.136
 5582TIP3    H116710   0.658   2.056   0.098
 5582TIP3    H216711   0.521   2.120   0.083
 5583TIP3   OH216712   2.418   4.674   5.241
 5583TIP3    H116713   2.352   4.722   5.291
 5583TIP3    H216714   2.458   4.741   5.185
 5584TIP3   OH216715   2.233   1.801   3.610
 5584TIP3    H116716   2.242   1.893   3.634
 5584TIP3    H216717   2.148   1.796   3.566
 5585TIP3   OH216718   4.046   5.090   2.093
 5585TIP3    H116719   3.958   5.086   2.129
 5585TIP3    H216720   4.044   5.031   2.017
 5586TIP3   OH216721   6.492   1.145   2.422
 5586TIP3    H116722   6.544   1.099   2.487
 5586TIP3    H216723   6.404   1.150   2.460
 5587TIP3   OH216724   3.598   2.515   2.203
 5587TIP3    H116725   3.663   2.584   2.192
 5587TIP3    H216726   3.546   2.518   2.123
 5588TIP3   OH216727   5.411   1.980   2.696
 5588TIP3    H116728   5.379   2.041   2.629
 5588TIP3    H216729   5.435   2.036   2.770
 5589TIP3   OH216730   1.879   4.470   1.314
 5589TIP3    H116731   1.844   4.382   1.298
 5589TIP3    H216732   1.834   4.500   1.393
 5590TIP3   OH216733   2.976   2.446   5.416
 5590TIP3    H116734   2.954   2.520   5.360
 5590TIP3    H216735   2.933   2.466   5.500
 5591TIP3   OH216736   6.656   5.657   5.708
 5591TIP3    H116737   6.610   5.717   5.649
 5591TIP3    H216738   6.743   5.648   5.669
 5592TIP3   OH216739   0.997   1.910   4.260
 5592TIP3    H116740   0.969   1.919   4.169
 5592TIP3    H216741   0.974   1.993   4.301
 5593TIP3   OH216742   6.368   1.105   5.491
 5593TIP3    H116743   6.446   1.069   5.448
 5593TIP3    H216744   6.295   1.062   5.447
 5594TIP3   OH216745   6.075   4.382   2.608
 5594TIP3    H116746   6.023   4.381   2.528
 5594TIP3    H216747   6.130   4.304   2.602
 5595TIP3   OH216748   5.495   6.274   1.370
 5595TIP3    H116749   5.568   6.324   1.333
 5595TIP3    H216750   5.473   6.321   1.450
 5596TIP3   OH216751   6.745   4.314   4.762
 5596TIP3    H116752   6.677   4.363   4.808
 5596TIP3    H216753   6.827   4.351   4.794
 5597TIP3   OH216754   3.723   4.283   0.289
 5597TIP3    H116755   3.753   4.276   0.379
 5597TIP3    H216756   3.787   4.340   0.246
 5598TIP3   OH216757   6.953   5.829   0.522
 5598TIP3    H116758   6.867   5.800   0.491
 5598TIP3    H216759   6.985   5.756   0.576
 5599TIP3   OH216760   3.579   5.916   2.359
 5599TIP3    H116761   3.638   5.877   2.424
 5599TIP3    H216762   3.508   5.852   2.349
 5600TIP3   OH216763   1.351   4.889   3.092
 5600TIP3    H116764   1.331   4.821   3.157
 5600TIP3    H216765   1.331   4.848   3.008
 5601TIP3   OH216766   1.431   5.117   5.337
 5601TIP3    H116767   1.450   5.132   5.244
 5601TIP3    H216768   1.375   5.040   5.338
 5602TIP3   OH216769   1.057   2.482   0.679
 5602TIP3    H116770   1.009   2.565   0.685
 5602TIP3    H216771   1.144   2.507   0.646
 5603TIP3   OH216772   0.734   4.058   4.088
 5603TIP3    H116773   0.754   4.115   4.162
 5603TIP3    H216774   0.818   4.017   4.065
 5604TIP3   OH216775   2.434   4.166   3.354
 5604TIP3    H116776   2.521   4.133   3.376
 5604TIP3    H216777   2.388   4.091   3.317
 5605TIP3   OH216778   6.372   2.096   3.596
 5605TIP3    H116779   6.382   2.173   3.540
 5605TIP3    H216780   6.446   2.039   3.573
 5606TIP3   OH216781   2.721   1.895   4.703
 5606TIP3    H116782   2.810   1.915   4.674
 5606TIP3    H216783   2.664   1.937   4.639
 5607TIP3   OH216784   2.376   2.139   0.931
 5607TIP3    H116785   2.432   2.209   0.965
 5607TIP3    H216786   2.306   2.130   0.995
 5608TIP3   OH216787   2.404   2.217   0.684
 5608TIP3    H116788   2.387   2.311   0.674
 5608TIP3    H216789   2.420   2.206   0.778
 5609TIP3   OH216790   4.010   0.486   0.900
 5609TIP3    H116791   4.067   0.521   0.831
 5609TIP3    H216792   4.051   0.402   0.924
 5610TIP3   OH216793   4.632   6.770   2.678
 5610TIP3    H116794   4.614   6.843   2.619
 5610TIP3    H216795   4.586   6.695   2.639
 5611TIP3   OH216796   6.764   2.055   4.481
 5611TIP3    H116797   6.702   2.105   4.428
 5611TIP3    H216798   6.820   2.010   4.418
 5612TIP3   OH216799   4.456   5.619   3.723
 5612TIP3    H116800   4.392   5.557   3.758
 5612TIP3    H216801   4.540   5.586   3.753
 5613TIP3   OH216802   4.254   2.836   4.171
 5613TIP3    H116803   4.342   2.871   4.161
 5613TIP3    H216804   4.197   2.912   4.163
 5614TIP3   OH216805   6.866   6.200   2.228
 5614TIP3    H116806   6.774   6.222   2.210
 5614TIP3    H216807   6.886   6.245   2.310
 5615TIP3   OH216808   4.260   5.909   1.414
 5615TIP3    H116809   4.213   5.848   1.471
 5615TIP3    H216810   4.309   5.965   1.474
 5616TIP3   OH216811   6.917   3.753   0.651
 5616TIP3    H116812   6.911   3.726   0.559
 5616TIP3    H216813   6.836   3.721   0.690
 5617TIP3   OH216814   6.232   3.011   1.193
 5617TIP3    H116815   6.303   2.961   1.154
 5617TIP3    H216816   6.154   2.957   1.179
 5618TIP3   OH216817   6.016   4.929   5.361
 5618TIP3    H116818   6.054   5.008   5.400
 5618TIP3    H216819   6.072   4.911   5.285
 5619TIP3   OH216820   5.133   6.051   0.530
 5619TIP3    H116821   5.145   5.962   0.499
 5619TIP3    H216822   5.191   6.104   0.475
 5620TIP3   OH216823   4.118   2.322   4.516
 5620TIP3    H116824   4.070   2.405   4.516
 5620TIP3    H216825   4.050   2.255   4.520
 5621TIP3   OH216826   1.780   3.258   1.798
 5621TIP3    H116827   1.776   3.351   1.821
 5621TIP3    H216828   1.846   3.253   1.729
 5622TIP3   OH216829   0.374   6.004   2.869
 5622TIP3    H116830   0.384   5.940   2.799
 5622TIP3    H216831   0.379   5.953   2.950
 5623TIP3   OH216832   5.338   1.838   4.863
 5623TIP3    H116833   5.377   1.864   4.947
 5623TIP3    H216834   5.407   1.856   4.798
 5624TIP3   OH216835   0.030   3.373   0.811
 5624TIP3    H116836  -0.031   3.300   0.815
 5624TIP3    H216837   0.080   3.367   0.892
 5625TIP3   OH216838   0.810   5.380   0.958
 5625TIP3    H116839   0.879   5.432   1.000
 5625TIP3    H216840   0.733   5.437   0.961
 5626TIP3   OH216841   4.701   4.413   5.671
 5626TIP3    H116842   4.678   4.333   5.718
 5626TIP3    H216843   4.768   4.454   5.727
 5627TIP3   OH216844   0.765   3.845   5.317
 5627TIP3    H116845   0.788   3.898   5.393
 5627TIP3    H216846   0.792   3.897   5.241
 5628TIP3   OH216847   2.560   2.326   5.874
 5628TIP3    H116848   2.597   2.372   5.799
 5628TIP3    H216849   2.537   2.240   5.842
 5629TIP3   OH216850   2.701   2.571   4.164
 5629TIP3    H116851   2.657   2.570   4.249
 5629TIP3    H216852   2.794   2.557   4.184
 5630TIP3   OH216853   5.380   5.976   1.920
 5630TIP3    H116854   5.397   6.070   1.922
 5630TIP3    H216855   5.418   5.943   2.001
 5631TIP3   OH216856   5.099   4.127   3.003
 5631TIP3    H116857   5.087   4.141   3.097
 5631TIP3    H216858   5.162   4.194   2.976
 5632TIP3   OH216859   3.212   4.507   0.611
 5632TIP3    H116860   3.136   4.461   0.646
 5632TIP3    H216861   3.227   4.466   0.526
 5633TIP3   OH216862   4.188   3.311   1.514
 5633TIP3    H116863   4.140   3.291   1.434
 5633TIP3    H216864   4.141   3.386   1.552
 5634TIP3   OH216865   0.778   1.679   0.786
 5634TIP3    H116866   0.753   1.695   0.695
 5634TIP3    H216867   0.724   1.739   0.837
 5635TIP3   OH216868   3.350   2.474   1.684
 5635TIP3    H116869   3.289   2.419   1.636
 5635TIP3    H216870   3.414   2.412   1.720
 5636TIP3   OH216871   5.537   5.345   0.513
 5636TIP3    H116872   5.482   5.405   0.462
 5636TIP3    H216873   5.527   5.260   0.469
 5637TIP3   OH216874   6.387   4.660   0.652
 5637TIP3    H116875   6.380   4.605   0.574
 5637TIP3    H216876   6.343   4.742   0.627
 5638TIP3   OH216877   3.249   0.242   0.763
 5638TIP3    H116878   3.337   0.223   0.795
 5638TIP3    H216879   3.206   0.287   0.836
 5639TIP3   OH216880   5.113   3.214   5.394
 5639TIP3    H116881   5.068   3.246   5.316
 5639TIP3    H216882   5.071   3.131   5.414
 5640TIP3   OH216883   6.049   5.723   0.890
 5640TIP3    H116884   6.004   5.805   0.868
 5640TIP3    H216885   6.008   5.695   0.972
 5641TIP3   OH216886   2.593   4.815   1.734
 5641TIP3    H116887   2.570   4.908   1.729
 5641TIP3    H216888   2.651   4.802   1.659
 5642TIP3   OH216889   6.386   1.890   0.679
 5642TIP3    H116890   6.464   1.840   0.705
 5642TIP3    H216891   6.325   1.879   0.751
 5643TIP3   OH216892   1.134   6.290   3.354
 5643TIP3    H116893   1.052   6.253   3.385
 5643TIP3    H216894   1.133   6.276   3.260
 5644TIP3   OH216895   6.422   5.564   5.896
 5644TIP3    H116896   6.336   5.533   5.868
 5644TIP3    H216897   6.482   5.531   5.829
 5645TIP3   OH216898   1.728   6.242   3.036
 5645TIP3    H116899   1.657   6.195   3.080
 5645TIP3    H216900   1.718   6.219   2.944
 5646TIP3   OH216901   5.767   4.292   4.915
 5646TIP3    H116902   5.827   4.220   4.899
 5646TIP3    H216903   5.746   4.326   4.827
 5647TIP3   OH216904   2.257   0.748   3.007
 5647TIP3    H116905   2.278   0.801   2.930
 5647TIP3    H216906   2.177   0.701   2.982
 5648TIP3   OH216907   5.042   5.732   0.278
 5648TIP3    H116908   4.991   5.709   0.200
 5648TIP3    H216909   4.979   5.733   0.349
 5649TIP3   OH216910   1.668   3.667   1.285
 5649TIP3    H116911   1.702   3.585   1.249
 5649TIP3    H216912   1.697   3.667   1.377
 5650TIP3   OH216913   5.285   4.807   1.620
 5650TIP3    H116914   5.380   4.807   1.634
 5650TIP3    H216915   5.252   4.741   1.681
 5651TIP3   OH216916   3.020   0.514   1.407
 5651TIP3    H116917   2.994   0.601   1.435
 5651TIP3    H216918   3.035   0.466   1.488
 5652TIP3   OH216919   3.102   3.889   0.739
 5652TIP3    H116920   3.155   3.823   0.783
 5652TIP3    H216921   3.141   3.897   0.652
 5653TIP3   OH216922   6.239   0.808   4.152
 5653TIP3    H116923   6.268   0.750   4.223
 5653TIP3    H216924   6.144   0.797   4.150
 5654TIP3   OH216925   2.185   4.223   3.900
 5654TIP3    H116926   2.231   4.172   3.967
 5654TIP3    H216927   2.108   4.169   3.878
 5655TIP3   OH216928   2.588   5.768   2.540
 5655TIP3    H116929   2.554   5.851   2.507
 5655TIP3    H216930   2.526   5.741   2.608
 5656TIP3   OH216931   1.601   1.630   5.719
 5656TIP3    H116932   1.571   1.543   5.746
 5656TIP3    H216933   1.527   1.666   5.670
 5657TIP3   OH216934   3.377   5.674   0.049
 5657TIP3    H116935   3.294   5.718   0.067
 5657TIP3    H216936   3.433   5.742   0.013
 5658TIP3   OH216937   3.789   6.076   4.134
 5658TIP3    H116938   3.752   6.000   4.088
 5658TIP3    H216939   3.757   6.068   4.223
 5659TIP3   OH216940   0.907   0.739   1.843
 5659TIP3    H116941   0.815   0.756   1.864
 5659TIP3    H216942   0.925   0.654   1.884
 5660TIP3   OH216943   3.225   0.325   5.795
 5660TIP3    H116944   3.256   0.408   5.831
 5660TIP3    H216945   3.291   0.298   5.732
 5661TIP3   OH216946   6.411   2.831   5.845
 5661TIP3    H116947   6.461   2.911   5.863
 5661TIP3    H216948   6.407   2.826   5.750
 5662TIP3   OH216949   4.120   3.873   3.578
 5662TIP3    H116950   4.178   3.948   3.592
 5662TIP3    H216951   4.071   3.895   3.498
 5663TIP3   OH216952   2.646   5.945   0.766
 5663TIP3    H116953   2.650   5.932   0.861
 5663TIP3    H216954   2.698   6.024   0.751
 5664TIP3   OH216955   6.922   3.798   3.073
 5664TIP3    H116956   6.922   3.864   3.142
 5664TIP3    H216957   6.979   3.729   3.105
 5665TIP3   OH216958   0.145   1.236   5.536
 5665TIP3    H116959   0.063   1.262   5.493
 5665TIP3    H216960   0.131   1.143   5.558
 5666TIP3   OH216961   4.573   1.711   0.402
 5666TIP3    H116962   4.497   1.768   0.413
 5666TIP3    H216963   4.606   1.732   0.314
 5667TIP3   OH216964   2.801   5.222   4.239
 5667TIP3    H116965   2.890   5.244   4.214
 5667TIP3    H216966   2.787   5.134   4.203
 5668TIP3   OH216967   4.491   4.189   1.501
 5668TIP3    H116968   4.556   4.244   1.546
 5668TIP3    H216969   4.501   4.212   1.409
 5669TIP3   OH216970   5.433   1.050   0.755
 5669TIP3    H116971   5.502   1.067   0.690
 5669TIP3    H216972   5.427   0.955   0.759
 5670TIP3   OH216973   6.087   6.138   1.486
 5670TIP3    H116974   6.167   6.154   1.435
 5670TIP3    H216975   6.113   6.070   1.549
 5671TIP3   OH216976   4.125   1.325   2.568
 5671TIP3    H116977   4.085   1.365   2.645
 5671TIP3    H216978   4.168   1.397   2.523
 5672TIP3   OH216979   6.910   2.745   5.899
 5672TIP3    H116980   6.820   2.714   5.893
 5672TIP3    H216981   6.960   2.683   5.847
 5673TIP3   OH216982   5.298   4.361   3.050
 5673TIP3    H116983   5.336   4.440   3.011
 5673TIP3    H216984   5.374   4.307   3.073
 5674TIP3   OH216985   3.996   0.611   1.536
 5674TIP3    H116986   3.907   0.582   1.516
 5674TIP3    H216987   4.052   0.539   1.507
 5675TIP3   OH216988   6.227   2.393   0.639
 5675TIP3    H116989   6.134   2.390   0.661
 5675TIP3    H216990   6.270   2.420   0.720
 5676TIP3   OH216991   1.826   6.535   1.770
 5676TIP3    H116992   1.785   6.589   1.702
 5676TIP3    H216993   1.920   6.544   1.755
 5677TIP3   OH216994   6.596   1.396   3.877
 5677TIP3    H116995   6.538   1.378   3.803
 5677TIP3    H216996   6.586   1.320   3.934
 5678TIP3   OH216997   1.879   6.117   1.870
 5678TIP3    H116998   1.923   6.145   1.790
 5678TIP3    H216999   1.847   6.198   1.909
 5679TIP3   OH217000   4.657   0.658   4.272
 5679TIP3    H117001   4.609   0.582   4.240
 5679TIP3    H217002   4.595   0.704   4.328
 5680TIP3   OH217003   4.945   6.607   2.117
 5680TIP3    H117004   4.949   6.533   2.177
 5680TIP3    H217005   4.879   6.665   2.156
 5681TIP3   OH217006   6.425   6.420   0.620
 5681TIP3    H117007   6.366   6.405   0.694
 5681TIP3    H217008   6.386   6.370   0.548
 5682TIP3   OH217009   1.978   2.167   1.465
 5682TIP3    H117010   2.058   2.213   1.440
 5682TIP3    H217011   1.974   2.092   1.407
 5683TIP3   OH217012   1.221   6.247   1.967
 5683TIP3    H117013   1.202   6.328   2.015
 5683TIP3    H217014   1.154   6.245   1.898
 5684TIP3   OH217015   5.086   5.245   4.760
 5684TIP3    H117016   5.025   5.310   4.794
 5684TIP3    H217017   5.064   5.164   4.807
 5685TIP3   OH217018   5.158   2.686   4.118
 5685TIP3    H117019   5.136   2.776   4.092
 5685TIP3    H217020   5.250   2.690   4.144
 5686TIP3   OH217021   6.384   1.365   2.275
 5686TIP3    H117022   6.446   1.321   2.334
 5686TIP3    H217023   6.303   1.315   2.283
 5687TIP3   OH217024   2.786   2.534   4.869
 5687TIP3    H117025   2.879   2.519   4.889
 5687TIP3    H217026   2.743   2.451   4.888
 5688TIP3   OH217027   4.303   3.069   4.376
 5688TIP3    H117028   4.378   3.071   4.436
 5688TIP3    H217029   4.230   3.105   4.427
 5689TIP3   OH217030   2.958   1.887   1.640
 5689TIP3    H117031   2.976   1.882   1.546
 5689TIP3    H217032   3.039   1.922   1.678
 5690TIP3   OH217033   7.151   5.475   1.705
 5690TIP3    H117034   7.201   5.399   1.674
 5690TIP3    H217035   7.118   5.450   1.791
 5691TIP3   OH217036   7.077   5.119   4.664
 5691TIP3    H117037   7.080   5.029   4.694
 5691TIP3    H217038   7.118   5.117   4.577
 5692TIP3   OH217039   6.276   1.550   4.047
 5692TIP3    H117040   6.371   1.549   4.034
 5692TIP3    H217041   6.245   1.474   3.999
 5693TIP3   OH217042   2.475   3.511   0.572
 5693TIP3    H117043   2.453   3.590   0.621
 5693TIP3    H217044   2.517   3.454   0.635
 5694TIP3   OH217045   5.321   5.958   3.151
 5694TIP3    H117046   5.319   5.871   3.111
 5694TIP3    H217047   5.414   5.975   3.168
 5695TIP3   OH217048   5.058   6.661   1.324
 5695TIP3    H117049   5.138   6.686   1.370
 5695TIP3    H217050   5.081   6.665   1.231
 5696TIP3   OH217051   6.589   6.253   5.253
 5696TIP3    H117052   6.658   6.187   5.242
 5696TIP3    H217053   6.533   6.241   5.177
 5697TIP3   OH217054   6.994   1.835   4.818
 5697TIP3    H117055   7.006   1.785   4.737
 5697TIP3    H217056   7.044   1.786   4.884
 5698TIP3   OH217057   1.093   3.994   3.221
 5698TIP3    H117058   1.027   4.053   3.256
 5698TIP3    H217059   1.166   4.050   3.198
 5699TIP3   OH217060   0.335   4.372   0.616
 5699TIP3    H117061   0.430   4.359   0.615
 5699TIP3    H217062   0.300   4.290   0.648
 5700TIP3   OH217063   4.778   5.396   4.647
 5700TIP3    H117064   4.712   5.464   4.634
 5700TIP3    H217065   4.861   5.437   4.621
 5701TIP3   OH217066   4.963   2.882   0.373
 5701TIP3    H117067   5.037   2.865   0.431
 5701TIP3    H217068   4.998   2.939   0.305
 5702TIP3   OH217069   2.709   6.830   2.834
 5702TIP3    H117070   2.726   6.768   2.904
 5702TIP3    H217071   2.656   6.780   2.771
 5703TIP3   OH217072   3.720   4.899   4.948
 5703TIP3    H117073   3.752   4.989   4.953
 5703TIP3    H217074   3.709   4.882   4.854
 5704TIP3   OH217075   2.862   6.580   1.639
 5704TIP3    H117076   2.819   6.626   1.711
 5704TIP3    H217077   2.810   6.500   1.627
 5705TIP3   OH217078   7.173   3.639   2.661
 5705TIP3    H117079   7.263   3.664   2.682
 5705TIP3    H217080   7.135   3.615   2.745
 5706TIP3   OH217081   1.691   6.373   4.017
 5706TIP3    H117082   1.614   6.316   4.020
 5706TIP3    H217083   1.726   6.361   3.929
 5707TIP3   OH217084   6.833   6.672   0.252
 5707TIP3    H117085   6.902   6.665   0.317
 5707TIP3    H217086   6.877   6.707   0.174
 5708TIP3   OH217087   0.537   1.389   0.092
 5708TIP3    H117088   0.450   1.429   0.087
 5708TIP3    H217089   0.562   1.397   0.184
 5709TIP3   OH217090   4.479   4.321   5.081
 5709TIP3    H117091   4.452   4.235   5.047
 5709TIP3    H217092   4.398   4.372   5.083
 5710TIP3   OH217093   1.710   1.838   0.490
 5710TIP3    H117094   1.780   1.861   0.552
 5710TIP3    H217095   1.757   1.807   0.413
 5711TIP3   OH217096   2.846   4.118   5.851
 5711TIP3    H117097   2.778   4.186   5.849
 5711TIP3    H217098   2.837   4.078   5.938
 5712TIP3   OH217099   4.929   5.576   2.911
 5712TIP3    H117100   4.848   5.529   2.932
 5712TIP3    H217101   4.990   5.551   2.981
 5713TIP3   OH217102   2.320   0.961   4.245
 5713TIP3    H117103   2.406   0.938   4.210
 5713TIP3    H217104   2.263   0.887   4.220
 5714TIP3   OH217105   6.634   0.227   5.605
 5714TIP3    H117106   6.560   0.274   5.567
 5714TIP3    H217107   6.613   0.222   5.699
 5715TIP3   OH217108   1.300   3.053   0.213
 5715TIP3    H117109   1.353   2.994   0.266
 5715TIP3    H217110   1.363   3.093   0.152
 5716TIP3   OH217111   1.587   6.412   4.884
 5716TIP3    H117112   1.557   6.324   4.860
 5716TIP3    H217113   1.543   6.469   4.821
 5717TIP3   OH217114   5.759   5.540   4.013
 5717TIP3    H117115   5.761   5.609   3.946
 5717TIP3    H217116   5.686   5.484   3.988
 5718TIP3   OH217117   6.975   4.563   0.465
 5718TIP3    H117118   6.947   4.504   0.396
 5718TIP3    H217119   7.064   4.589   0.439
 5719TIP3   OH217120   0.634   4.051   3.094
 5719TIP3    H117121   0.566   4.069   3.030
 5719TIP3    H217122   0.679   4.135   3.105
 5720TIP3   OH217123   2.320   6.544   2.473
 5720TIP3    H117124   2.228   6.566   2.488
 5720TIP3    H217125   2.331   6.459   2.517
 5721TIP3   OH217126   0.700   6.252   4.361
 5721TIP3    H117127   0.714   6.337   4.318
 5721TIP3    H217128   0.629   6.268   4.423
 5722TIP3   OH217129   6.246   4.899   4.532
 5722TIP3    H117130   6.211   4.974   4.581
 5722TIP3    H217131   6.250   4.930   4.441
 5723TIP3   OH217132   3.794   5.300   3.862
 5723TIP3    H117133   3.872   5.355   3.853
 5723TIP3    H217134   3.747   5.310   3.779
 5724TIP3   OH217135   5.713   3.735   5.478
 5724TIP3    H117136   5.716   3.664   5.414
 5724TIP3    H217137   5.803   3.767   5.483
 5725TIP3   OH217138   2.423   1.368   0.809
 5725TIP3    H117139   2.363   1.424   0.858
 5725TIP3    H217140   2.507   1.378   0.854
 5726TIP3   OH217141   1.892   6.062   5.181
 5726TIP3    H117142   1.804   6.041   5.150
 5726TIP3    H217143   1.911   5.994   5.246
 5727TIP3   OH217144   2.464   0.421   4.660
 5727TIP3    H117145   2.539   0.418   4.719
 5727TIP3    H217146   2.431   0.331   4.658
 5728TIP3   OH217147   6.344   0.828   4.703
 5728TIP3    H117148   6.346   0.896   4.771
 5728TIP3    H217149   6.305   0.871   4.627
 5729TIP3   OH217150   2.850   1.888   3.836
 5729TIP3    H117151   2.919   1.945   3.802
 5729TIP3    H217152   2.879   1.866   3.925
 5730TIP3   OH217153   6.969   1.292   1.992
 5730TIP3    H117154   6.985   1.369   2.048
 5730TIP3    H217155   6.916   1.325   1.920
 5731TIP3   OH217156   1.083   5.476   3.383
 5731TIP3    H117157   1.002   5.425   3.385
 5731TIP3    H217158   1.069   5.547   3.446
 5732TIP3   OH217159   5.757   5.794   2.735
 5732TIP3    H117160   5.700   5.870   2.743
 5732TIP3    H217161   5.736   5.740   2.811
 5733TIP3   OH217162   6.707   4.078   0.539
 5733TIP3    H117163   6.648   4.007   0.565
 5733TIP3    H217164   6.669   4.112   0.458
 5734TIP3   OH217165   6.521   2.762   2.204
 5734TIP3    H117166   6.475   2.714   2.272
 5734TIP3    H217167   6.573   2.696   2.158
 5735TIP3   OH217168   1.960   3.552   4.631
 5735TIP3    H117169   1.893   3.618   4.648
 5735TIP3    H217170   1.911   3.476   4.598
 5736TIP3   OH217171   5.705   1.606   5.870
 5736TIP3    H117172   5.727   1.694   5.900
 5736TIP3    H217173   5.620   1.615   5.828
 5737TIP3   OH217174   7.072   3.691   5.044
 5737TIP3    H117175   6.977   3.680   5.053
 5737TIP3    H217176   7.107   3.602   5.044
 5738TIP3   OH217177   6.633   4.220   2.629
 5738TIP3    H117178   6.636   4.252   2.719
 5738TIP3    H217179   6.661   4.129   2.635
 5739TIP3   OH217180   4.648   4.352   3.590
 5739TIP3    H117181   4.588   4.424   3.568
 5739TIP3    H217182   4.630   4.285   3.524
 5740TIP3   OH217183   1.098   1.096   2.679
 5740TIP3    H117184   1.121   1.022   2.736
 5740TIP3    H217185   1.131   1.173   2.726
 5741TIP3   OH217186   1.647   3.427   1.062
 5741TIP3    H117187   1.670   3.411   0.971
 5741TIP3    H217188   1.731   3.438   1.107
 5742TIP3   OH217189   4.183   3.166   1.756
 5742TIP3    H117190   4.176   3.224   1.680
 5742TIP3    H217191   4.117   3.198   1.818
 5743TIP3   OH217192   6.079   3.325   2.350
 5743TIP3    H117193   6.158   3.345   2.300
 5743TIP3    H217194   6.095   3.238   2.386
 5744TIP3   OH217195   5.824   6.702   0.164
 5744TIP3    H117196   5.888   6.729   0.230
 5744TIP3    H217197   5.750   6.762   0.176
 5745TIP3   OH217198   6.217   5.152   4.727
 5745TIP3    H117199   6.127   5.119   4.732
 5745TIP3    H217200   6.220   5.222   4.792
 5746TIP3   OH217201   4.619   0.869   2.144
 5746TIP3    H117202   4.608   0.824   2.061
 5746TIP3    H217203   4.638   0.960   2.120
 5747TIP3   OH217204   5.333   2.261   4.319
 5747TIP3    H117205   5.418   2.225   4.292
 5747TIP3    H217206   5.300   2.197   4.383
 5748TIP3   OH217207   1.736   5.842   2.823
 5748TIP3    H117208   1.831   5.851   2.816
 5748TIP3    H217209   1.701   5.920   2.780
 5749TIP3   OH217210   3.314   3.045   5.127
 5749TIP3    H117211   3.379   3.082   5.187
 5749TIP3    H217212   3.230   3.066   5.167
 5750TIP3   OH217213   4.682   5.486   2.988
 5750TIP3    H117214   4.652   5.400   2.959
 5750TIP3    H217215   4.604   5.529   3.022
 5751TIP3   OH217216   7.018   4.892   1.221
 5751TIP3    H117217   7.085   4.879   1.154
 5751TIP3    H217218   6.959   4.817   1.210
 5752TIP3   OH217219   1.192   0.731   0.353
 5752TIP3    H117220   1.103   0.742   0.319
 5752TIP3    H217221   1.189   0.772   0.440
 5753TIP3   OH217222   0.703   5.215   5.617
 5753TIP3    H117223   0.640   5.265   5.668
 5753TIP3    H217224   0.651   5.175   5.548
 5754TIP3   OH217225   4.525   6.212   4.017
 5754TIP3    H117226   4.548   6.172   4.101
 5754TIP3    H217227   4.545   6.305   4.028
 5755TIP3   OH217228   5.635   3.365   0.456
 5755TIP3    H117229   5.680   3.393   0.536
 5755TIP3    H217230   5.663   3.427   0.389
 5756TIP3   OH217231   3.800   1.537   0.038
 5756TIP3    H117232   3.753   1.539   0.121
 5756TIP3    H217233   3.854   1.616   0.039
 5757TIP3   OH217234   4.406   5.763   5.011
 5757TIP3    H117235   4.336   5.797   5.067
 5757TIP3    H217236   4.446   5.693   5.064
 5758TIP3   OH217237   2.591   2.054   4.544
 5758TIP3    H117238   2.509   2.031   4.588
 5758TIP3    H217239   2.608   2.144   4.572
 5759TIP3   OH217240   2.769   2.244   0.491
 5759TIP3    H117241   2.701   2.311   0.496
 5759TIP3    H217242   2.819   2.266   0.412
 5760TIP3   OH217243   4.194   4.199   5.082
 5760TIP3    H117244   4.215   4.270   5.144
 5760TIP3    H217245   4.164   4.244   5.004
 5761TIP3   OH217246   7.211   5.385   5.777
 5761TIP3    H117247   7.194   5.316   5.841
 5761TIP3    H217248   7.150   5.367   5.706
 5762TIP3   OH217249   0.137   1.185   1.061
 5762TIP3    H117250   0.179   1.170   0.976
 5762TIP3    H217251   0.146   1.102   1.107
 5763TIP3   OH217252   3.245   6.539   1.200
 5763TIP3    H117253   3.200   6.481   1.262
 5763TIP3    H217254   3.234   6.496   1.115
 5764TIP3   OH217255   3.348   2.618   5.490
 5764TIP3    H117256   3.295   2.668   5.552
 5764TIP3    H217257   3.306   2.532   5.485
 5765TIP3   OH217258   3.148   6.375   5.217
 5765TIP3    H117259   3.127   6.293   5.173
 5765TIP3    H217260   3.070   6.395   5.270
 5766TIP3   OH217261   5.648   4.159   1.105
 5766TIP3    H117262   5.616   4.125   1.189
 5766TIP3    H217263   5.743   4.157   1.113
 5767TIP3   OH217264   0.637   0.172   2.430
 5767TIP3    H117265   0.696   0.216   2.491
 5767TIP3    H217266   0.560   0.229   2.425
 5768TIP3   OH217267   2.534   2.897   1.637
 5768TIP3    H117268   2.618   2.920   1.596
 5768TIP3    H217269   2.550   2.907   1.731
 5769TIP3   OH217270   1.301   4.818   4.015
 5769TIP3    H117271   1.269   4.821   4.105
 5769TIP3    H217272   1.253   4.887   3.970
 5770TIP3   OH217273   2.402   1.198   2.474
 5770TIP3    H117274   2.384   1.292   2.475
 5770TIP3    H217275   2.472   1.187   2.410
 5771TIP3   OH217276   7.063   3.390   1.781
 5771TIP3    H117277   7.095   3.351   1.700
 5771TIP3    H217278   7.013   3.467   1.752
 5772TIP3   OH217279   4.501   3.075   4.559
 5772TIP3    H117280   4.589   3.069   4.596
 5772TIP3    H217281   4.443   3.046   4.630
 5773TIP3   OH217282   5.860   3.287   4.773
 5773TIP3    H117283   5.805   3.317   4.846
 5773TIP3    H217284   5.798   3.251   4.710
 5774TIP3   OH217285   3.349   3.617   2.378
 5774TIP3    H117286   3.354   3.532   2.422
 5774TIP3    H217287   3.440   3.648   2.373
 5775TIP3   OH217288   5.248   4.798   2.122
 5775TIP3    H117289   5.339   4.767   2.117
 5775TIP3    H217290   5.219   4.773   2.209
 5776TIP3   OH217291   0.473   2.859   5.533
 5776TIP3    H117292   0.425   2.889   5.456
 5776TIP3    H217293   0.546   2.921   5.542
 5777TIP3   OH217294   6.265   5.943   2.251
 5777TIP3    H117295   6.358   5.960   2.264
 5777TIP3    H217296   6.238   5.894   2.329
 5778TIP3   OH217297   4.678   4.633   3.964
 5778TIP3    H117298   4.630   4.633   4.047
 5778TIP3    H217299   4.732   4.554   3.967
 5779TIP3   OH217300   3.873   1.036   1.757
 5779TIP3    H117301   3.900   0.991   1.837
 5779TIP3    H217302   3.950   1.083   1.728
 5780TIP3   OH217303   7.036   6.722   2.420
 5780TIP3    H117304   7.116   6.718   2.368
 5780TIP3    H217305   7.064   6.756   2.505
 5781TIP3   OH217306   4.260   4.632   0.696
 5781TIP3    H117307   4.302   4.704   0.649
 5781TIP3    H217308   4.242   4.567   0.628
 5782TIP3   OH217309   7.180   3.993   2.641
 5782TIP3    H117310   7.158   3.944   2.720
 5782TIP3    H217311   7.249   3.941   2.599
 5783TIP3   OH217312   3.463   6.091   1.999
 5783TIP3    H117313   3.378   6.057   2.025
 5783TIP3    H217314   3.491   6.033   1.928
 5784TIP3   OH217315   4.649   5.087   1.544
 5784TIP3    H117316   4.627   5.118   1.632
 5784TIP3    H217317   4.570   5.041   1.514
 5785TIP3   OH217318   0.585   2.277   0.932
 5785TIP3    H117319   0.496   2.253   0.956
 5785TIP3    H217320   0.624   2.196   0.899
 5786TIP3   OH217321   2.564   6.305   4.363
 5786TIP3    H117322   2.547   6.393   4.397
 5786TIP3    H217323   2.646   6.314   4.314
 5787TIP3   OH217324   4.982   6.767   3.902
 5787TIP3    H117325   5.058   6.708   3.904
 5787TIP3    H217326   4.911   6.717   3.942
 5788TIP3   OH217327   0.988   4.635   3.415
 5788TIP3    H117328   1.050   4.606   3.482
 5788TIP3    H217329   0.902   4.621   3.453
 5789TIP3   OH217330   2.509   4.582   3.141
 5789TIP3    H117331   2.552   4.656   3.185
 5789TIP3    H217332   2.572   4.554   3.075
 5790TIP3   OH217333   0.905   3.705   1.819
 5790TIP3    H117334   0.932   3.629   1.767
 5790TIP3    H217335   0.820   3.680   1.855
 5791TIP3   OH217336   5.738   1.812   5.163
 5791TIP3    H117337   5.711   1.739   5.219
 5791TIP3    H217338   5.673   1.813   5.093
 5792TIP3   OH217339   0.464   4.661   5.525
 5792TIP3    H117340   0.475   4.579   5.478
 5792TIP3    H217341   0.474   4.637   5.617
 5793TIP3   OH217342   5.273   2.393   0.596
 5793TIP3    H117343   5.194   2.348   0.566
 5793TIP3    H217344   5.317   2.330   0.652
 5794TIP3   OH217345   1.807   3.645   5.620
 5794TIP3    H117346   1.739   3.582   5.644
 5794TIP3    H217347   1.759   3.726   5.602
 5795TIP3   OH217348   6.854   6.641   3.326
 5795TIP3    H117349   6.760   6.650   3.309
 5795TIP3    H217350   6.859   6.575   3.395
 5796TIP3   OH217351   0.422   1.120   5.074
 5796TIP3    H117352   0.389   1.117   5.164
 5796TIP3    H217353   0.495   1.183   5.078
 5797TIP3   OH217354   4.021   1.283   0.925
 5797TIP3    H117355   4.046   1.195   0.951
 5797TIP3    H217356   4.092   1.312   0.867
 5798TIP3   OH217357   5.510   0.259   4.722
 5798TIP3    H117358   5.541   0.286   4.636
 5798TIP3    H217359   5.441   0.195   4.705
 5799TIP3   OH217360   2.887   2.118   0.124
 5799TIP3    H117361   2.934   2.071   0.054
 5799TIP3    H217362   2.834   2.051   0.167
 5800TIP3   OH217363   6.270   1.231   1.965
 5800TIP3    H117364   6.196   1.292   1.968
 5800TIP3    H217365   6.270   1.199   1.874
 5801TIP3   OH217366   3.159   1.180   4.286
 5801TIP3    H117367   3.152   1.175   4.381
 5801TIP3    H217368   3.253   1.188   4.269
 5802TIP3   OH217369   6.045   4.497   1.123
 5802TIP3    H117370   5.969   4.471   1.070
 5802TIP3    H217371   6.008   4.546   1.196
 5803TIP3   OH217372   4.238   5.895   2.933
 5803TIP3    H117373   4.290   5.975   2.925
 5803TIP3    H217374   4.292   5.837   2.986
 5804TIP3   OH217375   1.093   4.051   0.831
 5804TIP3    H117376   1.112   4.087   0.918
 5804TIP3    H217377   1.040   4.117   0.788
 5805TIP3   OH217378   5.014   0.302   2.055
 5805TIP3    H117379   4.998   0.378   2.111
 5805TIP3    H217380   5.109   0.301   2.042
 5806TIP3   OH217381   2.993   4.875   1.556
 5806TIP3    H117382   2.950   4.791   1.540
 5806TIP3    H217383   2.995   4.883   1.652
 5807TIP3   OH217384   1.587   2.723   2.945
 5807TIP3    H117385   1.626   2.703   2.860
 5807TIP3    H217386   1.621   2.656   3.004
 5808TIP3   OH217387   3.956   2.539   3.950
 5808TIP3    H117388   4.003   2.623   3.945
 5808TIP3    H217389   4.019   2.475   3.915
 5809TIP3   OH217390   5.272   3.478   0.698
 5809TIP3    H117391   5.196   3.421   0.712
 5809TIP3    H217392   5.245   3.538   0.629
 5810TIP3   OH217393   1.247   0.195   5.813
 5810TIP3    H117394   1.216   0.278   5.849
 5810TIP3    H217395   1.337   0.213   5.786
 5811TIP3   OH217396   5.606   3.928   1.924
 5811TIP3    H117397   5.654   3.905   1.844
 5811TIP3    H217398   5.671   3.921   1.994
 5812TIP3   OH217399   6.856   1.287   3.734
 5812TIP3    H117400   6.856   1.203   3.780
 5812TIP3    H217401   6.765   1.316   3.736
 5813TIP3   OH217402   1.563   0.984   2.537
 5813TIP3    H117403   1.542   1.062   2.487
 5813TIP3    H217404   1.574   0.915   2.471
 5814TIP3   OH217405   6.733   5.035   2.036
 5814TIP3    H117406   6.701   5.072   2.118
 5814TIP3    H217407   6.661   4.979   2.005
 5815TIP3   OH217408   4.233   0.377   3.131
 5815TIP3    H117409   4.213   0.376   3.225
 5815TIP3    H217410   4.317   0.423   3.125
 5816TIP3   OH217411   6.124   2.198   3.852
 5816TIP3    H117412   6.195   2.134   3.849
 5816TIP3    H217413   6.167   2.279   3.879
 5817TIP3   OH217414   6.090   3.480   3.712
 5817TIP3    H117415   6.069   3.448   3.799
 5817TIP3    H217416   6.043   3.422   3.653
 5818TIP3   OH217417   3.333   3.791   2.092
 5818TIP3    H117418   3.336   3.777   2.187
 5818TIP3    H217419   3.409   3.743   2.058
 5819TIP3   OH217420   5.393   0.540   2.341
 5819TIP3    H117421   5.345   0.493   2.409
 5819TIP3    H217422   5.373   0.633   2.357
 5820TIP3   OH217423   2.559   0.902   3.659
 5820TIP3    H117424   2.540   0.827   3.603
 5820TIP3    H217425   2.552   0.867   3.748
 5821TIP3   OH217426   7.079   3.091   5.851
 5821TIP3    H117427   7.020   3.043   5.792
 5821TIP3    H217428   7.129   3.149   5.794
 5822TIP3   OH217429   1.229   1.323   0.484
 5822TIP3    H117430   1.170   1.364   0.421
 5822TIP3    H217431   1.291   1.274   0.430
 5823TIP3   OH217432   6.989   2.318   4.459
 5823TIP3    H117433   7.021   2.408   4.464
 5823TIP3    H217434   7.018   2.278   4.541
 5824TIP3   OH217435   5.283   0.401   1.801
 5824TIP3    H117436   5.362   0.391   1.748
 5824TIP3    H217437   5.306   0.466   1.867
 5825TIP3   OH217438   2.566   1.113   2.664
 5825TIP3    H117439   2.611   1.196   2.682
 5825TIP3    H217440   2.508   1.132   2.590
 5826TIP3   OH217441   1.260   4.751   0.429
 5826TIP3    H117442   1.315   4.673   0.432
 5826TIP3    H217443   1.202   4.737   0.355
 5827TIP3   OH217444   2.292   5.347   3.909
 5827TIP3    H117445   2.258   5.261   3.934
 5827TIP3    H217446   2.358   5.328   3.843
 5828TIP3   OH217447   3.021   3.078   0.004
 5828TIP3    H117448   3.052   3.000  -0.042
 5828TIP3    H217449   3.065   3.074   0.089
 5829TIP3   OH217450   0.056   4.415   2.766
 5829TIP3    H117451   0.011   4.477   2.709
 5829TIP3    H217452  -0.012   4.382   2.825
 5830TIP3   OH217453   5.956   0.818   1.773
 5830TIP3    H117454   6.040   0.791   1.811
 5830TIP3    H217455   5.895   0.749   1.800
 5831TIP3   OH217456   5.836   4.041   0.281
 5831TIP3    H117457   5.845   4.136   0.269
 5831TIP3    H217458   5.770   4.032   0.349
 5832TIP3   OH217459   6.772   4.336   5.822
 5832TIP3    H117460   6.694   4.370   5.865
 5832TIP3    H217461   6.825   4.413   5.802
 5833TIP3   OH217462   4.822   3.046   2.121
 5833TIP3    H117463   4.873   3.098   2.059
 5833TIP3    H217464   4.734   3.041   2.082
 5834TIP3   OH217465   0.469   4.223   3.359
 5834TIP3    H117466   0.446   4.311   3.329
 5834TIP3    H217467   0.560   4.230   3.387
 5835TIP3   OH217468   1.802   1.899   2.615
 5835TIP3    H117469   1.772   1.920   2.527
 5835TIP3    H217470   1.831   1.808   2.609
 5836TIP3   OH217471   7.088   4.982   2.993
 5836TIP3    H117472   7.104   4.889   2.973
 5836TIP3    H217473   7.097   4.987   3.088
 5837TIP3   OH217474   3.975   3.426   3.136
 5837TIP3    H117475   3.950   3.490   3.204
 5837TIP3    H217476   3.925   3.453   3.059
 5838TIP3   OH217477   5.417   5.807   1.666
 5838TIP3    H117478   5.411   5.768   1.753
 5838TIP3    H217479   5.326   5.817   1.638
 5839TIP3   OH217480   4.953   4.641   5.609
 5839TIP3    H117481   4.889   4.702   5.572
 5839TIP3    H217482   5.018   4.696   5.651
 5840TIP3   OH217483   2.963   4.841   5.661
 5840TIP3    H117484   2.975   4.916   5.718
 5840TIP3    H217485   2.904   4.783   5.709
 5841TIP3   OH217486   5.646   2.029   3.199
 5841TIP3    H117487   5.568   1.999   3.153
 5841TIP3    H217488   5.719   2.003   3.143
 5842TIP3   OH217489   1.983   2.425   4.467
 5842TIP3    H117490   1.991   2.368   4.390
 5842TIP3    H217491   2.050   2.492   4.453
 5843TIP3   OH217492   4.590   4.278   2.110
 5843TIP3    H117493   4.641   4.348   2.070
 5843TIP3    H217494   4.555   4.316   2.191
 5844TIP3   OH217495   4.888   6.108   4.114
 5844TIP3    H117496   4.944   6.184   4.096
 5844TIP3    H217497   4.949   6.035   4.123
 5845TIP3   OH217498   2.010   4.556   3.011
 5845TIP3    H117499   2.104   4.573   3.004
 5845TIP3    H217500   1.973   4.638   3.042
 5846TIP3   OH217501   5.947   3.515   3.172
 5846TIP3    H117502   5.898   3.594   3.195
 5846TIP3    H217503   5.988   3.536   3.088
 5847TIP3   OH217504   3.005   1.188   5.183
 5847TIP3    H117505   3.076   1.191   5.119
 5847TIP3    H217506   3.042   1.141   5.257
 5848TIP3   OH217507   1.905   2.801   5.183
 5848TIP3    H117508   1.939   2.830   5.267
 5848TIP3    H217509   1.964   2.731   5.155
 5849TIP3   OH217510   2.530   1.345   0.016
 5849TIP3    H117511   2.439   1.314   0.023
 5849TIP3    H217512   2.528   1.432   0.056
 5850TIP3   OH217513   2.531   0.829   4.731
 5850TIP3    H117514   2.477   0.779   4.669
 5850TIP3    H217515   2.486   0.820   4.814
 5851TIP3   OH217516   6.950   4.101   5.806
 5851TIP3    H117517   6.891   4.175   5.809
 5851TIP3    H217518   6.918   4.041   5.874
 5852TIP3   OH217519   1.331   0.142   2.042
 5852TIP3    H117520   1.373   0.118   1.960
 5852TIP3    H217521   1.238   0.120   2.029
 5853TIP3   OH217522   1.472   4.141   1.292
 5853TIP3    H117523   1.525   4.066   1.263
 5853TIP3    H217524   1.490   4.209   1.227
 5854TIP3   OH217525   3.767   2.037   2.970
 5854TIP3    H117526   3.768   2.128   2.942
 5854TIP3    H217527   3.853   2.021   3.007
 5855TIP3   OH217528   1.930   5.275   0.864
 5855TIP3    H117529   1.995   5.272   0.794
 5855TIP3    H217530   1.974   5.238   0.940
 5856TIP3   OH217531   4.809   4.364   4.524
 5856TIP3    H117532   4.837   4.376   4.433
 5856TIP3    H217533   4.884   4.323   4.567
 5857TIP3   OH217534   4.742   3.124   2.766
 5857TIP3    H117535   4.759   3.219   2.764
 5857TIP3    H217536   4.784   3.091   2.686
 5858TIP3   OH217537   0.040   3.622   1.230
 5858TIP3    H117538   0.109   3.632   1.165
 5858TIP3    H217539  -0.002   3.539   1.208
 5859TIP3   OH217540   2.879   1.979   2.845
 5859TIP3    H117541   2.787   1.953   2.844
 5859TIP3    H217542   2.912   1.948   2.929
 5860TIP3   OH217543   3.973   4.121   1.095
 5860TIP3    H117544   3.959   4.136   1.002
 5860TIP3    H217545   4.049   4.175   1.117
 5861TIP3   OH217546   3.586   6.023   2.838
 5861TIP3    H117547   3.519   6.030   2.906
 5861TIP3    H217548   3.583   5.932   2.809
 5862TIP3   OH217549   0.477   0.384   2.210
 5862TIP3    H117550   0.435   0.329   2.144
 5862TIP3    H217551   0.431   0.362   2.292
 5863TIP3   OH217552   3.409   2.756   3.580
 5863TIP3    H117553   3.320   2.727   3.596
 5863TIP3    H217554   3.464   2.689   3.620
 5864TIP3   OH217555   3.456   0.128   1.648
 5864TIP3    H117556   3.439   0.200   1.710
 5864TIP3    H217557   3.438   0.166   1.562
 5865TIP3   OH217558   2.789   2.213   2.323
 5865TIP3    H117559   2.760   2.147   2.260
 5865TIP3    H217560   2.844   2.272   2.273
 5866TIP3   OH217561   4.927   2.632   3.964
 5866TIP3    H117562   5.006   2.624   4.017
 5866TIP3    H217563   4.948   2.587   3.882
 5867TIP3   OH217564   0.157   1.624   3.138
 5867TIP3    H117565   0.119   1.652   3.054
 5867TIP3    H217566   0.085   1.632   3.200
 5868TIP3   OH217567   0.092   6.218   0.636
 5868TIP3    H117568   0.004   6.183   0.639
 5868TIP3    H217569   0.119   6.225   0.727
 5869TIP3   OH217570   5.904   3.116   0.358
 5869TIP3    H117571   5.928   3.202   0.322
 5869TIP3    H217572   5.916   3.126   0.453
 5870TIP3   OH217573   3.921   3.160   2.179
 5870TIP3    H117574   3.830   3.187   2.164
 5870TIP3    H217575   3.914   3.071   2.214
 5871TIP3   OH217576   1.037   0.725   2.126
 5871TIP3    H117577   1.118   0.721   2.075
 5871TIP3    H217578   1.047   0.657   2.193
 5872TIP3   OH217579   1.232   2.025   3.828
 5872TIP3    H117580   1.177   1.970   3.771
 5872TIP3    H217581   1.313   2.037   3.780
 5873TIP3   OH217582   1.192   4.496   3.981
 5873TIP3    H117583   1.195   4.590   3.967
 5873TIP3    H217584   1.239   4.482   4.064
 5874TIP3   OH217585   2.954   3.952   0.060
 5874TIP3    H117586   2.861   3.950   0.036
 5874TIP3    H217587   2.995   3.892  -0.002
 5875TIP3   OH217588   2.681   3.907   0.922
 5875TIP3    H117589   2.759   3.930   0.973
 5875TIP3    H217590   2.615   3.885   0.988
 5876TIP3   OH217591   5.314   1.038   1.457
 5876TIP3    H117592   5.377   1.090   1.507
 5876TIP3    H217593   5.368   0.987   1.397
 5877TIP3   OH217594   2.670   3.650   5.523
 5877TIP3    H117595   2.666   3.745   5.512
 5877TIP3    H217596   2.584   3.618   5.498
 5878TIP3   OH217597   1.024   4.499   2.555
 5878TIP3    H117598   0.946   4.553   2.566
 5878TIP3    H217599   0.991   4.410   2.544
 5879TIP3   OH217600   0.260   4.169   3.696
 5879TIP3    H117601   0.307   4.251   3.714
 5879TIP3    H217602   0.172   4.184   3.731
 5880TIP3   OH217603   6.024   3.697   3.912
 5880TIP3    H117604   5.932   3.684   3.889
 5880TIP3    H217605   6.072   3.653   3.842
 5881TIP3   OH217606   6.579   3.123   0.258
 5881TIP3    H117607   6.595   3.198   0.316
 5881TIP3    H217608   6.509   3.151   0.200
 5882TIP3   OH217609   5.893   1.776   1.611
 5882TIP3    H117610   5.826   1.835   1.648
 5882TIP3    H217611   5.871   1.770   1.518
 5883TIP3   OH217612   3.061   5.541   2.667
 5883TIP3    H117613   2.996   5.567   2.601
 5883TIP3    H217614   3.046   5.447   2.680
 5884TIP3   OH217615   4.265   5.155   0.463
 5884TIP3    H117616   4.229   5.080   0.509
 5884TIP3    H217617   4.230   5.147   0.374
 5885TIP3   OH217618   1.712   2.764   2.475
 5885TIP3    H117619   1.702   2.690   2.535
 5885TIP3    H217620   1.643   2.752   2.410
 5886TIP3   OH217621   1.969   1.499   4.838
 5886TIP3    H117622   2.041   1.465   4.891
 5886TIP3    H217623   1.911   1.424   4.825
 5887TIP3   OH217624   2.505   2.002   5.174
 5887TIP3    H117625   2.519   1.945   5.099
 5887TIP3    H217626   2.502   2.090   5.137
 5888TIP3   OH217627   3.858   1.706   0.697
 5888TIP3    H117628   3.839   1.628   0.750
 5888TIP3    H217629   3.906   1.764   0.755
 5889TIP3   OH217630   2.924   1.069   4.912
 5889TIP3    H117631   2.909   1.111   4.997
 5889TIP3    H217632   2.863   0.995   4.911
 5890TIP3   OH217633   6.824   2.724   2.235
 5890TIP3    H117634   6.826   2.639   2.278
 5890TIP3    H217635   6.751   2.718   2.174
 5891TIP3   OH217636   4.910   3.252   4.179
 5891TIP3    H117637   4.864   3.334   4.162
 5891TIP3    H217638   4.877   3.192   4.112
 5892TIP3   OH217639   6.739   0.784   4.557
 5892TIP3    H117640   6.775   0.827   4.480
 5892TIP3    H217641   6.767   0.838   4.630
 5893TIP3   OH217642   6.064   1.584   0.535
 5893TIP3    H117643   6.154   1.609   0.515
 5893TIP3    H217644   6.029   1.658   0.584
 5894TIP3   OH217645   0.122   6.395   1.530
 5894TIP3    H117646   0.197   6.402   1.471
 5894TIP3    H217647   0.144   6.453   1.604
 5895TIP3   OH217648   0.069   4.967   0.640
 5895TIP3    H117649   0.131   4.941   0.707
 5895TIP3    H217650   0.084   5.061   0.628
 5896TIP3   OH217651   3.729   3.847   3.456
 5896TIP3    H117652   3.687   3.813   3.535
 5896TIP3    H217653   3.663   3.838   3.388
 5897TIP3   OH217654   4.063   0.591   5.574
 5897TIP3    H117655   4.018   0.511   5.548
 5897TIP3    H217656   4.090   0.631   5.491
 5898TIP3   OH217657   0.283   5.766   3.482
 5898TIP3    H117658   0.333   5.761   3.563
 5898TIP3    H217659   0.196   5.734   3.505
 5899TIP3   OH217660   5.677   6.454   5.244
 5899TIP3    H117661   5.657   6.536   5.198
 5899TIP3    H217662   5.629   6.461   5.326
 5900TIP3   OH217663   1.486   0.889   1.293
 5900TIP3    H117664   1.423   0.932   1.234
 5900TIP3    H217665   1.520   0.815   1.242
 5901TIP3   OH217666   0.090   4.631   1.073
 5901TIP3    H117667   0.064   4.614   1.163
 5901TIP3    H217668   0.063   4.721   1.057
 5902TIP3   OH217669   6.056   5.552   3.434
 5902TIP3    H117670   6.003   5.473   3.438
 5902TIP3    H217671   6.146   5.520   3.433
 5903TIP3   OH217672   4.895   1.996   4.389
 5903TIP3    H117673   4.835   2.066   4.363
 5903TIP3    H217674   4.843   1.939   4.445
 5904TIP3   OH217675   5.910   6.002   5.037
 5904TIP3    H117676   5.824   6.012   4.995
 5904TIP3    H217677   5.973   6.011   4.967
 5905TIP3   OH217678   0.400   3.270   1.276
 5905TIP3    H117679   0.405   3.355   1.232
 5905TIP3    H217680   0.473   3.270   1.337
 5906TIP3   OH217681   4.055   0.070   4.586
 5906TIP3    H117682   4.041   0.118   4.504
 5906TIP3    H217683   4.040   0.134   4.655
 5907TIP3   OH217684   5.433   0.779   0.683
 5907TIP3    H117685   5.440   0.787   0.588
 5907TIP3    H217686   5.470   0.693   0.703
 5908TIP3   OH217687   6.757   0.273   2.971
 5908TIP3    H117688   6.766   0.191   2.923
 5908TIP3    H217689   6.702   0.251   3.046
 5909TIP3   OH217690   1.691   0.308   2.798
 5909TIP3    H117691   1.615   0.279   2.747
 5909TIP3    H217692   1.690   0.403   2.791
 5910TIP3   OH217693   0.383   2.070   4.502
 5910TIP3    H117694   0.332   2.145   4.530
 5910TIP3    H217695   0.426   2.099   4.421
 5911TIP3   OH217696   5.622   4.804   1.958
 5911TIP3    H117697   5.552   4.799   2.023
 5911TIP3    H217698   5.686   4.740   1.987
 5912TIP3   OH217699   4.840   5.964   1.724
 5912TIP3    H117700   4.749   5.993   1.730
 5912TIP3    H217701   4.845   5.889   1.783
 5913TIP3   OH217702   1.606   5.825   0.890
 5913TIP3    H117703   1.574   5.884   0.822
 5913TIP3    H217704   1.652   5.756   0.842
 5914TIP3   OH217705   5.950   1.518   3.471
 5914TIP3    H117706   6.032   1.480   3.440
 5914TIP3    H217707   5.907   1.551   3.392
 5915TIP3   OH217708   4.522   4.335   1.271
 5915TIP3    H117709   4.479   4.327   1.185
 5915TIP3    H217710   4.499   4.423   1.300
 5916TIP3   OH217711   1.656   3.736   5.891
 5916TIP3    H117712   1.678   3.723   5.983
 5916TIP3    H217713   1.714   3.806   5.861
 5917TIP3   OH217714   6.261   5.862   5.259
 5917TIP3    H117715   6.232   5.952   5.245
 5917TIP3    H217716   6.276   5.856   5.354
 5918TIP3   OH217717   6.135   2.716   1.035
 5918TIP3    H117718   6.212   2.751   0.990
 5918TIP3    H217719   6.067   2.713   0.968
 5919TIP3   OH217720   3.654   1.785   2.130
 5919TIP3    H117721   3.600   1.753   2.057
 5919TIP3    H217722   3.611   1.752   2.208
 5920TIP3   OH217723   2.897   1.243   4.682
 5920TIP3    H117724   2.808   1.236   4.649
 5920TIP3    H217725   2.892   1.208   4.771
 5921TIP3   OH217726   3.974   6.525   4.780
 5921TIP3    H117727   3.982   6.605   4.831
 5921TIP3    H217728   4.043   6.531   4.714
 5922TIP3   OH217729   5.300   3.232   0.338
 5922TIP3    H117730   5.314   3.137   0.341
 5922TIP3    H217731   5.356   3.267   0.407
 5923TIP3   OH217732   4.069   4.792   3.749
 5923TIP3    H117733   3.981   4.759   3.734
 5923TIP3    H217734   4.089   4.845   3.673
 5924TIP3   OH217735   3.459   0.123   3.908
 5924TIP3    H117736   3.454   0.214   3.878
 5924TIP3    H217737   3.546   0.094   3.881
 5925TIP3   OH217738   3.680   0.516   3.772
 5925TIP3    H117739   3.702   0.522   3.865
 5925TIP3    H217740   3.594   0.558   3.765
 5926TIP3   OH217741   6.632   3.689   3.747
 5926TIP3    H117742   6.695   3.734   3.802
 5926TIP3    H217743   6.555   3.745   3.747
 5927TIP3   OH217744   6.855   3.841   4.785
 5927TIP3    H117745   6.938   3.800   4.759
 5927TIP3    H217746   6.824   3.788   4.858
 5928TIP3   OH217747   2.370   2.033   1.272
 5928TIP3    H117748   2.383   1.939   1.288
 5928TIP3    H217749   2.297   2.036   1.210
 5929TIP3   OH217750   7.215   4.789   0.418
 5929TIP3    H117751   7.224   4.832   0.333
 5929TIP3    H217752   7.225   4.860   0.482
 5930TIP3   OH217753   4.005   4.425   3.619
 5930TIP3    H117754   3.983   4.446   3.528
 5930TIP3    H217755   3.981   4.504   3.668
 5931TIP3   OH217756   5.497   2.659   3.162
 5931TIP3    H117757   5.469   2.597   3.229
 5931TIP3    H217758   5.492   2.744   3.205
 5932TIP3   OH217759   4.876   0.857   0.732
 5932TIP3    H117760   4.848   0.820   0.816
 5932TIP3    H217761   4.969   0.876   0.743
 5933TIP3   OH217762   3.374   5.396   1.339
 5933TIP3    H117763   3.385   5.304   1.362
 5933TIP3    H217764   3.382   5.398   1.244
 5934TIP3   OH217765   2.464   6.723   1.054
 5934TIP3    H117766   2.557   6.699   1.046
 5934TIP3    H217767   2.456   6.803   1.002
 5935TIP3   OH217768   0.834   2.645   3.685
 5935TIP3    H117769   0.826   2.653   3.590
 5935TIP3    H217770   0.796   2.726   3.719
 5936TIP3   OH217771   0.853   1.347   3.210
 5936TIP3    H117772   0.837   1.437   3.182
 5936TIP3    H217773   0.851   1.295   3.130
 5937TIP3   OH217774   5.981   2.271   0.425
 5937TIP3    H117775   6.026   2.238   0.348
 5937TIP3    H217776   6.042   2.256   0.497
 5938TIP3   OH217777   3.641   2.748   0.259
 5938TIP3    H117778   3.673   2.704   0.338
 5938TIP3    H217779   3.682   2.834   0.262
 5939TIP3   OH217780   1.434   1.266   1.401
 5939TIP3    H117781   1.364   1.300   1.456
 5939TIP3    H217782   1.436   1.325   1.325
 5940TIP3   OH217783   3.394   6.139   3.725
 5940TIP3    H117784   3.489   6.151   3.721
 5940TIP3    H217785   3.381   6.084   3.802
 5941TIP3   OH217786   2.470   2.862   4.146
 5941TIP3    H117787   2.566   2.861   4.142
 5941TIP3    H217788   2.450   2.853   4.239
 5942TIP3   OH217789   1.292   0.281   2.375
 5942TIP3    H117790   1.246   0.324   2.302
 5942TIP3    H217791   1.279   0.187   2.359
 5943TIP3   OH217792   5.924   5.521   0.329
 5943TIP3    H117793   5.833   5.498   0.311
 5943TIP3    H217794   5.969   5.437   0.336
 5944TIP3   OH217795   1.770   5.547   5.329
 5944TIP3    H117796   1.780   5.639   5.350
 5944TIP3    H217797   1.676   5.530   5.338
 5945TIP3   OH217798   5.470   1.564   1.046
 5945TIP3    H117799   5.397   1.506   1.068
 5945TIP3    H217800   5.483   1.617   1.124
 5946TIP3   OH217801   4.896   4.153   5.768
 5946TIP3    H117802   4.914   4.111   5.852
 5946TIP3    H217803   4.887   4.246   5.790
 5947TIP3   OH217804   1.497   0.421   0.288
 5947TIP3    H117805   1.489   0.515   0.304
 5947TIP3    H217806   1.554   0.415   0.212
 5948TIP3   OH217807   4.229   2.214   3.727
 5948TIP3    H117808   4.307   2.255   3.690
 5948TIP3    H217809   4.261   2.132   3.766
 5949TIP3   OH217810   2.688   6.469   2.858
 5949TIP3    H117811   2.724   6.480   2.770
 5949TIP3    H217812   2.764   6.475   2.916
 5950TIP3   OH217813   4.275   3.386   5.586
 5950TIP3    H117814   4.244   3.329   5.516
 5950TIP3    H217815   4.248   3.474   5.558
 5951TIP3   OH217816   2.155   1.432   1.102
 5951TIP3    H117817   2.073   1.386   1.120
 5951TIP3    H217818   2.146   1.462   1.012
 5952TIP3   OH217819   5.729   0.663   5.289
 5952TIP3    H117820   5.720   0.583   5.341
 5952TIP3    H217821   5.733   0.633   5.199
 5953TIP3   OH217822   5.359   3.842   0.749
 5953TIP3    H117823   5.403   3.879   0.825
 5953TIP3    H217824   5.268   3.833   0.776
 5954TIP3   OH217825   5.936   1.063   4.515
 5954TIP3    H117826   5.937   1.003   4.591
 5954TIP3    H217827   5.983   1.141   4.545
 5955TIP3   OH217828   7.173   0.810   4.843
 5955TIP3    H117829   7.135   0.895   4.822
 5955TIP3    H217830   7.248   0.802   4.783
 5956TIP3   OH217831   3.061   2.668   4.831
 5956TIP3    H117832   3.025   2.733   4.891
 5956TIP3    H217833   3.152   2.656   4.859
 5957TIP3   OH217834   5.741   3.235   3.967
 5957TIP3    H117835   5.697   3.294   3.905
 5957TIP3    H217836   5.799   3.292   4.017
 5958TIP3   OH217837   7.071   1.734   0.512
 5958TIP3    H117838   7.022   1.741   0.594
 5958TIP3    H217839   7.161   1.714   0.539
 5959TIP3   OH217840   1.444   4.067   3.860
 5959TIP3    H117841   1.395   4.146   3.838
 5959TIP3    H217842   1.377   4.005   3.889
 5960TIP3   OH217843   4.472   3.265   4.211
 5960TIP3    H117844   4.434   3.292   4.128
 5960TIP3    H217845   4.423   3.186   4.235
 5961TIP3   OH217846   5.630   1.164   2.088
 5961TIP3    H117847   5.600   1.090   2.140
 5961TIP3    H217848   5.691   1.125   2.025
 5962TIP3   OH217849   7.011   5.967   4.781
 5962TIP3    H117850   6.988   5.904   4.713
 5962TIP3    H217851   6.964   6.047   4.757
 5963TIP3   OH217852   7.008   3.068   1.289
 5963TIP3    H117853   6.950   3.016   1.232
 5963TIP3    H217854   6.985   3.040   1.377
 5964TIP3   OH217855   1.770   1.655   0.984
 5964TIP3    H117856   1.684   1.639   0.945
 5964TIP3    H217857   1.770   1.749   1.003
 5965TIP3   OH217858   3.761   5.081   1.812
 5965TIP3    H117859   3.726   5.155   1.860
 5965TIP3    H217860   3.684   5.032   1.783
 5966TIP3   OH217861   2.881   0.048   4.873
 5966TIP3    H117862   2.948   0.005   4.926
 5966TIP3    H217863   2.821   0.087   4.937
 5967TIP3   OH217864   6.543   1.477   3.490
 5967TIP3    H117865   6.609   1.518   3.546
 5967TIP3    H217866   6.473   1.452   3.550
 5968TIP3   OH217867   2.072   5.578   1.266
 5968TIP3    H117868   2.055   5.564   1.359
 5968TIP3    H217869   2.114   5.664   1.262
 5969TIP3   OH217870   1.092   2.763   4.543
 5969TIP3    H117871   1.129   2.852   4.541
 5969TIP3    H217872   1.164   2.708   4.574
 5970TIP3   OH217873   1.152   1.772   4.712
 5970TIP3    H117874   1.103   1.698   4.676
 5970TIP3    H217875   1.099   1.848   4.692
 5971TIP3   OH217876   6.829   0.331   4.286
 5971TIP3    H117877   6.860   0.418   4.310
 5971TIP3    H217878   6.781   0.344   4.205
 5972TIP3   OH217879   6.684   6.670   2.884
 5972TIP3    H117880   6.681   6.637   2.794
 5972TIP3    H217881   6.777   6.668   2.908
 5973TIP3   OH217882   1.098   2.409   4.733
 5973TIP3    H117883   1.050   2.327   4.745
 5973TIP3    H217884   1.101   2.448   4.820
 5974TIP3   OH217885   5.647   6.262   5.585
 5974TIP3    H117886   5.622   6.349   5.555
 5974TIP3    H217887   5.714   6.278   5.652
 5975TIP3   OH217888   1.212   2.003   5.032
 5975TIP3    H117889   1.219   1.945   5.108
 5975TIP3    H217890   1.288   2.060   5.037
 5976TIP3   OH217891   6.410   6.485   1.278
 5976TIP3    H117892   6.380   6.571   1.309
 5976TIP3    H217893   6.365   6.473   1.195
 5977TIP3   OH217894   1.630   4.915   0.046
 5977TIP3    H117895   1.704   4.971   0.068
 5977TIP3    H217896   1.576   4.967  -0.013
 5978TIP3   OH217897   2.357   2.316   0.009
 5978TIP3    H117898   2.424   2.248   0.006
 5978TIP3    H217899   2.322   2.320  -0.080
 5979TIP3   OH217900   0.050   0.350   5.181
 5979TIP3    H117901   0.142   0.373   5.169
 5979TIP3    H217902   0.016   0.419   5.238
 5980TIP3   OH217903   5.658   4.245   5.446
 5980TIP3    H117904   5.597   4.316   5.468
 5980TIP3    H217905   5.636   4.221   5.356
 5981TIP3   OH217906   4.186   5.509   3.441
 5981TIP3    H117907   4.278   5.533   3.454
 5981TIP3    H217908   4.139   5.562   3.505
 5982TIP3   OH217909   5.972   5.547   4.208
 5982TIP3    H117910   5.895   5.538   4.152
 5982TIP3    H217911   5.937   5.563   4.295
 5983TIP3   OH217912   4.794   1.277   3.434
 5983TIP3    H117913   4.762   1.278   3.344
 5983TIP3    H217914   4.812   1.185   3.452
 5984TIP3   OH217915   4.476   2.885   2.061
 5984TIP3    H117916   4.419   2.933   2.001
 5984TIP3    H217917   4.429   2.883   2.144
 5985TIP3   OH217918   1.967   5.689   0.341
 5985TIP3    H117919   1.990   5.781   0.329
 5985TIP3    H217920   2.008   5.643   0.268
 5986TIP3   OH217921   3.421   3.479   0.533
 5986TIP3    H117922   3.418   3.474   0.628
 5986TIP3    H217923   3.514   3.473   0.511
 5987TIP3   OH217924   4.042   0.558   5.238
 5987TIP3    H117925   3.996   0.635   5.272
 5987TIP3    H217926   4.135   0.579   5.248
 5988TIP3   OH217927   2.064   5.128   5.355
 5988TIP3    H117928   1.987   5.177   5.324
 5988TIP3    H217929   2.091   5.173   5.434
 5989TIP3   OH217930   2.347   3.930   5.300
 5989TIP3    H117931   2.436   3.905   5.325
 5989TIP3    H217932   2.339   3.904   5.208
 5990TIP3   OH217933   2.193   2.899   4.456
 5990TIP3    H117934   2.180   2.805   4.446
 5990TIP3    H217935   2.118   2.938   4.411
 5991TIP3   OH217936   2.200   1.044   1.549
 5991TIP3    H117937   2.153   1.001   1.478
 5991TIP3    H217938   2.134   1.061   1.615
 5992TIP3   OH217939   2.771   3.977   2.407
 5992TIP3    H117940   2.676   3.977   2.393
 5992TIP3    H217941   2.789   3.892   2.447
 5993TIP3   OH217942   4.703   2.378   1.389
 5993TIP3    H117943   4.684   2.372   1.482
 5993TIP3    H217944   4.709   2.473   1.372
 5994TIP3   OH217945   6.583   0.745   1.733
 5994TIP3    H117946   6.669   0.731   1.774
 5994TIP3    H217947   6.599   0.811   1.667
 5995TIP3   OH217948   6.039   2.753   5.802
 5995TIP3    H117949   6.083   2.830   5.838
 5995TIP3    H217950   5.987   2.718   5.874
 5996TIP3   OH217951   1.571   0.174   1.569
 5996TIP3    H117952   1.549   0.267   1.565
 5996TIP3    H217953   1.520   0.135   1.498
 5997TIP3   OH217954   3.814   0.918   2.428
 5997TIP3    H117955   3.844   1.000   2.388
 5997TIP3    H217956   3.798   0.941   2.520
 5998TIP3   OH217957   6.837   6.626   2.285
 5998TIP3    H117958   6.921   6.665   2.308
 5998TIP3    H217959   6.774   6.697   2.294
 5999TIP3   OH217960   5.871   6.162   1.142
 5999TIP3    H117961   5.814   6.099   1.184
 5999TIP3    H217962   5.960   6.130   1.160
 6000TIP3   OH217963   6.327   2.274   1.446
 6000TIP3    H117964   6.336   2.360   1.404
 6000TIP3    H217965   6.294   2.294   1.533
 6001TIP3   OH217966   0.281   4.741   5.304
 6001TIP3    H117967   0.351   4.710   5.360
 6001TIP3    H217968   0.249   4.663   5.259
 6002TIP3   OH217969   0.321   4.963   1.047
 6002TIP3    H117970   0.368   5.046   1.052
 6002TIP3    H217971   0.358   4.910   1.117
 6003TIP3   OH217972   1.266   0.331   3.517
 6003TIP3    H117973   1.261   0.236   3.510
 6003TIP3    H217974   1.246   0.362   3.429
 6004TIP3   OH217975   1.286   4.577   3.094
 6004TIP3    H117976   1.294   4.616   3.181
 6004TIP3    H217977   1.317   4.487   3.105
 6005TIP3   OH217978   6.592   3.835   4.435
 6005TIP3    H117979   6.629   3.797   4.356
 6005TIP3    H217980   6.518   3.779   4.457
 6006TIP3   OH217981   7.059   3.676   4.462
 6006TIP3    H117982   7.074   3.742   4.530
 6006TIP3    H217983   6.990   3.714   4.407
 6007TIP3   OH217984   4.272   1.908   3.470
 6007TIP3    H117985   4.364   1.924   3.488
 6007TIP3    H217986   4.246   1.976   3.409
 6008TIP3   OH217987   4.223   1.185   1.234
 6008TIP3    H117988   4.202   1.145   1.150
 6008TIP3    H217989   4.178   1.269   1.232
 6009TIP3   OH217990   4.909   0.536   5.577
 6009TIP3    H117991   5.001   0.563   5.580
 6009TIP3    H217992   4.860   0.619   5.574
 6010TIP3   OH217993   3.620   6.729   5.875
 6010TIP3    H117994   3.591   6.753   5.963
 6010TIP3    H217995   3.563   6.656   5.850
 6011TIP3   OH217996   1.879   6.283   4.211
 6011TIP3    H117997   1.820   6.276   4.136
 6011TIP3    H217998   1.902   6.375   4.215
 6012TIP3   OH217999   6.311   4.301   2.315
 6012TIP3    H118000   6.307   4.377   2.373
 6012TIP3    H218001   6.364   4.238   2.363
 6013TIP3   OH218002   3.630   6.461   0.934
 6013TIP3    H118003   3.616   6.480   0.841
 6013TIP3    H218004   3.558   6.402   0.957
 6014TIP3   OH218005   1.505   4.757   3.848
 6014TIP3    H118006   1.431   4.757   3.909
 6014TIP3    H218007   1.551   4.676   3.868
 6015TIP3   OH218008   4.401   4.221   5.466
 6015TIP3    H118009   4.317   4.227   5.420
 6015TIP3    H218010   4.389   4.276   5.544
 6016TIP3   OH218011   0.387   2.146   0.424
 6016TIP3    H118012   0.483   2.139   0.423
 6016TIP3    H218013   0.369   2.228   0.471
 6017TIP3   OH218014   5.037   5.358   3.747
 6017TIP3    H118015   4.978   5.341   3.672
 6017TIP3    H218016   5.093   5.429   3.717
 6018TIP3   OH218017   3.904   0.375   5.533
 6018TIP3    H118018   3.848   0.313   5.487
 6018TIP3    H218019   3.843   0.439   5.571
 6019TIP3   OH218020   2.166   2.766   5.649
 6019TIP3    H118021   2.239   2.704   5.642
 6019TIP3    H218022   2.152   2.799   5.561
 6020TIP3   OH218023   4.641   0.716   0.319
 6020TIP3    H118024   4.684   0.736   0.235
 6020TIP3    H218025   4.670   0.628   0.340
 6021TIP3   OH218026   4.924   0.878   4.449
 6021TIP3    H118027   4.900   0.876   4.541
 6021TIP3    H218028   4.934   0.787   4.424
 6022TIP3   OH218029   5.505   2.794   0.214
 6022TIP3    H118030   5.563   2.775   0.140
 6022TIP3    H218031   5.553   2.761   0.290
 6023TIP3   OH218032   2.868   0.858   1.733
 6023TIP3    H118033   2.797   0.801   1.763
 6023TIP3    H218034   2.927   0.866   1.808
 6024TIP3   OH218035   3.061   1.240   2.278
 6024TIP3    H118036   3.143   1.201   2.247
 6024TIP3    H218037   3.030   1.292   2.204
 6025TIP3   OH218038   1.126   5.235   5.253
 6025TIP3    H118039   1.133   5.148   5.213
 6025TIP3    H218040   1.185   5.290   5.203
 6026TIP3   OH218041   6.496   2.095   0.136
 6026TIP3    H118042   6.538   2.027   0.188
 6026TIP3    H218043   6.554   2.108   0.061
 6027TIP3   OH218044   7.028   2.715   2.786
 6027TIP3    H118045   7.091   2.653   2.823
 6027TIP3    H218046   6.942   2.678   2.806
 6028TIP3   OH218047   1.807   5.225   5.848
 6028TIP3    H118048   1.844   5.313   5.849
 6028TIP3    H218049   1.879   5.168   5.877
 6029TIP3   OH218050   0.297   1.423   3.303
 6029TIP3    H118051   0.326   1.396   3.390
 6029TIP3    H218052   0.330   1.355   3.244
 6030TIP3   OH218053   6.411   2.091   0.491
 6030TIP3    H118054   6.332   2.117   0.445
 6030TIP3    H218055   6.383   2.021   0.550
 6031TIP3   OH218056   3.187   2.582   5.887
 6031TIP3    H118057   3.155   2.508   5.835
 6031TIP3    H218058   3.272   2.554   5.919
 6032TIP3   OH218059   4.789   3.520   0.143
 6032TIP3    H118060   4.694   3.508   0.139
 6032TIP3    H218061   4.817   3.517   0.052
 6033TIP3   OH218062   5.673   4.766   2.923
 6033TIP3    H118063   5.767   4.751   2.911
 6033TIP3    H218064   5.655   4.844   2.871
 6034TIP3   OH218065   4.421   1.304   2.903
 6034TIP3    H118066   4.413   1.377   2.964
 6034TIP3    H218067   4.407   1.343   2.816
 6035TIP3   OH218068   3.684   0.529   5.627
 6035TIP3    H118069   3.619   0.494   5.567
 6035TIP3    H218070   3.648   0.613   5.656
 6036TIP3   OH218071   2.498   4.206   2.570
 6036TIP3    H118072   2.496   4.125   2.519
 6036TIP3    H218073   2.547   4.267   2.515
 6037TIP3   OH218074   5.049   1.168   3.073
 6037TIP3    H118075   5.074   1.213   3.154
 6037TIP3    H218076   5.131   1.135   3.037
 6038TIP3   OH218077   5.878   3.076   1.291
 6038TIP3    H118078   5.820   3.141   1.330
 6038TIP3    H218079   5.964   3.092   1.330
 6039TIP3   OH218080   4.946   1.859   1.596
 6039TIP3    H118081   4.882   1.788   1.598
 6039TIP3    H218082   5.030   1.816   1.578
 6040TIP3   OH218083   5.943   1.104   5.782
 6040TIP3    H118084   5.879   1.053   5.832
 6040TIP3    H218085   6.024   1.097   5.832
 6041TIP3   OH218086   0.412   3.918   1.357
 6041TIP3    H118087   0.385   3.954   1.442
 6041TIP3    H218088   0.463   3.840   1.380
 6042TIP3   OH218089   4.328   3.295   5.824
 6042TIP3    H118090   4.389   3.355   5.868
 6042TIP3    H218091   4.298   3.343   5.748
 6043TIP3   OH218092   2.283   0.495   4.911
 6043TIP3    H118093   2.237   0.568   4.952
 6043TIP3    H218094   2.281   0.516   4.817
 6044TIP3   OH218095   5.829   6.323   4.353
 6044TIP3    H118096   5.841   6.344   4.446
 6044TIP3    H218097   5.789   6.236   4.353
 6045TIP3   OH218098   6.160   5.351   4.176
 6045TIP3    H118099   6.248   5.386   4.185
 6045TIP3    H218100   6.103   5.428   4.178
 6046TIP3   OH218101   6.753   2.488   1.033
 6046TIP3    H118102   6.775   2.552   1.101
 6046TIP3    H218103   6.822   2.497   0.968
 6047TIP3   OH218104   0.127   2.299   4.514
 6047TIP3    H118105   0.073   2.373   4.540
 6047TIP3    H218106   0.216   2.324   4.538
 6048TIP3   OH218107   0.428   3.232   3.510
 6048TIP3    H118108   0.458   3.145   3.482
 6048TIP3    H218109   0.444   3.288   3.434
 6049TIP3   OH218110   2.384   5.250   0.195
 6049TIP3    H118111   2.385   5.344   0.179
 6049TIP3    H218112   2.355   5.242   0.286
 6050TIP3   OH218113   6.259   2.361   5.626
 6050TIP3    H118114   6.333   2.416   5.653
 6050TIP3    H218115   6.258   2.289   5.689
 6051TIP3   OH218116   0.693   6.009   2.595
 6051TIP3    H118117   0.736   5.991   2.512
 6051TIP3    H218118   0.604   5.976   2.584
 6052TIP3   OH218119   0.509   0.772   0.382
 6052TIP3    H118120   0.503   0.846   0.442
 6052TIP3    H218121   0.539   0.699   0.436
 6053TIP3   OH218122   5.405   6.249   2.825
 6053TIP3    H118123   5.461   6.318   2.790
 6053TIP3    H218124   5.392   6.272   2.917
 6054TIP3   OH218125   6.830   1.455   1.305
 6054TIP3    H118126   6.778   1.525   1.343
 6054TIP3    H218127   6.837   1.389   1.374
 6055TIP3   OH218128   3.695   2.696   0.519
 6055TIP3    H118129   3.679   2.618   0.573
 6055TIP3    H218130   3.660   2.769   0.569
 6056TIP3   OH218131   1.567   3.778   2.083
 6056TIP3    H118132   1.518   3.754   2.005
 6056TIP3    H218133   1.510   3.754   2.156
 6057TIP3   OH218134   2.651   1.434   2.607
 6057TIP3    H118135   2.679   1.469   2.691
 6057TIP3    H218136   2.732   1.410   2.562
 6058TIP3   OH218137   2.764   0.126   0.014
 6058TIP3    H118138   2.731   0.101  -0.072
 6058TIP3    H218139   2.811   0.049   0.045
 6059TIP3   OH218140   3.630   1.024   3.018
 6059TIP3    H118141   3.544   1.029   3.060
 6059TIP3    H218142   3.626   0.947   2.962
 6060TIP3   OH218143   4.827   3.464   2.166
 6060TIP3    H118144   4.785   3.527   2.108
 6060TIP3    H218145   4.774   3.385   2.159
 6061TIP3   OH218146   3.520   1.700   1.900
 6061TIP3    H118147   3.572   1.740   1.831
 6061TIP3    H218148   3.534   1.606   1.888
 6062TIP3   OH218149   1.969   0.249   0.135
 6062TIP3    H118150   2.018   0.186   0.084
 6062TIP3    H218151   2.032   0.283   0.199
 6063TIP3   OH218152   6.381   5.027   0.056
 6063TIP3    H118153   6.440   5.102   0.062
 6063TIP3    H218154   6.342   5.034  -0.031
 6064TIP3   OH218155   2.630   3.553   1.763
 6064TIP3    H118156   2.620   3.520   1.852
 6064TIP3    H218157   2.602   3.481   1.706
 6065TIP3   OH218158   3.715   5.678   0.966
 6065TIP3    H118159   3.724   5.662   1.060
 6065TIP3    H218160   3.743   5.768   0.954
 6066TIP3   OH218161   3.171   3.628   1.961
 6066TIP3    H118162   3.217   3.701   2.002
 6066TIP3    H218163   3.116   3.592   2.032
 6067TIP3   OH218164   1.878   0.327   2.023
 6067TIP3    H118165   1.927   0.269   2.081
 6067TIP3    H218166   1.907   0.415   2.047
 6068TIP3   OH218167   0.616   6.634   0.687
 6068TIP3    H118168   0.597   6.640   0.594
 6068TIP3    H218169   0.626   6.725   0.715
 6069TIP3   OH218170   6.654   4.909   0.152
 6069TIP3    H118171   6.634   4.994   0.190
 6069TIP3    H218172   6.593   4.848   0.193
 6070TIP3   OH218173   0.959   5.227   0.790
 6070TIP3    H118174   0.923   5.282   0.859
 6070TIP3    H218175   0.987   5.288   0.722
 6071TIP3   OH218176   2.426   0.327   1.494
 6071TIP3    H118177   2.377   0.409   1.503
 6071TIP3    H218178   2.394   0.289   1.411
 6072TIP3   OH218179   4.291   0.629   2.377
 6072TIP3    H118180   4.348   0.706   2.374
 6072TIP3    H218181   4.351   0.555   2.364
 6073TIP3   OH218182   2.371   0.633   2.200
 6073TIP3    H118183   2.427   0.603   2.129
 6073TIP3    H218184   2.398   0.723   2.216
 6074TIP3   OH218185   5.008   0.614   1.853
 6074TIP3    H118186   5.063   0.673   1.801
 6074TIP3    H218187   4.963   0.560   1.789
 6075TIP3   OH218188   0.346   6.427   2.510
 6075TIP3    H118189   0.312   6.379   2.435
 6075TIP3    H218190   0.369   6.359   2.573
 6076TIP3   OH218191   4.051   4.102   0.810
 6076TIP3    H118192   4.011   4.093   0.724
 6076TIP3    H218193   4.068   4.012   0.838
 6077TIP3   OH218194   2.358   6.032   2.640
 6077TIP3    H118195   2.345   6.126   2.647
 6077TIP3    H218196   2.398   6.007   2.724
 6078TIP3   OH218197   4.923   1.195   5.118
 6078TIP3    H118198   4.976   1.126   5.158
 6078TIP3    H218199   4.951   1.275   5.161
 6079TIP3   OH218200   1.372   3.435   0.992
 6079TIP3    H118201   1.456   3.394   1.013
 6079TIP3    H218202   1.393   3.501   0.926
 6080TIP3   OH218203   1.136   2.897   2.042
 6080TIP3    H118204   1.060   2.840   2.054
 6080TIP3    H218205   1.102   2.971   1.992
 6081TIP3   OH218206   0.256   0.027   5.058
 6081TIP3    H118207   0.293   0.081   5.129
 6081TIP3    H218208   0.242  -0.059   5.098
 6082TIP3   OH218209   0.819   0.064   0.194
 6082TIP3    H118210   0.757   0.063   0.267
 6082TIP3    H218211   0.770   0.105   0.122
 6083TIP3   OH218212   1.156   3.688   5.255
 6083TIP3    H118213   1.134   3.771   5.214
 6083TIP3    H218214   1.143   3.623   5.186
 6084TIP3   OH218215   6.234   2.710   4.350
 6084TIP3    H118216   6.270   2.718   4.439
 6084TIP3    H218217   6.272   2.783   4.302
 6085TIP3   OH218218   3.960   1.995   3.408
 6085TIP3    H118219   3.866   1.982   3.422
 6085TIP3    H218220   4.002   1.927   3.460
 6086TIP3   OH218221   0.753   6.206   2.770
 6086TIP3    H118222   0.845   6.215   2.795
 6086TIP3    H218223   0.754   6.140   2.701
 6087TIP3   OH218224   5.985   5.118   0.825
 6087TIP3    H118225   5.979   5.087   0.915
 6087TIP3    H218226   5.984   5.213   0.832
 6088TIP3   OH218227   4.181   5.317   2.105
 6088TIP3    H118228   4.111   5.252   2.105
 6088TIP3    H218229   4.186   5.348   2.015
 6089TIP3   OH218230   1.433   4.214   4.421
 6089TIP3    H118231   1.362   4.150   4.433
 6089TIP3    H218232   1.490   4.174   4.354
 6090TIP3   OH218233   2.029   5.405   3.896
 6090TIP3    H118234   2.020   5.376   3.805
 6090TIP3    H218235   2.123   5.409   3.911
 6091TIP3   OH218236   5.905   1.459   4.466
 6091TIP3    H118237   5.950   1.544   4.467
 6091TIP3    H218238   5.970   1.398   4.432
 6092TIP3   OH218239   6.097   1.458   1.978
 6092TIP3    H118240   6.103   1.550   1.953
 6092TIP3    H218241   6.020   1.426   1.931
 6093TIP3   OH218242   0.516   1.529   4.887
 6093TIP3    H118243   0.586   1.480   4.931
 6093TIP3    H218244   0.504   1.607   4.941
 6094TIP3   OH218245   3.637   4.132   3.014
 6094TIP3    H118246   3.631   4.146   3.109
 6094TIP3    H218247   3.548   4.147   2.982
 6095TIP3   OH218248   6.382   1.348   0.163
 6095TIP3    H118249   6.346   1.278   0.109
 6095TIP3    H218250   6.389   1.423   0.103
 6096TIP3   OH218251   0.952   4.647   4.281
 6096TIP3    H118252   1.026   4.623   4.337
 6096TIP3    H218253   0.964   4.740   4.264
 6097TIP3   OH218254   7.157   5.703   5.109
 6097TIP3    H118255   7.226   5.766   5.088
 6097TIP3    H218256   7.093   5.713   5.039
 6098TIP3   OH218257   3.930   5.090   4.990
 6098TIP3    H118258   3.950   5.182   5.008
 6098TIP3    H218259   3.910   5.053   5.077
 6099TIP3   OH218260   2.380   3.479   2.152
 6099TIP3    H118261   2.287   3.473   2.177
 6099TIP3    H218262   2.415   3.549   2.208
 6100TIP3   OH218263   2.188   3.991   2.415
 6100TIP3    H118264   2.189   3.972   2.321
 6100TIP3    H218265   2.169   3.906   2.456
 6101TIP3   OH218266   1.334   5.162   2.279
 6101TIP3    H118267   1.291   5.223   2.339
 6101TIP3    H218268   1.267   5.096   2.259
 6102TIP3   OH218269   5.226   0.755   2.373
 6102TIP3    H118270   5.174   0.700   2.431
 6102TIP3    H218271   5.162   0.812   2.330
 6103TIP3   OH218272   4.254   3.078   3.727
 6103TIP3    H118273   4.269   3.130   3.648
 6103TIP3    H218274   4.193   3.010   3.701
 6104TIP3   OH218275   6.435   3.449   1.649
 6104TIP3    H118276   6.495   3.376   1.637
 6104TIP3    H218277   6.352   3.418   1.615
 6105TIP3   OH218278   1.972   1.571   3.584
 6105TIP3    H118279   1.885   1.549   3.553
 6105TIP3    H218280   1.960   1.591   3.677
 6106TIP3   OH218281   0.894   5.696   3.149
 6106TIP3    H118282   0.865   5.705   3.240
 6106TIP3    H218283   0.988   5.714   3.152
 6107TIP3   OH218284   4.822   6.589   1.884
 6107TIP3    H118285   4.907   6.543   1.881
 6107TIP3    H218286   4.831   6.652   1.955
 6108TIP3   OH218287   1.984   0.131   0.973
 6108TIP3    H118288   1.969   0.131   0.879
 6108TIP3    H218289   2.054   0.066   0.986
 6109TIP3   OH218290   4.570   5.469   4.040
 6109TIP3    H118291   4.493   5.467   3.982
 6109TIP3    H218292   4.553   5.401   4.105
 6110TIP3   OH218293   2.052   5.885   2.051
 6110TIP3    H118294   1.990   5.948   2.087
 6110TIP3    H218295   2.031   5.881   1.957
 6111TIP3   OH218296   1.037   5.561   1.121
 6111TIP3    H118297   1.075   5.568   1.034
 6111TIP3    H218298   1.070   5.478   1.155
 6112TIP3   OH218299   2.152   3.627   4.230
 6112TIP3    H118300   2.210   3.630   4.154
 6112TIP3    H218301   2.177   3.547   4.276
 6113TIP3   OH218302   2.820   5.035   0.555
 6113TIP3    H118303   2.780   4.950   0.571
 6113TIP3    H218304   2.841   5.069   0.642
 6114TIP3   OH218305   3.888   4.762   5.626
 6114TIP3    H118306   3.857   4.677   5.657
 6114TIP3    H218307   3.982   4.760   5.638
 6115TIP3   OH218308   1.455   4.212   1.957
 6115TIP3    H118309   1.503   4.152   2.013
 6115TIP3    H218310   1.522   4.272   1.922
 6116TIP3   OH218311   4.962   4.363   1.686
 6116TIP3    H118312   4.982   4.384   1.777
 6116TIP3    H218313   5.030   4.408   1.636
 6117TIP3   OH218314   5.958   3.782   4.811
 6117TIP3    H118315   5.998   3.722   4.875
 6117TIP3    H218316   5.871   3.801   4.847
 6118TIP3   OH218317   2.604   0.934   4.120
 6118TIP3    H118318   2.660   1.003   4.157
 6118TIP3    H218319   2.656   0.854   4.131
 6119TIP3   OH218320   1.374   4.955   0.793
 6119TIP3    H118321   1.412   4.976   0.878
 6119TIP3    H218322   1.307   4.889   0.812
 6120TIP3   OH218323   2.621   2.034   0.674
 6120TIP3    H118324   2.547   2.091   0.656
 6120TIP3    H218325   2.698   2.089   0.658
 6121TIP3   OH218326   1.003   3.213   2.804
 6121TIP3    H118327   0.936   3.148   2.787
 6121TIP3    H218328   1.017   3.256   2.720
 6122TIP3   OH218329   1.932   1.183   3.243
 6122TIP3    H118330   1.960   1.098   3.276
 6122TIP3    H218331   2.012   1.235   3.239
 6123TIP3   OH218332   4.196   2.295   5.297
 6123TIP3    H118333   4.248   2.334   5.367
 6123TIP3    H218334   4.189   2.364   5.231
 6124TIP3   OH218335   1.624   5.431   5.088
 6124TIP3    H118336   1.674   5.369   5.035
 6124TIP3    H218337   1.689   5.487   5.129
 6125TIP3   OH218338   0.356   1.898   0.141
 6125TIP3    H118339   0.297   1.974   0.149
 6125TIP3    H218340   0.443   1.937   0.133
 6126TIP3   OH218341   5.045   3.029   0.176
 6126TIP3    H118342   4.995   3.105   0.147
 6126TIP3    H218343   5.136   3.058   0.171
 6127TIP3   OH218344   0.365   6.767   5.540
 6127TIP3    H118345   0.363   6.862   5.547
 6127TIP3    H218346   0.288   6.737   5.588
 6128TIP3   OH218347   3.960   3.024   4.952
 6128TIP3    H118348   3.958   2.995   4.861
 6128TIP3    H218349   4.053   3.017   4.977
 6129TIP3   OH218350   4.321   1.126   2.465
 6129TIP3    H118351   4.263   1.185   2.513
 6129TIP3    H218352   4.406   1.171   2.465
 6130TIP3   OH218353   3.583   2.011   4.615
 6130TIP3    H118354   3.581   1.971   4.528
 6130TIP3    H218355   3.653   1.964   4.661
 6131TIP3   OH218356   3.313   2.028   3.907
 6131TIP3    H118357   3.343   1.967   3.975
 6131TIP3    H218358   3.383   2.028   3.842
 6132TIP3   OH218359   5.191   6.158   4.089
 6132TIP3    H118360   5.271   6.197   4.123
 6132TIP3    H218361   5.189   6.070   4.127
 6133TIP3   OH218362   0.814   6.707   0.164
 6133TIP3    H118363   0.888   6.663   0.122
 6133TIP3    H218364   0.790   6.777   0.104
 6134TIP3   OH218365   3.070   1.592   1.994
 6134TIP3    H118366   3.022   1.515   2.024
 6134TIP3    H218367   3.144   1.556   1.944
 6135TIP3   OH218368   6.475   1.855   1.241
 6135TIP3    H118369   6.399   1.847   1.300
 6135TIP3    H218370   6.462   1.787   1.175
 6136TIP3   OH218371   5.014   5.522   4.820
 6136TIP3    H118372   5.045   5.534   4.730
 6136TIP3    H218373   4.932   5.572   4.823
 6137TIP3   OH218374   6.144   6.564   4.045
 6137TIP3    H118375   6.174   6.476   4.069
 6137TIP3    H218376   6.051   6.564   4.067
 6138TIP3   OH218377   0.797   2.999   2.787
 6138TIP3    H118378   0.710   2.978   2.752
 6138TIP3    H218379   0.789   2.985   2.881
 6139TIP3   OH218380   4.678   3.445   4.152
 6139TIP3    H118381   4.631   3.528   4.144
 6139TIP3    H218382   4.611   3.383   4.183
 6140TIP3   OH218383   6.131   0.217   2.253
 6140TIP3    H118384   6.200   0.175   2.305
 6140TIP3    H218385   6.113   0.299   2.298
 6141TIP3   OH218386   7.012   1.050   0.823
 6141TIP3    H118387   7.073   1.123   0.834
 6141TIP3    H218388   6.976   1.062   0.735
 6142TIP3   OH218389   1.479   3.843   3.590
 6142TIP3    H118390   1.538   3.767   3.581
 6142TIP3    H218391   1.518   3.910   3.534
 6143TIP3   OH218392   1.904   3.361   5.007
 6143TIP3    H118393   1.869   3.274   4.989
 6143TIP3    H218394   1.976   3.371   4.946
 6144TIP3   OH218395   5.926   2.031   5.894
 6144TIP3    H118396   5.984   1.999   5.825
 6144TIP3    H218397   5.906   1.953   5.946
 6145TIP3   OH218398   2.040   2.564   1.311
 6145TIP3    H118399   2.096   2.608   1.374
 6145TIP3    H218400   2.100   2.519   1.252
 6146TIP3   OH218401   5.673   2.001   5.706
 6146TIP3    H118402   5.607   1.989   5.638
 6146TIP3    H218403   5.757   1.984   5.662
 6147TIP3   OH218404   0.025   1.199   5.097
 6147TIP3    H118405   0.071   1.146   5.032
 6147TIP3    H218406   0.002   1.280   5.050
 6148TIP3   OH218407   4.393   4.752   2.254
 6148TIP3    H118408   4.439   4.750   2.338
 6148TIP3    H218409   4.433   4.825   2.207
 6149TIP3   OH218410   0.163   2.226   2.382
 6149TIP3    H118411   0.102   2.192   2.316
 6149TIP3    H218412   0.109   2.282   2.438
 6150TIP3   OH218413   4.359   5.484   2.812
 6150TIP3    H118414   4.413   5.490   2.734
 6150TIP3    H218415   4.353   5.574   2.844
 6151TIP3   OH218416   1.649   5.911   5.720
 6151TIP3    H118417   1.625   5.919   5.812
 6151TIP3    H218418   1.638   5.999   5.684
 6152TIP3   OH218419   0.509   2.845   4.858
 6152TIP3    H118420   0.449   2.855   4.784
 6152TIP3    H218421   0.557   2.927   4.861
 6153TIP3   OH218422   1.218   5.205   1.444
 6153TIP3    H118423   1.138   5.154   1.435
 6153TIP3    H218424   1.201   5.286   1.397
 6154TIP3   OH218425   2.425   2.618   1.001
 6154TIP3    H118426   2.497   2.642   1.059
 6154TIP3    H218427   2.356   2.682   1.021
 6155TIP3   OH218428   1.724   6.181   3.404
 6155TIP3    H118429   1.704   6.108   3.346
 6155TIP3    H218430   1.815   6.205   3.383
 6156TIP3   OH218431   5.732   4.707   4.742
 6156TIP3    H118432   5.770   4.649   4.808
 6156TIP3    H218433   5.800   4.715   4.675
 6157TIP3   OH218434   2.775   4.512   3.268
 6157TIP3    H118435   2.846   4.487   3.208
 6157TIP3    H218436   2.709   4.443   3.258
 6158TIP3   OH218437   6.994   2.767   0.139
 6158TIP3    H118438   6.904   2.736   0.154
 6158TIP3    H218439   7.047   2.688   0.139
 6159TIP3   OH218440   1.718   0.592   0.460
 6159TIP3    H118441   1.781   0.594   0.532
 6159TIP3    H218442   1.681   0.681   0.458
 6160TIP3   OH218443   5.380   3.163   2.313
 6160TIP3    H118444   5.298   3.114   2.315
 6160TIP3    H218445   5.353   3.254   2.298
 6161TIP3   OH218446   0.745   6.536   3.917
 6161TIP3    H118447   0.813   6.585   3.872
 6161TIP3    H218448   0.783   6.449   3.930
 6162TIP3   OH218449   2.716   6.338   5.383
 6162TIP3    H118450   2.780   6.284   5.430
 6162TIP3    H218451   2.730   6.317   5.291
 6163TIP3   OH218452   2.336   0.961   0.487
 6163TIP3    H118453   2.404   0.927   0.544
 6163TIP3    H218454   2.315   1.047   0.523
 6164TIP3   OH218455   6.647   2.101   2.652
 6164TIP3    H118456   6.731   2.085   2.608
 6164TIP3    H218457   6.613   2.013   2.670
 6165TIP3   OH218458   2.300   3.028   5.374
 6165TIP3    H118459   2.339   2.974   5.443
 6165TIP3    H218460   2.209   2.996   5.368
 6166TIP3   OH218461   6.166   0.519   5.251
 6166TIP3    H118462   6.256   0.485   5.254
 6166TIP3    H218463   6.121   0.475   5.323
 6167TIP3   OH218464   3.027   4.021   2.830
 6167TIP3    H118465   3.110   4.046   2.870
 6167TIP3    H218466   3.040   4.037   2.736
 6168TIP3   OH218467   2.462   5.831   5.814
 6168TIP3    H118468   2.540   5.847   5.867
 6168TIP3    H218469   2.490   5.766   5.749
 6169TIP3   OH218470   0.448   0.985   3.988
 6169TIP3    H118471   0.456   0.921   3.917
 6169TIP3    H218472   0.464   1.069   3.946
 6170TIP3   OH218473   6.003   4.396   4.061
 6170TIP3    H118474   5.960   4.389   3.975
 6170TIP3    H218475   5.952   4.340   4.119
 6171TIP3   OH218476   5.227   6.407   1.265
 6171TIP3    H118477   5.277   6.484   1.239
 6171TIP3    H218478   5.273   6.373   1.342
 6172TIP3   OH218479   2.887   6.759   1.135
 6172TIP3    H118480   2.920   6.724   1.218
 6172TIP3    H218481   2.864   6.850   1.155
 6173TIP3   OH218482   3.791   5.012   3.609
 6173TIP3    H118483   3.712   5.059   3.635
 6173TIP3    H218484   3.863   5.065   3.645
 6174TIP3   OH218485   6.078   0.142   4.091
 6174TIP3    H118486   6.150   0.188   4.134
 6174TIP3    H218487   6.027   0.106   4.164
 6175TIP3   OH218488   3.178   0.412   2.124
 6175TIP3    H118489   3.144   0.325   2.145
 6175TIP3    H218490   3.140   0.433   2.038
 6176TIP3   OH218491   3.076   3.168   4.378
 6176TIP3    H118492   3.096   3.217   4.298
 6176TIP3    H218493   3.078   3.076   4.351
 6177TIP3   OH218494   5.885   3.331   0.024
 6177TIP3    H118495   5.815   3.395   0.033
 6177TIP3    H218496   5.931   3.333   0.108
 6178TIP3   OH218497   6.318   1.691   0.445
 6178TIP3    H118498   6.328   1.748   0.369
 6178TIP3    H218499   6.367   1.736   0.514
 6179TIP3   OH218500   4.799   1.270   2.972
 6179TIP3    H118501   4.874   1.212   2.984
 6179TIP3    H218502   4.837   1.357   2.962
 6180TIP3   OH218503   4.176   6.367   5.042
 6180TIP3    H118504   4.183   6.437   4.977
 6180TIP3    H218505   4.151   6.413   5.123
 6181TIP3   OH218506   3.804   5.704   2.991
 6181TIP3    H118507   3.715   5.669   2.990
 6181TIP3    H218508   3.833   5.698   2.900
 6182TIP3   OH218509   2.883   6.032   0.147
 6182TIP3    H118510   2.904   6.080   0.067
 6182TIP3    H218511   2.818   6.085   0.191
 6183TIP3   OH218512   0.618   4.662   1.119
 6183TIP3    H118513   0.531   4.637   1.086
 6183TIP3    H218514   0.633   4.602   1.192
 6184TIP3   OH218515   2.403   3.907   5.692
 6184TIP3    H118516   2.481   3.934   5.645
 6184TIP3    H218517   2.372   3.829   5.645
 6185TIP3   OH218518   3.075   1.616   2.961
 6185TIP3    H118519   3.088   1.703   2.999
 6185TIP3    H218520   3.073   1.557   3.036
 6186TIP3   OH218521   1.752   2.529   5.376
 6186TIP3    H118522   1.658   2.546   5.375
 6186TIP3    H218523   1.772   2.498   5.288
 6187TIP3   OH218524   2.727   2.053   2.573
 6187TIP3    H118525   2.683   2.110   2.510
 6187TIP3    H218526   2.812   2.034   2.533
 6188TIP3   OH218527   5.007   4.891   5.371
 6188TIP3    H118528   5.097   4.878   5.399
 6188TIP3    H218529   5.002   4.846   5.286
 6189TIP3   OH218530   4.374   4.757   4.563
 6189TIP3    H118531   4.463   4.762   4.528
 6189TIP3    H218532   4.344   4.848   4.564
 6190TIP3   OH218533   3.326   5.644   3.063
 6190TIP3    H118534   3.415   5.665   3.090
 6190TIP3    H218535   3.324   5.549   3.060
 6191TIP3   OH218536   3.937   2.357   1.122
 6191TIP3    H118537   4.032   2.360   1.132
 6191TIP3    H218538   3.913   2.268   1.149
 6192TIP3   OH218539   6.155   6.373   0.076
 6192TIP3    H118540   6.123   6.330  -0.003
 6192TIP3    H218541   6.234   6.324   0.099
 6193TIP3   OH218542   1.446   3.414   3.390
 6193TIP3    H118543   1.407   3.483   3.336
 6193TIP3    H218544   1.415   3.332   3.351
 6194TIP3   OH218545   4.851   3.892   5.154
 6194TIP3    H118546   4.771   3.928   5.191
 6194TIP3    H218547   4.822   3.836   5.083
 6195TIP3   OH218548   1.852   3.268   3.901
 6195TIP3    H118549   1.794   3.303   3.969
 6195TIP3    H218550   1.934   3.317   3.913
 6196TIP3   OH218551   5.402   0.220   0.271
 6196TIP3    H118552   5.482   0.200   0.222
 6196TIP3    H218553   5.418   0.185   0.358
 6197TIP3   OH218554   1.395   1.942   4.579
 6197TIP3    H118555   1.343   1.879   4.529
 6197TIP3    H218556   1.341   1.964   4.654
 6198TIP3   OH218557   6.625   6.148   2.512
 6198TIP3    H118558   6.669   6.074   2.552
 6198TIP3    H218559   6.581   6.112   2.435
 6199TIP3   OH218560   0.966   3.569   1.025
 6199TIP3    H118561   1.044   3.573   1.081
 6199TIP3    H218562   0.997   3.596   0.938
 6200TIP3   OH218563   0.252   6.165   1.934
 6200TIP3    H118564   0.310   6.241   1.932
 6200TIP3    H218565   0.167   6.199   1.904
 6201TIP3   OH218566   5.907   3.830   1.446
 6201TIP3    H118567   5.895   3.840   1.540
 6201TIP3    H218568   5.915   3.735   1.433
 6202TIP3   OH218569   6.223   4.925   3.352
 6202TIP3    H118570   6.226   4.966   3.266
 6202TIP3    H218571   6.250   4.834   3.337
 6203TIP3   OH218572   5.357   5.965   2.790
 6203TIP3    H118573   5.443   5.980   2.749
 6203TIP3    H218574   5.324   6.052   2.809
 6204TIP3   OH218575   6.534   5.647   1.814
 6204TIP3    H118576   6.490   5.638   1.730
 6204TIP3    H218577   6.467   5.627   1.879
 6205TIP3   OH218578   4.565   6.163   4.547
 6205TIP3    H118579   4.554   6.111   4.468
 6205TIP3    H218580   4.649   6.134   4.583
 6206TIP3   OH218581   5.681   4.042   1.515
 6206TIP3    H118582   5.664   4.108   1.581
 6206TIP3    H218583   5.680   3.959   1.563
 6207TIP3   OH218584   5.108   4.778   3.005
 6207TIP3    H118585   5.078   4.858   2.962
 6207TIP3    H218586   5.146   4.808   3.088
 6208TIP3   OH218587   5.619   4.341   5.776
 6208TIP3    H118588   5.615   4.378   5.688
 6208TIP3    H218589   5.533   4.361   5.814
 6209TIP3   OH218590   0.800   4.353   1.704
 6209TIP3    H118591   0.865   4.309   1.759
 6209TIP3    H218592   0.801   4.444   1.735
 6210TIP3   OH218593   2.229   4.688   3.442
 6210TIP3    H118594   2.209   4.651   3.527
 6210TIP3    H218595   2.305   4.638   3.411
 6211TIP3   OH218596   3.892   6.187   1.482
 6211TIP3    H118597   3.967   6.209   1.538
 6211TIP3    H218598   3.856   6.271   1.455
 6212TIP3   OH218599   5.893   2.421   5.037
 6212TIP3    H118600   5.938   2.391   5.116
 6212TIP3    H218601   5.857   2.507   5.061
 6213TIP3   OH218602   5.599   1.428   4.563
 6213TIP3    H118603   5.536   1.365   4.601
 6213TIP3    H218604   5.567   1.513   4.593
 6214TIP3   OH218605   6.968   6.016   3.378
 6214TIP3    H118606   6.936   5.933   3.344
 6214TIP3    H218607   7.024   5.993   3.451
 6215TIP3   OH218608   0.148   4.537   5.184
 6215TIP3    H118609   0.081   4.515   5.249
 6215TIP3    H218610   0.161   4.457   5.134
 6216TIP3   OH218611   3.252   4.386   5.138
 6216TIP3    H118612   3.233   4.305   5.092
 6216TIP3    H218613   3.169   4.432   5.141
 6217TIP3   OH218614   1.601   4.682   3.531
 6217TIP3    H118615   1.508   4.697   3.552
 6217TIP3    H218616   1.614   4.588   3.544
 6218TIP3   OH218617   2.190   1.291   0.616
 6218TIP3    H118618   2.223   1.328   0.534
 6218TIP3    H218619   2.237   1.340   0.684
 6219TIP3   OH218620   6.286   0.676   1.072
 6219TIP3    H118621   6.361   0.634   1.115
 6219TIP3    H218622   6.275   0.627   0.990
 6220TIP3   OH218623   2.022   5.520   1.017
 6220TIP3    H118624   2.018   5.541   1.110
 6220TIP3    H218625   1.970   5.440   1.008
 6221TIP3   OH218626   1.762   4.367   0.670
 6221TIP3    H118627   1.830   4.310   0.706
 6221TIP3    H218628   1.724   4.410   0.747
 6222TIP3   OH218629   5.318   2.964   5.834
 6222TIP3    H118630   5.397   2.966   5.780
 6222TIP3    H218631   5.319   3.046   5.882
 6223TIP3   OH218632   2.845   5.561   0.085
 6223TIP3    H118633   2.889   5.585   0.004
 6223TIP3    H218634   2.761   5.606   0.080
 6224TIP3   OH218635   1.426   0.489   5.762
 6224TIP3    H118636   1.500   0.541   5.732
 6224TIP3    H218637   1.368   0.482   5.686
 6225TIP3   OH218638   0.921   5.620   4.057
 6225TIP3    H118639   0.987   5.619   4.125
 6225TIP3    H218640   0.968   5.592   3.978
 6226TIP3   OH218641   1.664   0.038   1.239
 6226TIP3    H118642   1.734  -0.022   1.266
 6226TIP3    H218643   1.592   0.020   1.299
 6227TIP3   OH218644   0.801   0.703   3.863
 6227TIP3    H118645   0.714   0.673   3.888
 6227TIP3    H218646   0.845   0.720   3.947
 6228TIP3   OH218647   2.839   6.578   5.706
 6228TIP3    H118648   2.758   6.527   5.707
 6228TIP3    H218649   2.851   6.603   5.614
 6229TIP3   OH218650   6.655   0.313   1.297
 6229TIP3    H118651   6.700   0.397   1.282
 6229TIP3    H218652   6.580   0.336   1.351
 6230TIP3   OH218653   5.290   1.575   4.777
 6230TIP3    H118654   5.296   1.598   4.684
 6230TIP3    H218655   5.334   1.647   4.822
 6231TIP3   OH218656   0.198   4.239   4.741
 6231TIP3    H118657   0.291   4.239   4.763
 6231TIP3    H218658   0.180   4.329   4.713
 6232TIP3   OH218659   1.315   2.697   2.034
 6232TIP3    H118660   1.254   2.634   1.997
 6232TIP3    H218661   1.265   2.778   2.041
 6233TIP3   OH218662   2.486   3.436   4.502
 6233TIP3    H118663   2.513   3.505   4.443
 6233TIP3    H218664   2.567   3.403   4.539
 6234TIP3   OH218665   6.668   3.479   2.650
 6234TIP3    H118666   6.700   3.489   2.740
 6234TIP3    H218667   6.616   3.399   2.652
 6235TIP3   OH218668   5.164   4.708   3.656
 6235TIP3    H118669   5.176   4.781   3.596
 6235TIP3    H218670   5.232   4.645   3.631
 6236TIP3   OH218671   4.756   4.922   2.262
 6236TIP3    H118672   4.756   4.828   2.242
 6236TIP3    H218673   4.678   4.935   2.316
 6237TIP3   OH218674   3.337   1.351   3.095
 6237TIP3    H118675   3.288   1.377   3.173
 6237TIP3    H218676   3.276   1.364   3.022
 6238TIP3   OH218677   4.118   4.588   0.947
 6238TIP3    H118678   4.152   4.652   1.010
 6238TIP3    H218679   4.187   4.581   0.881
 6239TIP3   OH218680   5.972   2.374   0.726
 6239TIP3    H118681   5.965   2.305   0.792
 6239TIP3    H218682   5.898   2.359   0.667
 6240TIP3   OH218683   1.029   0.128   0.521
 6240TIP3    H118684   1.102   0.084   0.477
 6240TIP3    H218685   1.066   0.160   0.603
 6241TIP3   OH218686   2.007   6.407   2.954
 6241TIP3    H118687   2.076   6.455   3.000
 6241TIP3    H218688   1.944   6.384   3.022
 6242TIP3   OH218689   3.631   6.332   1.580
 6242TIP3    H118690   3.638   6.376   1.665
 6242TIP3    H218691   3.677   6.390   1.519
 6243TIP3   OH218692   0.962   3.211   1.434
 6243TIP3    H118693   0.925   3.167   1.358
 6243TIP3    H218694   1.046   3.246   1.404
 6244TIP3   OH218695   2.871   2.984   5.403
 6244TIP3    H118696   2.923   2.904   5.390
 6244TIP3    H218697   2.782   2.952   5.415
 6245TIP3   OH218698   0.794   0.488   2.466
 6245TIP3    H118699   0.783   0.580   2.491
 6245TIP3    H218700   0.780   0.487   2.371
 6246TIP3   OH218701   5.989   3.808   4.367
 6246TIP3    H118702   5.988   3.831   4.274
 6246TIP3    H218703   5.899   3.821   4.396
 6247TIP3   OH218704   0.828   6.461   3.386
 6247TIP3    H118705   0.801   6.388   3.441
 6247TIP3    H218706   0.860   6.419   3.306
 6248TIP3   OH218707   1.095   0.580   4.394
 6248TIP3    H118708   1.052   0.662   4.367
 6248TIP3    H218709   1.090   0.524   4.317
 6249TIP3   OH218710   1.181   0.898   2.268
 6249TIP3    H118711   1.127   0.840   2.214
 6249TIP3    H218712   1.220   0.840   2.333
 6250TIP3   OH218713   6.110   6.012   1.195
 6250TIP3    H118714   6.174   5.956   1.153
 6250TIP3    H218715   6.067   5.956   1.259
 6251TIP3   OH218716   0.681   2.994   0.457
 6251TIP3    H118717   0.738   2.918   0.468
 6251TIP3    H218718   0.631   2.976   0.377
 6252TIP3   OH218719   0.788   3.345   2.421
 6252TIP3    H118720   0.753   3.274   2.474
 6252TIP3    H218721   0.849   3.303   2.361
 6253TIP3   OH218722   3.747   6.433   1.859
 6253TIP3    H118723   3.797   6.351   1.852
 6253TIP3    H218724   3.777   6.471   1.942
 6254TIP3   OH218725   1.609   2.210   1.304
 6254TIP3    H118726   1.538   2.237   1.363
 6254TIP3    H218727   1.650   2.136   1.349
 6255TIP3   OH218728   1.212   3.297   2.989
 6255TIP3    H118729   1.180   3.373   2.942
 6255TIP3    H218730   1.147   3.229   2.973
 6256TIP3   OH218731   0.783   5.203   0.262
 6256TIP3    H118732   0.715   5.254   0.218
 6256TIP3    H218733   0.756   5.112   0.251
 6257TIP3   OH218734   0.741   5.915   2.882
 6257TIP3    H118735   0.706   5.947   2.798
 6257TIP3    H218736   0.809   5.852   2.857
 6258TIP3   OH218737   4.835   3.378   1.833
 6258TIP3    H118738   4.799   3.444   1.893
 6258TIP3    H218739   4.928   3.401   1.827
 6259TIP3   OH218740   0.122   0.088   4.337
 6259TIP3    H118741   0.206   0.118   4.369
 6259TIP3    H218742   0.059   0.152   4.370
 6260TIP3   OH218743   1.186   1.753   4.385
 6260TIP3    H118744   1.124   1.707   4.441
 6260TIP3    H218745   1.134   1.820   4.341
 6261TIP3   OH218746   1.582   3.556   2.504
 6261TIP3    H118747   1.583   3.651   2.488
 6261TIP3    H218748   1.503   3.541   2.556
 6262TIP3   OH218749   6.840   4.299   0.627
 6262TIP3    H118750   6.783   4.223   0.614
 6262TIP3    H218751   6.785   4.374   0.604
 6263TIP3   OH218752   4.363   6.186   3.439
 6263TIP3    H118753   4.342   6.094   3.456
 6263TIP3    H218754   4.444   6.183   3.389
 6264TIP3   OH218755   4.423   5.658   3.032
 6264TIP3    H118756   4.468   5.700   3.105
 6264TIP3    H218757   4.358   5.602   3.074
 6265TIP3   OH218758   4.210   5.329   1.622
 6265TIP3    H118759   4.209   5.376   1.539
 6265TIP3    H218760   4.119   5.328   1.651
 6266TIP3   OH218761   2.372   6.185   4.729
 6266TIP3    H118762   2.392   6.265   4.777
 6266TIP3    H218763   2.277   6.174   4.738
 6267TIP3   OH218764   6.946   0.197   1.209
 6267TIP3    H118765   6.975   0.178   1.299
 6267TIP3    H218766   7.001   0.270   1.181
 6268TIP3   OH218767   2.614   0.929   3.311
 6268TIP3    H118768   2.604   0.843   3.352
 6268TIP3    H218769   2.701   0.925   3.269
 6269TIP3   OH218770   1.351   3.762   0.244
 6269TIP3    H118771   1.401   3.684   0.269
 6269TIP3    H218772   1.387   3.831   0.299
 6270TIP3   OH218773   1.411   1.059   0.485
 6270TIP3    H118774   1.428   1.071   0.391
 6270TIP3    H218775   1.334   1.002   0.488
 6271TIP3   OH218776   2.439   6.463   4.756
 6271TIP3    H118777   2.365   6.523   4.754
 6271TIP3    H218778   2.515   6.518   4.741
 6272TIP3   OH218779   0.522   5.793   1.655
 6272TIP3    H118780   0.458   5.754   1.715
 6272TIP3    H218781   0.527   5.885   1.683
 6273TIP3   OH218782   0.827   6.246   0.138
 6273TIP3    H118783   0.769   6.305   0.186
 6273TIP3    H218784   0.786   6.160   0.146
 6274TIP3   OH218785   0.567   3.669   3.636
 6274TIP3    H118786   0.627   3.734   3.599
 6274TIP3    H218787   0.574   3.681   3.730
 6275TIP3   OH218788   1.926   1.159   4.909
 6275TIP3    H118789   1.877   1.167   4.991
 6275TIP3    H218790   1.938   1.064   4.898
 6276TIP3   OH218791   2.783   2.786   1.121
 6276TIP3    H118792   2.770   2.881   1.123
 6276TIP3    H218793   2.878   2.774   1.123
 6277TIP3   OH218794   1.886   2.161   2.684
 6277TIP3    H118795   1.977   2.141   2.664
 6277TIP3    H218796   1.842   2.076   2.684
 6278TIP3   OH218797   2.879   4.902   4.211
 6278TIP3    H118798   2.784   4.908   4.201
 6278TIP3    H218799   2.899   4.811   4.191
 6279TIP3   OH218800   4.910   5.468   1.958
 6279TIP3    H118801   4.880   5.377   1.966
 6279TIP3    H218802   5.003   5.460   1.936
 6280TIP3   OH218803   2.230   2.393   5.004
 6280TIP3    H118804   2.186   2.378   5.088
 6280TIP3    H218805   2.173   2.351   4.939
 6281TIP3   OH218806   2.683   5.271   0.652
 6281TIP3    H118807   2.722   5.353   0.624
 6281TIP3    H218808   2.750   5.230   0.708
 6282TIP3   OH218809   2.049   2.319   3.301
 6282TIP3    H118810   1.991   2.316   3.377
 6282TIP3    H218811   1.991   2.340   3.227
 6283TIP3   OH218812   1.911   5.065   2.794
 6283TIP3    H118813   1.960   5.119   2.732
 6283TIP3    H218814   1.978   5.010   2.835
 6284TIP3   OH218815   6.241   0.904   5.325
 6284TIP3    H118816   6.297   0.854   5.384
 6284TIP3    H218817   6.160   0.853   5.320
 6285TIP3   OH218818   3.178   0.747   0.789
 6285TIP3    H118819   3.246   0.687   0.759
 6285TIP3    H218820   3.191   0.826   0.736
 6286TIP3   OH218821   6.143   1.608   2.248
 6286TIP3    H118822   6.179   1.671   2.310
 6286TIP3    H218823   6.148   1.652   2.163
 6287TIP3   OH218824   0.062   5.387   5.151
 6287TIP3    H118825   0.058   5.294   5.129
 6287TIP3    H218826   0.062   5.432   5.067
 6288TIP3   OH218827   0.869   0.661   0.565
 6288TIP3    H118828   0.893   0.692   0.478
 6288TIP3    H218829   0.947   0.616   0.597
 6289TIP3   OH218830   0.085   5.272   1.569
 6289TIP3    H118831   0.088   5.319   1.485
 6289TIP3    H218832   0.176   5.246   1.584
 6290TIP3   OH218833   1.892   5.502   5.851
 6290TIP3    H118834   1.934   5.569   5.797
 6290TIP3    H218835   1.935   5.508   5.936
 6291TIP3   OH218836   4.881   6.131   0.718
 6291TIP3    H118837   4.843   6.214   0.747
 6291TIP3    H218838   4.813   6.066   0.738
 6292TIP3   OH218839   3.075   3.251   1.078
 6292TIP3    H118840   3.002   3.311   1.060
 6292TIP3    H218841   3.133   3.260   1.002
 6293TIP3   OH218842   3.642   3.154   3.171
 6293TIP3    H118843   3.568   3.187   3.221
 6293TIP3    H218844   3.716   3.159   3.232
 6294TIP3   OH218845   2.668   1.178   1.395
 6294TIP3    H118846   2.681   1.088   1.368
 6294TIP3    H218847   2.707   1.183   1.483
 6295TIP3   OH218848   3.035   2.412   1.896
 6295TIP3    H118849   3.086   2.454   1.966
 6295TIP3    H218850   3.034   2.476   1.825
 6296TIP3   OH218851   0.278   6.027   0.527
 6296TIP3    H118852   0.236   6.071   0.601
 6296TIP3    H218853   0.221   6.045   0.452
 6297TIP3   OH218854   4.275   0.945   3.373
 6297TIP3    H118855   4.252   0.910   3.287
 6297TIP3    H218856   4.343   1.009   3.354
 6298TIP3   OH218857   0.372   3.654   3.322
 6298TIP3    H118858   0.392   3.744   3.298
 6298TIP3    H218859   0.369   3.654   3.417
 6299TIP3   OH218860   3.376   3.538   1.472
 6299TIP3    H118861   3.454   3.591   1.455
 6299TIP3    H218862   3.307   3.579   1.419
 6300TIP3   OH218863   4.575   1.706   4.874
 6300TIP3    H118864   4.561   1.640   4.806
 6300TIP3    H218865   4.490   1.748   4.884
 6301TIP3   OH218866   0.460   4.765   0.850
 6301TIP3    H118867   0.483   4.838   0.908
 6301TIP3    H218868   0.435   4.694   0.910
 6302TIP3   OH218869   2.248   5.074   2.253
 6302TIP3    H118870   2.332   5.084   2.298
 6302TIP3    H218871   2.184   5.067   2.324
 6303TIP3   OH218872   4.070   1.075   2.993
 6303TIP3    H118873   4.154   1.055   3.034
 6303TIP3    H218874   4.076   1.168   2.970
 6304TIP3   OH218875   1.829   3.852   1.830
 6304TIP3    H118876   1.883   3.837   1.752
 6304TIP3    H218877   1.746   3.810   1.810
 6305TIP3   OH218878   5.759   2.685   0.128
 6305TIP3    H118879   5.762   2.644   0.041
 6305TIP3    H218880   5.833   2.647   0.175
 6306TIP3   OH218881   1.020   5.752   1.956
 6306TIP3    H118882   0.999   5.811   1.884
 6306TIP3    H218883   1.095   5.701   1.924
 6307TIP3   OH218884   2.098   6.284   4.724
 6307TIP3    H118885   2.118   6.349   4.657
 6307TIP3    H218886   2.012   6.250   4.700
 6308TIP3   OH218887   3.460   4.048   2.171
 6308TIP3    H118888   3.432   3.958   2.183
 6308TIP3    H218889   3.538   4.042   2.116
 6309TIP3   OH218890   5.966   5.784   3.610
 6309TIP3    H118891   5.989   5.740   3.529
 6309TIP3    H218892   5.982   5.877   3.593
 6310TIP3   OH218893   2.082   2.328   5.556
 6310TIP3    H118894   2.173   2.324   5.584
 6310TIP3    H218895   2.032   2.335   5.637
 6311TIP3   OH218896   5.126   5.365   3.459
 6311TIP3    H118897   5.163   5.279   3.437
 6311TIP3    H218898   5.048   5.373   3.405
 6312TIP3   OH218899   6.535   2.356   3.649
 6312TIP3    H118900   6.537   2.281   3.708
 6312TIP3    H218901   6.581   2.425   3.697
 6313TIP3   OH218902   2.909   6.154   5.423
 6313TIP3    H118903   2.997   6.149   5.384
 6313TIP3    H218904   2.869   6.070   5.403
 6314TIP3   OH218905   1.219   3.073   0.740
 6314TIP3    H118906   1.131   3.038   0.726
 6314TIP3    H218907   1.250   3.096   0.653
 6315TIP3   OH218908   5.448   0.598   5.647
 6315TIP3    H118909   5.440   0.593   5.742
 6315TIP3    H218910   5.420   0.687   5.625
 6316TIP3   OH218911   1.256   3.486   5.618
 6316TIP3    H118912   1.305   3.501   5.698
 6316TIP3    H218913   1.266   3.392   5.600
 6317TIP3   OH218914   1.694   2.982   2.695
 6317TIP3    H118915   1.685   2.893   2.660
 6317TIP3    H218916   1.775   2.980   2.745
 6318TIP3   OH218917   4.335   6.464   3.588
 6318TIP3    H118918   4.316   6.381   3.543
 6318TIP3    H218919   4.430   6.463   3.601
 6319TIP3   OH218920   7.002   6.486   4.060
 6319TIP3    H118921   6.916   6.523   4.040
 6319TIP3    H218922   7.036   6.540   4.131
 6320TIP3   OH218923   4.791   3.623   1.007
 6320TIP3    H118924   4.769   3.565   0.934
 6320TIP3    H218925   4.886   3.613   1.018
 6321TIP3   OH218926   5.470   4.348   2.154
 6321TIP3    H118927   5.420   4.307   2.084
 6321TIP3    H218928   5.560   4.320   2.140
 6322TIP3   OH218929   1.386   1.445   3.326
 6322TIP3    H118930   1.309   1.464   3.272
 6322TIP3    H218931   1.396   1.522   3.382
 6323TIP3   OH218932   4.887   6.524   0.052
 6323TIP3    H118933   4.980   6.509   0.067
 6323TIP3    H218934   4.882   6.610   0.011
 6324TIP3   OH218935   3.506   2.783   3.057
 6324TIP3    H118936   3.412   2.768   3.062
 6324TIP3    H218937   3.540   2.752   3.141
 6325TIP3   OH218938   3.815   3.697   0.323
 6325TIP3    H118939   3.830   3.733   0.235
 6325TIP3    H218940   3.768   3.615   0.307
 6326TIP3   OH218941   0.184   2.912   5.832
 6326TIP3    H118942   0.264   2.961   5.853
 6326TIP3    H218943   0.146   2.959   5.758
 6327TIP3   OH218944   6.902   4.472   3.151
 6327TIP3    H118945   6.809   4.454   3.167
 6327TIP3    H218946   6.920   4.425   3.069
 6328TIP3   OH218947   6.968   3.543   2.086
 6328TIP3    H118948   6.917   3.588   2.153
 6328TIP3    H218949   7.057   3.537   2.122
 6329TIP3   OH218950   3.348   1.360   5.510
 6329TIP3    H118951   3.432   1.316   5.496
 6329TIP3    H218952   3.368   1.453   5.501
 6330TIP3   OH218953   3.335   1.613   2.904
 6330TIP3    H118954   3.252   1.565   2.902
 6330TIP3    H218955   3.380   1.587   2.824
 6331TIP3   OH218956   1.518   1.745   1.896
 6331TIP3    H118957   1.473   1.661   1.882
 6331TIP3    H218958   1.448   1.810   1.894
 6332TIP3   OH218959   0.790   1.378   0.036
 6332TIP3    H118960   0.786   1.336   0.122
 6332TIP3    H218961   0.701   1.374   0.003
 6333TIP3   OH218962   0.869   5.741   0.081
 6333TIP3    H118963   0.877   5.725  -0.013
 6333TIP3    H218964   0.797   5.804   0.089
 6334TIP3   OH218965   1.859   6.378   0.511
 6334TIP3    H118966   1.798   6.355   0.581
 6334TIP3    H218967   1.910   6.451   0.547
 6335TIP3   OH218968   0.868   0.959   0.415
 6335TIP3    H118969   0.844   0.872   0.383
 6335TIP3    H218970   0.833   0.962   0.504
 6336TIP3   OH218971   4.356   4.318   4.779
 6336TIP3    H118972   4.381   4.276   4.697
 6336TIP3    H218973   4.376   4.411   4.766
 6337TIP3   OH218974   5.720   0.316   0.710
 6337TIP3    H118975   5.704   0.335   0.803
 6337TIP3    H218976   5.756   0.227   0.710
 6338TIP3   OH218977   3.732   5.016   0.988
 6338TIP3    H118978   3.666   4.968   1.037
 6338TIP3    H218979   3.804   4.955   0.977
 6339TIP3   OH218980   6.193   2.635   0.496
 6339TIP3    H118981   6.211   2.555   0.546
 6339TIP3    H218982   6.257   2.698   0.528
 6340TIP3   OH218983   7.209   4.013   5.692
 6340TIP3    H118984   7.281   4.066   5.659
 6340TIP3    H218985   7.137   4.074   5.705
 6341TIP3   OH218986   2.910   2.557   5.167
 6341TIP3    H118987   2.940   2.486   5.111
 6341TIP3    H218988   2.965   2.631   5.143
 6342TIP3   OH218989   4.117   4.754   2.344
 6342TIP3    H118990   4.209   4.760   2.317
 6342TIP3    H218991   4.069   4.742   2.262
 6343TIP3   OH218992   0.780   6.132   1.691
 6343TIP3    H118993   0.758   6.225   1.696
 6343TIP3    H218994   0.840   6.126   1.616
 6344TIP3   OH218995   2.102   6.741   3.571
 6344TIP3    H118996   2.020   6.694   3.583
 6344TIP3    H218997   2.077   6.834   3.567
 6345TIP3   OH218998   1.787   5.329   1.328
 6345TIP3    H118999   1.849   5.303   1.259
 6345TIP3    H219000   1.841   5.375   1.392
 6346TIP3   OH219001   0.723   0.948   3.800
 6346TIP3    H119002   0.632   0.918   3.795
 6346TIP3    H219003   0.774   0.867   3.799
 6347TIP3   OH219004   0.512   1.754   5.530
 6347TIP3    H119005   0.427   1.733   5.569
 6347TIP3    H219006   0.492   1.818   5.462
 6348TIP3   OH219007   1.997   3.755   4.905
 6348TIP3    H119008   2.027   3.796   4.824
 6348TIP3    H219009   1.901   3.754   4.897
 6349TIP3   OH219010   0.823   0.200   0.890
 6349TIP3    H119011   0.803   0.112   0.919
 6349TIP3    H219012   0.902   0.225   0.939
 6350TIP3   OH219013   5.672   1.800   3.002
 6350TIP3    H119014   5.729   1.738   3.048
 6350TIP3    H219015   5.731   1.861   2.960
 6351TIP3   OH219016   0.289   4.663   2.483
 6351TIP3    H119017   0.291   4.693   2.392
 6351TIP3    H219018   0.285   4.744   2.534
 6352TIP3   OH219019   2.197   3.040   2.626
 6352TIP3    H119020   2.127   3.097   2.594
 6352TIP3    H219021   2.225   2.991   2.549
 6353TIP3   OH219022   3.105   5.385   1.943
 6353TIP3    H119023   3.194   5.388   1.908
 6353TIP3    H219024   3.075   5.476   1.939
 6354TIP3   OH219025   4.716   5.936   0.224
 6354TIP3    H119026   4.693   5.925   0.132
 6354TIP3    H219027   4.768   6.016   0.228
 6355TIP3   OH219028   3.953   4.917   1.896
 6355TIP3    H119029   4.006   4.893   1.819
 6355TIP3    H219030   3.874   4.957   1.859
 6356TIP3   OH219031   5.000   2.035   2.601
 6356TIP3    H119032   4.960   2.100   2.659
 6356TIP3    H219033   5.002   1.954   2.653
 6357TIP3   OH219034   4.240   1.505   4.108
 6357TIP3    H119035   4.297   1.486   4.034
 6357TIP3    H219036   4.156   1.527   4.068
 6358TIP3   OH219037   3.122   5.694   2.039
 6358TIP3    H119038   3.039   5.710   1.993
 6358TIP3    H219039   3.096   5.646   2.117
 6359TIP3   OH219040   4.404   4.771   2.974
 6359TIP3    H119041   4.350   4.850   2.983
 6359TIP3    H219042   4.418   4.742   3.064
 6360TIP3   OH219043   6.529   2.964   3.437
 6360TIP3    H119044   6.596   3.023   3.402
 6360TIP3    H219045   6.573   2.879   3.441
 6361TIP3   OH219046   4.008   1.248   5.521
 6361TIP3    H119047   3.979   1.221   5.434
 6361TIP3    H219048   4.063   1.325   5.505
 6362TIP3   OH219049   1.049   2.406   2.505
 6362TIP3    H119050   1.010   2.333   2.458
 6362TIP3    H219051   1.143   2.393   2.498
 6363TIP3   OH219052   3.440   2.311   5.151
 6363TIP3    H119053   3.440   2.327   5.056
 6363TIP3    H219054   3.352   2.281   5.170
 6364TIP3   OH219055   6.384   0.166   2.898
 6364TIP3    H119056   6.412   0.082   2.860
 6364TIP3    H219057   6.292   0.153   2.919
 6365TIP3   OH219058   2.570   2.728   5.776
 6365TIP3    H119059   2.484   2.740   5.817
 6365TIP3    H219060   2.628   2.707   5.849
 6366TIP3   OH219061   1.132   0.170   2.593
 6366TIP3    H119062   1.163   0.257   2.616
 6366TIP3    H219063   1.062   0.186   2.529
 6367TIP3   OH219064   4.402   5.569   0.336
 6367TIP3    H119065   4.361   5.610   0.260
 6367TIP3    H219066   4.434   5.643   0.388
 6368TIP3   OH219067   2.085   4.257   2.370
 6368TIP3    H119068   2.166   4.209   2.388
 6368TIP3    H219069   2.111   4.349   2.369
 6369TIP3   OH219070   4.594   0.059   3.164
 6369TIP3    H119071   4.510   0.026   3.133
 6369TIP3    H219072   4.655   0.040   3.092
 6370TIP3   OH219073   2.785   5.295   4.829
 6370TIP3    H119074   2.727   5.227   4.793
 6370TIP3    H219075   2.726   5.367   4.851
 6371TIP3   OH219076   0.617   2.573   0.241
 6371TIP3    H119077   0.682   2.613   0.184
 6371TIP3    H219078   0.657   2.492   0.271
 6372TIP3   OH219079   6.764   4.749   5.234
 6372TIP3    H119080   6.721   4.820   5.187
 6372TIP3    H219081   6.761   4.776   5.326
 6373TIP3   OH219082   0.802   0.763   2.504
 6373TIP3    H119083   0.718   0.793   2.539
 6373TIP3    H219084   0.802   0.792   2.413
 6374TIP3   OH219085   3.793   0.928   4.722
 6374TIP3    H119086   3.811   1.019   4.700
 6374TIP3    H219087   3.877   0.884   4.714
 6375TIP3   OH219088   0.651   6.160   3.040
 6375TIP3    H119089   0.649   6.106   3.119
 6375TIP3    H219090   0.712   6.114   2.982
 6376TIP3   OH219091   4.203   3.457   2.980
 6376TIP3    H119092   4.134   3.484   3.042
 6376TIP3    H219093   4.184   3.366   2.961
 6377TIP3   OH219094   2.706   3.151   3.481
 6377TIP3    H119095   2.705   3.173   3.574
 6377TIP3    H219096   2.618   3.117   3.463
 6378TIP3   OH219097   3.943   2.334   3.177
 6378TIP3    H119098   3.970   2.377   3.095
 6378TIP3    H219099   3.847   2.342   3.177
 6379TIP3   OH219100   3.259   4.154   4.964
 6379TIP3    H119101   3.327   4.105   5.011
 6379TIP3    H219102   3.262   4.120   4.875
 6380TIP3   OH219103   4.272   6.021   0.679
 6380TIP3    H119104   4.357   6.058   0.655
 6380TIP3    H219105   4.219   6.097   0.704
 6381TIP3   OH219106   1.184   1.680   1.766
 6381TIP3    H119107   1.136   1.708   1.688
 6381TIP3    H219108   1.202   1.761   1.813
 6382TIP3   OH219109   6.817   1.645   0.043
 6382TIP3    H119110   6.881   1.576   0.028
 6382TIP3    H219111   6.857   1.702   0.109
 6383TIP3   OH219112   2.617   3.904   1.856
 6383TIP3    H119113   2.538   3.850   1.864
 6383TIP3    H219114   2.624   3.949   1.940
 6384TIP3   OH219115   3.232   6.729   0.237
 6384TIP3    H119116   3.281   6.652   0.207
 6384TIP3    H219117   3.149   6.724   0.189
 6385TIP3   OH219118   2.947   1.141   2.509
 6385TIP3    H119119   3.002   1.148   2.431
 6385TIP3    H219120   2.934   1.047   2.521
 6386TIP3   OH219121   5.306   2.261   5.149
 6386TIP3    H119122   5.346   2.257   5.236
 6386TIP3    H219123   5.240   2.192   5.150
 6387TIP3   OH219124   6.536   2.392   5.269
 6387TIP3    H119125   6.549   2.487   5.262
 6387TIP3    H219126   6.540   2.360   5.179
 6388TIP3   OH219127   1.538   2.627   4.929
 6388TIP3    H119128   1.585   2.683   4.990
 6388TIP3    H219129   1.489   2.687   4.872
 6389TIP3   OH219130   6.679   0.331   0.163
 6389TIP3    H119131   6.699   0.362   0.075
 6389TIP3    H219132   6.758   0.286   0.191
 6390TIP3   OH219133   0.463   6.032   5.831
 6390TIP3    H119134   0.496   5.951   5.792
 6390TIP3    H219135   0.405   6.002   5.901
 6391TIP3   OH219136   0.074   3.255   5.118
 6391TIP3    H119137   0.079   3.191   5.047
 6391TIP3    H219138   0.115   3.211   5.193
 6392TIP3   OH219139   2.595   3.628   4.316
 6392TIP3    H119140   2.585   3.541   4.277
 6392TIP3    H219141   2.583   3.688   4.243
 6393TIP3   OH219142   2.074   0.164   1.493
 6393TIP3    H119143   2.011   0.235   1.509
 6393TIP3    H219144   2.115   0.150   1.578
 6394TIP3   OH219145   0.965   6.612   4.413
 6394TIP3    H119146   0.933   6.702   4.401
 6394TIP3    H219147   1.026   6.618   4.487
 6395TIP3   OH219148   6.222   5.785   4.993
 6395TIP3    H119149   6.174   5.703   5.000
 6395TIP3    H219150   6.245   5.807   5.083
 6396TIP3   OH219151   1.490   2.661   5.379
 6396TIP3    H119152   1.473   2.738   5.433
 6396TIP3    H219153   1.425   2.597   5.408
 6397TIP3   OH219154   1.517   2.199   4.371
 6397TIP3    H119155   1.563   2.118   4.393
 6397TIP3    H219156   1.580   2.248   4.317
 6398TIP3   OH219157   3.647   4.618   0.021
 6398TIP3    H119158   3.718   4.593  -0.038
 6398TIP3    H219159   3.602   4.536   0.042
 6399TIP3   OH219160   6.300   5.570   0.874
 6399TIP3    H119161   6.236   5.640   0.887
 6399TIP3    H219162   6.273   5.528   0.793
 6400TIP3   OH219163   1.416   2.630   0.962
 6400TIP3    H119164   1.456   2.640   1.049
 6400TIP3    H219165   1.380   2.716   0.942
 6401TIP3   OH219166   3.755   4.516   4.914
 6401TIP3    H119167   3.709   4.441   4.876
 6401TIP3    H219168   3.742   4.587   4.851
 6402TIP3   OH219169   2.046   0.495   0.461
 6402TIP3    H119170   1.964   0.500   0.412
 6402TIP3    H219171   2.104   0.443   0.405
 6403TIP3   OH219172   7.106   6.119   3.022
 6403TIP3    H119173   7.089   6.158   3.107
 6403TIP3    H219174   7.160   6.183   2.976
 6404TIP3   OH219175   0.993   0.873   1.197
 6404TIP3    H119176   0.912   0.841   1.236
 6404TIP3    H219177   1.019   0.947   1.252
 6405TIP3   OH219178   0.033   4.257   0.500
 6405TIP3    H119179  -0.035   4.194   0.478
 6405TIP3    H219180   0.074   4.222   0.579
 6406TIP3   OH219181   6.712   3.161   3.180
 6406TIP3    H119182   6.621   3.174   3.204
 6406TIP3    H219183   6.755   3.134   3.262
 6407TIP3   OH219184   0.520   5.025   3.329
 6407TIP3    H119185   0.577   5.075   3.269
 6407TIP3    H219186   0.521   5.076   3.410
 6408TIP3   OH219187   3.995   0.050   5.021
 6408TIP3    H119188   4.085   0.026   4.997
 6408TIP3    H219189   4.003   0.138   5.058
 6409TIP3   OH219190   5.653   3.847   5.775
 6409TIP3    H119191   5.689   3.759   5.763
 6409TIP3    H219192   5.589   3.858   5.705
 6410TIP3   OH219193   0.241   2.494   2.176
 6410TIP3    H119194   0.215   2.466   2.089
 6410TIP3    H219195   0.231   2.417   2.231
 6411TIP3   OH219196   4.697   5.432   5.390
 6411TIP3    H119197   4.777   5.471   5.354
 6411TIP3    H219198   4.671   5.367   5.325
 6412TIP3   OH219199   3.979   2.711   2.274
 6412TIP3    H119200   4.058   2.677   2.231
 6412TIP3    H219201   3.990   2.687   2.366
 6413TIP3   OH219202   0.701   1.346   4.821
 6413TIP3    H119203   0.616   1.306   4.804
 6413TIP3    H219204   0.751   1.280   4.869
 6414TIP3   OH219205   2.508   3.074   5.188
 6414TIP3    H119206   2.453   3.051   5.263
 6414TIP3    H219207   2.477   3.017   5.118
 6415TIP3   OH219208   4.802   0.542   3.374
 6415TIP3    H119209   4.743   0.481   3.328
 6415TIP3    H219210   4.813   0.615   3.313
 6416TIP3   OH219211   6.578   2.842   1.366
 6416TIP3    H119212   6.505   2.805   1.315
 6416TIP3    H219213   6.637   2.878   1.300
 6417TIP3   OH219214   3.582   4.630   3.222
 6417TIP3    H119215   3.516   4.576   3.179
 6417TIP3    H219216   3.543   4.655   3.306
 6418TIP3   OH219217   4.753   1.779   2.164
 6418TIP3    H119218   4.661   1.756   2.174
 6418TIP3    H219219   4.769   1.773   2.069
 6419TIP3   OH219220   0.176   2.231   1.656
 6419TIP3    H119221   0.265   2.200   1.641
 6419TIP3    H219222   0.120   2.160   1.624
 6420TIP3   OH219223   1.204   0.482   3.895
 6420TIP3    H119224   1.254   0.553   3.935
 6420TIP3    H219225   1.136   0.527   3.844
 6421TIP3   OH219226   5.631   3.569   5.919
 6421TIP3    H119227   5.569   3.642   5.914
 6421TIP3    H219228   5.636   3.535   5.830
 6422TIP3   OH219229   6.166   2.032   2.292
 6422TIP3    H119230   6.075   2.001   2.298
 6422TIP3    H219231   6.178   2.087   2.369
 6423TIP3   OH219232   3.132   6.817   0.485
 6423TIP3    H119233   3.096   6.733   0.513
 6423TIP3    H219234   3.175   6.798   0.402
 6424TIP3   OH219235   6.383   2.609   1.809
 6424TIP3    H119236   6.302   2.607   1.859
 6424TIP3    H219237   6.418   2.697   1.822
 6425TIP3   OH219238   5.543   1.861   3.927
 6425TIP3    H119239   5.495   1.905   3.997
 6425TIP3    H219240   5.581   1.783   3.969
 6426TIP3   OH219241   3.180   2.773   5.666
 6426TIP3    H119242   3.136   2.723   5.734
 6426TIP3    H219243   3.161   2.865   5.686
 6427TIP3   OH219244   6.281   3.244   4.671
 6427TIP3    H119245   6.225   3.166   4.674
 6427TIP3    H219246   6.278   3.273   4.580
 6428TIP3   OH219247   3.861   4.714   3.221
 6428TIP3    H119248   3.835   4.798   3.261
 6428TIP3    H219249   3.784   4.658   3.234
 6429TIP3   OH219250   6.957   6.503   1.381
 6429TIP3    H119251   6.902   6.446   1.328
 6429TIP3    H219252   6.908   6.516   1.462
 6430TIP3   OH219253   1.682   5.890   1.874
 6430TIP3    H119254   1.650   5.890   1.964
 6430TIP3    H219255   1.760   5.946   1.876
 6431TIP3   OH219256   0.421   5.972   1.224
 6431TIP3    H119257   0.507   6.004   1.249
 6431TIP3    H219258   0.396   5.912   1.294
 6432TIP3   OH219259   3.178   6.713   1.810
 6432TIP3    H119260   3.187   6.629   1.766
 6432TIP3    H219261   3.195   6.778   1.742
 6433TIP3   OH219262   4.117   6.393   5.564
 6433TIP3    H119263   4.071   6.477   5.563
 6433TIP3    H219264   4.049   6.328   5.578
 6434TIP3   OH219265   6.435   5.798   1.593
 6434TIP3    H119266   6.458   5.844   1.512
 6434TIP3    H219267   6.442   5.864   1.661
 6435TIP3   OH219268   6.289   3.269   5.562
 6435TIP3    H119269   6.273   3.175   5.572
 6435TIP3    H219270   6.336   3.277   5.480
 6436TIP3   OH219271   7.027   4.496   3.765
 6436TIP3    H119272   7.041   4.402   3.772
 6436TIP3    H219273   7.096   4.535   3.819
 6437TIP3   OH219274   5.167   2.183   1.932
 6437TIP3    H119275   5.181   2.090   1.918
 6437TIP3    H219276   5.224   2.206   2.005
 6438TIP3   OH219277   1.915   3.025   2.025
 6438TIP3    H119278   1.896   2.973   1.947
 6438TIP3    H219279   1.850   3.095   2.024
 6439TIP3   OH219280   5.700   2.317   1.383
 6439TIP3    H119281   5.640   2.277   1.446
 6439TIP3    H219282   5.648   2.326   1.303
 6440TIP3   OH219283   6.990   5.765   3.064
 6440TIP3    H119284   7.054   5.815   3.013
 6440TIP3    H219285   7.034   5.748   3.147
 6441TIP3   OH219286   5.050   0.195   0.494
 6441TIP3    H119287   4.958   0.180   0.514
 6441TIP3    H219288   5.090   0.108   0.500
 6442TIP3   OH219289   1.993   3.531   3.203
 6442TIP3    H119290   2.019   3.531   3.295
 6442TIP3    H219291   1.898   3.547   3.205
 6443TIP3   OH219292   5.949   4.645   1.758
 6443TIP3    H119293   5.876   4.665   1.700
 6443TIP3    H219294   5.914   4.657   1.846
 6444TIP3   OH219295   6.805   0.186   0.389
 6444TIP3    H119296   6.881   0.140   0.427
 6444TIP3    H219297   6.810   0.274   0.425
 6445TIP3   OH219298   4.744   4.884   3.244
 6445TIP3    H119299   4.657   4.851   3.266
 6445TIP3    H219300   4.800   4.807   3.242
 6446TIP3   OH219301   5.371   2.014   4.110
 6446TIP3    H119302   5.449   2.041   4.159
 6446TIP3    H219303   5.350   2.090   4.055
 6447TIP3   OH219304   3.843   3.928   1.248
 6447TIP3    H119305   3.888   4.005   1.211
 6447TIP3    H219306   3.751   3.954   1.252
 6448TIP3   OH219307   5.990   6.125   2.628
 6448TIP3    H119308   6.008   6.065   2.700
 6448TIP3    H219309   5.947   6.072   2.561
 6449TIP3   OH219310   4.393   6.529   4.300
 6449TIP3    H119311   4.331   6.592   4.337
 6449TIP3    H219312   4.342   6.482   4.234
 6450TIP3   OH219313   2.497   1.578   5.755
 6450TIP3    H119314   2.510   1.499   5.704
 6450TIP3    H219315   2.524   1.649   5.698
 6451TIP3   OH219316   5.822   5.316   2.470
 6451TIP3    H119317   5.844   5.225   2.493
 6451TIP3    H219318   5.744   5.309   2.415
 6452TIP3   OH219319   3.065   2.850   0.758
 6452TIP3    H119320   3.018   2.775   0.722
 6452TIP3    H219321   3.003   2.923   0.751
 6453TIP3   OH219322   1.331   5.756   2.110
 6453TIP3    H119323   1.316   5.763   2.016
 6453TIP3    H219324   1.284   5.830   2.148
 6454TIP3   OH219325   3.936   6.620   5.196
 6454TIP3    H119326   3.956   6.530   5.220
 6454TIP3    H219327   3.957   6.672   5.274
 6455TIP3   OH219328   5.330   1.885   5.289
 6455TIP3    H119329   5.341   1.790   5.297
 6455TIP3    H219330   5.239   1.900   5.315
 6456TIP3   OH219331   2.232   2.416   1.912
 6456TIP3    H119332   2.211   2.323   1.911
 6456TIP3    H219333   2.262   2.434   2.001
 6457TIP3   OH219334   6.085   6.617   0.041
 6457TIP3    H119335   6.116   6.528   0.059
 6457TIP3    H219336   5.992   6.615   0.064
 6458TIP3   OH219337   3.916   2.591   0.999
 6458TIP3    H119338   3.901   2.504   1.036
 6458TIP3    H219339   3.973   2.576   0.924
 6459TIP3   OH219340   1.340   0.835   3.599
 6459TIP3    H119341   1.309   0.751   3.563
 6459TIP3    H219342   1.435   0.831   3.590
 6460TIP3   OH219343   4.881   0.572   1.155
 6460TIP3    H119344   4.922   0.556   1.070
 6460TIP3    H219345   4.947   0.617   1.207
 6461TIP3   OH219346   6.879   2.116   0.950
 6461TIP3    H119347   6.942   2.056   0.909
 6461TIP3    H219348   6.928   2.158   1.021
 6462TIP3   OH219349   1.835   3.377   4.178
 6462TIP3    H119350   1.866   3.289   4.200
 6462TIP3    H219351   1.741   3.374   4.193
 6463TIP3   OH219352   2.672   3.185   1.358
 6463TIP3    H119353   2.604   3.248   1.379
 6463TIP3    H219354   2.706   3.157   1.443
 6464TIP3   OH219355   6.748   2.676   0.190
 6464TIP3    H119356   6.768   2.693   0.282
 6464TIP3    H219357   6.656   2.651   0.190
 6465TIP3   OH219358   3.062   2.480   2.882
 6465TIP3    H119359   2.974   2.505   2.908
 6465TIP3    H219360   3.090   2.417   2.949
 6466TIP3   OH219361   3.455   2.931   1.468
 6466TIP3    H119362   3.445   2.838   1.448
 6466TIP3    H219363   3.365   2.964   1.473
 6467TIP3   OH219364   6.759   0.268   3.897
 6467TIP3    H119365   6.836   0.286   3.951
 6467TIP3    H219366   6.790   0.205   3.832
 6468TIP3   OH219367   1.154   2.763   4.233
 6468TIP3    H119368   1.168   2.846   4.279
 6468TIP3    H219369   1.218   2.703   4.271
 6469TIP3   OH219370   3.535   5.872   1.812
 6469TIP3    H119371   3.483   5.797   1.841
 6469TIP3    H219372   3.512   5.882   1.720
 6470TIP3   OH219373   0.218   2.911   1.401
 6470TIP3    H119374   0.230   2.944   1.490
 6470TIP3    H219375   0.306   2.888   1.372
 6471TIP3   OH219376   1.606   1.398   5.232
 6471TIP3    H119377   1.607   1.367   5.322
 6471TIP3    H219378   1.523   1.444   5.222
 6472TIP3   OH219379   4.218   1.819   5.846
 6472TIP3    H119380   4.146   1.798   5.787
 6472TIP3    H219381   4.296   1.818   5.791
 6473TIP3   OH219382   3.638   1.471   5.429
 6473TIP3    H119383   3.692   1.550   5.428
 6473TIP3    H219384   3.650   1.433   5.342
 6474TIP3   OH219385   6.215   4.354   0.965
 6474TIP3    H119386   6.213   4.390   1.054
 6474TIP3    H219387   6.191   4.262   0.977
 6475TIP3   OH219388   5.390   3.570   4.196
 6475TIP3    H119389   5.392   3.654   4.241
 6475TIP3    H219390   5.302   3.536   4.212
 6476TIP3   OH219391   5.555   3.621   5.007
 6476TIP3    H119392   5.586   3.711   5.023
 6476TIP3    H219393   5.605   3.568   5.069
 6477TIP3   OH219394   1.649   6.679   5.367
 6477TIP3    H119395   1.669   6.638   5.283
 6477TIP3    H219396   1.699   6.760   5.366
 6478TIP3   OH219397   5.763   0.038   5.024
 6478TIP3    H119398   5.841   0.070   5.070
 6478TIP3    H219399   5.706   0.115   5.016
 6479TIP3   OH219400   6.072   3.153   5.876
 6479TIP3    H119401   6.116   3.234   5.849
 6479TIP3    H219402   6.008   3.180   5.941
 6480TIP3   OH219403   5.329   6.598   0.418
 6480TIP3    H119404   5.358   6.551   0.339
 6480TIP3    H219405   5.237   6.618   0.401
 6481TIP3   OH219406   1.181   2.589   3.371
 6481TIP3    H119407   1.189   2.539   3.290
 6481TIP3    H219408   1.196   2.525   3.441
 6482TIP3   OH219409   5.407   1.313   5.449
 6482TIP3    H119410   5.443   1.304   5.537
 6482TIP3    H219411   5.366   1.228   5.431
 6483TIP3   OH219412   0.239   1.663   4.059
 6483TIP3    H119413   0.274   1.731   4.001
 6483TIP3    H219414   0.266   1.581   4.019
 6484TIP3   OH219415   1.725   4.172   5.557
 6484TIP3    H119416   1.776   4.103   5.514
 6484TIP3    H219417   1.763   4.254   5.526
 6485TIP3   OH219418   4.078   2.861   1.964
 6485TIP3    H119419   4.093   2.782   1.914
 6485TIP3    H219420   4.129   2.929   1.919
 6486TIP3   OH219421   6.704   5.510   3.235
 6486TIP3    H119422   6.712   5.426   3.281
 6486TIP3    H219423   6.678   5.572   3.303
 6487TIP3   OH219424   0.058   1.610   5.565
 6487TIP3    H119425   0.018   1.528   5.536
 6487TIP3    H219426  -0.012   1.655   5.614
 6488TIP3   OH219427   3.538   2.336   5.707
 6488TIP3    H119428   3.553   2.242   5.718
 6488TIP3    H219429   3.478   2.341   5.632
 6489TIP3   OH219430   1.571   6.640   0.304
 6489TIP3    H119431   1.589   6.681   0.219
 6489TIP3    H219432   1.550   6.549   0.283
 6490TIP3   OH219433   0.755   4.061   0.973
 6490TIP3    H119434   0.812   4.047   0.898
 6490TIP3    H219435   0.756   3.978   1.020
 6491TIP3   OH219436   2.847   2.186   3.101
 6491TIP3    H119437   2.779   2.133   3.144
 6491TIP3    H219438   2.821   2.187   3.009
 6492TIP3   OH219439   5.075   2.953   4.076
 6492TIP3    H119440   5.005   3.015   4.055
 6492TIP3    H219441   5.150   3.008   4.098
 6493TIP3   OH219442   1.834   4.208   1.248
 6493TIP3    H119443   1.782   4.213   1.167
 6493TIP3    H219444   1.773   4.172   1.313
 6494TIP3   OH219445   0.640   5.110   1.532
 6494TIP3    H119446   0.603   5.043   1.589
 6494TIP3    H219447   0.688   5.168   1.590
 6495TIP3   OH219448   4.578   0.562   0.572
 6495TIP3    H119449   4.505   0.554   0.510
 6495TIP3    H219450   4.583   0.656   0.591
 6496TIP3   OH219451   1.396   4.008   5.565
 6496TIP3    H119452   1.466   4.012   5.501
 6496TIP3    H219453   1.315   4.010   5.513
 6497TIP3   OH219454   6.170   1.813   5.822
 6497TIP3    H119455   6.088   1.786   5.782
 6497TIP3    H219456   6.238   1.780   5.762
 6498TIP3   OH219457   2.339   3.325   3.465
 6498TIP3    H119458   2.318   3.351   3.376
 6498TIP3    H219459   2.399   3.393   3.496
 6499TIP3   OH219460   1.062   4.904   5.710
 6499TIP3    H119461   0.994   4.880   5.647
 6499TIP3    H219462   1.058   4.836   5.777
 6500TIP3   OH219463   0.681   4.744   4.821
 6500TIP3    H119464   0.771   4.728   4.791
 6500TIP3    H219465   0.650   4.658   4.850
 6501TIP3   OH219466   1.544   4.108   3.010
 6501TIP3    H119467   1.574   4.178   3.068
 6501TIP3    H219468   1.482   4.150   2.951
 6502TIP3   OH219469   3.030   0.544   4.369
 6502TIP3    H119470   2.984   0.627   4.382
 6502TIP3    H219471   3.059   0.520   4.457
 6503TIP3   OH219472   1.125   5.589   5.831
 6503TIP3    H119473   1.199   5.538   5.798
 6503TIP3    H219474   1.112   5.559   5.921
 6504TIP3   OH219475   2.958   2.448   1.444
 6504TIP3    H119476   3.045   2.418   1.415
 6504TIP3    H219477   2.897   2.388   1.403
 6505TIP3   OH219478   0.855   6.211   3.530
 6505TIP3    H119479   0.853   6.254   3.616
 6505TIP3    H219480   0.927   6.148   3.536
 6506TIP3   OH219481   1.390   2.538   2.546
 6506TIP3    H119482   1.479   2.508   2.565
 6506TIP3    H219483   1.388   2.546   2.451
 6507TIP3   OH219484   3.189   5.027   0.155
 6507TIP3    H119485   3.168   4.977   0.235
 6507TIP3    H219486   3.148   5.113   0.170
 6508TIP3   OH219487   3.253   0.988   1.203
 6508TIP3    H119488   3.251   0.903   1.161
 6508TIP3    H219489   3.268   0.969   1.296
 6509TIP3   OH219490   6.131   3.370   1.385
 6509TIP3    H119491   6.185   3.447   1.406
 6509TIP3    H219492   6.158   3.304   1.449
 6510TIP3   OH219493   1.196   0.070   3.577
 6510TIP3    H119494   1.190   0.049   3.670
 6510TIP3    H219495   1.138   0.006   3.535
 6511TIP3   OH219496   3.010   2.183   1.748
 6511TIP3    H119497   2.945   2.192   1.678
 6511TIP3    H219498   3.005   2.266   1.796
 6512TIP3   OH219499   2.407   3.231   2.536
 6512TIP3    H119500   2.349   3.183   2.595
 6512TIP3    H219501   2.352   3.256   2.462
 6513TIP3   OH219502   3.051   5.403   4.608
 6513TIP3    H119503   3.094   5.326   4.572
 6513TIP3    H219504   2.957   5.386   4.598
 6514TIP3   OH219505   6.588   6.184   3.986
 6514TIP3    H119506   6.612   6.092   3.993
 6514TIP3    H219507   6.649   6.220   3.922
 6515TIP3   OH219508   4.939   6.068   1.276
 6515TIP3    H119509   4.897   5.982   1.289
 6515TIP3    H219510   5.009   6.051   1.213
 6516TIP3   OH219511   7.117   6.205   4.349
 6516TIP3    H119512   7.141   6.132   4.406
 6516TIP3    H219513   7.034   6.179   4.311
 6517TIP3   OH219514   0.048   0.018   1.197
 6517TIP3    H119515   0.031   0.069   1.277
 6517TIP3    H219516   0.106  -0.052   1.225
 6518TIP3   OH219517   3.708   6.164   1.124
 6518TIP3    H119518   3.711   6.121   1.210
 6518TIP3    H219519   3.621   6.206   1.121
 6519TIP3   OH219520   4.552   2.958   1.582
 6519TIP3    H119521   4.576   2.979   1.491
 6519TIP3    H219522   4.537   3.043   1.623
 6520TIP3   OH219523   1.976   0.608   3.870
 6520TIP3    H119524   1.985   0.679   3.934
 6520TIP3    H219525   2.031   0.538   3.903
 6521TIP3   OH219526   3.550   3.941   4.115
 6521TIP3    H119527   3.623   3.923   4.056
 6521TIP3    H219528   3.477   3.891   4.079
 6522TIP3   OH219529   4.888   2.019   0.249
 6522TIP3    H119530   4.837   1.955   0.199
 6522TIP3    H219531   4.823   2.082   0.280
 6523TIP3   OH219532   6.807   0.466   5.838
 6523TIP3    H119533   6.862   0.543   5.850
 6523TIP3    H219534   6.803   0.425   5.924
 6524TIP3   OH219535   0.150   6.497   5.428
 6524TIP3    H119536   0.183   6.461   5.510
 6524TIP3    H219537   0.228   6.513   5.375
 6525TIP3   OH219538   0.196   4.975   1.478
 6525TIP3    H119539   0.243   4.962   1.396
 6525TIP3    H219540   0.229   5.058   1.512
 6526TIP3   OH219541   0.304   5.769   1.813
 6526TIP3    H119542   0.222   5.819   1.807
 6526TIP3    H219543   0.277   5.683   1.844
 6527TIP3   OH219544   4.234   3.567   0.096
 6527TIP3    H119545   4.252   3.480   0.132
 6527TIP3    H219546   4.263   3.628   0.164
 6528TIP3   OH219547   1.152   5.909   0.586
 6528TIP3    H119548   1.108   5.824   0.593
 6528TIP3    H219549   1.205   5.915   0.665
 6529TIP3   OH219550   3.644   2.242   4.489
 6529TIP3    H119551   3.623   2.323   4.537
 6529TIP3    H219552   3.599   2.173   4.538
 6530TIP3   OH219553   1.421   0.344   3.791
 6530TIP3    H119554   1.342   0.383   3.828
 6530TIP3    H219555   1.391   0.296   3.714
 6531TIP3   OH219556   6.436   4.912   2.250
 6531TIP3    H119557   6.470   4.852   2.316
 6531TIP3    H219558   6.458   4.870   2.166
 6532TIP3   OH219559   6.174   2.236   3.087
 6532TIP3    H119560   6.200   2.163   3.031
 6532TIP3    H219561   6.151   2.196   3.171
 6533TIP3   OH219562   1.071   4.514   5.641
 6533TIP3    H119563   1.098   4.561   5.720
 6533TIP3    H219564   1.154   4.484   5.602
 6534TIP3   OH219565   2.641   3.137   5.615
 6534TIP3    H119566   2.715   3.174   5.567
 6534TIP3    H219567   2.608   3.209   5.669
 6535TIP3   OH219568   5.195   2.756   4.908
 6535TIP3    H119569   5.208   2.749   4.813
 6535TIP3    H219570   5.227   2.672   4.942
 6536TIP3   OH219571   2.283   0.537   1.387
 6536TIP3    H119572   2.217   0.513   1.322
 6536TIP3    H219573   2.342   0.596   1.341
 6537TIP3   OH219574   1.705   3.727   3.803
 6537TIP3    H119575   1.650   3.805   3.814
 6537TIP3    H219576   1.719   3.721   3.708
 6538TIP3   OH219577   4.939   1.156   4.851
 6538TIP3    H119578   4.921   1.172   4.943
 6538TIP3    H219579   5.035   1.150   4.846
 6539TIP3   OH219580   0.380   3.316   5.773
 6539TIP3    H119581   0.386   3.320   5.678
 6539TIP3    H219582   0.287   3.304   5.791
 6540TIP3   OH219583   4.918   4.355   0.571
 6540TIP3    H119584   4.846   4.418   0.583
 6540TIP3    H219585   4.918   4.338   0.477
 6541TIP3   OH219586   4.115   6.329   0.027
 6541TIP3    H119587   4.154   6.368   0.105
 6541TIP3    H219588   4.046   6.390   0.001
 6542TIP3   OH219589   6.867   5.842   0.925
 6542TIP3    H119590   6.866   5.808   1.014
 6542TIP3    H219591   6.865   5.937   0.935
 6543TIP3   OH219592   1.932   0.734   1.830
 6543TIP3    H119593   2.011   0.714   1.880
 6543TIP3    H219594   1.963   0.753   1.742
 6544TIP3   OH219595   5.446   3.917   3.945
 6544TIP3    H119596   5.412   3.985   4.003
 6544TIP3    H219597   5.522   3.958   3.903
 6545TIP3   OH219598   2.071   6.112   4.317
 6545TIP3    H119599   2.016   6.164   4.258
 6545TIP3    H219600   2.153   6.160   4.323
 6546TIP3   OH219601   1.295   6.406   2.588
 6546TIP3    H119602   1.296   6.430   2.681
 6546TIP3    H219603   1.319   6.313   2.588
 6547TIP3   OH219604   6.732   2.491   2.545
 6547TIP3    H119605   6.807   2.432   2.546
 6547TIP3    H219606   6.656   2.432   2.539
 6548TIP3   OH219607   0.634   6.763   5.682
 6548TIP3    H119608   0.635   6.676   5.724
 6548TIP3    H219609   0.546   6.772   5.646
 6549TIP3   OH219610   3.116   6.121   3.796
 6549TIP3    H119611   3.052   6.126   3.726
 6549TIP3    H219612   3.200   6.115   3.752
 6550TIP3   OH219613   2.803   2.373   0.112
 6550TIP3    H119614   2.723   2.372   0.165
 6550TIP3    H219615   2.836   2.283   0.118
 6551TIP3   OH219616   5.535   1.139   5.208
 6551TIP3    H119617   5.537   1.045   5.226
 6551TIP3    H219618   5.615   1.157   5.158
 6552TIP3   OH219619   3.647   5.177   4.772
 6552TIP3    H119620   3.617   5.181   4.862
 6552TIP3    H219621   3.712   5.247   4.765
 6553TIP3   OH219622   2.212   0.873   1.862
 6553TIP3    H119623   2.179   0.866   1.952
 6553TIP3    H219624   2.262   0.954   1.861
 6554TIP3   OH219625   5.595   3.652   0.288
 6554TIP3    H119626   5.580   3.639   0.382
 6554TIP3    H219627   5.509   3.637   0.248
 6555TIP3   OH219628   7.156   3.317   2.566
 6555TIP3    H119629   7.111   3.268   2.497
 6555TIP3    H219630   7.179   3.400   2.524
 6556TIP3   OH219631   1.146   5.774   3.071
 6556TIP3    H119632   1.131   5.803   2.981
 6556TIP3    H219633   1.179   5.685   3.062
 6557TIP3   OH219634   2.922   2.789   5.828
 6557TIP3    H119635   2.902   2.880   5.803
 6557TIP3    H219636   2.868   2.775   5.906
 6558TIP3   OH219637   6.193   5.705   4.308
 6558TIP3    H119638   6.099   5.722   4.301
 6558TIP3    H219639   6.219   5.751   4.388
 6559TIP3   OH219640   5.214   4.095   5.322
 6559TIP3    H119641   5.287   4.109   5.262
 6559TIP3    H219642   5.137   4.086   5.266
 6560TIP3   OH219643   0.586   0.626   0.604
 6560TIP3    H119644   0.631   0.550   0.567
 6560TIP3    H219645   0.655   0.677   0.647
 6561TIP3   OH219646   1.571   6.214   2.442
 6561TIP3    H119647   1.582   6.306   2.421
 6561TIP3    H219648   1.612   6.168   2.368
 6562TIP3   OH219649   5.723   4.915   3.950
 6562TIP3    H119650   5.689   4.945   3.865
 6562TIP3    H219651   5.738   4.996   3.999
 6563TIP3   OH219652   3.210   4.901   2.107
 6563TIP3    H119653   3.282   4.928   2.164
 6563TIP3    H219654   3.180   4.818   2.144
 6564TIP3   OH219655   5.321   4.825   4.371
 6564TIP3    H119656   5.268   4.903   4.350
 6564TIP3    H219657   5.405   4.841   4.328
 6565TIP3   OH219658   4.042   4.059   2.048
 6565TIP3    H119659   4.070   4.091   2.134
 6565TIP3    H219660   4.111   4.087   1.988
 6566TIP3   OH219661   3.919   4.370   5.195
 6566TIP3    H119662   3.923   4.463   5.216
 6566TIP3    H219663   3.979   4.360   5.120
 6567TIP3   OH219664   1.377   6.190   3.446
 6567TIP3    H119665   1.426   6.167   3.367
 6567TIP3    H219666   1.296   6.228   3.414
 6568TIP3   OH219667   5.106   0.629   3.016
 6568TIP3    H119668   5.071   0.600   2.931
 6568TIP3    H219669   5.192   0.588   3.022
 6569TIP3   OH219670   6.177   6.579   2.267
 6569TIP3    H119671   6.180   6.578   2.172
 6569TIP3    H219672   6.157   6.489   2.292
 6570TIP3   OH219673   2.432   0.296   0.671
 6570TIP3    H119674   2.403   0.317   0.582
 6570TIP3    H219675   2.362   0.329   0.727
 6571TIP3   OH219676   1.474   3.517   4.654
 6571TIP3    H119677   1.508   3.516   4.564
 6571TIP3    H219678   1.491   3.429   4.687
 6572TIP3   OH219679   3.372   4.218   4.410
 6572TIP3    H119680   3.298   4.235   4.352
 6572TIP3    H219681   3.393   4.302   4.449
 6573TIP3   OH219682   5.492   2.616   0.733
 6573TIP3    H119683   5.417   2.581   0.782
 6573TIP3    H219684   5.557   2.637   0.800
 6574TIP3   OH219685   0.202   3.225   0.648
 6574TIP3    H119686   0.125   3.248   0.701
 6574TIP3    H219687   0.263   3.296   0.664
 6575TIP3   OH219688   0.918   4.604   4.725
 6575TIP3    H119689   0.866   4.524   4.715
 6575TIP3    H219690   0.952   4.622   4.637
 6576TIP3   OH219691   5.067   0.734   5.232
 6576TIP3    H119692   4.993   0.768   5.282
 6576TIP3    H219693   5.039   0.739   5.141
 6577TIP3   OH219694   2.571   1.065   5.636
 6577TIP3    H119695   2.485   1.096   5.666
 6577TIP3    H219696   2.632   1.103   5.700
 6578TIP3   OH219697   5.371   1.740   2.237
 6578TIP3    H119698   5.373   1.832   2.212
 6578TIP3    H219699   5.335   1.739   2.325
 6579TIP3   OH219700   4.089   5.580   0.292
 6579TIP3    H119701   4.089   5.651   0.228
 6579TIP3    H219702   4.129   5.506   0.246
 6580TIP3   OH219703   2.357   1.695   1.772
 6580TIP3    H119704   2.262   1.687   1.769
 6580TIP3    H219705   2.389   1.620   1.722
 6581TIP3   OH219706   6.973   0.668   3.350
 6581TIP3    H119707   6.959   0.737   3.414
 6581TIP3    H219708   6.890   0.620   3.347
 6582TIP3   OH219709   2.618   6.347   1.520
 6582TIP3    H119710   2.676   6.279   1.487
 6582TIP3    H219711   2.617   6.414   1.452
 6583TIP3   OH219712   2.349   4.407   3.777
 6583TIP3    H119713   2.292   4.342   3.817
 6583TIP3    H219714   2.291   4.460   3.722
 6584TIP3   OH219715   3.976   6.770   4.407
 6584TIP3    H119716   4.057   6.721   4.397
 6584TIP3    H219717   4.004   6.859   4.429
 6585TIP3   OH219718   6.413   5.118   3.857
 6585TIP3    H119719   6.444   5.206   3.835
 6585TIP3    H219720   6.493   5.066   3.862
 6586TIP3   OH219721   6.287   1.737   3.082
 6586TIP3    H119722   6.250   1.650   3.070
 6586TIP3    H219723   6.368   1.722   3.130
 6587TIP3   OH219724   1.814   4.351   2.092
 6587TIP3    H119725   1.895   4.308   2.117
 6587TIP3    H219726   1.751   4.279   2.081
 6588TIP3   OH219727   2.746   5.077   1.468
 6588TIP3    H119728   2.775   5.169   1.470
 6588TIP3    H219729   2.817   5.029   1.512
 6589TIP3   OH219730   0.845   2.083   3.779
 6589TIP3    H119731   0.921   2.038   3.817
 6589TIP3    H219732   0.811   2.020   3.715
 6590TIP3   OH219733   3.416   6.384   4.313
 6590TIP3    H119734   3.449   6.299   4.344
 6590TIP3    H219735   3.423   6.442   4.389
 6591TIP3   OH219736   6.877   5.806   3.890
 6591TIP3    H119737   6.935   5.750   3.840
 6591TIP3    H219738   6.910   5.895   3.875
 6592TIP3   OH219739   5.611   1.781   2.489
 6592TIP3    H119740   5.643   1.856   2.539
 6592TIP3    H219741   5.615   1.811   2.398
 6593TIP3   OH219742   5.038   6.048   1.541
 6593TIP3    H119743   4.995   6.124   1.500
 6593TIP3    H219744   4.969   6.005   1.591
 6594TIP3   OH219745   4.127   6.505   2.663
 6594TIP3    H119746   4.204   6.451   2.682
 6594TIP3    H219747   4.122   6.566   2.736
 6595TIP3   OH219748   4.212   5.817   1.150
 6595TIP3    H119749   4.228   5.857   1.235
 6595TIP3    H219750   4.119   5.832   1.133
 6596TIP3   OH219751   1.454   3.610   0.798
 6596TIP3    H119752   1.483   3.630   0.709
 6596TIP3    H219753   1.503   3.669   0.854
 6597TIP3   OH219754   4.748   6.429   4.096
 6597TIP3    H119755   4.758   6.417   4.190
 6597TIP3    H219756   4.677   6.492   4.087
 6598TIP3   OH219757   4.791   2.357   1.921
 6598TIP3    H119758   4.790   2.270   1.962
 6598TIP3    H219759   4.749   2.344   1.836
 6599TIP3   OH219760   1.314   0.090  -0.005
 6599TIP3    H119761   1.357   0.095   0.080
 6599TIP3    H219762   1.297  -0.004  -0.017
 6600TIP3   OH219763   7.083   3.309   1.176
 6600TIP3    H119764   7.135   3.288   1.098
 6600TIP3    H219765   7.038   3.227   1.198
 6601TIP3   OH219766   4.723   1.123   2.094
 6601TIP3    H119767   4.768   1.148   2.175
 6601TIP3    H219768   4.792   1.089   2.038
 6602TIP3   OH219769   6.659   5.935   4.713
 6602TIP3    H119770   6.607   5.882   4.653
 6602TIP3    H219771   6.691   6.008   4.660
 6603TIP3   OH219772   4.644   4.431   4.889
 6603TIP3    H119773   4.585   4.489   4.841
 6603TIP3    H219774   4.588   4.389   4.955
 6604TIP3   OH219775   2.817   3.542   5.051
 6604TIP3    H119776   2.791   3.516   5.139
 6604TIP3    H219777   2.910   3.520   5.047
 6605TIP3   OH219778   2.302   1.567   1.455
 6605TIP3    H119779   2.228   1.616   1.492
 6605TIP3    H219780   2.272   1.476   1.454
 6606TIP3   OH219781   6.931   5.487   0.077
 6606TIP3    H119782   6.967   5.511   0.163
 6606TIP3    H219783   6.853   5.435   0.098
 6607TIP3   OH219784   0.606   5.733   3.114
 6607TIP3    H119785   0.610   5.821   3.076
 6607TIP3    H219786   0.696   5.700   3.107
 6608TIP3   OH219787   1.907   2.427   2.474
 6608TIP3    H119788   1.989   2.405   2.519
 6608TIP3    H219789   1.928   2.424   2.381
 6609TIP3   OH219790   6.832   6.638   1.571
 6609TIP3    H119791   6.914   6.685   1.583
 6609TIP3    H219792   6.776   6.668   1.643
 6610TIP3   OH219793   3.591   3.824   3.222
 6610TIP3    H119794   3.505   3.867   3.218
 6610TIP3    H219795   3.605   3.792   3.132
 6611TIP3   OH219796   5.223   4.526   4.887
 6611TIP3    H119797   5.142   4.541   4.839
 6611TIP3    H219798   5.226   4.594   4.954
 6612TIP3   OH219799   3.754   2.450   3.737
 6612TIP3    H119800   3.705   2.385   3.787
 6612TIP3    H219801   3.843   2.415   3.733
 6613TIP3   OH219802   5.671   1.459   1.279
 6613TIP3    H119803   5.658   1.449   1.373
 6613TIP3    H219804   5.608   1.527   1.253
 6614TIP3   OH219805   2.845   0.536   0.950
 6614TIP3    H119806   2.863   0.627   0.971
 6614TIP3    H219807   2.750   0.531   0.945
 6615TIP3   OH219808   1.710   0.339   0.138
 6615TIP3    H119809   1.659   0.268   0.175
 6615TIP3    H219810   1.800   0.306   0.137
 6616TIP3   OH219811   4.764   4.717   4.651
 6616TIP3    H119812   4.727   4.649   4.595
 6616TIP3    H219813   4.701   4.727   4.722
 6617TIP3   OH219814   1.050   3.471   1.696
 6617TIP3    H119815   1.112   3.477   1.769
 6617TIP3    H219816   1.024   3.378   1.695
 6618TIP3   OH219817   4.602   3.751   4.464
 6618TIP3    H119818   4.670   3.784   4.522
 6618TIP3    H219819   4.648   3.724   4.385
 6619TIP3   OH219820   0.930   1.619   1.469
 6619TIP3    H119821   0.934   1.526   1.446
 6619TIP3    H219822   0.883   1.622   1.552
 6620TIP3   OH219823   4.603   1.754   3.838
 6620TIP3    H119824   4.680   1.802   3.809
 6620TIP3    H219825   4.609   1.753   3.933
 6621TIP3   OH219826   4.059   4.107   3.803
 6621TIP3    H119827   3.973   4.117   3.763
 6621TIP3    H219828   4.083   4.196   3.829
 6622TIP3   OH219829   1.779   3.799   0.468
 6622TIP3    H119830   1.692   3.764   0.448
 6622TIP3    H219831   1.838   3.751   0.410
 6623TIP3   OH219832   2.999   3.475   1.722
 6623TIP3    H119833   3.091   3.494   1.703
 6623TIP3    H219834   2.970   3.548   1.776
 6624TIP3   OH219835   1.269   6.307   4.877
 6624TIP3    H119836   1.295   6.279   4.965
 6624TIP3    H219837   1.210   6.381   4.891
 6625TIP3   OH219838   0.894   1.326   1.406
 6625TIP3    H119839   0.970   1.356   1.356
 6625TIP3    H219840   0.835   1.289   1.340
 6626TIP3   OH219841   4.957   2.608   5.212
 6626TIP3    H119842   5.032   2.573   5.164
 6626TIP3    H219843   4.987   2.612   5.303
 6627TIP3   OH219844   3.246   1.549   0.469
 6627TIP3    H119845   3.331   1.574   0.505
 6627TIP3    H219846   3.219   1.473   0.521
 6628TIP3   OH219847   2.878   3.981   1.101
 6628TIP3    H119848   2.942   4.014   1.164
 6628TIP3    H219849   2.840   3.904   1.144
 6629TIP3   OH219850   1.167   3.380   1.338
 6629TIP3    H119851   1.260   3.386   1.357
 6629TIP3    H219852   1.161   3.327   1.259
 6630TIP3   OH219853   6.473   2.339   4.207
 6630TIP3    H119854   6.387   2.370   4.236
 6630TIP3    H219855   6.481   2.251   4.243
 6631TIP3   OH219856   3.633   6.774   5.318
 6631TIP3    H119857   3.674   6.730   5.392
 6631TIP3    H219858   3.546   6.799   5.350
 6632TIP3   OH219859   2.822   6.098   1.696
 6632TIP3    H119860   2.902   6.048   1.715
 6632TIP3    H219861   2.813   6.095   1.601
 6633TIP3   OH219862   2.651   3.068   0.840
 6633TIP3    H119863   2.683   3.022   0.762
 6633TIP3    H219864   2.704   3.032   0.911
 6634TIP3   OH219865   1.967   4.565   2.380
 6634TIP3    H119866   1.873   4.573   2.395
 6634TIP3    H219867   2.006   4.626   2.442
 6635TIP3   OH219868   5.158   4.393   1.512
 6635TIP3    H119869   5.126   4.392   1.422
 6635TIP3    H219870   5.220   4.466   1.515
 6636TIP3   OH219871   3.422   4.940   1.499
 6636TIP3    H119872   3.370   4.989   1.435
 6636TIP3    H219873   3.512   4.949   1.468
 6637TIP3   OH219874   2.334   5.308   3.152
 6637TIP3    H119875   2.293   5.344   3.074
 6637TIP3    H219876   2.409   5.365   3.169
 6638TIP3   OH219877   0.769   5.766   3.392
 6638TIP3    H119878   0.712   5.705   3.438
 6638TIP3    H219879   0.781   5.839   3.453
 6639TIP3   OH219880   5.235   4.626   3.382
 6639TIP3    H119881   5.188   4.581   3.311
 6639TIP3    H219882   5.292   4.558   3.420
 6640TIP3   OH219883   6.002   2.719   3.018
 6640TIP3    H119884   6.055   2.641   2.998
 6640TIP3    H219885   6.054   2.792   2.984
 6641TIP3   OH219886   5.875   1.560   5.567
 6641TIP3    H119887   5.822   1.503   5.622
 6641TIP3    H219888   5.953   1.508   5.547
 6642TIP3   OH219889   6.887   3.470   4.669
 6642TIP3    H119890   6.953   3.537   4.687
 6642TIP3    H219891   6.808   3.502   4.712
 6643TIP3   OH219892   1.162   4.590   1.206
 6643TIP3    H119893   1.152   4.669   1.153
 6643TIP3    H219894   1.100   4.528   1.167
 6644TIP3   OH219895   2.193   4.675   1.057
 6644TIP3    H119896   2.202   4.660   1.151
 6644TIP3    H219897   2.099   4.680   1.042
 6645TIP3   OH219898   1.386   6.699   0.496
 6645TIP3    H119899   1.442   6.695   0.418
 6645TIP3    H219900   1.298   6.679   0.464
 6646TIP3   OH219901   6.403   5.280   5.184
 6646TIP3    H119902   6.483   5.269   5.236
 6646TIP3    H219903   6.392   5.375   5.178
 6647TIP3   OH219904   3.489   3.420   2.146
 6647TIP3    H119905   3.582   3.441   2.154
 6647TIP3    H219906   3.446   3.473   2.213
 6648TIP3   OH219907   3.719   0.430   0.859
 6648TIP3    H119908   3.736   0.416   0.952
 6648TIP3    H219909   3.806   0.442   0.820
 6649TIP3   OH219910   4.306   5.700   1.891
 6649TIP3    H119911   4.313   5.750   1.972
 6649TIP3    H219912   4.375   5.737   1.835
 6650TIP3   OH219913   3.769   5.591   1.215
 6650TIP3    H119914   3.726   5.568   1.297
 6650TIP3    H219915   3.823   5.515   1.193
 6651TIP3   OH219916   6.766   3.118   3.429
 6651TIP3    H119917   6.818   3.048   3.469
 6651TIP3    H219918   6.779   3.194   3.486
 6652TIP3   OH219919   6.789   1.374   2.229
 6652TIP3    H119920   6.728   1.347   2.161
 6652TIP3    H219921   6.851   1.432   2.185
 6653TIP3   OH219922   0.136   1.851   3.562
 6653TIP3    H119923   0.102   1.929   3.605
 6653TIP3    H219924   0.209   1.884   3.509
 6654TIP3   OH219925   3.593   0.987   4.897
 6654TIP3    H119926   3.542   0.907   4.882
 6654TIP3    H219927   3.669   0.978   4.839
 6655TIP3   OH219928   5.123   1.540   5.447
 6655TIP3    H119929   5.120   1.580   5.534
 6655TIP3    H219930   5.215   1.548   5.421
 6656TIP3   OH219931   2.303   1.358   4.130
 6656TIP3    H119932   2.364   1.324   4.196
 6656TIP3    H219933   2.346   1.339   4.047
 6657TIP3   OH219934   6.842   1.090   0.219
 6657TIP3    H119935   6.765   1.096   0.276
 6657TIP3    H219936   6.899   1.161   0.248
 6658TIP3   OH219937   5.404   5.271   1.261
 6658TIP3    H119938   5.486   5.319   1.275
 6658TIP3    H219939   5.337   5.339   1.254
 6659TIP3   OH219940   6.656   3.935   5.548
 6659TIP3    H119941   6.648   4.024   5.582
 6659TIP3    H219942   6.661   3.880   5.626
 6660TIP3   OH219943   3.249   5.806   1.532
 6660TIP3    H119944   3.160   5.842   1.538
 6660TIP3    H219945   3.236   5.711   1.530
 6661TIP3   OH219946   7.155   1.826   3.369
 6661TIP3    H119947   7.139   1.735   3.342
 6661TIP3    H219948   7.221   1.819   3.437
 6662TIP3   OH219949   0.343   0.273   4.345
 6662TIP3    H119950   0.253   0.303   4.360
 6662TIP3    H219951   0.347   0.259   4.250
 6663TIP3   OH219952   4.966   3.443   3.096
 6663TIP3    H119953   4.882   3.488   3.087
 6663TIP3    H219954   5.032   3.509   3.074
 6664TIP3   OH219955   7.012   0.001   0.746
 6664TIP3    H119956   7.056   0.062   0.806
 6664TIP3    H219957   7.065   0.005   0.666
 6665TIP3   OH219958   6.752   5.401   2.005
 6665TIP3    H119959   6.665   5.361   2.007
 6665TIP3    H219960   6.812   5.329   2.022
 6666TIP3   OH219961   2.936   1.906   2.472
 6666TIP3    H119962   2.980   1.849   2.535
 6666TIP3    H219963   2.984   1.989   2.477
 6667TIP3   OH219964   1.494   0.019   4.627
 6667TIP3    H119965   1.428   0.065   4.679
 6667TIP3    H219966   1.454   0.010   4.540
 6668TIP3   OH219967   0.439   3.467   2.727
 6668TIP3    H119968   0.366   3.408   2.744
 6668TIP3    H219969   0.516   3.410   2.724
 6669TIP3   OH219970   3.308   3.994   1.082
 6669TIP3    H119971   3.330   4.081   1.049
 6669TIP3    H219972   3.385   3.940   1.059
 6670TIP3   OH219973   0.239   3.179   1.937
 6670TIP3    H119974   0.152   3.146   1.959
 6670TIP3    H219975   0.299   3.111   1.965
 6671TIP3   OH219976   6.736   4.246   1.726
 6671TIP3    H119977   6.641   4.240   1.737
 6671TIP3    H219978   6.772   4.222   1.812
 6672TIP3   OH219979   6.546   2.768   4.256
 6672TIP3    H119980   6.540   2.769   4.351
 6672TIP3    H219981   6.602   2.692   4.237
 6673TIP3   OH219982   1.161   4.194   1.046
 6673TIP3    H119983   1.209   4.197   1.128
 6673TIP3    H219984   1.136   4.285   1.028
 6674TIP3   OH219985   6.349   3.013   2.712
 6674TIP3    H119986   6.267   2.965   2.715
 6674TIP3    H219987   6.410   2.960   2.764
 6675TIP3   OH219988   1.914   1.103   3.634
 6675TIP3    H119989   1.861   1.162   3.580
 6675TIP3    H219990   1.962   1.050   3.570
 6676TIP3   OH219991   2.896   1.783   0.200
 6676TIP3    H119992   2.807   1.814   0.217
 6676TIP3    H219993   2.925   1.832   0.124
 6677TIP3   OH219994   1.036   0.775   0.061
 6677TIP3    H119995   1.101   0.713   0.027
 6677TIP3    H219996   1.015   0.832  -0.013
 6678TIP3   OH219997   3.059   0.216   1.429
 6678TIP3    H119998   2.985   0.271   1.404
 6678TIP3    H219999   3.067   0.153   1.357
 6679TIP3   OH220000   5.715   2.482   2.418
 6679TIP3    H120001   5.801   2.503   2.381
 6679TIP3    H220002   5.729   2.484   2.513
 6680TIP3   OH220003   6.641   1.226   3.436
 6680TIP3    H120004   6.591   1.306   3.421
 6680TIP3    H220005   6.717   1.234   3.378
 6681TIP3   OH220006   1.652   4.325   3.153
 6681TIP3    H120007   1.747   4.318   3.157
 6681TIP3    H220008   1.635   4.375   3.074
 6682TIP3   OH220009   0.635   1.232   0.516
 6682TIP3    H120010   0.610   1.287   0.441
 6682TIP3    H220011   0.702   1.283   0.562
 6683TIP3   OH220012   7.107   5.428   4.673
 6683TIP3    H120013   7.179   5.377   4.710
 6683TIP3    H220014   7.028   5.388   4.711
 6684TIP3   OH220015   6.963   4.263   5.179
 6684TIP3    H120016   6.925   4.240   5.264
 6684TIP3    H220017   6.900   4.231   5.115
 6685TIP3   OH220018   2.510   4.266   0.983
 6685TIP3    H120019   2.591   4.246   0.937
 6685TIP3    H220020   2.490   4.356   0.960
 6686TIP3   OH220021   4.955   5.164   0.675
 6686TIP3    H120022   4.941   5.069   0.671
 6686TIP3    H220023   4.965   5.191   0.584
 6687TIP3   OH220024   5.229   1.221   1.702
 6687TIP3    H120025   5.240   1.312   1.732
 6687TIP3    H220026   5.317   1.185   1.701
 6688TIP3   OH220027   1.015   4.937   2.593
 6688TIP3    H120028   1.017   5.004   2.662
 6688TIP3    H220029   0.962   4.976   2.523
 6689TIP3   OH220030   6.021   2.201   0.947
 6689TIP3    H120031   6.108   2.241   0.940
 6689TIP3    H220032   6.024   2.129   0.883
 6690TIP3   OH220033   5.329   4.381   4.339
 6690TIP3    H120034   5.369   4.295   4.351
 6690TIP3    H220035   5.323   4.390   4.244
 6691TIP3   OH220036   2.558   1.128   3.478
 6691TIP3    H120037   2.581   1.066   3.408
 6691TIP3    H220038   2.539   1.072   3.554
 6692TIP3   OH220039   5.708   5.656   1.047
 6692TIP3    H120040   5.793   5.663   1.090
 6692TIP3    H220041   5.722   5.593   0.976
 6693TIP3   OH220042   0.106   1.413   1.913
 6693TIP3    H120043   0.063   1.334   1.878
 6693TIP3    H220044   0.138   1.386   1.999
 6694TIP3   OH220045   2.074   1.229   4.653
 6694TIP3    H120046   2.048   1.158   4.595
 6694TIP3    H220047   2.039   1.204   4.739
 6695TIP3   OH220048   3.339   1.700   3.392
 6695TIP3    H120049   3.314   1.736   3.307
 6695TIP3    H220050   3.431   1.675   3.382
 6696TIP3   OH220051   0.564   6.575   4.572
 6696TIP3    H120052   0.493   6.529   4.616
 6696TIP3    H220053   0.564   6.542   4.482
 6697TIP3   OH220054   5.340   1.347   0.446
 6697TIP3    H120055   5.313   1.256   0.445
 6697TIP3    H220056   5.259   1.397   0.438
 6698TIP3   OH220057   1.530   1.305   1.974
 6698TIP3    H120058   1.451   1.318   1.922
 6698TIP3    H220059   1.501   1.258   2.052
 6699TIP3   OH220060   0.223   4.422   5.864
 6699TIP3    H120061   0.144   4.472   5.843
 6699TIP3    H220062   0.213   4.400   5.957
 6700TIP3   OH220063   5.120   6.583   5.557
 6700TIP3    H120064   5.026   6.565   5.554
 6700TIP3    H220065   5.156   6.513   5.612
 6701TIP3   OH220066   3.980   2.412   1.786
 6701TIP3    H120067   3.932   2.380   1.863
 6701TIP3    H220068   3.988   2.506   1.802
 6702TIP3   OH220069   6.470   5.211   2.011
 6702TIP3    H120070   6.400   5.254   2.059
 6702TIP3    H220071   6.441   5.120   2.003
 6703TIP3   OH220072   5.064   4.494   2.636
 6703TIP3    H120073   5.029   4.430   2.574
 6703TIP3    H220074   5.016   4.478   2.717
 6704TIP3   OH220075   3.847   3.390   4.324
 6704TIP3    H120076   3.767   3.342   4.300
 6704TIP3    H220077   3.889   3.334   4.389
 6705TIP3   OH220078   0.747   1.400   2.055
 6705TIP3    H120079   0.689   1.337   2.014
 6705TIP3    H220080   0.777   1.456   1.984
 6706TIP3   OH220081   4.525   1.318   3.556
 6706TIP3    H120082   4.618   1.302   3.539
 6706TIP3    H220083   4.524   1.399   3.606
 6707TIP3   OH220084   4.858   6.072   3.115
 6707TIP3    H120085   4.800   6.092   3.041
 6707TIP3    H220086   4.946   6.077   3.078
 6708TIP3   OH220087   5.258   6.321   5.601
 6708TIP3    H120088   5.321   6.303   5.531
 6708TIP3    H220089   5.288   6.266   5.674
 6709TIP3   OH220090   1.474   5.019   4.845
 6709TIP3    H120091   1.472   4.924   4.848
 6709TIP3    H220092   1.382   5.045   4.851
 6710TIP3   OH220093   0.423   6.208   4.083
 6710TIP3    H120094   0.496   6.150   4.104
 6710TIP3    H220095   0.378   6.165   4.010
 6711TIP3   OH220096   4.525   2.968   3.102
 6711TIP3    H120097   4.573   2.922   3.171
 6711TIP3    H220098   4.443   2.994   3.144
 6712TIP3   OH220099   3.905   3.822   5.638
 6712TIP3    H120100   3.811   3.808   5.630
 6712TIP3    H220101   3.933   3.761   5.707
 6713TIP3   OH220102   6.974   6.298   3.251
 6713TIP3    H120103   6.973   6.212   3.294
 6713TIP3    H220104   6.959   6.360   3.322
 6714TIP3   OH220105   0.278   1.109   0.160
 6714TIP3    H120106   0.361   1.062   0.170
 6714TIP3    H220107   0.252   1.132   0.249
 6715TIP3   OH220108   0.129   6.110   4.962
 6715TIP3    H120109   0.166   6.039   5.015
 6715TIP3    H220110   0.036   6.112   4.986
 6716TIP3   OH220111   5.568   1.082   3.567
 6716TIP3    H120112   5.502   1.014   3.558
 6716TIP3    H220113   5.599   1.098   3.478
 6717TIP3   OH220114   0.569   2.338   2.484
 6717TIP3    H120115   0.551   2.244   2.480
 6717TIP3    H220116   0.658   2.345   2.517
 6718TIP3   OH220117   1.182   6.689   2.679
 6718TIP3    H120118   1.103   6.637   2.678
 6718TIP3    H220119   1.208   6.693   2.771
 6719TIP3   OH220120   2.203   3.875   0.897
 6719TIP3    H120121   2.177   3.789   0.931
 6719TIP3    H220122   2.142   3.936   0.938
 6720TIP3   OH220123   0.083   6.230   5.827
 6720TIP3    H120124   0.116   6.142   5.810
 6720TIP3    H220125   0.096   6.243   5.921
 6721TIP3   OH220126   6.912   4.842   5.767
 6721TIP3    H120127   6.906   4.804   5.679
 6721TIP3    H220128   6.982   4.906   5.762
 6722TIP3   OH220129   2.283   6.595   3.448
 6722TIP3    H120130   2.347   6.649   3.402
 6722TIP3    H220131   2.223   6.657   3.488
 6723TIP3   OH220132   6.079   3.878   0.296
 6723TIP3    H120133   5.986   3.902   0.290
 6723TIP3    H220134   6.116   3.942   0.358
 6724TIP3   OH220135   2.726   1.569   2.355
 6724TIP3    H120136   2.777   1.634   2.306
 6724TIP3    H220137   2.786   1.534   2.420
 6725TIP3   OH220138   4.137   3.538   4.994
 6725TIP3    H120139   4.207   3.517   4.932
 6725TIP3    H220140   4.152   3.480   5.068
 6726TIP3   OH220141   6.283   2.382   1.696
 6726TIP3    H120142   6.213   2.377   1.761
 6726TIP3    H220143   6.336   2.456   1.724
 6727TIP3   OH220144   6.434   1.386   5.544
 6727TIP3    H120145   6.388   1.361   5.624
 6727TIP3    H220146   6.421   1.312   5.485
 6728TIP3   OH220147   0.093   2.559   5.888
 6728TIP3    H120148   0.050   2.623   5.944
 6728TIP3    H220149   0.136   2.611   5.820
 6729TIP3   OH220150   2.000   3.218   2.563
 6729TIP3    H120151   1.911   3.215   2.528
 6729TIP3    H220152   1.994   3.275   2.639
 6730TIP3   OH220153   2.988   6.409   5.869
 6730TIP3    H120154   2.935   6.344   5.824
 6730TIP3    H220155   2.997   6.481   5.806
 6731TIP3   OH220156   1.687   6.752   3.267
 6731TIP3    H120157   1.729   6.667   3.252
 6731TIP3    H220158   1.759   6.814   3.268
 6732TIP3   OH220159   2.145   3.115   5.018
 6732TIP3    H120160   2.189   3.056   4.958
 6732TIP3    H220161   2.216   3.150   5.073
 6733TIP3   OH220162   2.256   5.551   3.661
 6733TIP3    H120163   2.208   5.467   3.660
 6733TIP3    H220164   2.198   5.612   3.616
 6734TIP3   OH220165   3.178   5.298   1.106
 6734TIP3    H120166   3.217   5.219   1.067
 6734TIP3    H220167   3.180   5.362   1.035
 6735TIP3   OH220168   4.248   3.763   3.119
 6735TIP3    H120169   4.268   3.686   3.066
 6735TIP3    H220170   4.324   3.820   3.107
 6736TIP3   OH220171   1.590   0.063   4.202
 6736TIP3    H120172   1.495   0.074   4.208
 6736TIP3    H220173   1.614   0.109   4.122
 6737TIP3   OH220174   5.874   2.643   3.532
 6737TIP3    H120175   5.940   2.611   3.471
 6737TIP3    H220176   5.830   2.565   3.564
 6738TIP3   OH220177   1.921   0.861   4.478
 6738TIP3    H120178   1.931   0.897   4.390
 6738TIP3    H220179   1.844   0.805   4.473
 6739TIP3   OH220180   5.602   0.375   4.463
 6739TIP3    H120181   5.602   0.319   4.386
 6739TIP3    H220182   5.611   0.464   4.428
 6740TIP3   OH220183   5.094   6.323   1.046
 6740TIP3    H120184   5.142   6.362   1.119
 6740TIP3    H220185   5.107   6.229   1.057
 6741TIP3   OH220186   1.891   5.232   2.246
 6741TIP3    H120187   1.838   5.218   2.325
 6741TIP3    H220188   1.953   5.301   2.271
 6742TIP3   OH220189   5.624   2.282   5.685
 6742TIP3    H120190   5.660   2.202   5.724
 6742TIP3    H220191   5.579   2.251   5.606
 6743TIP3   OH220192   5.177   2.355   2.962
 6743TIP3    H120193   5.142   2.440   2.989
 6743TIP3    H220194   5.223   2.322   3.040
 6744TIP3   OH220195   0.665   3.243   3.029
 6744TIP3    H120196   0.619   3.326   3.044
 6744TIP3    H220197   0.752   3.269   3.000
 6745TIP3   OH220198   0.005   4.386   3.543
 6745TIP3    H120199   0.031   4.477   3.525
 6745TIP3    H220200   0.053   4.364   3.623
 6746TIP3   OH220201   3.394   4.535   0.885
 6746TIP3    H120202   3.315   4.498   0.845
 6746TIP3    H220203   3.466   4.490   0.842
 6747TIP3   OH220204   4.098   3.175   0.851
 6747TIP3    H120205   4.066   3.262   0.829
 6747TIP3    H220206   4.093   3.171   0.947
 6748TIP3   OH220207   3.147   4.344   2.279
 6748TIP3    H120208   3.152   4.277   2.211
 6748TIP3    H220209   3.080   4.312   2.340
 6749TIP3   OH220210   3.476   6.425   0.688
 6749TIP3    H120211   3.450   6.394   0.601
 6749TIP3    H220212   3.512   6.513   0.672
 6750TIP3   OH220213   4.796   4.866   5.561
 6750TIP3    H120214   4.796   4.931   5.631
 6750TIP3    H220215   4.838   4.909   5.487
 6751TIP3   OH220216   3.029   1.583   5.892
 6751TIP3    H120217   3.004   1.520   5.825
 6751TIP3    H220218   3.119   1.558   5.916
 6752TIP3   OH220219   6.505   3.782   2.558
 6752TIP3    H120220   6.522   3.690   2.577
 6752TIP3    H220221   6.592   3.823   2.563
 6753TIP3   OH220222   3.445   3.562   3.290
 6753TIP3    H120223   3.438   3.543   3.384
 6753TIP3    H220224   3.510   3.633   3.286
 6754TIP3   OH220225   5.150   2.085   4.401
 6754TIP3    H120226   5.217   2.017   4.397
 6754TIP3    H220227   5.067   2.037   4.402
 6755TIP3   OH220228   5.137   0.401   1.570
 6755TIP3    H120229   5.184   0.332   1.524
 6755TIP3    H220230   5.196   0.429   1.640
 6756TIP3   OH220231   6.386   3.504   5.130
 6756TIP3    H120232   6.308   3.523   5.181
 6756TIP3    H220233   6.353   3.473   5.045
 6757TIP3   OH220234   2.908   4.614   4.451
 6757TIP3    H120235   2.953   4.601   4.535
 6757TIP3    H220236   2.818   4.632   4.475
 6758TIP3   OH220237   0.410   1.347   0.653
 6758TIP3    H120238   0.480   1.285   0.634
 6758TIP3    H220239   0.341   1.295   0.693
 6759TIP3   OH220240   1.037   4.292   4.815
 6759TIP3    H120241   1.097   4.347   4.766
 6759TIP3    H220242   1.058   4.203   4.787
 6760TIP3   OH220243   0.297   3.300   2.539
 6760TIP3    H120244   0.287   3.259   2.625
 6760TIP3    H220245   0.276   3.229   2.477
 6761TIP3   OH220246   4.573   4.336   0.521
 6761TIP3    H120247   4.633   4.331   0.446
 6761TIP3    H220248   4.591   4.421   0.561
 6762TIP3   OH220249   7.003   4.652   5.302
 6762TIP3    H120250   7.006   4.580   5.238
 6762TIP3    H220251   6.911   4.675   5.309
 6763TIP3   OH220252   1.429   2.513   3.770
 6763TIP3    H120253   1.437   2.596   3.817
 6763TIP3    H220254   1.518   2.477   3.772
 6764TIP3   OH220255   3.903   1.358   3.475
 6764TIP3    H120256   3.873   1.313   3.396
 6764TIP3    H220257   3.973   1.301   3.509
 6765TIP3   OH220258   3.834   2.348   2.415
 6765TIP3    H120259   3.746   2.385   2.402
 6765TIP3    H220260   3.825   2.291   2.491
 6766TIP3   OH220261   1.383   3.376   2.669
 6766TIP3    H120262   1.407   3.294   2.713
 6766TIP3    H220263   1.420   3.444   2.725
 6767TIP3   OH220264   3.476   3.392   2.450
 6767TIP3    H120265   3.561   3.362   2.418
 6767TIP3    H220266   3.418   3.317   2.439
 6768TIP3   OH220267   0.076   4.261   1.452
 6768TIP3    H120268   0.088   4.327   1.520
 6768TIP3    H220269   0.087   4.308   1.370
 6769TIP3   OH220270   0.095   0.660   3.781
 6769TIP3    H120271   0.065   0.736   3.831
 6769TIP3    H220272   0.015   0.621   3.746
 6770TIP3   OH220273   0.928   1.638   0.169
 6770TIP3    H120274   0.900   1.565   0.113
 6770TIP3    H220275   0.950   1.598   0.253
 6771TIP3   OH220276   4.838   4.627   2.461
 6771TIP3    H120277   4.861   4.535   2.477
 6771TIP3    H220278   4.839   4.636   2.365
 6772TIP3   OH220279   3.604   3.365   5.208
 6772TIP3    H120280   3.670   3.302   5.179
 6772TIP3    H220281   3.643   3.451   5.191
 6773TIP3   OH220282   2.272   6.198   3.519
 6773TIP3    H120283   2.269   6.266   3.586
 6773TIP3    H220284   2.296   6.245   3.439
 6774TIP3   OH220285   0.045   5.191   4.471
 6774TIP3    H120286   0.114   5.254   4.449
 6774TIP3    H220287   0.092   5.110   4.487
 6775TIP3   OH220288   5.788   3.523   4.106
 6775TIP3    H120289   5.763   3.571   4.027
 6775TIP3    H220290   5.781   3.587   4.177
 6776TIP3   OH220291   5.111   1.585   4.984
 6776TIP3    H120292   5.017   1.579   4.969
 6776TIP3    H220293   5.151   1.556   4.902
 6777TIP3   OH220294   4.997   2.109   4.734
 6777TIP3    H120295   5.013   2.053   4.809
 6777TIP3    H220296   5.085   2.131   4.701
 6778TIP3   OH220297   0.900   0.747   3.429
 6778TIP3    H120298   0.879   0.668   3.479
 6778TIP3    H220299   0.815   0.787   3.410
 6779TIP3   OH220300   0.619   5.593   4.611
 6779TIP3    H120301   0.689   5.553   4.559
 6779TIP3    H220302   0.552   5.616   4.547
 6780TIP3   OH220303   1.994   1.572   1.557
 6780TIP3    H120304   2.033   1.611   1.636
 6780TIP3    H220305   2.007   1.478   1.568
 6781TIP3   OH220306   5.434   0.940   3.220
 6781TIP3    H120307   5.357   0.944   3.162
 6781TIP3    H220308   5.444   1.030   3.251
 6782TIP3   OH220309   3.954   3.204   1.878
 6782TIP3    H120310   3.981   3.296   1.869
 6782TIP3    H220311   3.921   3.197   1.967
 6783TIP3   OH220312   0.206   5.513   1.888
 6783TIP3    H120313   0.216   5.418   1.895
 6783TIP3    H220314   0.119   5.525   1.848
 6784TIP3   OH220315   6.357   3.101   0.608
 6784TIP3    H120316   6.451   3.086   0.600
 6784TIP3    H220317   6.349   3.177   0.666
 6785TIP3   OH220318   3.644   5.832   4.045
 6785TIP3    H120319   3.675   5.742   4.049
 6785TIP3    H220320   3.611   5.850   4.133
 6786TIP3   OH220321   4.219   6.704   1.748
 6786TIP3    H120322   4.250   6.663   1.667
 6786TIP3    H220323   4.184   6.788   1.721
 6787TIP3   OH220324   0.430   0.251   3.806
 6787TIP3    H120325   0.498   0.245   3.739
 6787TIP3    H220326   0.384   0.333   3.786
 6788TIP3   OH220327   5.756   6.692   2.269
 6788TIP3    H120328   5.725   6.608   2.235
 6788TIP3    H220329   5.701   6.708   2.346
 6789TIP3   OH220330   3.120   5.032   3.379
 6789TIP3    H120331   3.175   5.060   3.452
 6789TIP3    H220332   3.136   5.097   3.310
 6790TIP3   OH220333   2.275   0.238   5.718
 6790TIP3    H120334   2.253   0.165   5.776
 6790TIP3    H220335   2.245   0.209   5.632
 6791TIP3   OH220336   1.940   1.391   1.933
 6791TIP3    H120337   1.905   1.399   2.022
 6791TIP3    H220338   1.870   1.423   1.877
 6792TIP3   OH220339   2.980   5.253   5.013
 6792TIP3    H120340   2.942   5.273   4.928
 6792TIP3    H220341   3.029   5.332   5.037
 6793TIP3   OH220342   5.848   0.316   2.484
 6793TIP3    H120343   5.801   0.235   2.466
 6793TIP3    H220344   5.852   0.321   2.579
 6794TIP3   OH220345   6.830   4.303   3.418
 6794TIP3    H120346   6.740   4.311   3.450
 6794TIP3    H220347   6.842   4.380   3.362
 6795TIP3   OH220348   4.157   6.381   4.565
 6795TIP3    H120349   4.249   6.406   4.556
 6795TIP3    H220350   4.110   6.450   4.518
 6796TIP3   OH220351   5.204   0.897   3.064
 6796TIP3    H120352   5.125   0.850   3.037
 6796TIP3    H220353   5.222   0.957   2.991
 6797TIP3   OH220354   4.709   6.403   4.360
 6797TIP3    H120355   4.664   6.486   4.377
 6797TIP3    H220356   4.767   6.392   4.435
 6798TIP3   OH220357   2.204   0.503   4.285
 6798TIP3    H120358   2.252   0.431   4.325
 6798TIP3    H220359   2.158   0.544   4.358
 6799TIP3   OH220360   4.386   5.748   4.000
 6799TIP3    H120361   4.467   5.753   3.949
 6799TIP3    H220362   4.317   5.772   3.938
 6800TIP3   OH220363   4.359   1.463   4.376
 6800TIP3    H120364   4.282   1.501   4.417
 6800TIP3    H220365   4.335   1.450   4.285
 6801TIP3   OH220366   2.158   1.591   0.864
 6801TIP3    H120367   2.193   1.658   0.804
 6801TIP3    H220368   2.067   1.579   0.837
 6802TIP3   OH220369   6.931   6.051   1.307
 6802TIP3    H120370   6.895   6.075   1.392
 6802TIP3    H220371   6.859   6.008   1.262
 6803TIP3   OH220372   2.754   3.884   1.609
 6803TIP3    H120373   2.710   3.869   1.692
 6803TIP3    H220374   2.724   3.971   1.582
 6804TIP3   OH220375   7.010   3.253   4.012
 6804TIP3    H120376   7.045   3.339   4.034
 6804TIP3    H220377   7.058   3.228   3.932
 6805TIP3   OH220378   4.120   4.846   5.825
 6805TIP3    H120379   4.119   4.775   5.889
 6805TIP3    H220380   4.034   4.888   5.833
 6806TIP3   OH220381   4.034   6.670   5.668
 6806TIP3    H120382   4.016   6.672   5.574
 6806TIP3    H220383   4.036   6.761   5.695
 6807TIP3   OH220384   3.713   2.859   4.041
 6807TIP3    H120385   3.679   2.900   3.962
 6807TIP3    H220386   3.720   2.766   4.019
 6808TIP3   OH220387   3.985   0.790   0.719
 6808TIP3    H120388   4.025   0.799   0.806
 6808TIP3    H220389   4.058   0.769   0.661
 6809TIP3   OH220390   5.383   5.307   0.191
 6809TIP3    H120391   5.376   5.320   0.097
 6809TIP3    H220392   5.317   5.366   0.229
 6810TIP3   OH220393   1.973   3.233   1.594
 6810TIP3    H120394   1.957   3.230   1.500
 6810TIP3    H220395   2.032   3.307   1.606
 6811TIP3   OH220396   4.340   3.814   1.367
 6811TIP3    H120397   4.325   3.885   1.305
 6811TIP3    H220398   4.271   3.750   1.347
 6812TIP3   OH220399   3.558   5.353   0.455
 6812TIP3    H120400   3.490   5.415   0.428
 6812TIP3    H220401   3.618   5.351   0.381
 6813TIP3   OH220402   4.762   5.352   2.213
 6813TIP3    H120403   4.826   5.423   2.217
 6813TIP3    H220404   4.679   5.396   2.195
 6814TIP3   OH220405   1.515   2.988   0.645
 6814TIP3    H120406   1.597   2.988   0.695
 6814TIP3    H220407   1.542   2.992   0.554
 6815TIP3   OH220408   3.118   0.197   5.584
 6815TIP3    H120409   3.123   0.260   5.656
 6815TIP3    H220410   3.100   0.113   5.627
 6816TIP3   OH220411   4.082   6.275   2.875
 6816TIP3    H120412   4.162   6.328   2.880
 6816TIP3    H220413   4.077   6.230   2.959
 6817TIP3   OH220414   5.496   1.515   2.149
 6817TIP3    H120415   5.454   1.601   2.142
 6817TIP3    H220416   5.548   1.521   2.229
 6818TIP3   OH220417   2.218   6.523   3.121
 6818TIP3    H120418   2.210   6.563   3.208
 6818TIP3    H220419   2.280   6.451   3.134
 6819TIP3   OH220420   0.155   5.427   4.401
 6819TIP3    H120421   0.130   5.493   4.466
 6819TIP3    H220422   0.149   5.473   4.317
 6820TIP3   OH220423   0.499   1.961   2.093
 6820TIP3    H120424   0.444   1.883   2.086
 6820TIP3    H220425   0.574   1.932   2.145
 6821TIP3   OH220426   3.337   1.242   4.031
 6821TIP3    H120427   3.431   1.255   4.023
 6821TIP3    H220428   3.301   1.331   4.036
 6822TIP3   OH220429   0.495   1.340   4.209
 6822TIP3    H120430   0.563   1.323   4.273
 6822TIP3    H220431   0.413   1.322   4.255
 6823TIP3   OH220432   6.940   1.537   3.041
 6823TIP3    H120433   6.927   1.626   3.008
 6823TIP3    H220434   7.005   1.499   2.983
 6824TIP3   OH220435   6.900   0.720   1.530
 6824TIP3    H120436   6.990   0.743   1.505
 6824TIP3    H220437   6.908   0.686   1.619
 6825TIP3   OH220438   2.668   4.322   5.826
 6825TIP3    H120439   2.595   4.314   5.888
 6825TIP3    H220440   2.696   4.413   5.835
 6826TIP3   OH220441   3.320   2.891   2.776
 6826TIP3    H120442   3.299   2.906   2.868
 6826TIP3    H220443   3.324   2.979   2.738
 6827TIP3   OH220444   5.735   2.321   1.716
 6827TIP3    H120445   5.816   2.347   1.759
 6827TIP3    H220446   5.752   2.334   1.623
 6828TIP3   OH220447   1.846   0.910   1.126
 6828TIP3    H120448   1.775   0.849   1.106
 6828TIP3    H220449   1.926   0.864   1.101
 6829TIP3   OH220450   5.131   5.696   1.772
 6829TIP3    H120451   5.161   5.615   1.813
 6829TIP3    H220452   5.119   5.757   1.845
 6830TIP3   OH220453   1.560   2.939   2.053
 6830TIP3    H120454   1.490   2.949   2.118
 6830TIP3    H220455   1.636   2.911   2.103
 6831TIP3   OH220456   6.622   4.936   2.623
 6831TIP3    H120457   6.535   4.965   2.652
 6831TIP3    H220458   6.683   4.981   2.683
 6832TIP3   OH220459   0.140   1.282   0.451
 6832TIP3    H120460   0.093   1.212   0.497
 6832TIP3    H220461   0.231   1.252   0.451
 6833TIP3   OH220462   3.344   4.061   3.944
 6833TIP3    H120463   3.434   4.059   3.977
 6833TIP3    H220464   3.323   3.970   3.925
 6834TIP3   OH220465   6.663   4.302   3.825
 6834TIP3    H120466   6.609   4.228   3.852
 6834TIP3    H220467   6.739   4.262   3.782
 6835TIP3   OH220468   4.188   4.962   0.858
 6835TIP3    H120469   4.207   5.056   0.852
 6835TIP3    H220470   4.156   4.938   0.771
 6836TIP3   OH220471   4.644   5.016   0.368
 6836TIP3    H120472   4.561   4.977   0.342
 6836TIP3    H220473   4.633   5.109   0.350
 6837TIP3   OH220474   5.066   1.123   5.797
 6837TIP3    H120475   4.997   1.080   5.847
 6837TIP3    H220476   5.020   1.184   5.740
 6838TIP3   OH220477   3.326   6.565   2.073
 6838TIP3    H120478   3.382   6.495   2.041
 6838TIP3    H220479   3.385   6.640   2.082
 6839TIP3   OH220480   6.492   1.722   4.664
 6839TIP3    H120481   6.552   1.777   4.613
 6839TIP3    H220482   6.438   1.784   4.713
 6840TIP3   OH220483   2.418   0.511   1.028
 6840TIP3    H120484   2.343   0.453   1.016
 6840TIP3    H220485   2.382   0.599   1.026
 6841TIP3   OH220486   1.959   5.216   1.155
 6841TIP3    H120487   2.046   5.234   1.190
 6841TIP3    H220488   1.950   5.121   1.159
 6842TIP3   OH220489   6.601   1.854   2.742
 6842TIP3    H120490   6.608   1.785   2.808
 6842TIP3    H220491   6.609   1.808   2.658
 6843TIP3   OH220492   6.685   5.955   1.214
 6843TIP3    H120493   6.702   5.868   1.250
 6843TIP3    H220494   6.600   5.979   1.251
 6844TIP3   OH220495   6.434   5.941   3.011
 6844TIP3    H120496   6.525   5.912   2.999
 6844TIP3    H220497   6.425   6.015   2.951
 6845TIP3   OH220498   5.575   4.787   0.738
 6845TIP3    H120499   5.595   4.861   0.681
 6845TIP3    H220500   5.642   4.791   0.807
 6846TIP3   OH220501   4.392   4.338   5.721
 6846TIP3    H120502   4.457   4.316   5.788
 6846TIP3    H220503   4.392   4.434   5.719
 6847TIP3   OH220504   6.994   4.214   2.644
 6847TIP3    H120505   7.044   4.284   2.603
 6847TIP3    H220506   7.058   4.145   2.661
 6848TIP3   OH220507   3.248   6.120   2.815
 6848TIP3    H120508   3.158   6.147   2.797
 6848TIP3    H220509   3.248   6.097   2.908
 6849TIP3   OH220510   3.938   4.626   5.109
 6849TIP3    H120511   4.005   4.665   5.054
 6849TIP3    H220512   3.869   4.598   5.048
 6850TIP3   OH220513   4.964   4.192   3.272
 6850TIP3    H120514   4.869   4.193   3.283
 6850TIP3    H220515   4.997   4.155   3.354
 6851TIP3   OH220516   5.602   0.735   4.047
 6851TIP3    H120517   5.603   0.796   4.121
 6851TIP3    H220518   5.630   0.789   3.972
 6852TIP3   OH220519   2.005   1.063   5.743
 6852TIP3    H120520   2.095   1.089   5.765
 6852TIP3    H220521   1.962   1.053   5.828
 6853TIP3   OH220522   1.787  -0.030   5.335
 6853TIP3    H120523   1.828   0.051   5.365
 6853TIP3    H220524   1.754  -0.010   5.248
 6854TIP3   OH220525   1.156   1.442   4.715
 6854TIP3    H120526   1.067   1.464   4.742
 6854TIP3    H220527   1.151   1.431   4.620
 6855TIP3   OH220528   3.679   5.981   5.011
 6855TIP3    H120529   3.688   5.886   5.014
 6855TIP3    H220530   3.591   5.998   5.046
 6856TIP3   OH220531   0.849   4.823   4.537
 6856TIP3    H120532   0.833   4.915   4.515
 6856TIP3    H220533   0.943   4.819   4.554
 6857TIP3   OH220534   3.589   3.022   1.233
 6857TIP3    H120535   3.602   3.117   1.236
 6857TIP3    H220536   3.563   2.998   1.322
 6858TIP3   OH220537   0.369   1.740   2.083
 6858TIP3    H120538   0.462   1.740   2.106
 6858TIP3    H220539   0.368   1.748   1.988
 6859TIP3   OH220540   6.024   5.561   4.704
 6859TIP3    H120541   6.112   5.537   4.734
 6859TIP3    H220542   6.008   5.501   4.630
 6860TIP3   OH220543   0.878   6.080   4.511
 6860TIP3    H120544   0.841   6.143   4.449
 6860TIP3    H220545   0.935   6.024   4.459
 6861TIP3   OH220546   2.058   3.316   0.879
 6861TIP3    H120547   2.023   3.250   0.939
 6861TIP3    H220548   1.981   3.357   0.840
 6862TIP3   OH220549   3.074   1.116   4.527
 6862TIP3    H120550   3.071   1.020   4.532
 6862TIP3    H220551   2.992   1.145   4.566
 6863TIP3   OH220552   5.029   5.222   3.210
 6863TIP3    H120553   5.006   5.138   3.249
 6863TIP3    H220554   5.059   5.199   3.121
 6864TIP3   OH220555   6.516   0.550   0.297
 6864TIP3    H120556   6.474   0.595   0.223
 6864TIP3    H220557   6.603   0.527   0.265
 6865TIP3   OH220558   2.050   4.390   5.123
 6865TIP3    H120559   2.026   4.455   5.188
 6865TIP3    H220560   1.973   4.332   5.118
 6866TIP3   OH220561   3.069   0.254   4.484
 6866TIP3    H120562   3.083   0.173   4.435
 6866TIP3    H220563   3.150   0.303   4.471
 6867TIP3   OH220564   3.096   5.294   0.621
 6867TIP3    H120565   3.099   5.322   0.529
 6867TIP3    H220566   3.162   5.349   0.664
 6868TIP3   OH220567   1.104   0.315   1.960
 6868TIP3    H120568   1.040   0.244   1.962
 6868TIP3    H220569   1.149   0.304   1.876
 6869TIP3   OH220570   1.586   6.179   5.730
 6869TIP3    H120571   1.532   6.229   5.791
 6869TIP3    H220572   1.663   6.234   5.716
 6870TIP3   OH220573   1.830   5.703   0.722
 6870TIP3    H120574   1.760   5.647   0.689
 6870TIP3    H220575   1.910   5.668   0.682
 6871TIP3   OH220576   5.584   2.678   0.452
 6871TIP3    H120577   5.549   2.660   0.539
 6871TIP3    H220578   5.661   2.733   0.468
 6872TIP3   OH220579   2.357   5.771   0.833
 6872TIP3    H120580   2.344   5.825   0.756
 6872TIP3    H220581   2.375   5.684   0.799
 6873TIP3   OH220582   6.809   5.357   5.221
 6873TIP3    H120583   6.891   5.358   5.270
 6873TIP3    H220584   6.820   5.286   5.158
 6874TIP3   OH220585   0.304   6.273   2.912
 6874TIP3    H120586   0.210   6.264   2.895
 6874TIP3    H220587   0.334   6.183   2.928
 6875TIP3   OH220588   6.535   2.321   2.536
 6875TIP3    H120589   6.586   2.248   2.572
 6875TIP3    H220590   6.512   2.293   2.448
 6876TIP3   OH220591   5.223   2.784   4.534
 6876TIP3    H120592   5.315   2.802   4.519
 6876TIP3    H220593   5.186   2.868   4.561
 6877TIP3   OH220594   4.547   0.665   3.386
 6877TIP3    H120595   4.589   0.590   3.427
 6877TIP3    H220596   4.515   0.718   3.459
 6878TIP3   OH220597   2.559   0.544   2.000
 6878TIP3    H120598   2.526   0.486   1.932
 6878TIP3    H220599   2.652   0.524   2.006
 6879TIP3   OH220600   2.100   4.029   2.716
 6879TIP3    H120601   2.127   4.001   2.629
 6879TIP3    H220602   2.148   4.111   2.730
 6880TIP3   OH220603   2.762   4.732   3.938
 6880TIP3    H120604   2.697   4.664   3.954
 6880TIP3    H220605   2.712   4.806   3.903
 6881TIP3   OH220606   5.978   6.317   5.048
 6881TIP3    H120607   5.948   6.291   4.961
 6881TIP3    H220608   5.913   6.280   5.107
 6882TIP3   OH220609   2.745   3.603   3.218
 6882TIP3    H120610   2.778   3.596   3.128
 6882TIP3    H220611   2.650   3.610   3.207
 6883TIP3   OH220612   7.081   2.734   5.337
 6883TIP3    H120613   6.999   2.685   5.331
 6883TIP3    H220614   7.066   2.797   5.408
 6884TIP3   OH220615   7.109   5.456   0.559
 6884TIP3    H120616   7.075   5.528   0.613
 6884TIP3    H220617   7.064   5.378   0.593
 6885TIP3   OH220618   0.237   2.587   1.303
 6885TIP3    H120619   0.251   2.495   1.326
 6885TIP3    H220620   0.292   2.635   1.365
 6886TIP3   OH220621   0.417   2.961   0.600
 6886TIP3    H120622   0.335   2.930   0.637
 6886TIP3    H220623   0.417   2.927   0.510
 6887TIP3   OH220624   0.872   3.186   5.457
 6887TIP3    H120625   0.859   3.192   5.362
 6887TIP3    H220626   0.903   3.273   5.482
 6888TIP3   OH220627   0.978   6.670   3.521
 6888TIP3    H120628   1.065   6.633   3.506
 6888TIP3    H220629   0.918   6.605   3.484
 6889TIP3   OH220630   1.337   4.680   3.334
 6889TIP3    H120631   1.351   4.611   3.399
 6889TIP3    H220632   1.370   4.760   3.376
 6890TIP3   OH220633   4.430   0.743   1.949
 6890TIP3    H120634   4.508   0.760   1.896
 6890TIP3    H220635   4.391   0.829   1.963
 6891TIP3   OH220636   6.523   0.446   4.347
 6891TIP3    H120637   6.592   0.482   4.403
 6891TIP3    H220638   6.508   0.512   4.280
 6892TIP3   OH220639   3.458   3.422   3.518
 6892TIP3    H120640   3.551   3.439   3.536
 6892TIP3    H220641   3.418   3.415   3.605
 6893TIP3   OH220642   0.682   3.781   1.476
 6893TIP3    H120643   0.633   3.788   1.557
 6893TIP3    H220644   0.701   3.872   1.451
 6894TIP3   OH220645   6.517  -0.003   0.691
 6894TIP3    H120646   6.564   0.078   0.672
 6894TIP3    H220647   6.512  -0.006   0.787
 6895TIP3   OH220648   1.903   1.697   4.611
 6895TIP3    H120649   1.945   1.645   4.680
 6895TIP3    H220650   1.925   1.650   4.530
 6896TIP3   OH220651   3.577   0.026   4.402
 6896TIP3    H120652   3.503   0.070   4.360
 6896TIP3    H220653   3.624  -0.015   4.329
 6897TIP3   OH220654   0.758   3.448   3.862
 6897TIP3    H120655   0.776   3.486   3.776
 6897TIP3    H220656   0.670   3.478   3.884
 6898TIP3   OH220657   2.961   0.593   3.457
 6898TIP3    H120658   3.009   0.654   3.402
 6898TIP3    H220659   2.922   0.530   3.396
 6899TIP3   OH220660   2.614   0.233   3.377
 6899TIP3    H120661   2.671   0.178   3.322
 6899TIP3    H220662   2.588   0.176   3.449
 6900TIP3   OH220663   6.023   1.022   1.618
 6900TIP3    H120664   6.029   0.933   1.654
 6900TIP3    H220665   5.929   1.041   1.616
 6901TIP3   OH220666   5.750   1.897   0.918
 6901TIP3    H120667   5.755   1.976   0.864
 6901TIP3    H220668   5.741   1.929   1.008
 6902TIP3   OH220669   3.117   3.847   4.110
 6902TIP3    H120670   3.199   3.831   4.063
 6902TIP3    H220671   3.101   3.766   4.159
 6903TIP3   OH220672   3.958   3.476   5.302
 6903TIP3    H120673   3.878   3.524   5.283
 6903TIP3    H220674   4.010   3.535   5.356
 6904TIP3   OH220675   6.252   5.292   1.411
 6904TIP3    H120676   6.222   5.213   1.365
 6904TIP3    H220677   6.227   5.278   1.502
 6905TIP3   OH220678   0.620   0.356   1.057
 6905TIP3    H120679   0.653   0.300   0.987
 6905TIP3    H220680   0.572   0.297   1.115
 6906TIP3   OH220681   0.693   2.648   1.701
 6906TIP3    H120682   0.757   2.718   1.714
 6906TIP3    H220683   0.612   2.683   1.737
 6907TIP3   OH220684   1.153   6.498   0.957
 6907TIP3    H120685   1.227   6.442   0.931
 6907TIP3    H220686   1.156   6.571   0.895
 6908TIP3   OH220687   3.930   0.645   2.120
 6908TIP3    H120688   3.998   0.581   2.100
 6908TIP3    H220689   3.967   0.699   2.190
 6909TIP3   OH220690   0.471   6.408   4.301
 6909TIP3    H120691   0.391   6.405   4.353
 6909TIP3    H220692   0.464   6.331   4.244
 6910TIP3   OH220693   5.724   6.249   2.600
 6910TIP3    H120694   5.812   6.236   2.637
 6910TIP3    H220695   5.732   6.327   2.545
 6911TIP3   OH220696   0.742   3.684   0.434
 6911TIP3    H120697   0.799   3.740   0.381
 6911TIP3    H220698   0.798   3.610   0.458
 6912TIP3   OH220699   1.640   4.525   3.937
 6912TIP3    H120700   1.581   4.450   3.945
 6912TIP3    H220701   1.696   4.519   4.015
 6913TIP3   OH220702   6.226   4.772   1.735
 6913TIP3    H120703   6.243   4.679   1.723
 6913TIP3    H220704   6.134   4.783   1.711
 6914TIP3   OH220705   5.523   1.645   2.814
 6914TIP3    H120706   5.537   1.709   2.884
 6914TIP3    H220707   5.586   1.668   2.746
 6915TIP3   OH220708   6.984   1.953   1.514
 6915TIP3    H120709   6.893   1.946   1.543
 6915TIP3    H220710   7.035   1.930   1.591
 6916TIP3   OH220711   3.763   0.063   0.919
 6916TIP3    H120712   3.755   0.035   1.011
 6916TIP3    H220713   3.760  -0.019   0.869
 6917TIP3   OH220714   0.160   4.279   1.166
 6917TIP3    H120715   0.123   4.192   1.153
 6917TIP3    H220716   0.138   4.326   1.086
 6918TIP3   OH220717   5.081   3.024   4.981
 6918TIP3    H120718   5.063   2.970   5.058
 6918TIP3    H220719   5.063   2.967   4.906
 6919TIP3   OH220720   6.301   2.988   4.238
 6919TIP3    H120721   6.358   3.013   4.165
 6919TIP3    H220722   6.348   3.017   4.316
 6920TIP3   OH220723   4.663   1.975   2.509
 6920TIP3    H120724   4.640   1.912   2.577
 6920TIP3    H220725   4.587   2.032   2.503
 6921TIP3   OH220726   5.832   4.114   2.181
 6921TIP3    H120727   5.773   4.115   2.257
 6921TIP3    H220728   5.809   4.033   2.135
 6922TIP3   OH220729   6.803   4.458   1.244
 6922TIP3    H120730   6.730   4.442   1.185
 6922TIP3    H220731   6.782   4.407   1.322
 6923TIP3   OH220732   1.120   2.312   3.285
 6923TIP3    H120733   1.053   2.306   3.353
 6923TIP3    H220734   1.078   2.363   3.215
 6924TIP3   OH220735   7.200   2.457   3.117
 6924TIP3    H120736   7.131   2.521   3.136
 6924TIP3    H220737   7.251   2.452   3.198
 6925TIP3   OH220738   2.799   0.542   5.430
 6925TIP3    H120739   2.726   0.544   5.368
 6925TIP3    H220740   2.871   0.586   5.385
 6926TIP3   OH220741   5.996   1.799   0.267
 6926TIP3    H120742   5.986   1.790   0.173
 6926TIP3    H220743   5.968   1.715   0.303
 6927TIP3   OH220744   1.540   6.435   2.785
 6927TIP3    H120745   1.633   6.455   2.794
 6927TIP3    H220746   1.533   6.391   2.700
 6928TIP3   OH220747   2.291   0.527   2.757
 6928TIP3    H120748   2.207   0.572   2.771
 6928TIP3    H220749   2.342   0.588   2.704
 6929TIP3   OH220750   2.812   6.735   0.587
 6929TIP3    H120751   2.752   6.698   0.652
 6929TIP3    H220752   2.884   6.673   0.582
 6930TIP3   OH220753   1.442   5.999   4.226
 6930TIP3    H120754   1.529   5.963   4.244
 6930TIP3    H220755   1.443   6.085   4.267
 6931TIP3   OH220756   3.621   3.773   2.578
 6931TIP3    H120757   3.700   3.827   2.574
 6931TIP3    H220758   3.564   3.818   2.640
 6932TIP3   OH220759   4.360   2.514   0.444
 6932TIP3    H120760   4.382   2.430   0.404
 6932TIP3    H220761   4.438   2.540   0.491
 6933TIP3   OH220762   6.610   4.150   1.023
 6933TIP3    H120763   6.576   4.238   1.040
 6933TIP3    H220764   6.541   4.108   0.971
 6934TIP3   OH220765   1.249   0.755   1.141
 6934TIP3    H120766   1.169   0.781   1.186
 6934TIP3    H220767   1.292   0.838   1.118
 6935TIP3   OH220768   3.368   2.643   2.636
 6935TIP3    H120769   3.453   2.612   2.666
 6935TIP3    H220770   3.354   2.725   2.684
 6936TIP3   OH220771   6.567   6.551   5.511
 6936TIP3    H120772   6.546   6.634   5.468
 6936TIP3    H220773   6.489   6.497   5.499
 6937TIP3   OH220774   5.752   1.923   1.370
 6937TIP3    H120775   5.805   2.002   1.360
 6937TIP3    H220776   5.684   1.931   1.303
 6938TIP3   OH220777   6.097   1.931   3.542
 6938TIP3    H120778   6.183   1.893   3.561
 6938TIP3    H220779   6.042   1.856   3.521
 6939TIP3   OH220780   0.537   5.153   1.288
 6939TIP3    H120781   0.582   5.144   1.372
 6939TIP3    H220782   0.491   5.069   1.276
 6940TIP3   OH220783   2.653   2.696   5.183
 6940TIP3    H120784   2.731   2.642   5.193
 6940TIP3    H220785   2.687   2.782   5.157
 6941TIP3   OH220786   2.844   6.610   3.068
 6941TIP3    H120787   2.926   6.626   3.020
 6941TIP3    H220788   2.872   6.574   3.152
 6942TIP3   OH220789   3.010   5.214   1.301
 6942TIP3    H120790   3.095   5.239   1.263
 6942TIP3    H220791   2.962   5.297   1.308
 6943TIP3   OH220792   2.238   3.970   0.210
 6943TIP3    H120793   2.150   3.957   0.246
 6943TIP3    H220794   2.241   3.914   0.133
 6944TIP3   OH220795   5.896   5.546   2.014
 6944TIP3    H120796   5.842   5.613   1.973
 6944TIP3    H220797   5.973   5.593   2.045
 6945TIP3   OH220798   3.055   0.515   1.923
 6945TIP3    H120799   3.087   0.494   1.835
 6945TIP3    H220800   3.069   0.609   1.932
 6946TIP3   OH220801   1.702   1.390   0.665
 6946TIP3    H120802   1.696   1.314   0.723
 6946TIP3    H220803   1.619   1.437   0.680
 6947TIP3   OH220804   3.708   2.454   5.057
 6947TIP3    H120805   3.626   2.423   5.095
 6947TIP3    H220806   3.758   2.374   5.040
 6948TIP3   OH220807   3.446   6.143   4.445
 6948TIP3    H120808   3.426   6.172   4.534
 6948TIP3    H220809   3.370   6.092   4.418
 6949TIP3   OH220810   6.279   0.758   5.804
 6949TIP3    H120811   6.232   0.740   5.723
 6949TIP3    H220812   6.353   0.699   5.803
 6950TIP3   OH220813   6.597   1.830   2.475
 6950TIP3    H120814   6.553   1.760   2.426
 6950TIP3    H220815   6.661   1.865   2.413
 6951TIP3   OH220816   6.048   3.506   4.704
 6951TIP3    H120817   6.008   3.419   4.714
 6951TIP3    H220818   6.017   3.556   4.779
 6952TIP3   OH220819   6.230   1.056   5.776
 6952TIP3    H120820   6.188   1.034   5.692
 6952TIP3    H220821   6.258   0.971   5.811
 6953TIP3   OH220822   4.732   6.210   2.914
 6953TIP3    H120823   4.783   6.290   2.905
 6953TIP3    H220824   4.654   6.237   2.962
 6954TIP3   OH220825   4.550   4.920   1.341
 6954TIP3    H120826   4.463   4.928   1.300
 6954TIP3    H220827   4.597   4.998   1.311
 6955TIP3   OH220828   2.205   0.068   5.466
 6955TIP3    H120829   2.258   0.135   5.423
 6955TIP3    H220830   2.116   0.101   5.461
 6956TIP3   OH220831   2.782   2.442   3.004
 6956TIP3    H120832   2.759   2.395   3.084
 6956TIP3    H220833   2.779   2.376   2.935
 6957TIP3   OH220834   0.172   4.510   4.428
 6957TIP3    H120835   0.124   4.545   4.502
 6957TIP3    H220836   0.263   4.504   4.459
 6958TIP3   OH220837   6.289   0.085   3.287
 6958TIP3    H120838   6.299   0.076   3.382
 6958TIP3    H220839   6.220   0.151   3.276
 6959TIP3   OH220840   6.979   5.238   2.187
 6959TIP3    H120841   7.062   5.247   2.233
 6959TIP3    H220842   6.913   5.266   2.251
 6960TIP3   OH220843   1.581   2.103   4.683
 6960TIP3    H120844   1.516   2.173   4.689
 6960TIP3    H220845   1.533   2.031   4.640
 6961TIP3   OH220846   3.399   0.731   0.478
 6961TIP3    H120847   3.327   0.777   0.522
 6961TIP3    H220848   3.442   0.682   0.547
 6962TIP3   OH220849   4.889   0.348   4.014
 6962TIP3    H120850   4.876   0.375   4.105
 6962TIP3    H220851   4.982   0.365   3.997
 6963TIP3   OH220852   6.863   1.867   1.257
 6963TIP3    H120853   6.823   1.781   1.272
 6963TIP3    H220854   6.936   1.871   1.320
 6964TIP3   OH220855   5.938   4.818   2.805
 6964TIP3    H120856   5.962   4.837   2.714
 6964TIP3    H220857   5.867   4.878   2.824
 6965TIP3   OH220858   1.307   4.322   3.805
 6965TIP3    H120859   1.219   4.298   3.775
 6965TIP3    H220860   1.292   4.390   3.871
 6966TIP3   OH220861   5.658   3.073   4.202
 6966TIP3    H120862   5.700   3.099   4.120
 6966TIP3    H220863   5.570   3.045   4.176
 6967TIP3   OH220864   1.609   5.813   3.565
 6967TIP3    H120865   1.550   5.792   3.493
 6967TIP3    H220866   1.694   5.829   3.523
 6968TIP3   OH220867   1.677   6.643   0.563
 6968TIP3    H120868   1.646   6.683   0.481
 6968TIP3    H220869   1.768   6.673   0.571
 6969TIP3   OH220870   4.850   1.114   4.109
 6969TIP3    H120871   4.916   1.049   4.085
 6969TIP3    H220872   4.768   1.065   4.114
 6970TIP3   OH220873   3.277   0.894   1.720
 6970TIP3    H120874   3.332   0.968   1.746
 6970TIP3    H220875   3.261   0.907   1.627
 6971TIP3   OH220876   3.040   0.292   4.808
 6971TIP3    H120877   3.134   0.278   4.815
 6971TIP3    H220878   3.001   0.213   4.844
 6972TIP3   OH220879   4.119   1.464   3.786
 6972TIP3    H120880   4.178   1.395   3.758
 6972TIP3    H220881   4.150   1.543   3.741
 6973TIP3   OH220882   1.476   4.127   2.312
 6973TIP3    H120883   1.559   4.119   2.358
 6973TIP3    H220884   1.424   4.052   2.341
 6974TIP3   OH220885   2.116   3.639   5.275
 6974TIP3    H120886   2.098   3.549   5.302
 6974TIP3    H220887   2.123   3.635   5.180
 6975TIP3   OH220888   0.607   6.086   3.859
 6975TIP3    H120889   0.514   6.099   3.839
 6975TIP3    H220890   0.608   6.041   3.943
 6976TIP3   OH220891   0.726   4.345   3.389
 6976TIP3    H120892   0.698   4.344   3.298
 6976TIP3    H220893   0.716   4.436   3.417
 6977TIP3   OH220894   5.403   3.063   4.090
 6977TIP3    H120895   5.414   3.096   4.000
 6977TIP3    H220896   5.339   3.123   4.129
 6978TIP3   OH220897   1.998   1.310   0.332
 6978TIP3    H120898   2.070   1.250   0.313
 6978TIP3    H220899   2.035   1.370   0.397
 6979TIP3   OH220900   6.668   0.046   5.393
 6979TIP3    H120901   6.760   0.059   5.369
 6979TIP3    H220902   6.652   0.110   5.462
 6980TIP3   OH220903   3.312   3.276   1.574
 6980TIP3    H120904   3.322   3.349   1.513
 6980TIP3    H220905   3.272   3.206   1.523
 6981TIP3   OH220906   2.559   2.174   3.530
 6981TIP3    H120907   2.502   2.237   3.487
 6981TIP3    H220908   2.555   2.096   3.475
 6982TIP3   OH220909   5.514   4.217   3.151
 6982TIP3    H120910   5.593   4.227   3.204
 6982TIP3    H220911   5.448   4.185   3.213
 6983TIP3   OH220912   6.084   1.682   4.538
 6983TIP3    H120913   6.156   1.638   4.494
 6983TIP3    H220914   6.070   1.631   4.618
 6984TIP3   OH220915   6.101   1.114   3.035
 6984TIP3    H120916   6.190   1.097   3.005
 6984TIP3    H220917   6.095   1.069   3.119
 6985TIP3   OH220918   3.865   3.566   3.353
 6985TIP3    H120919   3.957   3.591   3.364
 6985TIP3    H220920   3.821   3.649   3.334
 6986TIP3   OH220921   0.569   5.095   2.640
 6986TIP3    H120922   0.482   5.133   2.632
 6986TIP3    H220923   0.576   5.070   2.732
 6987TIP3   OH220924   2.815   0.504   2.036
 6987TIP3    H120925   2.894   0.553   2.013
 6987TIP3    H220926   2.845   0.416   2.056
 6988TIP3   OH220927   6.953   5.630   1.614
 6988TIP3    H120928   7.025   5.594   1.666
 6988TIP3    H220929   6.974   5.606   1.524
 6989TIP3   OH220930   3.604   1.779   4.928
 6989TIP3    H120931   3.518   1.815   4.946
 6989TIP3    H220932   3.592   1.684   4.932
 6990TIP3   OH220933   2.450   4.213   2.246
 6990TIP3    H120934   2.399   4.283   2.287
 6990TIP3    H220935   2.541   4.244   2.250
 6991TIP3   OH220936   4.837   0.098   3.903
 6991TIP3    H120937   4.929   0.071   3.908
 6991TIP3    H220938   4.840   0.193   3.911
 6992TIP3   OH220939   7.211   3.101   3.535
 6992TIP3    H120940   7.285   3.105   3.475
 6992TIP3    H220941   7.137   3.136   3.485
 6993TIP3   OH220942   4.231   5.429   4.512
 6993TIP3    H120943   4.199   5.518   4.529
 6993TIP3    H220944   4.238   5.424   4.417
 6994TIP3   OH220945   4.403   1.891   5.321
 6994TIP3    H120946   4.332   1.953   5.302
 6994TIP3    H220947   4.477   1.947   5.342
 6995TIP3   OH220948   3.752   4.029   0.632
 6995TIP3    H120949   3.794   4.018   0.546
 6995TIP3    H220950   3.681   3.965   0.631
 6996TIP3   OH220951   4.951   5.791   1.211
 6996TIP3    H120952   4.871   5.789   1.262
 6996TIP3    H220953   5.012   5.734   1.258
 6997TIP3   OH220954   0.169   0.245   5.554
 6997TIP3    H120955   0.195   0.164   5.512
 6997TIP3    H220956   0.230   0.254   5.627
 6998TIP3   OH220957   0.764   4.001   0.619
 6998TIP3    H120958   0.783   3.937   0.688
 6998TIP3    H220959   0.839   3.995   0.559
 6999TIP3   OH220960   5.752   0.222   3.590
 6999TIP3    H120961   5.740   0.315   3.609
 6999TIP3    H220962   5.724   0.213   3.499
 7000TIP3   OH220963   5.505   0.701   3.025
 7000TIP3    H120964   5.446   0.776   3.032
 7000TIP3    H220965   5.449   0.625   3.040
 7001TIP3   OH220966   4.568   5.270   0.246
 7001TIP3    H120967   4.525   5.338   0.297
 7001TIP3    H220968   4.544   5.289   0.155
 7002TIP3   OH220969   0.818   5.296   2.098
 7002TIP3    H120970   0.877   5.251   2.038
 7002TIP3    H220971   0.866   5.373   2.128
 7003TIP3   OH220972   3.825   0.492   3.445
 7003TIP3    H120973   3.794   0.527   3.529
 7003TIP3    H220974   3.796   0.557   3.381
 7004TIP3   OH220975   2.763   5.371   2.192
 7004TIP3    H120976   2.712   5.450   2.211
 7004TIP3    H220977   2.707   5.320   2.133
 7005TIP3   OH220978   0.866   6.389   1.553
 7005TIP3    H120979   0.960   6.372   1.543
 7005TIP3    H220980   0.851   6.471   1.507
 7006TIP3   OH220981   6.190   1.497   2.970
 7006TIP3    H120982   6.153   1.540   2.893
 7006TIP3    H220983   6.114   1.459   3.015
 7007TIP3   OH220984   2.323   4.420   2.398
 7007TIP3    H120985   2.342   4.479   2.471
 7007TIP3    H220986   2.279   4.476   2.334
 7008TIP3   OH220987   5.978   1.128   3.561
 7008TIP3    H120988   5.886   1.153   3.552
 7008TIP3    H220989   5.984   1.086   3.647
 7009TIP3   OH220990   4.796   6.544   0.339
 7009TIP3    H120991   4.756   6.578   0.260
 7009TIP3    H220992   4.880   6.507   0.310
 7010TIP3   OH220993   2.462   3.322   5.740
 7010TIP3    H120994   2.392   3.337   5.804
 7010TIP3    H220995   2.417   3.313   5.656
 7011TIP3   OH220996   5.438   5.037   4.101
 7011TIP3    H120997   5.355   4.998   4.074
 7011TIP3    H220998   5.490   4.964   4.135
 7012TIP3   OH220999   1.213   6.720   3.806
 7012TIP3    H121000   1.165   6.646   3.770
 7012TIP3    H221001   1.258   6.758   3.730
 7013TIP3   OH221002   2.984   4.589   0.921
 7013TIP3    H121003   2.971   4.586   1.016
 7013TIP3    H221004   3.022   4.504   0.899
 7014TIP3   OH221005   4.315   1.946   3.798
 7014TIP3    H121006   4.401   1.943   3.757
 7014TIP3    H221007   4.332   1.933   3.891
 7015TIP3   OH221008   0.730   5.604   1.675
 7015TIP3    H121009   0.661   5.670   1.675
 7015TIP3    H221010   0.801   5.645   1.625
 7016TIP3   OH221011   3.779   6.300   0.272
 7016TIP3    H121012   3.741   6.213   0.272
 7016TIP3    H221013   3.846   6.298   0.340
 7017TIP3   OH221014   1.475   6.678   0.754
 7017TIP3    H121015   1.461   6.686   0.660
 7017TIP3    H221016   1.568   6.700   0.767
 7018TIP3   OH221017   6.601   3.952   2.232
 7018TIP3    H121018   6.534   3.898   2.275
 7018TIP3    H221019   6.601   4.034   2.282
 7019TIP3   OH221020   6.410   2.569   1.415
 7019TIP3    H121021   6.452   2.541   1.496
 7019TIP3    H221022   6.463   2.528   1.346
 7020TIP3   OH221023   2.347   0.284   4.404
 7020TIP3    H121024   2.346   0.256   4.495
 7020TIP3    H221025   2.344   0.202   4.354
 7021TIP3   OH221026   5.426   2.240   2.140
 7021TIP3    H121027   5.506   2.245   2.191
 7021TIP3    H221028   5.394   2.331   2.137
 7022TIP3   OH221029   4.804   6.594   1.493
 7022TIP3    H121030   4.757   6.541   1.429
 7022TIP3    H221031   4.876   6.634   1.443
 7023TIP3   OH221032   6.193   2.977   5.588
 7023TIP3    H121033   6.102   2.967   5.617
 7023TIP3    H221034   6.232   2.890   5.599
 7024TIP3   OH221035   4.036   2.439   0.470
 7024TIP3    H121036   3.983   2.512   0.499
 7024TIP3    H221037   4.083   2.472   0.393
 7025TIP3   OH221038   4.305   0.991   1.973
 7025TIP3    H121039   4.256   0.967   1.894
 7025TIP3    H221040   4.318   1.085   1.964
 7026TIP3   OH221041   6.226   0.405   3.597
 7026TIP3    H121042   6.157   0.341   3.615
 7026TIP3    H221043   6.293   0.387   3.663
 7027TIP3   OH221044   4.890   0.658   4.118
 7027TIP3    H121045   4.812   0.698   4.156
 7027TIP3    H221046   4.867   0.638   4.028
 7028TIP3   OH221047   2.063   3.371   5.257
 7028TIP3    H121048   2.012   3.374   5.176
 7028TIP3    H221049   2.142   3.322   5.234
 7029TIP3   OH221050   4.366   3.394   1.235
 7029TIP3    H121051   4.431   3.374   1.167
 7029TIP3    H221052   4.306   3.319   1.234
 7030TIP3   OH221053   7.169   3.142   1.973
 7030TIP3    H121054   7.093   3.158   2.028
 7030TIP3    H221055   7.135   3.140   1.884
 7031TIP3   OH221056   3.527   0.567   1.250
 7031TIP3    H121057   3.569   0.599   1.170
 7031TIP3    H221058   3.528   0.472   1.242
 7032TIP3   OH221059   7.015   1.110   3.167
 7032TIP3    H121060   6.922   1.091   3.179
 7032TIP3    H221061   7.043   1.147   3.251
 7033TIP3   OH221062   2.197   3.820   2.204
 7033TIP3    H121063   2.113   3.780   2.182
 7033TIP3    H221064   2.236   3.842   2.119
 7034TIP3   OH221065   3.222   6.514   1.490
 7034TIP3    H121066   3.301   6.468   1.460
 7034TIP3    H221067   3.226   6.507   1.585
 7035TIP3   OH221068   4.176   3.871   0.107
 7035TIP3    H121069   4.263   3.832   0.110
 7035TIP3    H221070   4.169   3.920   0.188
 7036TIP3   OH221071   1.822   6.066   4.430
 7036TIP3    H121072   1.772   6.024   4.361
 7036TIP3    H221073   1.912   6.069   4.396
 7037TIP3   OH221074   0.040   5.816   0.255
 7037TIP3    H121075   0.094   5.895   0.262
 7037TIP3    H221076  -0.050   5.848   0.264
 7038TIP3   OH221077   7.092   3.859   0.811
 7038TIP3    H121078   7.031   3.817   0.752
 7038TIP3    H221079   7.064   3.950   0.814
 7039TIP3   OH221080   3.515   6.520   1.389
 7039TIP3    H121081   3.532   6.612   1.407
 7039TIP3    H221082   3.533   6.510   1.296
 7040TIP3   OH221083   5.078   5.735   3.578
 7040TIP3    H121084   5.147   5.802   3.576
 7040TIP3    H221085   5.117   5.661   3.624
 7041TIP3   OH221086   6.932   0.395   3.449
 7041TIP3    H121087   6.857   0.361   3.498
 7041TIP3    H221088   6.920   0.361   3.360
 7042TIP3   OH221089   6.481   0.975   2.020
 7042TIP3    H121090   6.443   0.889   2.036
 7042TIP3    H221091   6.405   1.033   2.010
 7043TIP3   OH221092   4.792   5.035   5.777
 7043TIP3    H121093   4.846   5.053   5.854
 7043TIP3    H221094   4.703   5.033   5.811
 7044TIP3   OH221095   6.877   3.775   4.220
 7044TIP3    H121096   6.954   3.797   4.167
 7044TIP3    H221097   6.829   3.857   4.229
 7045TIP3   OH221098   4.460   3.200   0.840
 7045TIP3    H121099   4.495   3.228   0.925
 7045TIP3    H221100   4.445   3.281   0.792
 7046TIP3   OH221101   6.550   1.169   3.695
 7046TIP3    H121102   6.476   1.109   3.694
 7046TIP3    H221103   6.563   1.193   3.603
 7047TIP3   OH221104   6.049   2.922   4.120
 7047TIP3    H121105   6.002   2.920   4.203
 7047TIP3    H221106   6.138   2.895   4.142
 7048TIP3   OH221107   1.035   3.351   2.563
 7048TIP3    H121108   1.108   3.351   2.502
 7048TIP3    H221109   0.959   3.375   2.510
 7049TIP3   OH221110   1.553   4.702   4.544
 7049TIP3    H121111   1.629   4.758   4.527
 7049TIP3    H221112   1.481   4.763   4.559
 7050TIP3   OH221113   6.718   1.748   5.061
 7050TIP3    H121114   6.771   1.818   5.023
 7050TIP3    H221115   6.728   1.759   5.155
 7051TIP3   OH221116   1.877   5.829   5.337
 7051TIP3    H121117   1.944   5.764   5.316
 7051TIP3    H221118   1.914   5.879   5.410
 7052TIP3   OH221119   3.382   2.805   4.040
 7052TIP3    H121120   3.382   2.843   4.129
 7052TIP3    H221121   3.468   2.829   4.005
 7053TIP3   OH221122   0.077   2.057   2.703
 7053TIP3    H121123   0.163   2.026   2.677
 7053TIP3    H221124   0.082   2.152   2.695
 7054TIP3   OH221125   2.311   6.018   5.626
 7054TIP3    H121126   2.317   5.938   5.573
 7054TIP3    H221127   2.348   5.993   5.711
 7055TIP3   OH221128   4.637   5.669   5.661
 7055TIP3    H121129   4.686   5.665   5.579
 7055TIP3    H221130   4.575   5.742   5.649
 7056TIP3   OH221131   3.386   5.567   5.672
 7056TIP3    H121132   3.415   5.567   5.581
 7056TIP3    H221133   3.291   5.570   5.667
 7057TIP3   OH221134   6.513   0.144   1.653
 7057TIP3    H121135   6.535   0.233   1.681
 7057TIP3    H221136   6.421   0.133   1.677
 7058TIP3   OH221137   3.700   6.656   1.113
 7058TIP3    H121138   3.717   6.580   1.057
 7058TIP3    H221139   3.728   6.731   1.061
 7059TIP3   OH221140   6.126   1.276   4.576
 7059TIP3    H121141   6.152   1.222   4.650
 7059TIP3    H221142   6.079   1.350   4.616
 7060TIP3   OH221143   2.221   1.934   5.591
 7060TIP3    H121144   2.140   1.953   5.544
 7060TIP3    H221145   2.284   1.908   5.523
 7061TIP3   OH221146   1.879   3.513   1.176
 7061TIP3    H121147   1.948   3.448   1.185
 7061TIP3    H221148   1.911   3.589   1.225
 7062TIP3   OH221149   0.340   0.883   2.683
 7062TIP3    H121150   0.323   0.881   2.589
 7062TIP3    H221151   0.257   0.911   2.722
 7063TIP3   OH221152   6.878   2.605   0.737
 7063TIP3    H121153   6.895   2.510   0.735
 7063TIP3    H221154   6.955   2.643   0.695
 7064TIP3   OH221155   4.409   4.266   2.505
 7064TIP3    H121156   4.394   4.178   2.542
 7064TIP3    H221157   4.462   4.310   2.571
 7065TIP3   OH221158   3.296   0.657   5.162
 7065TIP3    H121159   3.392   0.655   5.156
 7065TIP3    H221160   3.275   0.584   5.221
 7066TIP3   OH221161   5.609   5.350   5.054
 7066TIP3    H121162   5.536   5.341   4.993
 7066TIP3    H221163   5.668   5.278   5.032
 7067TIP3   OH221164   3.447   2.156   2.626
 7067TIP3    H121165   3.449   2.213   2.703
 7067TIP3    H221166   3.387   2.200   2.565
 7068TIP3   OH221167   6.559   3.750   5.169
 7068TIP3    H121168   6.513   3.787   5.245
 7068TIP3    H221169   6.534   3.658   5.169
 7069TIP3   OH221170   3.445   4.260   3.776
 7069TIP3    H121171   3.404   4.182   3.812
 7069TIP3    H221172   3.484   4.231   3.693
 7070TIP3   OH221173   4.646   0.899   2.602
 7070TIP3    H121174   4.561   0.856   2.597
 7070TIP3    H221175   4.629   0.981   2.648
 7071TIP3   OH221176   6.119   1.357   2.537
 7071TIP3    H121177   6.056   1.427   2.557
 7071TIP3    H221178   6.103   1.336   2.445
 7072TIP3   OH221179   1.477   3.553   0.344
 7072TIP3    H121180   1.505   3.463   0.327
 7072TIP3    H221181   1.511   3.572   0.432
 7073TIP3   OH221182   2.969   6.214   2.759
 7073TIP3    H121183   3.007   6.247   2.678
 7073TIP3    H221184   2.941   6.125   2.738
 7074TIP3   OH221185   1.636   1.077   5.764
 7074TIP3    H121186   1.667   0.990   5.789
 7074TIP3    H221187   1.665   1.134   5.835
 7075TIP3   OH221188   0.540   5.016   2.902
 7075TIP3    H121189   0.611   5.042   2.962
 7075TIP3    H221190   0.544   4.920   2.900
 7076TIP3   OH221191   1.720   2.375   4.270
 7076TIP3    H121192   1.714   2.464   4.305
 7076TIP3    H221193   1.710   2.386   4.175
 7077TIP3   OH221194   1.847   3.904   5.787
 7077TIP3    H121195   1.860   3.961   5.711
 7077TIP3    H221196   1.933   3.864   5.801
 7078TIP3   OH221197   4.966   5.960   2.342
 7078TIP3    H121198   5.032   6.018   2.381
 7078TIP3    H221199   4.926   6.012   2.273
 7079TIP3   OH221200   4.218   3.526   4.715
 7079TIP3    H121201   4.268   3.607   4.721
 7079TIP3    H221202   4.132   3.549   4.748
 7080TIP3   OH221203   3.744   2.154   3.250
 7080TIP3    H121204   3.658   2.190   3.228
 7080TIP3    H221205   3.778   2.212   3.318
 7081TIP3   OH221206   0.516   5.168   5.436
 7081TIP3    H121207   0.570   5.194   5.362
 7081TIP3    H221208   0.426   5.176   5.404
 7082TIP3   OH221209   5.158   1.550   0.410
 7082TIP3    H121210   5.179   1.644   0.407
 7082TIP3    H221211   5.086   1.540   0.348
 7083TIP3   OH221212   5.304   3.875   5.164
 7083TIP3    H121213   5.277   3.930   5.238
 7083TIP3    H221214   5.268   3.920   5.088
 7084TIP3   OH221215   6.565   5.757   5.275
 7084TIP3    H121216   6.573   5.805   5.192
 7084TIP3    H221217   6.567   5.826   5.342
 7085TIP3   OH221218   4.527   3.924   4.102
 7085TIP3    H121219   4.471   3.988   4.058
 7085TIP3    H221220   4.501   3.928   4.194
 7086TIP3   OH221221   0.269   6.504   4.477
 7086TIP3    H121222   0.185   6.543   4.502
 7086TIP3    H221223   0.315   6.492   4.560
 7087TIP3   OH221224   6.088   5.502   2.935
 7087TIP3    H121225   6.157   5.443   2.903
 7087TIP3    H221226   6.011   5.445   2.945
 7088TIP3   OH221227   1.790   0.900   2.672
 7088TIP3    H121228   1.713   0.930   2.624
 7088TIP3    H221229   1.862   0.951   2.636
 7089TIP3   OH221230   0.688   5.230   5.229
 7089TIP3    H121231   0.712   5.304   5.174
 7089TIP3    H221232   0.771   5.195   5.260
 7090TIP3   OH221233   2.698   6.161   2.975
 7090TIP3    H121234   2.677   6.235   2.917
 7090TIP3    H221235   2.614   6.117   2.989
 7091TIP3   OH221236   5.904   4.762   0.099
 7091TIP3    H121237   5.876   4.726   0.183
 7091TIP3    H221238   5.973   4.702   0.069
 7092TIP3   OH221239   1.947   1.671   1.267
 7092TIP3    H121240   1.893   1.621   1.206
 7092TIP3    H221241   1.938   1.625   1.351
 7093TIP3   OH221242   3.767   3.481   2.223
 7093TIP3    H121243   3.852   3.498   2.183
 7093TIP3    H221244   3.761   3.544   2.294
 7094TIP3   OH221245   5.087   2.722   0.802
 7094TIP3    H121246   5.007   2.679   0.833
 7094TIP3    H221247   5.155   2.688   0.860
 7095TIP3   OH221248   2.807   5.922   3.033
 7095TIP3    H121249   2.820   5.865   2.957
 7095TIP3    H221250   2.807   6.010   2.996
 7096TIP3   OH221251   6.655   3.016   3.747
 7096TIP3    H121252   6.632   2.951   3.814
 7096TIP3    H221253   6.720   2.972   3.693
 7097TIP3   OH221254   4.354   1.738   1.610
 7097TIP3    H121255   4.402   1.709   1.533
 7097TIP3    H221256   4.278   1.784   1.575
 7098TIP3   OH221257  -0.004   4.620   3.905
 7098TIP3    H121258   0.044   4.633   3.987
 7098TIP3    H221259   0.033   4.684   3.845
 7099TIP3   OH221260   2.264   0.655   4.638
 7099TIP3    H121261   2.186   0.626   4.590
 7099TIP3    H221262   2.334   0.596   4.608
 7100TIP3   OH221263   7.093   3.340   5.686
 7100TIP3    H121264   7.110   3.421   5.639
 7100TIP3    H221265   6.997   3.337   5.694
 7101TIP3   OH221266   1.087   2.733   0.886
 7101TIP3    H121267   1.152   2.738   0.817
 7101TIP3    H221268   1.004   2.751   0.842
 7102TIP3   OH221269   4.861   1.390   2.517
 7102TIP3    H121270   4.810   1.470   2.520
 7102TIP3    H221271   4.875   1.366   2.608
 7103TIP3   OH221272   1.525   5.338   3.134
 7103TIP3    H121273   1.510   5.272   3.067
 7103TIP3    H221274   1.620   5.336   3.148
 7104TIP3   OH221275   5.867   3.819   1.712
 7104TIP3    H121276   5.915   3.864   1.782
 7104TIP3    H221277   5.827   3.743   1.755
 7105TIP3   OH221278   3.667   3.989   1.914
 7105TIP3    H121279   3.704   3.944   1.838
 7105TIP3    H221280   3.684   4.081   1.899
 7106TIP3   OH221281   5.356   3.590   0.963
 7106TIP3    H121282   5.307   3.587   0.881
 7106TIP3    H221283   5.434   3.537   0.946
 7107TIP3   OH221284   6.715   4.851   2.979
 7107TIP3    H121285   6.639   4.882   2.931
 7107TIP3    H221286   6.684   4.837   3.068
 7108TIP3   OH221287   6.285   6.730   3.863
 7108TIP3    H121288   6.271   6.684   3.945
 7108TIP3    H221289   6.201   6.772   3.844
 7109TIP3   OH221290   0.601   5.803   4.866
 7109TIP3    H121291   0.611   5.814   4.961
 7109TIP3    H221292   0.644   5.720   4.847
 7110TIP3   OH221293   5.563   3.831   1.636
 7110TIP3    H121294   5.523   3.799   1.717
 7110TIP3    H221295   5.499   3.812   1.568
 7111TIP3   OH221296   4.565   0.201   1.679
 7111TIP3    H121297   4.642   0.166   1.722
 7111TIP3    H221298   4.562   0.293   1.706
 7112TIP3   OH221299   5.607   4.383   1.350
 7112TIP3    H121300   5.699   4.387   1.323
 7112TIP3    H221301   5.574   4.303   1.309
 7113TIP3   OH221302   0.656   3.593   2.461
 7113TIP3    H121303   0.683   3.513   2.507
 7113TIP3    H221304   0.589   3.564   2.400
 7114TIP3   OH221305   1.058   4.767   2.076
 7114TIP3    H121306   1.126   4.740   2.138
 7114TIP3    H221307   1.104   4.786   1.995
 7115TIP3   OH221308   1.676   0.862   0.553
 7115TIP3    H121309   1.582   0.879   0.539
 7115TIP3    H221310   1.720   0.915   0.488
 7116TIP3   OH221311   2.709   0.113   5.851
 7116TIP3    H121312   2.799   0.080   5.854
 7116TIP3    H221313   2.718   0.208   5.852
 7117TIP3   OH221314   7.070   4.054   3.067
 7117TIP3    H121315   7.016   4.052   3.146
 7117TIP3    H221316   7.009   4.040   2.995
 7118TIP3   OH221317   4.846   2.404   2.989
 7118TIP3    H121318   4.897   2.480   2.958
 7118TIP3    H221319   4.908   2.354   3.041
 7119TIP3   OH221320   1.475   2.092   3.678
 7119TIP3    H121321   1.485   1.998   3.665
 7119TIP3    H221322   1.424   2.122   3.603
 7120TIP3   OH221323   3.678   2.683   1.844
 7120TIP3    H121324   3.666   2.683   1.749
 7120TIP3    H221325   3.725   2.764   1.862
 7121TIP3   OH221326   0.191   3.770   1.602
 7121TIP3    H121327   0.112   3.766   1.549
 7121TIP3    H221328   0.165   3.818   1.681
 7122TIP3   OH221329   4.300   4.987   2.633
 7122TIP3    H121330   4.211   4.986   2.599
 7122TIP3    H221331   4.318   4.895   2.656
 7123TIP3   OH221332   4.145   5.630   4.286
 7123TIP3    H121333   4.073   5.693   4.286
 7123TIP3    H221334   4.216   5.675   4.331
 7124TIP3   OH221335   4.859   0.402   4.704
 7124TIP3    H121336   4.865   0.446   4.789
 7124TIP3    H221337   4.948   0.369   4.687
 7125TIP3   OH221338   3.465   6.597   4.815
 7125TIP3    H121339   3.521   6.627   4.886
 7125TIP3    H221340   3.405   6.670   4.799
 7126TIP3   OH221341   1.784   4.638   4.979
 7126TIP3    H121342   1.873   4.627   4.947
 7126TIP3    H221343   1.729   4.598   4.911
 7127TIP3   OH221344   7.054   1.644   5.706
 7127TIP3    H121345   6.988   1.581   5.678
 7127TIP3    H221346   7.057   1.633   5.801
 7128TIP3   OH221347   3.479   6.566   4.532
 7128TIP3    H121348   3.471   6.577   4.627
 7128TIP3    H221349   3.566   6.599   4.512
 7129TIP3   OH221350   4.254   1.707   1.238
 7129TIP3    H121351   4.182   1.769   1.226
 7129TIP3    H221352   4.298   1.705   1.153
 7130TIP3   OH221353   6.123   0.637   4.713
 7130TIP3    H121354   6.145   0.578   4.786
 7130TIP3    H221355   6.190   0.705   4.716
 7131TIP3   OH221356   5.018   2.434   2.064
 7131TIP3    H121357   4.984   2.393   2.143
 7131TIP3    H221358   4.961   2.402   1.994
 7132TIP3   OH221359   5.285   5.796   2.502
 7132TIP3    H121360   5.295   5.741   2.580
 7132TIP3    H221361   5.290   5.734   2.429
 7133TIP3   OH221362   0.238   2.404   5.493
 7133TIP3    H121363   0.186   2.332   5.529
 7133TIP3    H221364   0.182   2.481   5.502
 7134TIP3   OH221365   7.046   3.701   1.029
 7134TIP3    H121366   7.051   3.753   0.949
 7134TIP3    H221367   7.124   3.726   1.079
 7135TIP3   OH221368   4.025   4.009   2.950
 7135TIP3    H121369   3.994   4.001   2.860
 7135TIP3    H221370   4.012   3.923   2.989
 7136TIP3   OH221371   1.639   0.617   2.476
 7136TIP3    H121372   1.677   0.641   2.560
 7136TIP3    H221373   1.547   0.598   2.495
 7137TIP3   OH221374   3.217   4.538   4.587
 7137TIP3    H121375   3.221   4.634   4.588
 7137TIP3    H221376   3.130   4.518   4.622
 7138TIP3   OH221377   2.615   4.653   2.376
 7138TIP3    H121378   2.603   4.725   2.315
 7138TIP3    H221379   2.673   4.687   2.444
 7139TIP3   OH221380   4.176   6.156   5.750
 7139TIP3    H121381   4.217   6.094   5.809
 7139TIP3    H221382   4.189   6.119   5.663
 7140TIP3   OH221383   2.708   0.636   1.741
 7140TIP3    H121384   2.715   0.564   1.678
 7140TIP3    H221385   2.642   0.607   1.804
 7141TIP3   OH221386   2.304   5.630   4.340
 7141TIP3    H121387   2.312   5.537   4.317
 7141TIP3    H221388   2.356   5.675   4.274
 7142TIP3   OH221389   0.649   4.504   5.374
 7142TIP3    H121390   0.695   4.560   5.312
 7142TIP3    H221391   0.681   4.531   5.459
 7143TIP3   OH221392   5.099   2.744   5.749
 7143TIP3    H121393   5.154   2.666   5.743
 7143TIP3    H221394   5.160   2.817   5.751
 7144TIP3   OH221395   1.245   0.668   4.626
 7144TIP3    H121396   1.211   0.646   4.540
 7144TIP3    H221397   1.273   0.585   4.663
 7145TIP3   OH221398   5.513   0.887   1.342
 7145TIP3    H121399   5.531   0.921   1.254
 7145TIP3    H221400   5.600   0.877   1.382
 7146TIP3   OH221401   3.955   2.211   4.032
 7146TIP3    H121402   3.874   2.258   4.050
 7146TIP3    H221403   4.018   2.247   4.094
 7147TIP3   OH221404   5.468   3.859   3.172
 7147TIP3    H121405   5.483   3.920   3.244
 7147TIP3    H221406   5.534   3.882   3.107
 7148TIP3   OH221407   6.044   1.977   1.254
 7148TIP3    H121408   5.974   2.021   1.205
 7148TIP3    H221409   6.121   2.030   1.237
 7149TIP3   OH221410   5.031   1.031   1.669
 7149TIP3    H121411   4.959   1.083   1.634
 7149TIP3    H221412   5.105   1.090   1.671
 7150TIP3   OH221413   2.673   5.339   2.521
 7150TIP3    H121414   2.753   5.295   2.492
 7150TIP3    H221415   2.681   5.342   2.617
 7151TIP3   OH221416   6.278   2.140   1.217
 7151TIP3    H121417   6.358   2.125   1.166
 7151TIP3    H221418   6.307   2.193   1.292
 7152TIP3   OH221419   5.796   0.093   5.795
 7152TIP3    H121420   5.835   0.006   5.791
 7152TIP3    H221421   5.728   0.086   5.862
 7153TIP3   OH221422   6.663   2.094   2.955
 7153TIP3    H121423   6.602   2.161   2.985
 7153TIP3    H221424   6.649   2.089   2.860
 7154TIP3   OH221425   5.717   3.614   2.991
 7154TIP3    H121426   5.763   3.689   3.028
 7154TIP3    H221427   5.629   3.647   2.971
 7155TIP3   OH221428   1.724   3.911   4.096
 7155TIP3    H121429   1.813   3.945   4.096
 7155TIP3    H221430   1.724   3.845   4.165
 7156TIP3   OH221431   2.233   4.996   0.088
 7156TIP3    H121432   2.296   5.066   0.108
 7156TIP3    H221433   2.174   4.995   0.163
 7157TIP3   OH221434   1.962   3.898   1.538
 7157TIP3    H121435   1.910   3.817   1.542
 7157TIP3    H221436   1.902   3.962   1.499
 7158TIP3   OH221437   5.101   5.313   1.587
 7158TIP3    H121438   5.097   5.255   1.512
 7158TIP3    H221439   5.014   5.353   1.592
 7159TIP3   OH221440   2.860   0.231   2.070
 7159TIP3    H121441   2.935   0.195   2.117
 7159TIP3    H221442   2.786   0.217   2.129
 7160TIP3   OH221443   7.146   1.140   2.929
 7160TIP3    H121444   7.096   1.130   3.011
 7160TIP3    H221445   7.117   1.224   2.894
 7161TIP3   OH221446   1.500   4.590   0.408
 7161TIP3    H121447   1.523   4.678   0.381
 7161TIP3    H221448   1.576   4.536   0.383
 7162TIP3   OH221449   4.278   4.318   0.583
 7162TIP3    H121450   4.282   4.234   0.629
 7162TIP3    H221451   4.367   4.352   0.588
 7163TIP3   OH221452   1.681   0.729   5.354
 7163TIP3    H121453   1.607   0.671   5.334
 7163TIP3    H221454   1.699   0.774   5.271
 7164TIP3   OH221455   2.008   6.396   5.709
 7164TIP3    H121456   2.013   6.394   5.804
 7164TIP3    H221457   2.082   6.343   5.679
 7165TIP3   OH221458   4.388   6.251   5.271
 7165TIP3    H121459   4.371   6.316   5.204
 7165TIP3    H221460   4.465   6.283   5.317
 7166TIP3   OH221461   3.831   5.690   2.259
 7166TIP3    H121462   3.866   5.774   2.286
 7166TIP3    H221463   3.763   5.711   2.195
 7167TIP3   OH221464   5.223   5.082   1.592
 7167TIP3    H121465   5.204   4.992   1.616
 7167TIP3    H221466   5.181   5.135   1.660
 7168TIP3   OH221467   1.040   5.198   0.177
 7168TIP3    H121468   0.957   5.218   0.221
 7168TIP3    H221469   1.071   5.118   0.219
 7169TIP3   OH221470   6.387   3.689   3.075
 7169TIP3    H121471   6.372   3.704   2.982
 7169TIP3    H221472   6.448   3.757   3.102
 7170TIP3   OH221473   6.854   2.430   1.346
 7170TIP3    H121474   6.933   2.414   1.397
 7170TIP3    H221475   6.802   2.490   1.399
 7171TIP3   OH221476   0.698   2.203   2.084
 7171TIP3    H121477   0.619   2.237   2.041
 7171TIP3    H221478   0.665   2.136   2.144
 7172TIP3   OH221479   6.207   3.793   4.109
 7172TIP3    H121480   6.183   3.885   4.121
 7172TIP3    H221481   6.147   3.762   4.040
 7173TIP3   OH221482   7.130   1.395   5.506
 7173TIP3    H121483   7.083   1.442   5.437
 7173TIP3    H221484   7.061   1.361   5.562
 7174TIP3   OH221485   4.761   4.576   5.093
 7174TIP3    H121486   4.770   4.513   5.022
 7174TIP3    H221487   4.749   4.522   5.171
 7175TIP3   OH221488   3.160   1.489   2.543
 7175TIP3    H121489   3.212   1.570   2.541
 7175TIP3    H221490   3.206   1.430   2.483
 7176TIP3   OH221491   2.142   3.810   4.415
 7176TIP3    H121492   2.155   3.900   4.385
 7176TIP3    H221493   2.144   3.757   4.335
 7177TIP3   OH221494   4.311   3.755   0.964
 7177TIP3    H121495   4.298   3.764   1.058
 7177TIP3    H221496   4.403   3.780   0.951
 7178TIP3   OH221497   5.110   0.170   3.071
 7178TIP3    H121498   5.114   0.152   2.977
 7178TIP3    H221499   5.196   0.147   3.104
 7179TIP3   OH221500   5.606   5.453   1.315
 7179TIP3    H121501   5.692   5.477   1.280
 7179TIP3    H221502   5.606   5.489   1.403
 7180TIP3   OH221503   3.356   4.879   3.624
 7180TIP3    H121504   3.321   4.968   3.623
 7180TIP3    H221505   3.298   4.830   3.682
 7181TIP3   OH221506   3.373   1.028   2.382
 7181TIP3    H121507   3.360   1.089   2.310
 7181TIP3    H221508   3.440   0.967   2.351
 7182TIP3   OH221509   1.569   5.636   4.890
 7182TIP3    H121510   1.593   5.601   4.976
 7182TIP3    H221511   1.651   5.634   4.840
 7183TIP3   OH221512   2.460   4.221   1.258
 7183TIP3    H121513   2.468   4.235   1.164
 7183TIP3    H221514   2.415   4.137   1.266
 7184TIP3   OH221515   0.106   1.332   3.117
 7184TIP3    H121516   0.130   1.413   3.162
 7184TIP3    H221517   0.092   1.359   3.026
 7185TIP3   OH221518   5.826   5.151   4.018
 7185TIP3    H121519   5.852   5.168   3.928
 7185TIP3    H221520   5.908   5.141   4.066
 7186TIP3   OH221521   2.924   1.502   4.252
 7186TIP3    H121522   2.980   1.564   4.204
 7186TIP3    H221523   2.890   1.444   4.185
 7187TIP3   OH221524   1.700   4.564   2.231
 7187TIP3    H121525   1.753   4.499   2.184
 7187TIP3    H221526   1.620   4.518   2.253
 7188TIP3   OH221527   1.203   2.703   2.729
 7188TIP3    H121528   1.252   2.723   2.649
 7188TIP3    H221529   1.264   2.721   2.800
 7189TIP3   OH221530   5.908   4.890   0.708
 7189TIP3    H121531   5.832   4.920   0.659
 7189TIP3    H221532   5.943   4.969   0.749
 7190TIP3   OH221533   4.450   4.098   0.118
 7190TIP3    H121534   4.489   4.186   0.114
 7190TIP3    H221535   4.407   4.094   0.203
 7191TIP3   OH221536   1.858   1.804   2.995
 7191TIP3    H121537   1.921   1.875   3.000
 7191TIP3    H221538   1.780   1.843   2.956
 7192TIP3   OH221539   1.572   2.158   0.864
 7192TIP3    H121540   1.611   2.228   0.915
 7192TIP3    H221541   1.493   2.134   0.913
 7193TIP3   OH221542   2.240   4.916   1.564
 7193TIP3    H121543   2.292   4.949   1.637
 7193TIP3    H221544   2.263   4.972   1.490
 7194TIP3   OH221545   6.519   2.851   2.841
 7194TIP3    H121546   6.544   2.840   2.749
 7194TIP3    H221547   6.590   2.903   2.879
 7195TIP3   OH221548   2.549   4.491   5.407
 7195TIP3    H121549   2.482   4.448   5.461
 7195TIP3    H221550   2.501   4.560   5.361
 7196TIP3   OH221551   7.148   0.090   4.896
 7196TIP3    H121552   7.061   0.061   4.923
 7196TIP3    H221553   7.203   0.077   4.974
 7197TIP3   OH221554   1.095   0.547   0.681
 7197TIP3    H121555   1.076   0.504   0.764
 7197TIP3    H221556   1.183   0.516   0.657
 7198TIP3   OH221557   3.707   1.585   3.678
 7198TIP3    H121558   3.642   1.558   3.613
 7198TIP3    H221559   3.736   1.503   3.719
 7199TIP3   OH221560   4.957   2.021   3.084
 7199TIP3    H121561   4.930   2.082   3.153
 7199TIP3    H221562   5.052   2.023   3.085
 7200TIP3   OH221563   5.820   4.132   0.643
 7200TIP3    H121564   5.789   4.223   0.643
 7200TIP3    H221565   5.914   4.139   0.625
 7201TIP3   OH221566   1.801   2.561   3.315
 7201TIP3    H121567   1.750   2.615   3.377
 7201TIP3    H221568   1.794   2.472   3.349
 7202TIP3   OH221569   2.828   0.166   0.432
 7202TIP3    H121570   2.897   0.232   0.432
 7202TIP3    H221571   2.787   0.174   0.518
 7203TIP3   OH221572   1.742   2.641   0.525
 7203TIP3    H121573   1.776   2.706   0.586
 7203TIP3    H221574   1.692   2.581   0.579
 7204TIP3   OH221575   3.367   0.109   2.382
 7204TIP3    H121576   3.281   0.087   2.418
 7204TIP3    H221577   3.428   0.050   2.426
 7205TIP3   OH221578   3.132   1.553   3.255
 7205TIP3    H121579   3.192   1.548   3.330
 7205TIP3    H221580   3.057   1.500   3.282
 7206TIP3   OH221581   4.633   2.078   1.405
 7206TIP3    H121582   4.726   2.091   1.422
 7206TIP3    H221583   4.613   1.993   1.445
 7207TIP3   OH221584   3.392   6.156   0.116
 7207TIP3    H121585   3.313   6.133   0.067
 7207TIP3    H221586   3.410   6.080   0.171
 7208TIP3   OH221587   0.569   3.607   5.198
 7208TIP3    H121588   0.643   3.653   5.238
 7208TIP3    H221589   0.580   3.622   5.104
 7209TIP3   OH221590   6.445   6.731   2.084
 7209TIP3    H121591   6.436   6.646   2.041
 7209TIP3    H221592   6.483   6.787   2.017
 7210TIP3   OH221593   0.515   2.937   2.395
 7210TIP3    H121594   0.434   2.887   2.399
 7210TIP3    H221595   0.569   2.890   2.332
 7211TIP3   OH221596   3.229   3.131   2.684
 7211TIP3    H121597   3.220   3.189   2.760
 7211TIP3    H221598   3.148   3.144   2.634
 7212TIP3   OH221599   0.832   5.903   4.066
 7212TIP3    H121600   0.834   5.938   3.976
 7212TIP3    H221601   0.839   5.808   4.055
 7213TIP3   OH221602   2.579   2.469   0.483
 7213TIP3    H121603   2.597   2.496   0.573
 7213TIP3    H221604   2.611   2.542   0.429
 7214TIP3   OH221605   0.732   3.609   1.245
 7214TIP3    H121606   0.704   3.694   1.280
 7214TIP3    H221607   0.812   3.589   1.294
 7215TIP3   OH221608   0.842   4.602   1.816
 7215TIP3    H121609   0.855   4.612   1.911
 7215TIP3    H221610   0.926   4.625   1.777
 7216TIP3   OH221611   2.476   3.919   1.129
 7216TIP3    H121612   2.399   3.880   1.087
 7216TIP3    H221613   2.448   3.938   1.218
 7217TIP3   OH221614   2.341   5.933   3.584
 7217TIP3    H121615   2.324   5.941   3.678
 7217TIP3    H221616   2.315   6.017   3.547
 7218TIP3   OH221617   1.369   5.011   1.341
 7218TIP3    H121618   1.368   4.923   1.381
 7218TIP3    H221619   1.343   5.070   1.412
 7219TIP3   OH221620   4.785   3.698   3.977
 7219TIP3    H121621   4.783   3.707   4.072
 7219TIP3    H221622   4.734   3.619   3.958
 7220TIP3   OH221623   1.585   2.244   3.287
 7220TIP3    H121624   1.511   2.260   3.345
 7220TIP3    H221625   1.661   2.280   3.334
 7221TIP3   OH221626   1.682   1.403   2.882
 7221TIP3    H121627   1.767   1.415   2.924
 7221TIP3    H221628   1.619   1.400   2.954
 7222TIP3   OH221629   4.172   2.563   1.990
 7222TIP3    H121630   4.243   2.601   2.042
 7222TIP3    H221631   4.112   2.526   2.055
 7223TIP3   OH221632   1.859   0.005   3.781
 7223TIP3    H121633   1.877   0.099   3.780
 7223TIP3    H221634   1.780  -0.006   3.729
 7224TIP3   OH221635   1.683   2.096   2.972
 7224TIP3    H121636   1.621   2.039   2.926
 7224TIP3    H221637   1.631   2.137   3.041
 7225TIP3   OH221638   1.390   2.429   2.964
 7225TIP3    H121639   1.485   2.434   2.976
 7225TIP3    H221640   1.359   2.518   2.982
 7226TIP3   OH221641   3.919   5.061   5.545
 7226TIP3    H121642   4.015   5.061   5.547
 7226TIP3    H221643   3.894   4.983   5.596
 7227TIP3   OH221644   0.937   5.876   2.193
 7227TIP3    H121645   0.999   5.819   2.149
 7227TIP3    H221646   0.989   5.950   2.225
 7228TIP3   OH221647   0.298   3.674   3.579
 7228TIP3    H121648   0.384   3.648   3.613
 7228TIP3    H221649   0.278   3.756   3.625
 7229TIP3   OH221650   1.214   2.413   4.314
 7229TIP3    H121651   1.202   2.344   4.379
 7229TIP3    H221652   1.137   2.408   4.258
 7230TIP3   OH221653   4.260   3.349   0.469
 7230TIP3    H121654   4.191   3.344   0.403
 7230TIP3    H221655   4.219   3.392   0.544
 7231TIP3   OH221656   5.005   3.969   3.984
 7231TIP3    H121657   5.047   4.012   4.059
 7231TIP3    H221658   4.943   3.908   4.024
 7232TIP3   OH221659   5.533   6.489   5.478
 7232TIP3    H121660   5.560   6.580   5.470
 7232TIP3    H221661   5.476   6.487   5.555
 7233TIP3   OH221662   4.740   2.030   5.027
 7233TIP3    H121663   4.653   2.027   5.066
 7233TIP3    H221664   4.763   2.123   5.024
 7234TIP3   OH221665   6.693   2.207   5.438
 7234TIP3    H121666   6.625   2.257   5.392
 7234TIP3    H221667   6.659   2.200   5.528
 7235TIP3   OH221668   6.880   2.687   3.830
 7235TIP3    H121669   6.947   2.751   3.806
 7235TIP3    H221670   6.900   2.665   3.921
 7236TIP3   OH221671   4.606   5.684   2.130
 7236TIP3    H121672   4.638   5.773   2.114
 7236TIP3    H221673   4.512   5.694   2.140
 7237TIP3   OH221674   4.283   0.976   5.540
 7237TIP3    H121675   4.289   0.978   5.635
 7237TIP3    H221676   4.206   0.922   5.522
 7238TIP3   OH221677   1.123   6.480   3.742
 7238TIP3    H121678   1.178   6.454   3.669
 7238TIP3    H221679   1.060   6.408   3.752
 7239TIP3   OH221680   4.757   5.697   1.864
 7239TIP3    H121681   4.824   5.629   1.871
 7239TIP3    H221682   4.722   5.706   1.952
 7240TIP3   OH221683   2.944   1.097   0.838
 7240TIP3    H121684   2.949   1.116   0.744
 7240TIP3    H221685   2.890   1.167   0.874
 7241TIP3   OH221686   1.674   3.183   2.505
 7241TIP3    H121687   1.640   3.132   2.432
 7241TIP3    H221688   1.678   3.121   2.578
 7242TIP3   OH221689   4.162   2.955   3.074
 7242TIP3    H121690   4.168   3.027   3.137
 7242TIP3    H221691   4.070   2.928   3.077
 7243TIP3   OH221692   6.737   1.988   1.626
 7243TIP3    H121693   6.707   2.038   1.550
 7243TIP3    H221694   6.663   1.932   1.648
 7244TIP3   OH221695   5.010   6.458   1.652
 7244TIP3    H121696   4.927   6.506   1.655
 7244TIP3    H221697   5.076   6.524   1.672
 7245TIP3   OH221698   5.806   0.042   1.924
 7245TIP3    H121699   5.718   0.008   1.907
 7245TIP3    H221700   5.834   0.079   1.840
 7246TIP3   OH221701   2.424   3.541   5.457
 7246TIP3    H121702   2.379   3.457   5.454
 7246TIP3    H221703   2.418   3.575   5.368
 7247TIP3   OH221704   5.588   6.029   1.685
 7247TIP3    H121705   5.540   6.111   1.695
 7247TIP3    H221706   5.534   5.964   1.730
 7248TIP3   OH221707   0.736   3.762   0.010
 7248TIP3    H121708   0.760   3.677   0.047
 7248TIP3    H221709   0.647   3.777   0.040
 7249TIP3   OH221710   2.575   2.337   0.254
 7249TIP3    H121711   2.569   2.378   0.341
 7249TIP3    H221712   2.511   2.266   0.257
 7250TIP3   OH221713   2.794   4.705   5.380
 7250TIP3    H121714   2.715   4.656   5.401
 7250TIP3    H221715   2.798   4.773   5.448
 7251TIP3   OH221716   2.683   3.207   0.326
 7251TIP3    H121717   2.598   3.226   0.285
 7251TIP3    H221718   2.746   3.213   0.254
 7252TIP3   OH221719   0.886   5.656   5.511
 7252TIP3    H121720   0.840   5.734   5.540
 7252TIP3    H221721   0.974   5.664   5.548
 7253TIP3   OH221722   6.123   2.874  -0.001
 7253TIP3    H121723   6.155   2.948   0.051
 7253TIP3    H221724   6.087   2.814   0.064
 7254TIP3   OH221725   0.396   4.087   2.916
 7254TIP3    H121726   0.382   4.154   2.984
 7254TIP3    H221727   0.328   4.105   2.851
 7255TIP3   OH221728   4.121   0.213   5.773
 7255TIP3    H121729   4.127   0.179   5.862
 7255TIP3    H221730   4.058   0.284   5.779
 7256TIP3   OH221731   0.079   0.075   0.158
 7256TIP3    H121732   0.002   0.026   0.128
 7256TIP3    H221733   0.130   0.090   0.079
 7257TIP3   OH221734   0.329   6.028   5.238
 7257TIP3    H121735   0.296   5.972   5.168
 7257TIP3    H221736   0.377   5.968   5.295
 7258TIP3   OH221737   5.532   6.155   4.747
 7258TIP3    H121738   5.530   6.107   4.830
 7258TIP3    H221739   5.566   6.241   4.770
 7259TIP3   OH221740   1.303   5.532   2.270
 7259TIP3    H121741   1.387   5.492   2.291
 7259TIP3    H221742   1.324   5.621   2.242
 7260TIP3   OH221743   3.137   2.262   2.255
 7260TIP3    H121744   3.172   2.327   2.194
 7260TIP3    H221745   3.057   2.230   2.213
 7261TIP3   OH221746   3.464   5.100   2.014
 7261TIP3    H121747   3.450   5.050   2.095
 7261TIP3    H221748   3.461   5.035   1.944
 7262TIP3   OH221749   3.000   4.474   3.880
 7262TIP3    H121750   3.086   4.451   3.915
 7262TIP3    H221751   2.953   4.511   3.954
 7263TIP3   OH221752   1.937   5.939   3.024
 7263TIP3    H121753   1.880   5.877   3.069
 7263TIP3    H221754   1.902   6.026   3.048
 7264TIP3   OH221755   3.568   5.110   3.904
 7264TIP3    H121756   3.589   5.017   3.897
 7264TIP3    H221757   3.620   5.151   3.835
 7265TIP3   OH221758   6.983   2.459   2.292
 7265TIP3    H121759   6.908   2.432   2.239
 7265TIP3    H221760   6.962   2.429   2.380
 7266TIP3   OH221761   1.050   5.492   1.396
 7266TIP3    H121762   1.053   5.524   1.306
 7266TIP3    H221763   0.982   5.544   1.439
 7267TIP3   OH221764   1.281   6.185   0.252
 7267TIP3    H121765   1.231   6.119   0.204
 7267TIP3    H221766   1.214   6.240   0.294
 7268TIP3   OH221767   5.101   1.502   4.047
 7268TIP3    H121768   5.011   1.506   4.080
 7268TIP3    H221769   5.126   1.410   4.058
 7269TIP3   OH221770   6.671   3.198   1.019
 7269TIP3    H121771   6.606   3.250   1.066
 7269TIP3    H221772   6.725   3.262   0.973
 7270TIP3   OH221773   2.797   2.746   2.456
 7270TIP3    H121774   2.796   2.791   2.540
 7270TIP3    H221775   2.794   2.653   2.479
 7271TIP3   OH221776   1.791   5.967   0.584
 7271TIP3    H121777   1.753   5.919   0.511
 7271TIP3    H221778   1.826   5.900   0.642
 7272TIP3   OH221779   5.446   1.513   3.740
 7272TIP3    H121780   5.394   1.543   3.665
 7272TIP3    H221781   5.536   1.535   3.716
 7273TIP3   OH221782   3.966   2.392   4.834
 7273TIP3    H121783   4.054   2.415   4.804
 7273TIP3    H221784   3.908   2.455   4.791
 7274TIP3   OH221785   2.096   4.874   5.263
 7274TIP3    H121786   2.119   4.841   5.350
 7274TIP3    H221787   2.076   4.967   5.277
 7275TIP3   OH221788   4.958   2.543   3.709
 7275TIP3    H121789   4.972   2.607   3.639
 7275TIP3    H221790   4.865   2.522   3.704
 7276TIP3   OH221791   4.246   6.630   5.169
 7276TIP3    H121792   4.247   6.723   5.192
 7276TIP3    H221793   4.182   6.591   5.228
 7277TIP3   OH221794   6.397   0.341   3.780
 7277TIP3    H121795   6.473   0.398   3.774
 7277TIP3    H221796   6.430   0.261   3.822
 7278TIP3   OH221797   6.580   1.735   0.811
 7278TIP3    H121798   6.535   1.700   0.888
 7278TIP3    H221799   6.672   1.716   0.826
 7279TIP3   OH221800   6.632   1.351   2.571
 7279TIP3    H121801   6.615   1.257   2.573
 7279TIP3    H221802   6.552   1.391   2.605
 7280TIP3   OH221803   0.511   0.911   1.290
 7280TIP3    H121804   0.491   0.871   1.205
 7280TIP3    H221805   0.482   0.847   1.355
 7281TIP3   OH221806   1.991   2.387   3.942
 7281TIP3    H121807   1.986   2.392   3.846
 7281TIP3    H221808   1.900   2.378   3.971
 7282TIP3   OH221809   6.101   1.616   1.700
 7282TIP3    H121810   6.132   1.666   1.775
 7282TIP3    H221811   6.041   1.675   1.654
 7283TIP3   OH221812   4.660   5.653   1.272
 7283TIP3    H121813   4.650   5.564   1.305
 7283TIP3    H221814   4.575   5.673   1.232
 7284TIP3   OH221815   2.564   1.661   1.140
 7284TIP3    H121816   2.621   1.738   1.148
 7284TIP3    H221817   2.484   1.686   1.187
 7285TIP3   OH221818   5.815   3.436   1.709
 7285TIP3    H121819   5.820   3.522   1.749
 7285TIP3    H221820   5.742   3.393   1.754
 7286TIP3   OH221821   7.051   0.627   0.220
 7286TIP3    H121822   6.958   0.622   0.240
 7286TIP3    H221823   7.063   0.714   0.181
 7287TIP3   OH221824   3.912   4.003   0.413
 7287TIP3    H121825   3.855   3.940   0.369
 7287TIP3    H221826   3.992   3.953   0.432
 7288TIP3   OH221827   5.597   2.926   1.197
 7288TIP3    H121828   5.556   2.923   1.111
 7288TIP3    H221829   5.690   2.941   1.179
 7289TIP3   OH221830   4.246   2.134   1.415
 7289TIP3    H121831   4.156   2.132   1.449
 7289TIP3    H221832   4.237   2.172   1.327
 7290TIP3   OH221833   3.805   4.690   4.438
 7290TIP3    H121834   3.743   4.761   4.453
 7290TIP3    H221835   3.798   4.671   4.345
 7291TIP3   OH221836   2.416   6.034   4.952
 7291TIP3    H121837   2.363   5.990   4.886
 7291TIP3    H221838   2.465   6.101   4.904
 7292TIP3   OH221839   3.463   1.157   1.101
 7292TIP3    H121840   3.457   1.070   1.142
 7292TIP3    H221841   3.373   1.177   1.074
 7293TIP3   OH221842   2.752   0.873   4.897
 7293TIP3    H121843   2.733   0.801   4.957
 7293TIP3    H221844   2.671   0.884   4.847
 7294TIP3   OH221845   1.724   2.707   5.750
 7294TIP3    H121846   1.740   2.785   5.804
 7294TIP3    H221847   1.632   2.686   5.766
 7295TIP3   OH221848   5.827   5.184   1.293
 7295TIP3    H121849   5.793   5.203   1.381
 7295TIP3    H221850   5.885   5.109   1.305
 7296TIP3   OH221851   6.578   4.429   5.414
 7296TIP3    H121852   6.486   4.408   5.430
 7296TIP3    H221853   6.576   4.517   5.375
 7297TIP3   OH221854   0.796   3.536   2.734
 7297TIP3    H121855   0.870   3.526   2.794
 7297TIP3    H221856   0.731   3.473   2.765
 7298TIP3   OH221857   3.719   5.007   0.718
 7298TIP3    H121858   3.669   4.932   0.687
 7298TIP3    H221859   3.717   5.001   0.814
 7299TIP3   OH221860   0.440   3.303   0.273
 7299TIP3    H121861   0.514   3.276   0.219
 7299TIP3    H221862   0.463   3.391   0.304
 7300TIP3   OH221863   5.932   6.166   3.030
 7300TIP3    H121864   5.935   6.076   2.997
 7300TIP3    H221865   5.927   6.156   3.125
 7301TIP3   OH221866   3.579   2.448   2.462
 7301TIP3    H121867   3.497   2.401   2.477
 7301TIP3    H221868   3.565   2.495   2.380
 7302TIP3   OH221869   4.882   0.290   1.235
 7302TIP3    H121870   4.870   0.383   1.252
 7302TIP3    H221871   4.808   0.266   1.180
 7303TIP3   OH221872   7.011   1.717   0.234
 7303TIP3    H121873   7.056   1.725   0.318
 7303TIP3    H221874   7.066   1.767   0.173
 7304TIP3   OH221875   4.093   1.884   1.086
 7304TIP3    H121876   4.038   1.813   1.054
 7304TIP3    H221877   4.031   1.952   1.114
 7305TIP3   OH221878   0.468   6.748   5.256
 7305TIP3    H121879   0.488   6.655   5.271
 7305TIP3    H221880   0.453   6.783   5.343
 7306TIP3   OH221881   1.861   2.239   1.155
 7306TIP3    H121882   1.862   2.286   1.072
 7306TIP3    H221883   1.781   2.268   1.199
 7307TIP3   OH221884   5.265   1.757   2.789
 7307TIP3    H121885   5.320   1.833   2.772
 7307TIP3    H221886   5.325   1.683   2.792
 7308TIP3   OH221887   6.575   4.194   2.370
 7308TIP3    H121888   6.573   4.212   2.464
 7308TIP3    H221889   6.645   4.250   2.336
 7309TIP3   OH221890   3.643   5.809   5.621
 7309TIP3    H121891   3.702   5.864   5.569
 7309TIP3    H221892   3.684   5.723   5.621
 7310TIP3   OH221893   0.822   6.637   2.989
 7310TIP3    H121894   0.900   6.581   2.982
 7310TIP3    H221895   0.766   6.608   2.917
 7311TIP3   OH221896   4.212   3.698   0.369
 7311TIP3    H121897   4.183   3.607   0.368
 7311TIP3    H221898   4.307   3.694   0.355
 7312TIP3   OH221899   1.741   2.273   3.989
 7312TIP3    H121900   1.678   2.340   3.963
 7312TIP3    H221901   1.744   2.213   3.914
 7313TIP3   OH221902   6.387   0.221   4.449
 7313TIP3    H121903   6.436   0.284   4.396
 7313TIP3    H221904   6.359   0.271   4.526
 7314TIP3   OH221905   2.769   3.460   5.316
 7314TIP3    H121906   2.816   3.426   5.393
 7314TIP3    H221907   2.720   3.535   5.350
 7315TIP3   OH221908   2.116   5.340   0.095
 7315TIP3    H121909   2.178   5.289   0.146
 7315TIP3    H221910   2.146   5.330   0.004
 7316TIP3   OH221911   4.795   6.349   3.285
 7316TIP3    H121912   4.833   6.350   3.198
 7316TIP3    H221913   4.856   6.297   3.338
 7317TIP3   OH221914   4.886   5.061   3.412
 7317TIP3    H121915   4.863   4.990   3.353
 7317TIP3    H221916   4.803   5.088   3.450
 7318TIP3   OH221917   5.023   3.772   1.365
 7318TIP3    H121918   5.045   3.722   1.286
 7318TIP3    H221919   4.944   3.821   1.340
 7319TIP3   OH221920   1.434   1.842   3.177
 7319TIP3    H121921   1.456   1.895   3.100
 7319TIP3    H221922   1.391   1.764   3.142
 7320TIP3   OH221923   0.136   5.058   5.643
 7320TIP3    H121924   0.163   4.970   5.669
 7320TIP3    H221925   0.184   5.075   5.562
 7321TIP3   OH221926   4.776   3.482   3.417
 7321TIP3    H121927   4.853   3.538   3.422
 7321TIP3    H221928   4.810   3.393   3.414
 7322TIP3   OH221929   2.918   2.986   1.424
 7322TIP3    H121930   2.852   3.019   1.485
 7322TIP3    H221931   2.897   2.893   1.415
 7323TIP3   OH221932   6.487   2.832   3.912
 7323TIP3    H121933   6.481   2.738   3.928
 7323TIP3    H221934   6.453   2.844   3.823
 7324TIP3   OH221935   3.957   5.711   4.022
 7324TIP3    H121936   3.957   5.738   4.114
 7324TIP3    H221937   3.974   5.617   4.025
 7325TIP3   OH221938   3.105   3.738   2.872
 7325TIP3    H121939   3.155   3.793   2.811
 7325TIP3    H221940   3.085   3.659   2.823
 7326TIP3   OH221941   5.057   2.217   5.520
 7326TIP3    H121942   5.034   2.304   5.552
 7326TIP3    H221943   4.995   2.200   5.449
 7327TIP3   OH221944   2.166   5.618   1.837
 7327TIP3    H121945   2.114   5.562   1.894
 7327TIP3    H221946   2.102   5.672   1.791
 7328TIP3   OH221947   3.555   2.192   1.538
 7328TIP3    H121948   3.464   2.164   1.541
 7328TIP3    H221949   3.557   2.263   1.474
 7329TIP3   OH221950   1.441   1.478   0.652
 7329TIP3    H121951   1.435   1.573   0.653
 7329TIP3    H221952   1.352   1.449   0.635
 7330TIP3   OH221953   6.610   3.402   2.229
 7330TIP3    H121954   6.614   3.465   2.156
 7330TIP3    H221955   6.669   3.438   2.295
 7331TIP3   OH221956   2.382   3.442   4.034
 7331TIP3    H121957   2.400   3.496   3.957
 7331TIP3    H221958   2.466   3.433   4.077
 7332TIP3   OH221959   1.200   2.318   1.525
 7332TIP3    H121960   1.112   2.329   1.490
 7332TIP3    H221961   1.187   2.301   1.619
 7333TIP3   OH221962   1.830   6.159   5.474
 7333TIP3    H121963   1.880   6.211   5.412
 7333TIP3    H221964   1.892   6.092   5.505
 7334TIP3   OH221965   1.474   6.626   1.168
 7334TIP3    H121966   1.555   6.661   1.206
 7334TIP3    H221967   1.504   6.566   1.099
 7335TIP3   OH221968   1.032   1.367   0.286
 7335TIP3    H121969   0.961   1.307   0.263
 7335TIP3    H221970   1.091   1.366   0.210
 7336TIP3   OH221971   6.661   1.651   2.934
 7336TIP3    H121972   6.728   1.596   2.893
 7336TIP3    H221973   6.597   1.589   2.969
 7337TIP3   OH221974   4.400   4.336   4.346
 7337TIP3    H121975   4.332   4.291   4.397
 7337TIP3    H221976   4.357   4.415   4.313
 7338TIP3   OH221977   2.621   5.931   0.340
 7338TIP3    H121978   2.533   5.964   0.356
 7338TIP3    H221979   2.670   6.005   0.305
 7339TIP3   OH221980   2.147   0.307   5.073
 7339TIP3    H121981   2.195   0.370   5.018
 7339TIP3    H221982   2.216   0.261   5.120
 7340TIP3   OH221983   0.833   2.946   5.117
 7340TIP3    H121984   0.912   2.992   5.090
 7340TIP3    H221985   0.845   2.857   5.082
 7341TIP3   OH221986   3.226   1.776   2.650
 7341TIP3    H121987   3.292   1.823   2.600
 7341TIP3    H221988   3.195   1.839   2.715
 7342TIP3   OH221989   0.870   5.655   4.743
 7342TIP3    H121990   0.899   5.685   4.656
 7342TIP3    H221991   0.783   5.692   4.754
 7343TIP3   OH221992   4.609   6.340   3.582
 7343TIP3    H121993   4.667   6.397   3.531
 7343TIP3    H221994   4.609   6.257   3.535
 7344TIP3   OH221995   3.547   4.726   5.632
 7344TIP3    H121996   3.599   4.730   5.552
 7344TIP3    H221997   3.601   4.675   5.693
 7345TIP3   OH221998   3.579   2.034   1.972
 7345TIP3    H121999   3.647   1.976   2.006
 7345TIP3    H222000   3.533   2.066   2.049
 7346TIP3   OH222001   2.576   2.914   2.834
 7346TIP3    H122002   2.597   2.821   2.825
 7346TIP3    H222003   2.511   2.917   2.904
 7347TIP3   OH222004   0.639   0.633   5.049
 7347TIP3    H122005   0.608   0.723   5.035
 7347TIP3    H222006   0.709   0.642   5.113
 7348TIP3   OH222007   5.362   4.126   3.356
 7348TIP3    H122008   5.437   4.105   3.412
 7348TIP3    H222009   5.286   4.101   3.408
 7349TIP3   OH222010   3.990   0.278   3.034
 7349TIP3    H122011   4.071   0.323   3.058
 7349TIP3    H222012   3.929   0.349   3.013
 7350TIP3   OH222013   0.218   2.034   1.480
 7350TIP3    H122014   0.180   1.961   1.527
 7350TIP3    H222015   0.308   2.006   1.459
 7351TIP3   OH222016   1.732   4.490   4.425
 7351TIP3    H122017   1.755   4.567   4.476
 7351TIP3    H222018   1.722   4.420   4.490
 7352TIP3   OH222019   3.795   2.755   4.330
 7352TIP3    H122020   3.728   2.754   4.262
 7352TIP3    H222021   3.859   2.819   4.300
 7353TIP3   OH222022   6.858   6.649   4.852
 7353TIP3    H122023   6.769   6.678   4.871
 7353TIP3    H222024   6.868   6.568   4.903
 7354TIP3   OH222025   3.406   5.582   4.171
 7354TIP3    H122026   3.385   5.489   4.183
 7354TIP3    H222027   3.492   5.582   4.129
 7355TIP3   OH222028   3.362   6.585   5.845
 7355TIP3    H122029   3.345   6.510   5.903
 7355TIP3    H222030   3.288   6.585   5.784
 7356TIP3   OH222031   4.093   1.140   2.166
 7356TIP3    H122032   4.065   1.231   2.154
 7356TIP3    H222033   4.133   1.139   2.253
 7357TIP3   OH222034   6.446   4.593   4.071
 7357TIP3    H122035   6.400   4.670   4.038
 7357TIP3    H222036   6.460   4.611   4.163
 7358TIP3   OH222037   3.606   5.537   5.309
 7358TIP3    H122038   3.636   5.447   5.321
 7358TIP3    H222039   3.649   5.586   5.379
 7359TIP3   OH222040   4.038   5.264   5.281
 7359TIP3    H122041   4.084   5.182   5.262
 7359TIP3    H222042   4.102   5.332   5.263
 7360TIP3   OH222043   6.618   6.614   4.508
 7360TIP3    H122044   6.580   6.632   4.594
 7360TIP3    H222045   6.652   6.699   4.479
 7361TIP3   OH222046   3.540   1.299   0.494
 7361TIP3    H122047   3.574   1.215   0.465
 7361TIP3    H222048   3.529   1.349   0.413
 7362TIP3   OH222049   1.454   4.397   4.927
 7362TIP3    H122050   1.449   4.305   4.952
 7362TIP3    H222051   1.512   4.437   4.992
 7363TIP3   OH222052   3.342   0.688   0.047
 7363TIP3    H122053   3.309   0.610   0.002
 7363TIP3    H222054   3.317   0.761  -0.011
 7364TIP3   OH222055   4.603   6.633   3.097
 7364TIP3    H122056   4.554   6.648   3.178
 7364TIP3    H222057   4.692   6.658   3.118
 7365TIP3   OH222058   1.198   3.891   5.723
 7365TIP3    H122059   1.283   3.923   5.691
 7365TIP3    H222060   1.170   3.827   5.658
 7366TIP3   OH222061   1.604   2.970   3.008
 7366TIP3    H122062   1.604   2.877   2.983
 7366TIP3    H222063   1.601   2.969   3.103
 7367TIP3   OH222064   7.109   2.180   3.023
 7367TIP3    H122065   7.172   2.156   3.091
 7367TIP3    H222066   7.109   2.276   3.024
 7368TIP3   OH222067   6.779   6.024   2.691
 7368TIP3    H122068   6.766   6.018   2.785
 7368TIP3    H222069   6.803   5.935   2.664
 7369TIP3   OH222070   2.372   5.368   4.329
 7369TIP3    H122071   2.404   5.356   4.419
 7369TIP3    H222072   2.452   5.376   4.277
 7370TIP3   OH222073   2.238   5.298   2.071
 7370TIP3    H122074   2.218   5.214   2.112
 7370TIP3    H222075   2.173   5.307   2.002
 7371TIP3   OH222076   0.083   5.250   0.295
 7371TIP3    H122077   0.035   5.319   0.249
 7371TIP3    H222078   0.060   5.263   0.387
 7372TIP3   OH222079   2.199   6.723   5.775
 7372TIP3    H122080   2.151   6.797   5.739
 7372TIP3    H222081   2.139   6.649   5.766
 7373TIP3   OH222082   6.554   2.133   1.180
 7373TIP3    H122083   6.542   2.039   1.193
 7373TIP3    H222084   6.625   2.140   1.116
 7374TIP3   OH222085   2.420   5.108   5.241
 7374TIP3    H122086   2.453   5.085   5.328
 7374TIP3    H222087   2.325   5.114   5.251
 7375TIP3   OH222088   3.930   2.597   3.303
 7375TIP3    H122089   4.008   2.555   3.268
 7375TIP3    H222090   3.867   2.526   3.315
 7376TIP3   OH222091   2.758   5.656   4.253
 7376TIP3    H122092   2.713   5.702   4.324
 7376TIP3    H222093   2.689   5.608   4.207
 7377TIP3   OH222094   4.147   6.681   3.396
 7377TIP3    H122095   4.183   6.684   3.484
 7377TIP3    H222096   4.091   6.759   3.390
 7378TIP3   OH222097   2.854   1.940   0.917
 7378TIP3    H122098   2.854   1.909   0.826
 7378TIP3    H222099   2.763   1.930   0.945
 7379TIP3   OH222100   1.035   4.598   0.653
 7379TIP3    H122101   0.943   4.574   0.657
 7379TIP3    H222102   1.035   4.692   0.632
 7380TIP3   OH222103   3.587   0.455   5.362
 7380TIP3    H122104   3.616   0.386   5.301
 7380TIP3    H222105   3.495   0.469   5.339
 7381TIP3   OH222106   3.990   3.145   0.260
 7381TIP3    H122107   4.057   3.083   0.233
 7381TIP3    H222108   4.024   3.230   0.233
 7382TIP3   OH222109   2.881   5.703   1.927
 7382TIP3    H122110   2.827   5.626   1.911
 7382TIP3    H222111   2.832   5.754   1.992
 7383TIP3   OH222112   6.459   2.311   2.279
 7383TIP3    H122113   6.370   2.319   2.245
 7383TIP3    H222114   6.495   2.235   2.233
 7384TIP3   OH222115   6.836   3.531   4.320
 7384TIP3    H122116   6.844   3.608   4.264
 7384TIP3    H222117   6.926   3.513   4.349
 7385TIP3   OH222118   1.001   3.323   4.805
 7385TIP3    H122119   1.058   3.395   4.777
 7385TIP3    H222120   0.925   3.367   4.844
 7386TIP3   OH222121   5.984   5.273   0.445
 7386TIP3    H122122   5.958   5.188   0.410
 7386TIP3    H222123   5.918   5.294   0.511
 7387TIP3   OH222124   0.694   4.329   0.972
 7387TIP3    H122125   0.690   4.370   1.058
 7387TIP3    H222126   0.699   4.235   0.991
 7388TIP3   OH222127   0.363   0.027   2.621
 7388TIP3    H122128   0.344   0.028   2.715
 7388TIP3    H222129   0.426   0.098   2.608
 7389TIP3   OH222130   6.207   4.735   1.102
 7389TIP3    H122131   6.206   4.648   1.062
 7389TIP3    H222132   6.296   4.745   1.135
 7390TIP3   OH222133   3.705   2.043   1.706
 7390TIP3    H122134   3.647   2.035   1.782
 7390TIP3    H222135   3.649   2.079   1.637
 7391TIP3   OH222136   3.109   4.349   0.915
 7391TIP3    H122137   3.038   4.291   0.888
 7391TIP3    H222138   3.129   4.322   1.005
 7392TIP3   OH222139   0.419   2.498   0.406
 7392TIP3    H122140   0.459   2.533   0.486
 7392TIP3    H222141   0.477   2.526   0.336
 7393TIP3   OH222142   1.843   2.330   0.786
 7393TIP3    H122143   1.766   2.376   0.752
 7393TIP3    H222144   1.890   2.300   0.709
 7394TIP3   OH222145   5.823   6.694   1.181
 7394TIP3    H122146   5.881   6.769   1.195
 7394TIP3    H222147   5.736   6.733   1.169
 7395TIP3   OH222148   2.131   6.334   5.047
 7395TIP3    H122149   2.116   6.349   4.953
 7395TIP3    H222150   2.044   6.321   5.083
 7396TIP3   OH222151   0.442   3.192   0.969
 7396TIP3    H122152   0.515   3.209   1.028
 7396TIP3    H222153   0.411   3.105   0.994
 7397TIP3   OH222154   2.800   3.058   1.149
 7397TIP3    H122155   2.773   3.103   1.229
 7397TIP3    H222156   2.886   3.095   1.128
 7398TIP3   OH222157   1.141   0.248   0.746
 7398TIP3    H122158   1.084   0.237   0.822
 7398TIP3    H222159   1.230   0.231   0.780
 7399TIP3   OH222160   5.022   4.461   5.240
 7399TIP3    H122161   4.963   4.395   5.277
 7399TIP3    H222162   5.092   4.411   5.199
 7400TIP3   OH222163   4.262   6.113   5.479
 7400TIP3    H122164   4.319   6.161   5.419
 7400TIP3    H222165   4.264   6.023   5.447
 7401TIP3   OH222166   6.116   1.535   4.756
 7401TIP3    H122167   6.030   1.535   4.799
 7401TIP3    H222168   6.177   1.509   4.824
 7402TIP3   OH222169   0.909   3.386   2.973
 7402TIP3    H122170   0.978   3.435   3.018
 7402TIP3    H222171   0.956   3.333   2.908
 7403TIP3   OH222172   0.127   1.187   2.521
 7403TIP3    H122173   0.136   1.228   2.607
 7403TIP3    H222174   0.033   1.176   2.510
 7404TIP3   OH222175   2.933   5.174   0.333
 7404TIP3    H122176   2.878   5.249   0.308
 7404TIP3    H222177   2.880   5.126   0.396
 7405TIP3   OH222178   5.647   4.430   3.811
 7405TIP3    H122179   5.580   4.409   3.876
 7405TIP3    H222180   5.681   4.515   3.839
 7406TIP3   OH222181   2.432   1.044   1.659
 7406TIP3    H122182   2.479   1.042   1.575
 7406TIP3    H222183   2.340   1.039   1.635
 7407TIP3   OH222184   2.869   2.124   5.790
 7407TIP3    H122185   2.925   2.047   5.777
 7407TIP3    H222186   2.846   2.152   5.701
 7408TIP3   OH222187   2.421   0.622   3.192
 7408TIP3    H122188   2.483   0.581   3.131
 7408TIP3    H222189   2.370   0.682   3.137
 7409TIP3   OH222190   2.852   4.228   4.173
 7409TIP3    H122191   2.942   4.199   4.163
 7409TIP3    H222192   2.855   4.323   4.159
 7410TIP3   OH222193   4.507   0.778   4.474
 7410TIP3    H122194   4.507   0.700   4.529
 7410TIP3    H222195   4.442   0.836   4.515
 7411TIP3   OH222196   2.208   1.578   3.133
 7411TIP3    H122197   2.226   1.566   3.040
 7411TIP3    H222198   2.197   1.673   3.143
 7412TIP3   OH222199   2.053   3.051   3.446
 7412TIP3    H122200   2.089   3.094   3.368
 7412TIP3    H222201   2.087   2.962   3.442
 7413TIP3   OH222202   2.141   2.676   2.628
 7413TIP3    H122203   2.099   2.594   2.655
 7413TIP3    H222204   2.164   2.720   2.710
 7414TIP3   OH222205   7.208   1.698   2.921
 7414TIP3    H122206   7.193   1.702   2.826
 7414TIP3    H222207   7.151   1.765   2.957
 7415TIP3   OH222208   5.915   3.578   2.805
 7415TIP3    H122209   6.006   3.597   2.827
 7415TIP3    H222210   5.869   3.580   2.889
 7416TIP3   OH222211   6.847   5.767   2.587
 7416TIP3    H122212   6.866   5.747   2.495
 7416TIP3    H222213   6.912   5.717   2.636
 7417TIP3   OH222214   4.299   2.224   1.103
 7417TIP3    H122215   4.281   2.304   1.055
 7417TIP3    H222216   4.389   2.234   1.134
 7418TIP3   OH222217   5.322   1.295   3.528
 7418TIP3    H122218   5.302   1.387   3.512
 7418TIP3    H222219   5.409   1.295   3.567
 7419TIP3   OH222220   6.300   5.419   5.466
 7419TIP3    H122221   6.219   5.466   5.486
 7419TIP3    H222222   6.332   5.390   5.551
 7420TIP3   OH222223   5.699   4.723   0.352
 7420TIP3    H122224   5.650   4.695   0.275
 7420TIP3    H222225   5.773   4.661   0.357
 7421TIP3   OH222226   1.084   1.769   2.141
 7421TIP3    H122227   1.060   1.808   2.056
 7421TIP3    H222228   1.082   1.843   2.202
 7422TIP3   OH222229   3.945   3.715   1.114
 7422TIP3    H122230   4.016   3.696   1.176
 7422TIP3    H222231   3.901   3.791   1.151
 7423TIP3   OH222232   6.186   2.151   0.267
 7423TIP3    H122233   6.220   2.063   0.251
 7423TIP3    H222234   6.186   2.192   0.181
 7424TIP3   OH222235   4.476   6.054   1.215
 7424TIP3    H122236   4.458   6.106   1.294
 7424TIP3    H222237   4.445   5.966   1.238
 7425TIP3   OH222238   0.531   4.214   3.985
 7425TIP3    H122239   0.596   4.155   4.022
 7425TIP3    H222240   0.544   4.210   3.891
 7426TIP3   OH222241   4.277   6.634   0.017
 7426TIP3    H122242   4.300   6.721  -0.014
 7426TIP3    H222243   4.352   6.607   0.071
 7427TIP3   OH222244   1.931   1.770   4.958
 7427TIP3    H122245   1.954   1.684   4.925
 7427TIP3    H222246   1.880   1.810   4.888
 7428TIP3   OH222247   5.295   3.980   4.899
 7428TIP3    H122248   5.288   3.898   4.851
 7428TIP3    H222249   5.229   4.037   4.860
 7429TIP3   OH222250   0.017   1.770   0.062
 7429TIP3    H122251   0.060   1.698   0.016
 7429TIP3    H222252   0.064   1.777   0.145
 7430TIP3   OH222253   0.238   2.795   2.902
 7430TIP3    H122254   0.308   2.744   2.860
 7430TIP3    H222255   0.259   2.886   2.882
 7431TIP3   OH222256   6.545   4.903   4.690
 7431TIP3    H122257   6.469   4.899   4.631
 7431TIP3    H222258   6.584   4.989   4.674
 7432TIP3   OH222259   2.255   0.696   3.828
 7432TIP3    H122260   2.204   0.761   3.781
 7432TIP3    H222261   2.340   0.738   3.842
 7433TIP3   OH222262   4.386   3.238   0.028
 7433TIP3    H122263   4.462   3.184   0.049
 7433TIP3    H222264   4.367   3.219  -0.063
 7434TIP3   OH222265   3.233   3.271   0.885
 7434TIP3    H122266   3.208   3.222   0.807
 7434TIP3    H222267   3.306   3.326   0.856
 7435TIP3   OH222268   6.794   0.146   4.583
 7435TIP3    H122269   6.793   0.235   4.548
 7435TIP3    H222270   6.833   0.154   4.669
 7436TIP3   OH222271   0.703   4.612   3.238
 7436TIP3    H122272   0.717   4.606   3.143
 7436TIP3    H222273   0.778   4.662   3.270
 7437TIP3   OH222274   2.996   4.653   0.056
 7437TIP3    H122275   2.993   4.558   0.049
 7437TIP3    H222276   2.905   4.680   0.064
 7438TIP3   OH222277   3.634   5.782   2.060
 7438TIP3    H122278   3.602   5.833   1.985
 7438TIP3    H222279   3.558   5.770   2.116
 7439TIP3   OH222280   1.389   4.603   1.016
 7439TIP3    H122281   1.318   4.618   1.079
 7439TIP3    H222282   1.344   4.574   0.936
 7440TIP3   OH222283   4.110   3.206   2.687
 7440TIP3    H122284   4.070   3.253   2.615
 7440TIP3    H222285   4.195   3.248   2.699
 7441TIP3   OH222286   4.624  -0.046   0.807
 7441TIP3    H122287   4.644  -0.001   0.888
 7441TIP3    H222288   4.532  -0.026   0.790
 7442TIP3   OH222289   2.586   6.289   4.903
 7442TIP3    H122290   2.551   6.311   4.989
 7442TIP3    H222291   2.537   6.345   4.843
 7443TIP3   OH222292   6.938   4.090   0.821
 7443TIP3    H122293   6.903   4.164   0.772
 7443TIP3    H222294   6.860   4.043   0.851
 7444TIP3   OH222295   2.906   5.378   3.942
 7444TIP3    H122296   2.818   5.405   3.917
 7444TIP3    H222297   2.898   5.284   3.958
 7445TIP3   OH222298   1.082   6.736   0.756
 7445TIP3    H122299   1.048   6.710   0.670
 7445TIP3    H222300   1.005   6.739   0.812
 7446TIP3   OH222301   5.816   2.198   4.692
 7446TIP3    H122302   5.743   2.177   4.634
 7446TIP3    H222303   5.894   2.190   4.636
 7447TIP3   OH222304   4.337   1.845   4.955
 7447TIP3    H122305   4.273   1.783   4.920
 7447TIP3    H222306   4.287   1.926   4.968
 7448TIP3   OH222307   0.142   5.759   2.748
 7448TIP3    H122308   0.120   5.809   2.669
 7448TIP3    H222309   0.196   5.687   2.717
 7449TIP3   OH222310   1.649   3.558   2.997
 7449TIP3    H122311   1.573   3.563   2.939
 7449TIP3    H222312   1.695   3.479   2.969
 7450TIP3   OH222313   0.734   0.314   2.873
 7450TIP3    H122314   0.642   0.324   2.853
 7450TIP3    H222315   0.738   0.307   2.969
 7451TIP3   OH222316   0.243   6.756   5.072
 7451TIP3    H122317   0.173   6.691   5.067
 7451TIP3    H222318   0.299   6.725   5.144
 7452TIP3   OH222319   6.708   6.400   0.594
 7452TIP3    H122320   6.618   6.425   0.574
 7452TIP3    H222321   6.734   6.459   0.665
 7453TIP3   OH222322   5.444   1.444   0.673
 7453TIP3    H122323   5.538   1.426   0.679
 7453TIP3    H222324   5.419   1.415   0.586
 7454TIP3   OH222325   5.543   4.879   4.660
 7454TIP3    H122326   5.512   4.826   4.587
 7454TIP3    H222327   5.623   4.836   4.689
 7455TIP3   OH222328   1.671   0.324   0.511
 7455TIP3    H122329   1.646   0.410   0.478
 7455TIP3    H222330   1.746   0.298   0.457
 7456TIP3   OH222331   2.452   5.467   2.456
 7456TIP3    H122332   2.394   5.396   2.485
 7456TIP3    H222333   2.540   5.431   2.462
 7457TIP3   OH222334   4.848   6.160   0.235
 7457TIP3    H122335   4.931   6.196   0.265
 7457TIP3    H222336   4.835   6.197   0.148
 7458TIP3   OH222337   0.686   3.594   1.910
 7458TIP3    H122338   0.668   3.620   2.000
 7458TIP3    H222339   0.634   3.515   1.897
 7459TIP3   OH222340   0.383   4.662   2.233
 7459TIP3    H122341   0.309   4.712   2.198
 7459TIP3    H222342   0.360   4.570   2.216
 7460TIP3   OH222343   5.513   1.885   5.909
 7460TIP3    H122344   5.441   1.857   5.852
 7460TIP3    H222345   5.579   1.918   5.849
 7461TIP3   OH222346   3.015   1.884   3.082
 7461TIP3    H122347   2.925   1.896   3.112
 7461TIP3    H222348   3.069   1.910   3.156
 7462TIP3   OH222349   5.661   5.123   4.634
 7462TIP3    H122350   5.657   5.145   4.541
 7462TIP3    H222351   5.637   5.030   4.637
 7463TIP3   OH222352   3.270   0.485   0.318
 7463TIP3    H122353   3.288   0.392   0.303
 7463TIP3    H222354   3.342   0.531   0.274
 7464TIP3   OH222355   6.380   4.625   2.900
 7464TIP3    H122356   6.449   4.662   2.844
 7464TIP3    H222357   6.301   4.627   2.846
 7465TIP3   OH222358   1.063   1.054   5.408
 7465TIP3    H122359   1.080   0.960   5.420
 7465TIP3    H222360   1.148   1.095   5.422
 7466TIP3   OH222361   5.090   6.043   4.924
 7466TIP3    H122362   5.160   6.105   4.943
 7466TIP3    H222363   5.061   6.012   5.010
 7467TIP3   OH222364   1.305   5.540   3.258
 7467TIP3    H122365   1.230   5.502   3.304
 7467TIP3    H222366   1.364   5.466   3.243
 7468TIP3   OH222367   0.669   4.618   4.474
 7468TIP3    H122368   0.730   4.686   4.502
 7468TIP3    H222369   0.680   4.548   4.538
 7469TIP3   OH222370   6.163   3.077   5.081
 7469TIP3    H122371   6.115   3.000   5.110
 7469TIP3    H222372   6.144   3.085   4.988
 7470TIP3   OH222373   5.604   4.527   4.082
 7470TIP3    H122374   5.687   4.574   4.093
 7470TIP3    H222375   5.613   4.450   4.138
 7471TIP3   OH222376   4.742   1.430   5.526
 7471TIP3    H122377   4.653   1.436   5.562
 7471TIP3    H222378   4.751   1.507   5.470
 7472TIP3   OH222379   7.113   3.781   4.724
 7472TIP3    H122380   7.147   3.862   4.760
 7472TIP3    H222381   7.167   3.712   4.764
 7473TIP3   OH222382   4.688   0.356   3.127
 7473TIP3    H122383   4.636   0.345   3.047
 7473TIP3    H222384   4.763   0.298   3.114
 7474TIP3   OH222385   3.176   1.853   5.574
 7474TIP3    H122386   3.157   1.946   5.575
 7474TIP3    H222387   3.121   1.816   5.643
 7475TIP3   OH222388   2.494   4.396   4.674
 7475TIP3    H122389   2.403   4.425   4.670
 7475TIP3    H222390   2.525   4.401   4.584
 7476TIP3   OH222391   7.039   2.684   3.459
 7476TIP3    H122392   6.999   2.603   3.427
 7476TIP3    H222393   7.121   2.656   3.500
 7477TIP3   OH222394   0.587   4.327   1.905
 7477TIP3    H122395   0.678   4.321   1.876
 7477TIP3    H222396   0.591   4.320   2.000
 7478TIP3   OH222397   5.301   4.942   4.776
 7478TIP3    H122398   5.270   4.967   4.689
 7478TIP3    H222399   5.377   4.887   4.759
 7479TIP3   OH222400   3.125   4.126   3.289
 7479TIP3    H122401   3.106   4.078   3.370
 7479TIP3    H222402   3.084   4.075   3.220
 7480TIP3   OH222403   0.856   2.923   3.433
 7480TIP3    H122404   0.920   2.971   3.486
 7480TIP3    H222405   0.818   2.990   3.376
 7481TIP3   OH222406   5.453   4.196   2.805
 7481TIP3    H122407   5.400   4.274   2.820
 7481TIP3    H222408   5.523   4.202   2.870
 7482TIP3   OH222409   5.280   5.402   5.573
 7482TIP3    H122410   5.283   5.454   5.493
 7482TIP3    H222411   5.327   5.321   5.551
 7483TIP3   OH222412   5.864   1.836   1.987
 7483TIP3    H122413   5.960   1.844   1.980
 7483TIP3    H222414   5.847   1.743   1.972
 7484TIP3   OH222415   4.658   0.815   3.696
 7484TIP3    H122416   4.641   0.875   3.769
 7484TIP3    H222417   4.571   0.787   3.667
 7485TIP3   OH222418   7.138   4.896   3.852
 7485TIP3    H122419   7.152   4.958   3.781
 7485TIP3    H222420   7.191   4.928   3.924
 7486TIP3   OH222421   1.445   2.237   0.641
 7486TIP3    H122422   1.449   2.161   0.582
 7486TIP3    H222423   1.491   2.209   0.720
 7487TIP3   OH222424   5.791   1.360   2.188
 7487TIP3    H122425   5.720   1.298   2.173
 7487TIP3    H222426   5.762   1.412   2.263
 7488TIP3   OH222427   1.549   6.501   0.944
 7488TIP3    H122428   1.534   6.547   0.861
 7488TIP3    H222429   1.557   6.409   0.920
 7489TIP3   OH222430   3.225   0.910   1.461
 7489TIP3    H122431   3.251   0.828   1.420
 7489TIP3    H222432   3.133   0.922   1.434
 7490TIP3   OH222433   2.465   2.912   5.583
 7490TIP3    H122434   2.470   2.850   5.656
 7490TIP3    H222435   2.512   2.989   5.615
 7491TIP3   OH222436   2.951   1.316   1.184
 7491TIP3    H122437   2.953   1.378   1.111
 7491TIP3    H222438   2.870   1.336   1.230
 7492TIP3   OH222439   6.999   5.034   0.521
 7492TIP3    H122440   6.962   5.107   0.571
 7492TIP3    H222441   7.089   5.027   0.553
 7493TIP3   OH222442   2.626   5.757   0.560
 7493TIP3    H122443   2.620   5.813   0.637
 7493TIP3    H222444   2.655   5.815   0.490
 7494TIP3   OH222445   5.413   1.171   4.133
 7494TIP3    H122446   5.377   1.222   4.060
 7494TIP3    H222447   5.336   1.133   4.176
 7495TIP3   OH222448   1.479   1.369   5.727
 7495TIP3    H122449   1.398   1.322   5.708
 7495TIP3    H222450   1.502   1.343   5.816
 7496TIP3   OH222451   5.484   5.996   1.381
 7496TIP3    H122452   5.493   5.977   1.474
 7496TIP3    H222453   5.504   6.090   1.374
 7497TIP3   OH222454   5.662   3.986   0.484
 7497TIP3    H122455   5.698   4.044   0.551
 7497TIP3    H222456   5.568   3.982   0.502
 7498TIP3   OH222457   0.850   2.369   1.800
 7498TIP3    H122458   0.766   2.324   1.806
 7498TIP3    H222459   0.829   2.452   1.756
 7499TIP3   OH222460   6.783   3.144   5.301
 7499TIP3    H122461   6.765   3.230   5.339
 7499TIP3    H222462   6.877   3.132   5.311
 7500TIP3   OH222463   3.725   4.461   3.507
 7500TIP3    H122464   3.756   4.390   3.450
 7500TIP3    H222465   3.650   4.498   3.461
 7501TIP3   OH222466   4.196   2.472   5.075
 7501TIP3    H122467   4.151   2.461   4.992
 7501TIP3    H222468   4.190   2.565   5.095
 7502TIP3   OH222469   5.526   1.709   4.179
 7502TIP3    H122470   5.474   1.671   4.108
 7502TIP3    H222471   5.557   1.633   4.229
 7503TIP3   OH222472   4.078   5.929   4.558
 7503TIP3    H122473   4.099   5.892   4.643
 7503TIP3    H222474   4.157   5.974   4.530
 7504TIP3   OH222475   5.312   2.221   3.950
 7504TIP3    H122476   5.265   2.238   3.868
 7504TIP3    H222477   5.280   2.290   4.010
 7505TIP3   OH222478   6.786   6.071   1.547
 7505TIP3    H122479   6.704   6.092   1.591
 7505TIP3    H222480   6.789   5.975   1.546
 7506TIP3   OH222481   1.616   1.303   2.630
 7506TIP3    H122482   1.652   1.319   2.717
 7506TIP3    H222483   1.542   1.243   2.645
 7507TIP3   OH222484   5.294   3.106   3.549
 7507TIP3    H122485   5.275   3.023   3.506
 7507TIP3    H222486   5.344   3.156   3.485
 7508TIP3   OH222487   5.196   0.450   5.510
 7508TIP3    H122488   5.255   0.524   5.521
 7508TIP3    H222489   5.238   0.378   5.558
 7509TIP3   OH222490   0.476   6.218   1.029
 7509TIP3    H122491   0.531   6.246   1.102
 7509TIP3    H222492   0.453   6.299   0.983
 7510TIP3   OH222493   0.045   3.877   5.120
 7510TIP3    H122494   0.014   3.963   5.151
 7510TIP3    H222495  -0.033   3.824   5.114
 7511TIP3   OH222496   0.261   1.038   3.036
 7511TIP3    H122497   0.216   1.004   2.958
 7511TIP3    H222498   0.198   1.025   3.107
 7512TIP3   OH222499   5.150   3.886   2.852
 7512TIP3    H122500   5.233   3.911   2.812
 7512TIP3    H222501   5.124   3.963   2.902
 7513TIP3   OH222502   3.710   1.734   0.429
 7513TIP3    H122503   3.752   1.651   0.406
 7513TIP3    H222504   3.755   1.762   0.509
 7514TIP3   OH222505   6.686   5.194   3.768
 7514TIP3    H122506   6.752   5.160   3.829
 7514TIP3    H222507   6.655   5.274   3.810
 7515TIP3   OH222508   6.722   0.652   2.798
 7515TIP3    H122509   6.663   0.584   2.764
 7515TIP3    H222510   6.764   0.612   2.874
 7516TIP3   OH222511   2.936   4.123   3.609
 7516TIP3    H122512   2.953   4.210   3.572
 7516TIP3    H222513   2.849   4.131   3.648
 7517TIP3   OH222514   2.899   5.164   1.051
 7517TIP3    H122515   2.845   5.240   1.030
 7517TIP3    H222516   2.928   5.179   1.141
 7518TIP3   OH222517   2.812   1.228   5.563
 7518TIP3    H122518   2.853   1.175   5.631
 7518TIP3    H222519   2.844   1.191   5.481
 7519TIP3   OH222520   7.192   4.456   5.406
 7519TIP3    H122521   7.137   4.531   5.427
 7519TIP3    H222522   7.139   4.380   5.428
 7520TIP3   OH222523   0.608   0.577   3.402
 7520TIP3    H122524   0.594   0.667   3.430
 7520TIP3    H222525   0.608   0.581   3.306
 7521TIP3   OH222526   2.025   5.245   2.595
 7521TIP3    H122527   2.118   5.268   2.601
 7521TIP3    H222528   1.981   5.327   2.572
 7522TIP3   OH222529   2.062   3.934   0.651
 7522TIP3    H122530   2.120   3.897   0.718
 7522TIP3    H222531   2.106   4.014   0.623
 7523TIP3   OH222532   7.147   1.093   4.740
 7523TIP3    H122533   7.198   1.167   4.774
 7523TIP3    H222534   7.081   1.133   4.684
 7524TIP3   OH222535   2.263   6.663   4.785
 7524TIP3    H122536   2.184   6.675   4.837
 7524TIP3    H222537   2.279   6.749   4.745
 7525TIP3   OH222538   0.321   4.105   1.555
 7525TIP3    H122539   0.410   4.140   1.541
 7525TIP3    H222540   0.317   4.086   1.648
 7526TIP3   OH222541   7.073   5.718   5.360
 7526TIP3    H122542   7.104   5.707   5.270
 7526TIP3    H222543   7.151   5.706   5.414
 7527TIP3   OH222544   4.246   2.764   1.380
 7527TIP3    H122545   4.268   2.687   1.433
 7527TIP3    H222546   4.155   2.750   1.354
 7528TIP3   OH222547  -0.015   4.101   2.080
 7528TIP3    H122548   0.027   4.132   2.161
 7528TIP3    H222549   0.051   4.047   2.038
 7529TIP3   OH222550   5.092   6.651   1.048
 7529TIP3    H122551   5.054   6.720   0.995
 7529TIP3    H222552   5.185   6.650   1.024
 7530TIP3   OH222553   0.713   3.456   2.172
 7530TIP3    H122554   0.720   3.363   2.153
 7530TIP3    H222555   0.727   3.462   2.267
 7531TIP3   OH222556   1.297   1.984   0.239
 7531TIP3    H122557   1.224   1.967   0.179
 7531TIP3    H222558   1.367   1.926   0.209
 7532TIP3   OH222559   1.901   4.944   2.229
 7532TIP3    H122560   1.818   4.902   2.252
 7532TIP3    H222561   1.879   5.035   2.212
 7533TIP3   OH222562   4.226   5.234   4.052
 7533TIP3    H122563   4.193   5.160   4.000
 7533TIP3    H222564   4.304   5.199   4.095
 7534TIP3   OH222565   7.116   1.949   1.740
 7534TIP3    H122566   7.047   1.942   1.807
 7534TIP3    H222567   7.175   2.016   1.774
 7535TIP3   OH222568   3.313   4.571   3.184
 7535TIP3    H122569   3.277   4.595   3.269
 7535TIP3    H222570   3.281   4.639   3.125
 7536TIP3   OH222571   4.478   2.163   5.392
 7536TIP3    H122572   4.427   2.173   5.311
 7536TIP3    H222573   4.494   2.253   5.421
 7537TIP3   OH222574   5.343   0.172   4.393
 7537TIP3    H122575   5.432   0.144   4.413
 7537TIP3    H222576   5.333   0.154   4.299
 7538TIP3   OH222577   1.052   2.321   3.768
 7538TIP3    H122578   1.113   2.317   3.842
 7538TIP3    H222579   0.978   2.266   3.796
 7539TIP3   OH222580   0.583   1.493   0.351
 7539TIP3    H122581   0.616   1.568   0.402
 7539TIP3    H222582   0.490   1.488   0.374
 7540TIP3   OH222583   5.332   2.542   0.380
 7540TIP3    H122584   5.424   2.568   0.380
 7540TIP3    H222585   5.322   2.490   0.460
 7541TIP3   OH222586   5.843   6.270   0.179
 7541TIP3    H122587   5.836   6.327   0.102
 7541TIP3    H222588   5.913   6.208   0.157
 7542TIP3   OH222589   2.092   0.034   4.097
 7542TIP3    H122590   2.151   0.108   4.081
 7542TIP3    H222591   2.017   0.074   4.141
 7543TIP3   OH222592   4.864   4.959   3.852
 7543TIP3    H122593   4.828   4.943   3.765
 7543TIP3    H222594   4.882   4.871   3.887
 7544TIP3   OH222595   7.002   4.305   5.559
 7544TIP3    H122596   6.931   4.244   5.540
 7544TIP3    H222597   6.982   4.339   5.646
 7545TIP3   OH222598   2.662   2.325   4.068
 7545TIP3    H122599   2.633   2.309   3.978
 7545TIP3    H222600   2.635   2.415   4.086
 7546TIP3   OH222601   0.653   0.192   3.621
 7546TIP3    H122602   0.728   0.222   3.571
 7546TIP3    H222603   0.642   0.100   3.597
 7547TIP3   OH222604   6.713   4.648   1.913
 7547TIP3    H122605   6.804   4.657   1.942
 7547TIP3    H222606   6.705   4.556   1.887
 7548TIP3   OH222607   6.678   2.758   1.757
 7548TIP3    H122608   6.601   2.805   1.724
 7548TIP3    H222609   6.680   2.677   1.708
 7549TIP3   OH222610   4.392   1.204   0.061
 7549TIP3    H122611   4.333   1.275   0.034
 7549TIP3    H222612   4.339   1.152   0.121
 7550TIP3   OH222613   4.835   0.088   5.123
 7550TIP3    H122614   4.919   0.074   5.167
 7550TIP3    H222615   4.795   0.001   5.121
 7551TIP3   OH222616   5.729   2.911   0.441
 7551TIP3    H122617   5.808   2.874   0.480
 7551TIP3    H222618   5.758   2.989   0.394
 7552TIP3   OH222619   4.073   0.325   5.080
 7552TIP3    H122620   4.166   0.310   5.095
 7552TIP3    H222621   4.051   0.397   5.139
 7553TIP3   OH222622   0.288   0.556   2.527
 7553TIP3    H122623   0.302   0.634   2.473
 7553TIP3    H222624   0.293   0.587   2.617
 7554TIP3   OH222625   5.882   3.319   5.745
 7554TIP3    H122626   5.862   3.246   5.803
 7554TIP3    H222627   5.829   3.303   5.667
 7555TIP3   OH222628   2.048   4.320   0.178
 7555TIP3    H122629   1.964   4.366   0.179
 7555TIP3    H222630   2.095   4.358   0.103
 7556TIP3   OH222631   6.730   1.613   3.637
 7556TIP3    H122632   6.758   1.579   3.722
 7556TIP3    H222633   6.756   1.705   3.638
 7557TIP3   OH222634   2.929   2.322   4.996
 7557TIP3    H122635   2.983   2.286   4.926
 7557TIP3    H222636   2.898   2.245   5.044
 7558TIP3   OH222637   4.860   4.786   3.609
 7558TIP3    H122638   4.897   4.811   3.524
 7558TIP3    H222639   4.916   4.714   3.639
 7559TIP3   OH222640   4.963   3.902   0.208
 7559TIP3    H122641   5.013   3.981   0.188
 7559TIP3    H222642   4.881   3.934   0.245
 7560TIP3   OH222643   0.740   0.492   0.094
 7560TIP3    H122644   0.719   0.501   0.001
 7560TIP3    H222645   0.820   0.439   0.095
 7561TIP3   OH222646   3.095   2.306   3.088
 7561TIP3    H122647   3.001   2.296   3.097
 7561TIP3    H222648   3.130   2.217   3.100
 7562TIP3   OH222649   4.991   5.544   4.513
 7562TIP3    H122650   4.945   5.567   4.432
 7562TIP3    H222651   5.083   5.545   4.489
 7563TIP3   OH222652   3.142   4.109   4.186
 7563TIP3    H122653   3.204   4.131   4.117
 7563TIP3    H222654   3.113   4.020   4.165
 7564TIP3   OH222655   2.292   5.183   2.886
 7564TIP3    H122656   2.204   5.159   2.913
 7564TIP3    H222657   2.347   5.111   2.917
 7565TIP3   OH222658   0.905   6.712   5.641
 7565TIP3    H122659   0.917   6.685   5.732
 7565TIP3    H222660   0.815   6.742   5.636
 7566TIP3   OH222661   1.602   1.942   4.387
 7566TIP3    H122662   1.616   1.854   4.352
 7566TIP3    H222663   1.522   1.934   4.440
 7567TIP3   OH222664   0.724   4.194   4.316
 7567TIP3    H122665   0.744   4.284   4.295
 7567TIP3    H222666   0.659   4.200   4.387
 7568TIP3   OH222667   0.086   2.222   4.258
 7568TIP3    H122668  -0.009   2.227   4.255
 7568TIP3    H222669   0.110   2.260   4.342
 7569TIP3   OH222670   5.475   4.804   1.368
 7569TIP3    H122671   5.519   4.778   1.449
 7569TIP3    H222672   5.452   4.896   1.382
 7570TIP3   OH222673   2.090   3.016   0.746
 7570TIP3    H122674   2.178   3.053   0.756
 7570TIP3    H222675   2.068   2.983   0.834
 7571TIP3   OH222676   0.869   2.055   0.618
 7571TIP3    H122677   0.904   1.972   0.585
 7571TIP3    H222678   0.855   2.108   0.540
 7572TIP3   OH222679   6.043   5.714   2.159
 7572TIP3    H122680   6.041   5.781   2.090
 7572TIP3    H222681   5.973   5.739   2.219
 7573TIP3   OH222682   0.530   4.731   2.918
 7573TIP3    H122683   0.610   4.684   2.941
 7573TIP3    H222684   0.488   4.676   2.851
 7574TIP3   OH222685   6.905   3.292   4.446
 7574TIP3    H122686   6.994   3.318   4.424
 7574TIP3    H222687   6.873   3.361   4.504
 7575TIP3   OH222688   5.239   0.323   3.472
 7575TIP3    H122689   5.204   0.363   3.393
 7575TIP3    H222690   5.224   0.388   3.540
 7576TIP3   OH222691   2.229   1.185   4.955
 7576TIP3    H122692   2.143   1.226   4.950
 7576TIP3    H222693   2.221   1.121   5.026
 7577TIP3   OH222694   5.478   6.729   4.796
 7577TIP3    H122695   5.470   6.749   4.889
 7577TIP3    H222696   5.402   6.674   4.776
 7578TIP3   OH222697   4.113   6.256   0.684
 7578TIP3    H122698   4.149   6.344   0.695
 7578TIP3    H222699   4.040   6.252   0.745
 7579TIP3   OH222700   1.490   5.718   1.306
 7579TIP3    H122701   1.517   5.667   1.383
 7579TIP3    H222702   1.550   5.688   1.237
 7580TIP3   OH222703   1.482   2.921   3.689
 7580TIP3    H122704   1.546   2.969   3.637
 7580TIP3    H222705   1.430   2.873   3.624
 7581TIP3   OH222706   2.388   1.677   4.095
 7581TIP3    H122707   2.313   1.709   4.145
 7581TIP3    H222708   2.384   1.582   4.103
 7582TIP3   OH222709   4.094   0.519   4.345
 7582TIP3    H122710   4.114   0.425   4.345
 7582TIP3    H222711   4.000   0.524   4.360
 7583TIP3   OH222712   5.692   2.782   4.089
 7583TIP3    H122713   5.744   2.857   4.061
 7583TIP3    H222714   5.701   2.718   4.018
 7584TIP3   OH222715   5.672   4.948   0.533
 7584TIP3    H122716   5.682   5.009   0.460
 7584TIP3    H222717   5.670   4.862   0.492
 7585TIP3   OH222718   0.055   5.833   3.237
 7585TIP3    H122719   0.050   5.927   3.219
 7585TIP3    H222720   0.148   5.813   3.228
 7586TIP3   OH222721   5.721   0.833   1.575
 7586TIP3    H122722   5.648   0.805   1.629
 7586TIP3    H222723   5.799   0.819   1.630
 7587TIP3   OH222724   5.316   6.245   3.554
 7587TIP3    H122725   5.360   6.270   3.635
 7587TIP3    H222726   5.304   6.327   3.506
 7588TIP3   OH222727   2.113   6.800   1.394
 7588TIP3    H122728   2.052   6.775   1.463
 7588TIP3    H222729   2.062   6.794   1.313
 7589TIP3   OH222730   1.813   6.617   0.946
 7589TIP3    H122731   1.735   6.588   0.994
 7589TIP3    H222732   1.784   6.695   0.899
 7590TIP3   OH222733   3.847   0.962   1.234
 7590TIP3    H122734   3.760   0.988   1.263
 7590TIP3    H222735   3.834   0.928   1.145
 7591TIP3   OH222736   2.252   2.540   3.228
 7591TIP3    H122737   2.209   2.485   3.163
 7591TIP3    H222738   2.246   2.489   3.309
 7592TIP3   OH222739   0.781   2.669   1.020
 7592TIP3    H122740   0.725   2.626   1.084
 7592TIP3    H222741   0.834   2.730   1.072
 7593TIP3   OH222742   2.039   0.603   2.898
 7593TIP3    H122743   2.051   0.511   2.920
 7593TIP3    H222744   1.965   0.632   2.952
 7594TIP3   OH222745   0.006   5.432   0.021
 7594TIP3    H122746  -0.076   5.482   0.011
 7594TIP3    H222747   0.068   5.495   0.057
 7595TIP3   OH222748   5.886   5.394   1.662
 7595TIP3    H122749   5.828   5.321   1.641
 7595TIP3    H222750   5.831   5.471   1.656
 7596TIP3   OH222751   0.698   6.420   5.600
 7596TIP3    H122752   0.627   6.400   5.661
 7596TIP3    H222753   0.769   6.453   5.654
 7597TIP3   OH222754   4.636   5.411   1.889
 7597TIP3    H122755   4.669   5.491   1.931
 7597TIP3    H222756   4.616   5.438   1.799
 7598TIP3   OH222757   0.359   1.037   5.676
 7598TIP3    H122758   0.356   1.132   5.688
 7598TIP3    H222759   0.450   1.019   5.655
 7599TIP3   OH222760   0.267   3.658   1.856
 7599TIP3    H122761   0.239   3.676   1.766
 7599TIP3    H222762   0.206   3.591   1.886
 7600TIP3   OH222763   4.262   0.259   3.454
 7600TIP3    H122764   4.356   0.279   3.464
 7600TIP3    H222765   4.222   0.344   3.436
 7601TIP3   OH222766   3.918   4.736   2.506
 7601TIP3    H122767   4.003   4.719   2.466
 7601TIP3    H222768   3.859   4.750   2.432
 7602TIP3   OH222769   6.379   2.866   3.675
 7602TIP3    H122770   6.338   2.807   3.612
 7602TIP3    H222771   6.439   2.920   3.623
 7603TIP3   OH222772   0.592   5.478   1.440
 7603TIP3    H122773   0.649   5.410   1.405
 7603TIP3    H222774   0.577   5.536   1.365
 7604TIP3   OH222775   4.527   5.681   1.694
 7604TIP3    H122776   4.501   5.772   1.680
 7604TIP3    H222777   4.613   5.687   1.735
 7605TIP3   OH222778   4.995   3.760   2.686
 7605TIP3    H122779   4.905   3.786   2.706
 7605TIP3    H222780   5.047   3.804   2.754
 7606TIP3   OH222781   0.282   4.512   0.368
 7606TIP3    H122782   0.235   4.569   0.307
 7606TIP3    H222783   0.260   4.423   0.341
 7607TIP3   OH222784   6.398   5.527   3.170
 7607TIP3    H122785   6.467   5.572   3.220
 7607TIP3    H222786   6.404   5.564   3.082
 7608TIP3   OH222787   6.050   3.092   4.799
 7608TIP3    H122788   6.010   3.016   4.757
 7608TIP3    H222789   5.990   3.164   4.782
 7609TIP3   OH222790   2.119   0.887   3.680
 7609TIP3    H122791   2.108   0.928   3.594
 7609TIP3    H222792   2.039   0.834   3.691
 7610TIP3   OH222793   5.257   3.453   2.759
 7610TIP3    H122794   5.192   3.383   2.760
 7610TIP3    H222795   5.333   3.416   2.804
 7611TIP3   OH222796   1.768   0.867   3.330
 7611TIP3    H122797   1.707   0.939   3.320
 7611TIP3    H222798   1.744   0.805   3.261
 7612TIP3   OH222799   3.935   5.301   1.757
 7612TIP3    H122800   3.900   5.220   1.794
 7612TIP3    H222801   3.894   5.308   1.671
 7613TIP3   OH222802   3.416   1.969   0.649
 7613TIP3    H122803   3.352   1.957   0.718
 7613TIP3    H222804   3.489   2.014   0.691
 7614TIP3   OH222805   2.520   4.857   0.025
 7614TIP3    H122806   2.513   4.820   0.113
 7614TIP3    H222807   2.446   4.819  -0.023
 7615TIP3   OH222808   6.760   2.215   3.513
 7615TIP3    H122809   6.757   2.226   3.608
 7615TIP3    H222810   6.853   2.199   3.494
 7616TIP3   OH222811   0.351   4.214   0.927
 7616TIP3    H122812   0.374   4.152   0.996
 7616TIP3    H222813   0.430   4.222   0.874
 7617TIP3   OH222814   7.088   4.833   4.382
 7617TIP3    H122815   7.078   4.760   4.321
 7617TIP3    H222816   7.082   4.912   4.328
 7618TIP3   OH222817   1.564   6.165   4.777
 7618TIP3    H122818   1.526   6.205   4.698
 7618TIP3    H222819   1.551   6.071   4.765
 7619TIP3   OH222820   1.223   2.959   5.467
 7619TIP3    H122821   1.201   2.920   5.382
 7619TIP3    H222822   1.139   2.967   5.513
 7620TIP3   OH222823   3.492   3.592   5.777
 7620TIP3    H122824   3.434   3.524   5.742
 7620TIP3    H222825   3.566   3.543   5.814
 7621TIP3   OH222826   5.967   3.616   0.417
 7621TIP3    H122827   6.025   3.598   0.491
 7621TIP3    H222828   5.896   3.668   0.454
 7622TIP3   OH222829   4.509   3.943   2.330
 7622TIP3    H122830   4.489   3.859   2.372
 7622TIP3    H222831   4.562   3.920   2.254
 7623TIP3   OH222832   2.023   2.994   4.276
 7623TIP3    H122833   2.025   3.089   4.288
 7623TIP3    H222834   2.070   2.979   4.194
 7624TIP3   OH222835   2.980   3.823   2.167
 7624TIP3    H122836   2.960   3.915   2.184
 7624TIP3    H222837   2.894   3.780   2.167
 7625TIP3   OH222838   2.849   3.048   5.779
 7625TIP3    H122839   2.835   3.119   5.841
 7625TIP3    H222840   2.770   3.047   5.725
 7626TIP3   OH222841   5.880   5.646   3.079
 7626TIP3    H122842   5.912   5.671   3.166
 7626TIP3    H222843   5.941   5.579   3.049
 7627TIP3   OH222844   6.299   0.306   4.134
 7627TIP3    H122845   6.314   0.364   4.209
 7627TIP3    H222846   6.385   0.274   4.110
 7628TIP3   OH222847   3.743   1.211   3.179
 7628TIP3    H122848   3.691   1.148   3.129
 7628TIP3    H222849   3.689   1.290   3.182
 7629TIP3   OH222850   1.034   2.162   0.324
 7629TIP3    H122851   1.083   2.216   0.262
 7629TIP3    H222852   1.101   2.124   0.380
 7630TIP3   OH222853   3.146   2.235   5.165
 7630TIP3    H122854   3.142   2.155   5.112
 7630TIP3    H222855   3.082   2.294   5.125
 7631TIP3   OH222856   6.342   0.880   2.328
 7631TIP3    H122857   6.328   0.824   2.252
 7631TIP3    H222858   6.295   0.961   2.307
 7632TIP3   OH222859   3.138   2.027   2.765
 7632TIP3    H122860   3.052   2.018   2.807
 7632TIP3    H222861   3.120   2.073   2.683
 7633TIP3   OH222862   5.857   4.074   1.279
 7633TIP3    H122863   5.865   3.994   1.226
 7633TIP3    H222864   5.835   4.042   1.366
 7634TIP3   OH222865   3.287   5.112   0.941
 7634TIP3    H122866   3.278   5.019   0.918
 7634TIP3    H222867   3.338   5.149   0.869
 7635TIP3   OH222868   0.868   2.351   5.479
 7635TIP3    H122869   0.846   2.309   5.561
 7635TIP3    H222870   0.898   2.439   5.504
 7636TIP3   OH222871   5.005   0.420   0.681
 7636TIP3    H122872   5.080   0.472   0.707
 7636TIP3    H222873   5.041   0.350   0.626
 7637TIP3   OH222874   4.838   1.202   2.335
 7637TIP3    H122875   4.853   1.123   2.386
 7637TIP3    H222876   4.851   1.274   2.397
 7638TIP3   OH222877   2.298   5.808   5.223
 7638TIP3    H122878   2.242   5.886   5.225
 7638TIP3    H222879   2.292   5.776   5.134
 7639TIP3   OH222880   3.659   2.888   2.540
 7639TIP3    H122881   3.574   2.929   2.552
 7639TIP3    H222882   3.719   2.939   2.595
 7640TIP3   OH222883   4.627   0.310   3.958
 7640TIP3    H122884   4.721   0.326   3.972
 7640TIP3    H222885   4.586   0.334   4.041
 7641TIP3   OH222886   1.343   2.958   2.227
 7641TIP3    H122887   1.294   2.941   2.308
 7641TIP3    H222888   1.278   2.955   2.158
 7642TIP3   OH222889   0.775   5.892   5.603
 7642TIP3    H122890   0.765   5.941   5.522
 7642TIP3    H222891   0.758   5.955   5.672
 7643TIP3   OH222892   6.732   4.182   1.986
 7643TIP3    H122893   6.788   4.111   2.018
 7643TIP3    H222894   6.770   4.262   2.022
 7644TIP3   OH222895   2.185   0.080   3.761
 7644TIP3    H122896   2.201   0.042   3.847
 7644TIP3    H222897   2.096   0.113   3.765
 7645TIP3   OH222898   1.726   5.639   4.120
 7645TIP3    H122899   1.807   5.688   4.104
 7645TIP3    H222900   1.752   5.547   4.115
 7646TIP3   OH222901   6.189   4.012   5.008
 7646TIP3    H122902   6.212   4.102   4.986
 7646TIP3    H222903   6.258   3.985   5.069
 7647TIP3   OH222904   0.777   5.469   4.357
 7647TIP3    H122905   0.732   5.387   4.377
 7647TIP3    H222906   0.760   5.484   4.264
 7648TIP3   OH222907   0.240   0.716   3.352
 7648TIP3    H122908   0.213   0.779   3.419
 7648TIP3    H222909   0.214   0.631   3.388
 7649TIP3   OH222910   6.652   5.461   4.271
 7649TIP3    H122911   6.558   5.476   4.270
 7649TIP3    H222912   6.663   5.378   4.225
 7650TIP3   OH222913   6.110   4.551   0.074
 7650TIP3    H122914   6.125   4.550   0.169
 7650TIP3    H222915   6.191   4.517   0.037
 7651TIP3   OH222916   6.367   4.121   5.645
 7651TIP3    H122917   6.336   4.188   5.706
 7651TIP3    H222918   6.462   4.132   5.644
 7652TIP3   OH222919   3.262   1.655   2.219
 7652TIP3    H122920   3.280   1.734   2.270
 7652TIP3    H222921   3.166   1.651   2.214
 7653TIP3   OH222922   4.756   2.882   4.369
 7653TIP3    H122923   4.800   2.968   4.367
 7653TIP3    H222924   4.822   2.821   4.335
 7654TIP3   OH222925   0.181   3.429   3.749
 7654TIP3    H122926   0.164   3.499   3.813
 7654TIP3    H222927   0.272   3.443   3.723
 7655TIP3   OH222928   6.627   1.292   2.006
 7655TIP3    H122929   6.539   1.264   2.032
 7655TIP3    H222930   6.613   1.375   1.961
 7656TIP3   OH222931   4.465   6.304   4.854
 7656TIP3    H122932   4.479   6.211   4.871
 7656TIP3    H222933   4.551   6.343   4.862
 7657TIP3   OH222934   3.799   0.688   0.194
 7657TIP3    H122935   3.813   0.596   0.175
 7657TIP3    H222936   3.708   0.694   0.223
 7658TIP3   OH222937   2.728   2.763   5.529
 7658TIP3    H122938   2.653   2.753   5.471
 7658TIP3    H222939   2.693   2.749   5.617
 7659TIP3   OH222940   5.390   2.319   3.165
 7659TIP3    H122941   5.462   2.378   3.186
 7659TIP3    H222942   5.321   2.341   3.227
 7660TIP3   OH222943   3.210   5.511   0.752
 7660TIP3    H122944   3.235   5.495   0.843
 7660TIP3    H222945   3.234   5.603   0.736
 7661TIP3   OH222946   0.044   0.298   2.347
 7661TIP3    H122947  -0.045   0.327   2.368
 7661TIP3    H222948   0.085   0.374   2.306
 7662TIP3   OH222949   2.190   0.398   0.884
 7662TIP3    H122950   2.107   0.362   0.850
 7662TIP3    H222951   2.201   0.481   0.837
 7663TIP3   OH222952   4.692   0.178   3.389
 7663TIP3    H122953   4.781   0.193   3.356
 7663TIP3    H222954   4.645   0.140   3.314
 7664TIP3   OH222955   2.022   2.248   0.578
 7664TIP3    H122956   1.961   2.238   0.505
 7664TIP3    H222957   2.093   2.302   0.542
 7665TIP3   OH222958   5.167   0.941   0.940
 7665TIP3    H122959   5.071   0.946   0.940
 7665TIP3    H222960   5.192   0.968   0.852
 7666TIP3   OH222961   2.733   6.811   4.438
 7666TIP3    H122962   2.743   6.811   4.533
 7666TIP3    H222963   2.804   6.867   4.406
 7667TIP3   OH222964   2.227   2.294   2.555
 7667TIP3    H122965   2.178   2.219   2.587
 7667TIP3    H222966   2.290   2.256   2.493
 7668TIP3   OH222967   5.117   3.455   1.479
 7668TIP3    H122968   5.076   3.409   1.406
 7668TIP3    H222969   5.205   3.476   1.447
 7669TIP3   OH222970   0.165   6.579   0.371
 7669TIP3    H122971   0.116   6.621   0.441
 7669TIP3    H222972   0.210   6.506   0.413
 7670TIP3   OH222973   3.956   2.857   5.445
 7670TIP3    H122974   3.983   2.893   5.529
 7670TIP3    H222975   3.992   2.768   5.445
 7671TIP3   OH222976   6.974   0.902   0.075
 7671TIP3    H122977   6.912   0.905   0.003
 7671TIP3    H222978   6.927   0.941   0.149
 7672TIP3   OH222979   0.387   4.702   0.600
 7672TIP3    H122980   0.434   4.756   0.536
 7672TIP3    H222981   0.414   4.736   0.685
 7673TIP3   OH222982   2.271   3.719   1.702
 7673TIP3    H122983   2.187   3.704   1.747
 7673TIP3    H222984   2.309   3.631   1.695
 7674TIP3   OH222985   1.497   6.434   3.472
 7674TIP3    H122986   1.586   6.417   3.444
 7674TIP3    H222987   1.460   6.348   3.492
 7675TIP3   OH222988   0.236   3.295   2.843
 7675TIP3    H122989   0.172   3.362   2.817
 7675TIP3    H222990   0.268   3.325   2.928
 7676TIP3   OH222991   0.137   4.864   2.257
 7676TIP3    H122992   0.167   4.933   2.198
 7676TIP3    H222993   0.068   4.904   2.309
 7677TIP3   OH222994   4.942   1.343   4.560
 7677TIP3    H122995   5.003   1.270   4.545
 7677TIP3    H222996   4.982   1.417   4.514
 7678TIP3   OH222997   4.554   3.544   2.684
 7678TIP3    H122998   4.608   3.512   2.611
 7678TIP3    H222999   4.576   3.638   2.690
 7679TIP3   OH223000   0.101   1.818   0.856
 7679TIP3    H123001   0.099   1.727   0.885
 7679TIP3    H223002   0.194   1.841   0.856
 7680TIP3   OH223003   6.523   0.487   2.990
 7680TIP3    H123004   6.547   0.395   2.979
 7680TIP3    H223005   6.509   0.519   2.901
 7681TIP3   OH223006   2.021   3.603   2.762
 7681TIP3    H123007   1.960   3.540   2.723
 7681TIP3    H223008   1.966   3.678   2.786
 7682TIP3   OH223009   7.160   2.130   0.033
 7682TIP3    H123010   7.143   2.056   0.092
 7682TIP3    H223011   7.202   2.196   0.088
 7683TIP3   OH223012   7.027   1.280   0.181
 7683TIP3    H123013   7.102   1.221   0.174
 7683TIP3    H223014   7.054   1.359   0.134
 7684TIP3   OH223015   1.799   1.566   2.654
 7684TIP3    H123016   1.788   1.526   2.740
 7684TIP3    H223017   1.713   1.559   2.613
 7685TIP3   OH223018   6.483   4.926   2.909
 7685TIP3    H123019   6.411   4.949   2.851
 7685TIP3    H223020   6.443   4.872   2.977
 7686TIP3   OH223021   1.898   2.703   1.106
 7686TIP3    H123022   1.950   2.641   1.158
 7686TIP3    H223023   1.910   2.787   1.150
 7687TIP3   OH223024   5.184   4.313   0.662
 7687TIP3    H123025   5.102   4.307   0.614
 7687TIP3    H223026   5.173   4.253   0.736
 7688TIP3   OH223027   5.507   0.015   5.503
 7688TIP3    H123028   5.505   0.037   5.410
 7688TIP3    H223029   5.500   0.099   5.547
 7689TIP3   OH223030   0.964   3.513   0.492
 7689TIP3    H123031   1.004   3.600   0.488
 7689TIP3    H223032   1.008   3.470   0.565
 7690TIP3   OH223033   5.098   0.210   0.935
 7690TIP3    H123034   5.134   0.196   1.023
 7690TIP3    H223035   5.170   0.188   0.876
 7691TIP3   OH223036   2.762   1.615   4.466
 7691TIP3    H123037   2.828   1.575   4.409
 7691TIP3    H223038   2.779   1.709   4.460
 7692TIP3   OH223039   4.626   6.160   3.346
 7692TIP3    H123040   4.694   6.225   3.331
 7692TIP3    H223041   4.668   6.076   3.330
 7693TIP3   OH223042   2.272   2.919   2.116
 7693TIP3    H123043   2.241   2.998   2.072
 7693TIP3    H223044   2.193   2.865   2.128
 7694TIP3   OH223045   6.310   3.743   2.024
 7694TIP3    H123046   6.295   3.790   2.106
 7694TIP3    H223047   6.223   3.714   1.997
 7695TIP3   OH223048   1.227   1.166   3.143
 7695TIP3    H123049   1.178   1.242   3.173
 7695TIP3    H223050   1.228   1.106   3.217
 7696TIP3   OH223051   7.152   1.294   0.914
 7696TIP3    H123052   7.081   1.306   0.978
 7696TIP3    H223053   7.226   1.263   0.966
 7697TIP3   OH223054   5.714   3.350   3.073
 7697TIP3    H123055   5.784   3.328   3.134
 7697TIP3    H223056   5.722   3.445   3.061
 7698TIP3   OH223057   1.516   1.109   4.609
 7698TIP3    H123058   1.448   1.173   4.627
 7698TIP3    H223059   1.483   1.027   4.646
 7699TIP3   OH223060   4.178   3.118   3.300
 7699TIP3    H123061   4.152   3.165   3.379
 7699TIP3    H223062   4.274   3.124   3.299
 7700TIP3   OH223063   0.113   6.115   3.584
 7700TIP3    H123064   0.025   6.080   3.588
 7700TIP3    H223065   0.156   6.084   3.663
 7701TIP3   OH223066   3.977   3.635   4.711
 7701TIP3    H123067   3.919   3.654   4.637
 7701TIP3    H223068   3.982   3.718   4.759
 7702TIP3   OH223069   2.873   1.912   0.642
 7702TIP3    H123070   2.782   1.920   0.612
 7702TIP3    H223071   2.916   1.860   0.575
 7703TIP3   OH223072   5.020   4.298   2.127
 7703TIP3    H123073   5.066   4.219   2.156
 7703TIP3    H223074   4.953   4.311   2.193
 7704TIP3   OH223075   6.802   5.556   2.993
 7704TIP3    H123076   6.894   5.583   3.001
 7704TIP3    H223077   6.776   5.533   3.082
 7705TIP3   OH223078   0.156   6.291   0.886
 7705TIP3    H123079   0.100   6.365   0.863
 7705TIP3    H223080   0.150   6.285   0.981
 7706TIP3   OH223081   3.539   1.534   5.680
 7706TIP3    H123082   3.593   1.546   5.602
 7706TIP3    H223083   3.577   1.457   5.724
 7707TIP3   OH223084   6.217   4.680   2.063
 7707TIP3    H123085   6.295   4.632   2.090
 7707TIP3    H223086   6.205   4.655   1.971
 7708TIP3   OH223087   4.813   2.061   2.837
 7708TIP3    H123088   4.880   2.053   2.906
 7708TIP3    H223089   4.752   2.126   2.871
 7709TIP3   OH223090   1.410   6.504   4.680
 7709TIP3    H123091   1.341   6.548   4.631
 7709TIP3    H223092   1.366   6.432   4.726
 7710TIP3   OH223093   4.646   4.954   2.738
 7710TIP3    H123094   4.630   4.871   2.783
 7710TIP3    H223095   4.585   5.015   2.779
 7711TIP3   OH223096   6.926   4.009   2.026
 7711TIP3    H123097   7.013   4.038   2.054
 7711TIP3    H223098   6.928   3.914   2.038
 7712TIP3   OH223099   2.861   6.158   2.273
 7712TIP3    H123100   2.777   6.135   2.232
 7712TIP3    H223101   2.902   6.218   2.210
 7713TIP3   OH223102   6.255   4.541   4.809
 7713TIP3    H123103   6.170   4.560   4.848
 7713TIP3    H223104   6.235   4.528   4.716
 7714TIP3   OH223105   5.166   0.920   4.735
 7714TIP3    H123106   5.183   0.977   4.810
 7714TIP3    H223107   5.250   0.879   4.716
 7715TIP3   OH223108   6.694   0.560   5.038
 7715TIP3    H123109   6.722   0.514   4.959
 7715TIP3    H223110   6.734   0.511   5.109
 7716TIP3   OH223111   3.457   2.831   2.218
 7716TIP3    H123112   3.477   2.910   2.169
 7716TIP3    H223113   3.538   2.780   2.217
 7717TIP3   OH223114   6.582   5.203   2.897
 7717TIP3    H123115   6.558   5.111   2.884
 7717TIP3    H223116   6.665   5.213   2.852
 7718TIP3   OH223117   3.710   2.112   2.569
 7718TIP3    H123118   3.722   2.042   2.506
 7718TIP3    H223119   3.615   2.115   2.584
 7719TIP3   OH223120   2.548   2.658   1.485
 7719TIP3    H123121   2.484   2.588   1.492
 7719TIP3    H223122   2.513   2.729   1.538
 7720TIP3   OH223123   2.296   1.365   5.623
 7720TIP3    H123124   2.263   1.341   5.536
 7720TIP3    H223125   2.388   1.387   5.608
 7721TIP3   OH223126   3.858   4.051   4.990
 7721TIP3    H123127   3.817   4.079   4.909
 7721TIP3    H223128   3.952   4.059   4.974
 7722TIP3   OH223129   4.270   2.717   2.181
 7722TIP3    H123130   4.278   2.805   2.215
 7722TIP3    H223131   4.360   2.689   2.164
 7723TIP3   OH223132   6.639   3.078   0.577
 7723TIP3    H123133   6.643   3.042   0.489
 7723TIP3    H223134   6.713   3.139   0.582
 7724TIP3   OH223135   1.318   4.205   5.220
 7724TIP3    H123136   1.369   4.268   5.272
 7724TIP3    H223137   1.355   4.120   5.243
 7725TIP3   OH223138   2.306   6.662   4.141
 7725TIP3    H123139   2.305   6.716   4.220
 7725TIP3    H223140   2.378   6.696   4.088
 7726TIP3   OH223141   3.961   2.676   0.619
 7726TIP3    H123142   3.881   2.713   0.584
 7726TIP3    H223143   3.985   2.733   0.692
 7727TIP3   OH223144   5.110   1.070   4.502
 7727TIP3    H123145   5.135   1.047   4.592
 7727TIP3    H223146   5.063   0.993   4.471
 7728TIP3   OH223147   0.398   5.767   1.411
 7728TIP3    H123148   0.467   5.730   1.356
 7728TIP3    H223149   0.441   5.783   1.495
 7729TIP3   OH223150   3.195   4.846   3.124
 7729TIP3    H123151   3.109   4.829   3.163
 7729TIP3    H223152   3.198   4.941   3.113
 7730TIP3   OH223153   1.267   1.923   1.920
 7730TIP3    H123154   1.322   1.993   1.885
 7730TIP3    H223155   1.187   1.967   1.948
 7731TIP3   OH223156   4.363   5.146   1.443
 7731TIP3    H123157   4.286   5.100   1.408
 7731TIP3    H223158   4.339   5.167   1.533
 7732TIP3   OH223159   2.864   6.325   0.706
 7732TIP3    H123160   2.791   6.302   0.764
 7732TIP3    H223161   2.902   6.404   0.745
 7733TIP3   OH223162   2.093   6.157   0.817
 7733TIP3    H123163   2.051   6.120   0.740
 7733TIP3    H223164   2.058   6.245   0.824
 7734TIP3   OH223165   2.872   6.486   2.125
 7734TIP3    H123166   2.780   6.500   2.102
 7734TIP3    H223167   2.921   6.542   2.064
 7735TIP3   OH223168   4.976   4.749   3.365
 7735TIP3    H123169   5.066   4.767   3.339
 7735TIP3    H223170   4.971   4.653   3.369
 7736TIP3   OH223171   2.196   1.452   2.893
 7736TIP3    H123172   2.234   1.473   2.807
 7736TIP3    H223173   2.270   1.416   2.943
 7737TIP3   OH223174   2.580   0.197   0.280
 7737TIP3    H123175   2.582   0.136   0.207
 7737TIP3    H223176   2.663   0.183   0.326
 7738TIP3   OH223177   5.189   3.909   1.542
 7738TIP3    H123178   5.140   3.841   1.496
 7738TIP3    H223179   5.123   3.957   1.592
 7739TIP3   OH223180   5.729   6.761   3.490
 7739TIP3    H123181   5.710   6.777   3.583
 7739TIP3    H223182   5.667   6.693   3.465
 7740TIP3   OH223183   6.053   4.129   3.224
 7740TIP3    H123184   5.992   4.092   3.160
 7740TIP3    H223185   6.005   4.126   3.307
 7741TIP3   OH223186   0.964   1.651   4.556
 7741TIP3    H123187   0.946   1.594   4.631
 7741TIP3    H223188   0.877   1.676   4.524
 7742TIP3   OH223189   0.403   2.863   3.919
 7742TIP3    H123190   0.442   2.874   4.006
 7742TIP3    H223191   0.384   2.770   3.913
 7743TIP3   OH223192   3.653   2.006   3.480
 7743TIP3    H123193   3.661   2.014   3.384
 7743TIP3    H223194   3.605   2.085   3.506
 7744TIP3   OH223195   6.661   3.997   1.522
 7744TIP3    H123196   6.699   4.007   1.609
 7744TIP3    H223197   6.655   4.087   1.488
 7745TIP3   OH223198   3.052   5.146   5.691
 7745TIP3    H123199   3.087   5.113   5.608
 7745TIP3    H223200   3.130   5.168   5.742
 7746TIP3   OH223201   1.397   5.354   4.535
 7746TIP3    H123202   1.429   5.347   4.445
 7746TIP3    H223203   1.322   5.412   4.529
 7747TIP3   OH223204   6.185   3.069   3.654
 7747TIP3    H123205   6.253   3.004   3.672
 7747TIP3    H223206   6.104   3.018   3.649
 7748TIP3   OH223207   6.423   2.575   2.374
 7748TIP3    H123208   6.331   2.549   2.380
 7748TIP3    H223209   6.472   2.494   2.387
 7749TIP3   OH223210   6.848   1.636   1.910
 7749TIP3    H123211   6.889   1.583   1.843
 7749TIP3    H223212   6.757   1.644   1.883
 7750TIP3   OH223213   4.894   4.626   2.859
 7750TIP3    H123214   4.971   4.632   2.916
 7750TIP3    H223215   4.894   4.709   2.810
 7751TIP3   OH223216   3.306   3.331   1.969
 7751TIP3    H123217   3.214   3.356   1.981
 7751TIP3    H223218   3.354   3.391   2.025
 7752TIP3   OH223219   2.120   5.285   4.302
 7752TIP3    H123220   2.083   5.244   4.380
 7752TIP3    H223221   2.207   5.314   4.329
 7753TIP3   OH223222   3.518   4.684   3.511
 7753TIP3    H123223   3.471   4.762   3.540
 7753TIP3    H223224   3.514   4.624   3.585
 7754TIP3   OH223225   5.684   2.641   2.056
 7754TIP3    H123226   5.649   2.659   1.969
 7754TIP3    H223227   5.606   2.639   2.113
 7755TIP3   OH223228   3.063   6.708   2.058
 7755TIP3    H123229   3.140   6.664   2.093
 7755TIP3    H223230   3.066   6.691   1.963
 7756TIP3   OH223231   2.898   6.268   1.955
 7756TIP3    H123232   2.983   6.261   1.912
 7756TIP3    H223233   2.899   6.354   1.997
 7757TIP3   OH223234   6.024   6.603   4.643
 7757TIP3    H123235   5.991   6.612   4.733
 7757TIP3    H223236   5.955   6.555   4.597
 7758TIP3   OH223237   4.467   3.883   3.707
 7758TIP3    H123238   4.413   3.963   3.703
 7758TIP3    H223239   4.543   3.909   3.759
 7759TIP3   OH223240   6.551   2.150   2.092
 7759TIP3    H123241   6.485   2.090   2.127
 7759TIP3    H223242   6.617   2.094   2.052
 7760TIP3   OH223243   4.873   0.981   2.477
 7760TIP3    H123244   4.790   0.952   2.514
 7760TIP3    H223245   4.940   0.933   2.525
 7761TIP3   OH223246   1.896   4.633   4.611
 7761TIP3    H123247   1.839   4.625   4.687
 7761TIP3    H223248   1.980   4.597   4.640
 7762TIP3   OH223249   2.960   6.402   4.921
 7762TIP3    H123250   2.919   6.342   4.859
 7762TIP3    H223251   3.054   6.394   4.903
 7763TIP3   OH223252   4.568   5.007   2.426
 7763TIP3    H123253   4.477   5.020   2.452
 7763TIP3    H223254   4.599   4.935   2.481
 7764TIP3   OH223255   3.553   2.249   3.562
 7764TIP3    H123256   3.572   2.246   3.656
 7764TIP3    H223257   3.499   2.328   3.552
 7765TIP3   OH223258   2.248   4.224   0.339
 7765TIP3    H123259   2.265   4.156   0.273
 7765TIP3    H223260   2.164   4.262   0.312
 7766TIP3   OH223261   6.452   4.323   0.286
 7766TIP3    H123262   6.515   4.252   0.296
 7766TIP3    H223263   6.369   4.288   0.318
 7767TIP3   OH223264   2.565   5.591   0.346
 7767TIP3    H123265   2.534   5.652   0.413
 7767TIP3    H223266   2.508   5.608   0.270
 7768TIP3   OH223267   3.736   4.408   2.392
 7768TIP3    H123268   3.662   4.437   2.338
 7768TIP3    H223269   3.782   4.344   2.337
 7769TIP3   OH223270   5.433   6.256   1.888
 7769TIP3    H123271   5.508   6.281   1.834
 7769TIP3    H223272   5.358   6.261   1.829
 7770TIP3   OH223273   4.800   0.974   0.498
 7770TIP3    H123274   4.830   0.939   0.582
 7770TIP3    H223275   4.832   1.064   0.496
 7771TIP3   OH223276   3.215   5.129   1.610
 7771TIP3    H123277   3.156   5.105   1.539
 7771TIP3    H223278   3.256   5.047   1.637
 7772TIP3   OH223279   6.962   3.159   0.243
 7772TIP3    H123280   7.035   3.121   0.194
 7772TIP3    H223281   6.884   3.134   0.194
 7773TIP3   OH223282   7.001   0.261   2.760
 7773TIP3    H123283   6.980   0.312   2.838
 7773TIP3    H223284   7.096   0.265   2.753
 7774TIP3   OH223285   2.927   3.772   0.378
 7774TIP3    H123286   2.942   3.743   0.468
 7774TIP3    H223287   2.864   3.708   0.343
 7775TIP3   OH223288   0.892   6.646   5.221
 7775TIP3    H123289   0.858   6.562   5.189
 7775TIP3    H223290   0.839   6.712   5.177
 7776TIP3   OH223291   1.457   4.993   4.230
 7776TIP3    H123292   1.528   4.964   4.172
 7776TIP3    H223293   1.405   4.914   4.245
 7777TIP3   OH223294   1.717   5.852   3.161
 7777TIP3    H123295   1.641   5.908   3.171
 7777TIP3    H223296   1.681   5.765   3.141
 7778TIP3   OH223297   0.382   2.673   1.063
 7778TIP3    H123298   0.352   2.610   1.128
 7778TIP3    H223299   0.423   2.620   0.995
 7779TIP3   OH223300   5.779   0.566   3.082
 7779TIP3    H123301   5.823   0.531   3.004
 7779TIP3    H223302   5.701   0.610   3.048
 7780TIP3   OH223303   6.235   2.768   1.496
 7780TIP3    H123304   6.145   2.737   1.492
 7780TIP3    H223305   6.288   2.693   1.470
 7781TIP3   OH223306   0.572   6.685   1.844
 7781TIP3    H123307   0.652   6.640   1.873
 7781TIP3    H223308   0.603   6.755   1.787
 7782TIP3   OH223309   6.732   6.385   3.033
 7782TIP3    H123310   6.795   6.456   3.045
 7782TIP3    H223311   6.734   6.365   2.940
 7783TIP3   OH223312   0.885   4.723   1.075
 7783TIP3    H123313   0.881   4.724   1.171
 7783TIP3    H223314   0.794   4.727   1.047
 7784TIP3   OH223315   0.673   5.542   4.086
 7784TIP3    H123316   0.617   5.604   4.040
 7784TIP3    H223317   0.762   5.571   4.066
 7785TIP3   OH223318   3.638   6.673   5.044
 7785TIP3    H123319   3.702   6.602   5.043
 7785TIP3    H223320   3.620   6.689   5.137
 7786TIP3   OH223321   2.364   2.105   1.597
 7786TIP3    H123322   2.439   2.087   1.653
 7786TIP3    H223323   2.368   2.200   1.582
 7787TIP3   OH223324   1.364   4.849   2.273
 7787TIP3    H123325   1.282   4.886   2.239
 7787TIP3    H223326   1.341   4.816   2.360
 7788TIP3   OH223327   0.533   0.358   3.100
 7788TIP3    H123328   0.558   0.450   3.110
 7788TIP3    H223329   0.583   0.313   3.168
 7789TIP3   OH223330   5.619   6.041   2.776
 7789TIP3    H123331   5.601   6.082   2.860
 7789TIP3    H223332   5.649   6.112   2.720
 7790TIP3   OH223333   6.330   4.416   0.003
 7790TIP3    H123334   6.341   4.383   0.092
 7790TIP3    H223335   6.342   4.340  -0.053
 7791TIP3   OH223336   7.086   0.008   5.587
 7791TIP3    H123337   7.001   0.044   5.615
 7791TIP3    H223338   7.125   0.077   5.534
 7792TIP3   OH223339   2.033   6.663   4.476
 7792TIP3    H123340   1.961   6.675   4.414
 7792TIP3    H223341   1.992   6.619   4.551
 7793TIP3   OH223342   5.778   0.979   3.144
 7793TIP3    H123343   5.833   0.910   3.107
 7793TIP3    H223344   5.705   0.933   3.185
 7794TIP3   OH223345   7.013   3.793   2.279
 7794TIP3    H123346   7.035   3.881   2.311
 7794TIP3    H223347   6.926   3.803   2.242
 7795TIP3   OH223348   3.914   4.418   0.156
 7795TIP3    H123349   3.886   4.355   0.089
 7795TIP3    H223350   4.008   4.430   0.139
 7796TIP3   OH223351   1.048   0.043   2.029
 7796TIP3    H123352   1.005   0.000   2.103
 7796TIP3    H223353   1.028  -0.013   1.954
 7797TIP3   OH223354   4.143   0.264   5.440
 7797TIP3    H123355   4.167   0.287   5.530
 7797TIP3    H223356   4.056   0.304   5.427
 7798TIP3   OH223357   0.558   4.137   0.462
 7798TIP3    H123358   0.553   4.228   0.491
 7798TIP3    H223359   0.602   4.092   0.534
 7799TIP3   OH223360   0.232   2.416   0.145
 7799TIP3    H123361   0.307   2.472   0.168
 7799TIP3    H223362   0.164   2.441   0.207
 7800TIP3   OH223363   1.290   1.938   0.572
 7800TIP3    H123364   1.239   2.019   0.574
 7800TIP3    H223365   1.225   1.869   0.560
 7801TIP3   OH223366   4.614   1.507   3.702
 7801TIP3    H123367   4.705   1.479   3.710
 7801TIP3    H223368   4.609   1.588   3.753
 7802TIP3   OH223369   4.591   0.477   3.729
 7802TIP3    H123370   4.663   0.539   3.735
 7802TIP3    H223371   4.605   0.417   3.803
 7803TIP3   OH223372   5.488  -0.008   0.943
 7803TIP3    H123373   5.447   0.062   0.893
 7803TIP3    H223374   5.436  -0.013   1.024
 7804TIP3   OH223375   4.098   0.252   4.336
 7804TIP3    H123376   4.115   0.185   4.270
 7804TIP3    H223377   4.003   0.251   4.348
 7805TIP3   OH223378   3.962   5.807   5.599
 7805TIP3    H123379   3.912   5.834   5.676
 7805TIP3    H223380   4.009   5.728   5.627
 7806TIP3   OH223381   5.674   2.496   2.704
 7806TIP3    H123382   5.687   2.581   2.746
 7806TIP3    H223383   5.636   2.440   2.772
 7807TIP3   OH223384   3.840   6.109   2.863
 7807TIP3    H123385   3.758   6.073   2.830
 7807TIP3    H223386   3.849   6.071   2.951
 7808TIP3   OH223387   3.991   2.201   5.652
 7808TIP3    H123388   3.968   2.227   5.562
 7808TIP3    H223389   3.990   2.106   5.650
 7809TIP3   OH223390   3.537   3.768   3.674
 7809TIP3    H123391   3.464   3.784   3.614
 7809TIP3    H223392   3.500   3.785   3.761
 7810TIP3   OH223393   1.637   4.087   5.789
 7810TIP3    H123394   1.677   4.137   5.719
 7810TIP3    H223395   1.690   4.007   5.796
 7811TIP3   OH223396   3.999   6.715   2.186
 7811TIP3    H123397   4.029   6.782   2.247
 7811TIP3    H223398   4.015   6.632   2.231
 7812TIP3   OH223399   5.181   0.473   5.228
 7812TIP3    H123400   5.183   0.457   5.322
 7812TIP3    H223401   5.133   0.555   5.219
 7813TIP3   OH223402   2.904   1.739   5.564
 7813TIP3    H123403   2.975   1.740   5.501
 7813TIP3    H223404   2.838   1.797   5.527
 7814TIP3   OH223405   1.852   5.635   3.851
 7814TIP3    H123406   1.805   5.623   3.769
 7814TIP3    H223407   1.905   5.556   3.861
 7815TIP3   OH223408   7.202   6.485   0.818
 7815TIP3    H123409   7.127   6.433   0.789
 7815TIP3    H223410   7.169   6.575   0.822
 7816TIP3   OH223411   1.871   5.424   0.360
 7816TIP3    H123412   1.867   5.515   0.329
 7816TIP3    H223413   1.918   5.378   0.290
 7817TIP3   OH223414   0.871   2.055   0.062
 7817TIP3    H123415   0.925   2.069  -0.016
 7817TIP3    H223416   0.928   2.081   0.135
 7818TIP3   OH223417   7.122   5.888   2.843
 7818TIP3    H123418   7.135   5.971   2.889
 7818TIP3    H223419   7.211   5.856   2.826
 7819TIP3   OH223420   1.136   4.511   5.303
 7819TIP3    H123421   1.131   4.457   5.225
 7819TIP3    H223422   1.136   4.449   5.376
 7820TIP3   OH223423   5.257   4.424   0.928
 7820TIP3    H123424   5.349   4.420   0.954
 7820TIP3    H223425   5.259   4.455   0.838
 7821TIP3   OH223426   4.017   4.943   4.161
 7821TIP3    H123427   4.010   5.021   4.215
 7821TIP3    H223428   3.929   4.929   4.126
 7822TIP3   OH223429   0.799   1.180   3.687
 7822TIP3    H123430   0.789   1.096   3.731
 7822TIP3    H223431   0.893   1.185   3.666
 7823TIP3   OH223432   0.299   2.441   2.913
 7823TIP3    H123433   0.329   2.435   2.822
 7823TIP3    H223434   0.258   2.356   2.930
 7824TIP3   OH223435   6.079   5.261   5.326
 7824TIP3    H123436   6.172   5.280   5.334
 7824TIP3    H223437   6.039   5.344   5.302
 7825TIP3   OH223438   7.043   0.660   5.023
 7825TIP3    H123439   6.973   0.722   5.042
 7825TIP3    H223440   7.108   0.711   4.976
 7826TIP3   OH223441   0.543   0.119   4.492
 7826TIP3    H123442   0.506   0.116   4.580
 7826TIP3    H223443   0.481   0.171   4.441
 7827TIP3   OH223444   1.810   4.768   5.652
 7827TIP3    H123445   1.884   4.830   5.657
 7827TIP3    H223446   1.833   4.698   5.712
 7828TIP3   OH223447   0.378   4.329   3.067
 7828TIP3    H123448   0.305   4.305   3.123
 7828TIP3    H223449   0.341   4.389   3.003
 7829TIP3   OH223450   6.629   3.004   2.168
 7829TIP3    H123451   6.675   2.982   2.087
 7829TIP3    H223452   6.577   2.927   2.189
 7830TIP3   OH223453   1.588   3.845   1.641
 7830TIP3    H123454   1.645   3.792   1.586
 7830TIP3    H223455   1.513   3.865   1.586
 7831TIP3   OH223456   5.728   5.442   0.861
 7831TIP3    H123457   5.783   5.441   0.782
 7831TIP3    H223458   5.664   5.373   0.847
 7832TIP3   OH223459   6.046   6.372   5.446
 7832TIP3    H123460   6.118   6.349   5.387
 7832TIP3    H223461   6.020   6.289   5.486
 7833TIP3   OH223462   6.954   2.007   3.233
 7833TIP3    H123463   6.967   1.927   3.285
 7833TIP3    H223464   6.932   1.976   3.146
 7834TIP3   OH223465   6.679   5.865   5.521
 7834TIP3    H123466   6.725   5.907   5.594
 7834TIP3    H223467   6.749   5.834   5.463
 7835TIP3   OH223468   6.676   5.432   0.718
 7835TIP3    H123469   6.601   5.450   0.661
 7835TIP3    H223470   6.667   5.495   0.789
 7836TIP3   OH223471   7.062   1.449   3.650
 7836TIP3    H123472   7.015   1.498   3.582
 7836TIP3    H223473   6.995   1.390   3.687
 7837TIP3   OH223474   4.190   2.281   1.884
 7837TIP3    H123475   4.259   2.346   1.897
 7837TIP3    H223476   4.115   2.332   1.854
 7838TIP3   OH223477   0.145   1.306   2.804
 7838TIP3    H123478   0.219   1.367   2.809
 7838TIP3    H223479   0.179   1.224   2.839
 7839TIP3   OH223480   5.079   2.578   2.684
 7839TIP3    H123481   5.150   2.551   2.626
 7839TIP3    H223482   5.121   2.636   2.748
 7840TIP3   OH223483   1.012   4.403   2.218
 7840TIP3    H123484   1.065   4.354   2.156
 7840TIP3    H223485   1.070   4.473   2.250
 7841TIP3   OH223486   2.747   1.989   4.336
 7841TIP3    H123487   2.696   2.030   4.405
 7841TIP3    H223488   2.682   1.961   4.272
 7842TIP3   OH223489   2.111   2.951   4.008
 7842TIP3    H123490   2.182   2.890   3.986
 7842TIP3    H223491   2.032   2.908   3.976
 7843TIP3   OH223492   0.825   4.370   5.028
 7843TIP3    H123493   0.766   4.299   5.052
 7843TIP3    H223494   0.907   4.327   5.005
 7844TIP3   OH223495   3.366   1.843   5.026
 7844TIP3    H123496   3.317   1.764   5.003
 7844TIP3    H223497   3.298   1.909   5.041
 7845TIP3   OH223498   3.888   4.375   2.627
 7845TIP3    H123499   3.831   4.434   2.577
 7845TIP3    H223500   3.970   4.424   2.635
 7846TIP3   OH223501   3.969   3.939   3.361
 7846TIP3    H123502   3.979   3.880   3.287
 7846TIP3    H223503   3.885   3.914   3.400
 7847TIP3   OH223504   2.708   1.394   5.083
 7847TIP3    H123505   2.699   1.368   4.991
 7847TIP3    H223506   2.625   1.371   5.123
 7848TIP3   OH223507   5.408   5.751   3.004
 7848TIP3    H123508   5.407   5.819   2.936
 7848TIP3    H223509   5.366   5.676   2.963
 7849TIP3   OH223510   2.939   5.125   0.775
 7849TIP3    H123511   3.004   5.176   0.726
 7849TIP3    H223512   2.947   5.157   0.865
 7850TIP3   OH223513   0.052   6.579   5.868
 7850TIP3    H123514   0.095   6.531   5.797
 7850TIP3    H223515  -0.038   6.592   5.838
 7851TIP3   OH223516   2.926   3.249   4.890
 7851TIP3    H123517   2.965   3.336   4.886
 7851TIP3    H223518   2.870   3.251   4.967
 7852TIP3   OH223519   1.336   5.957   5.472
 7852TIP3    H123520   1.369   5.917   5.552
 7852TIP3    H223521   1.406   5.946   5.408
 7853TIP3   OH223522   5.272   2.533   5.673
 7853TIP3    H123523   5.265   2.443   5.644
 7853TIP3    H223524   5.350   2.567   5.629
 7854TIP3   OH223525   6.075   0.440   2.386
 7854TIP3    H123526   6.034   0.525   2.368
 7854TIP3    H223527   6.007   0.390   2.430
 7855TIP3   OH223528   5.226   5.752   0.996
 7855TIP3    H123529   5.203   5.779   1.085
 7855TIP3    H223530   5.263   5.665   1.006
 7856TIP3   OH223531   0.252   1.707   1.132
 7856TIP3    H123532   0.230   1.619   1.161
 7856TIP3    H223533   0.307   1.694   1.055
 7857TIP3   OH223534   6.912   1.788   0.724
 7857TIP3    H123535   6.845   1.856   0.726
 7857TIP3    H223536   6.913   1.753   0.813
 7858TIP3   OH223537   4.165   0.307   2.247
 7858TIP3    H123538   4.135   0.327   2.336
 7858TIP3    H223539   4.180   0.393   2.208
 7859TIP3   OH223540   2.723   1.969   0.281
 7859TIP3    H123541   2.673   1.908   0.335
 7859TIP3    H223542   2.673   2.050   0.284
 7860TIP3   OH223543   4.746   2.173   4.703
 7860TIP3    H123544   4.744   2.259   4.745
 7860TIP3    H223545   4.837   2.145   4.712
 7861TIP3   OH223546   0.215   1.108   3.822
 7861TIP3    H123547   0.262   1.161   3.886
 7861TIP3    H223548   0.177   1.172   3.761
 7862TIP3   OH223549   1.185   5.858   5.918
 7862TIP3    H123550   1.163   5.925   5.853
 7862TIP3    H223551   1.135   5.781   5.892
 7863TIP3   OH223552   5.991   3.803   5.409
 7863TIP3    H123553   6.042   3.879   5.438
 7863TIP3    H223554   5.983   3.814   5.315
 7864TIP3   OH223555  -0.008   5.924   1.313
 7864TIP3    H123556   0.061   5.959   1.369
 7864TIP3    H223557   0.002   5.829   1.320
 7865TIP3   OH223558   5.790   4.855   4.445
 7865TIP3    H123559   5.868   4.835   4.498
 7865TIP3    H223560   5.806   4.944   4.414
 7866TIP3   OH223561   6.040   1.327   5.265
 7866TIP3    H123562   5.991   1.408   5.269
 7866TIP3    H223563   6.066   1.309   5.356
 7867TIP3   OH223564   2.429   1.283   2.967
 7867TIP3    H123565   2.482   1.274   2.888
 7867TIP3    H223566   2.474   1.350   3.018
 7868TIP3   OH223567   4.414   0.810   2.866
 7868TIP3    H123568   4.445   0.721   2.848
 7868TIP3    H223569   4.362   0.833   2.789
 7869TIP3   OH223570   7.109   5.888   3.600
 7869TIP3    H123571   7.169   5.860   3.668
 7869TIP3    H223572   7.049   5.814   3.589
 7870TIP3   OH223573   3.700   0.265   1.401
 7870TIP3    H123574   3.693   0.317   1.481
 7870TIP3    H223575   3.610   0.254   1.372
 7871TIP3   OH223576   6.465   1.207   2.847
 7871TIP3    H123577   6.389   1.202   2.789
 7871TIP3    H223578   6.537   1.170   2.796
 7872TIP3   OH223579   5.379   6.410   1.585
 7872TIP3    H123580   5.320   6.347   1.626
 7872TIP3    H223581   5.343   6.495   1.608
 7873TIP3   OH223582   5.399   0.758   0.388
 7873TIP3    H123583   5.448   0.677   0.374
 7873TIP3    H223584   5.307   0.734   0.378
 7874TIP3   OH223585   1.610   0.700   3.937
 7874TIP3    H123586   1.614   0.789   3.903
 7874TIP3    H223587   1.651   0.705   4.023
 7875TIP3   OH223588   2.996   3.934   3.116
 7875TIP3    H123589   3.047   3.854   3.127
 7875TIP3    H223590   2.985   3.942   3.021
 7876TIP3   OH223591   2.915   5.559   2.998
 7876TIP3    H123592   2.932   5.641   2.952
 7876TIP3    H223593   2.989   5.503   2.974
 7877TIP3   OH223594   5.053   5.083   5.669
 7877TIP3    H123595   4.958   5.084   5.654
 7877TIP3    H223596   5.082   4.999   5.632
 7878TIP3   OH223597   1.779   5.577   2.158
 7878TIP3    H123598   1.874   5.576   2.148
 7878TIP3    H223599   1.754   5.668   2.147
 7879TIP3   OH223600   6.061   0.225   3.241
 7879TIP3    H123601   5.986   0.283   3.248
 7879TIP3    H223602   6.023   0.141   3.214
 7880TIP3   OH223603   2.226   2.994   4.738
 7880TIP3    H123604   2.286   3.058   4.702
 7880TIP3    H223605   2.193   2.946   4.663
 7881TIP3   OH223606   6.079   4.339   2.916
 7881TIP3    H123607   6.010   4.404   2.905
 7881TIP3    H223608   6.101   4.311   2.827
 7882TIP3   OH223609   0.200   3.370   4.634
 7882TIP3    H123610   0.150   3.305   4.683
 7882TIP3    H223611   0.278   3.323   4.604
 7883TIP3   OH223612   1.750   0.635   4.486
 7883TIP3    H123613   1.746   0.564   4.422
 7883TIP3    H223614   1.666   0.680   4.478
 7884TIP3   OH223615   0.688   2.504   0.809
 7884TIP3    H123616   0.641   2.431   0.847
 7884TIP3    H223617   0.721   2.553   0.884
 7885TIP3   OH223618   4.534   1.680   0.776
 7885TIP3    H123619   4.512   1.641   0.691
 7885TIP3    H223620   4.536   1.774   0.759
 7886TIP3   OH223621   6.931   4.704   2.927
 7886TIP3    H123622   6.863   4.771   2.915
 7886TIP3    H223623   6.893   4.642   2.988
 7887TIP3   OH223624  -0.007   1.775   1.270
 7887TIP3    H123625  -0.006   1.756   1.363
 7887TIP3    H223626   0.086   1.783   1.246
 7888TIP3   OH223627   3.628   5.008   5.732
 7888TIP3    H123628   3.598   4.919   5.754
 7888TIP3    H223629   3.547   5.058   5.720
 7889TIP3   OH223630   5.790   1.283   5.114
 7889TIP3    H123631   5.880   1.307   5.135
 7889TIP3    H223632   5.745   1.283   5.198
 7890TIP3   OH223633   7.139   4.139   1.651
 7890TIP3    H123634   7.069   4.100   1.598
 7890TIP3    H223635   7.203   4.169   1.587
 7891TIP3   OH223636   1.497   3.188   0.851
 7891TIP3    H123637   1.467   3.155   0.936
 7891TIP3    H223638   1.463   3.125   0.787
 7892TIP3   OH223639   5.597   6.005   4.992
 7892TIP3    H123640   5.635   6.084   5.030
 7892TIP3    H223641   5.545   5.967   5.063
 7893TIP3   OH223642   3.712   5.153   0.121
 7893TIP3    H123643   3.710   5.066   0.161
 7893TIP3    H223644   3.647   5.148   0.050
 7894TIP3   OH223645   3.658   3.057   0.484
 7894TIP3    H123646   3.706   3.001   0.422
 7894TIP3    H223647   3.648   3.002   0.562
 7895TIP3   OH223648   4.215   4.244   1.130
 7895TIP3    H123649   4.277   4.308   1.094
 7895TIP3    H223650   4.190   4.281   1.215
 7896TIP3   OH223651   2.315   0.372   3.280
 7896TIP3    H123652   2.370   0.405   3.210
 7896TIP3    H223653   2.356   0.404   3.361
 7897TIP3   OH223654   1.012   3.830   3.761
 7897TIP3    H123655   1.104   3.833   3.785
 7897TIP3    H223656   1.008   3.776   3.683
 7898TIP3   OH223657   5.481   4.089   1.325
 7898TIP3    H123658   5.435   4.010   1.298
 7898TIP3    H223659   5.535   4.061   1.399
 7899TIP3   OH223660   3.703   1.729   5.484
 7899TIP3    H123661   3.678   1.735   5.392
 7899TIP3    H223662   3.682   1.815   5.521
 7900TIP3   OH223663   5.983   6.661   5.794
 7900TIP3    H123664   6.027   6.746   5.789
 7900TIP3    H223665   5.953   6.655   5.884
 7901TIP3   OH223666   0.238   1.943   2.285
 7901TIP3    H123667   0.230   1.904   2.198
 7901TIP3    H223668   0.231   1.869   2.346
 7902TIP3   OH223669   0.119   0.796   0.494
 7902TIP3    H123670   0.127   0.822   0.402
 7902TIP3    H223671   0.098   0.702   0.491
 7903TIP3   OH223672   3.450   5.211   2.399
 7903TIP3    H123673   3.412   5.206   2.486
 7903TIP3    H223674   3.420   5.296   2.364
 7904TIP3   OH223675   6.301   2.748   4.612
 7904TIP3    H123676   6.313   2.754   4.707
 7904TIP3    H223677   6.254   2.828   4.589
 7905TIP3   OH223678   6.234   6.228   3.006
 7905TIP3    H123679   6.282   6.199   2.929
 7905TIP3    H223680   6.142   6.227   2.979
 7906TIP3   OH223681   3.059   0.114   2.843
 7906TIP3    H123682   3.057   0.207   2.822
 7906TIP3    H223683   3.138   0.082   2.800
 7907TIP3   OH223684   0.470   5.270   3.759
 7907TIP3    H123685   0.540   5.333   3.773
 7907TIP3    H223686   0.389   5.319   3.776
 7908TIP3   OH223687   5.660   3.145   4.656
 7908TIP3    H123688   5.622   3.193   4.582
 7908TIP3    H223689   5.605   3.067   4.664
 7909TIP3   OH223690   4.135   4.649   2.689
 7909TIP3    H123691   4.141   4.563   2.648
 7909TIP3    H223692   4.093   4.704   2.624
 7910TIP3   OH223693   4.765   1.786   1.885
 7910TIP3    H123694   4.793   1.704   1.845
 7910TIP3    H223695   4.836   1.847   1.868
 7911TIP3   OH223696   7.128   5.674   1.396
 7911TIP3    H123697   7.217   5.672   1.432
 7911TIP3    H223698   7.104   5.583   1.386
 7912TIP3   OH223699   4.123   4.996   1.312
 7912TIP3    H123700   4.066   4.926   1.280
 7912TIP3    H223701   4.102   5.072   1.257
 7913TIP3   OH223702   7.072   3.564   2.416
 7913TIP3    H123703   7.113   3.583   2.501
 7913TIP3    H223704   7.080   3.646   2.367
 7914TIP3   OH223705   3.955   3.354   3.735
 7914TIP3    H123706   3.929   3.415   3.805
 7914TIP3    H223707   3.994   3.280   3.782
 7915TIP3   OH223708   5.471   4.744   3.830
 7915TIP3    H123709   5.543   4.801   3.858
 7915TIP3    H223710   5.394   4.779   3.875
 7916TIP3   OH223711   1.150   2.342   5.412
 7916TIP3    H123712   1.056   2.354   5.429
 7916TIP3    H223713   1.154   2.302   5.325
 7917TIP3   OH223714   6.393   4.339   0.768
 7917TIP3    H123715   6.340   4.358   0.845
 7917TIP3    H223716   6.463   4.404   0.771
 7918TIP3   OH223717   1.975   2.915   1.282
 7918TIP3    H123718   1.990   3.007   1.304
 7918TIP3    H223719   1.940   2.876   1.363
 7919TIP3   OH223720   2.492   1.786   3.148
 7919TIP3    H123721   2.487   1.693   3.169
 7919TIP3    H223722   2.409   1.804   3.103
 7920TIP3   OH223723   1.315   5.416   5.778
 7920TIP3    H123724   1.322   5.353   5.850
 7920TIP3    H223725   1.380   5.483   5.799
 7921TIP3   OH223726   6.882   5.630   2.347
 7921TIP3    H123727   6.920   5.642   2.260
 7921TIP3    H223728   6.936   5.563   2.388
 7922TIP3   OH223729   3.295   2.124   1.454
 7922TIP3    H123730   3.250   2.057   1.506
 7922TIP3    H223731   3.316   2.081   1.371
 7923TIP3   OH223732   4.244   6.191   3.145
 7923TIP3    H123733   4.313   6.258   3.144
 7923TIP3    H223734   4.202   6.202   3.230
 7924TIP3   OH223735   1.701   3.343   1.432
 7924TIP3    H123736   1.776   3.302   1.389
 7924TIP3    H223737   1.738   3.421   1.474
 7925TIP3   OH223738   3.654   0.375   2.366
 7925TIP3    H123739   3.589   0.414   2.308
 7925TIP3    H223740   3.651   0.282   2.347
 7926TIP3   OH223741   0.277   0.577   5.274
 7926TIP3    H123742   0.242   0.663   5.251
 7926TIP3    H223743   0.335   0.595   5.348
 7927TIP3   OH223744   0.793   3.161   3.755
 7927TIP3    H123745   0.751   3.244   3.777
 7927TIP3    H223746   0.721   3.102   3.733
 7928TIP3   OH223747   0.969   0.915   2.894
 7928TIP3    H123748   0.954   0.838   2.839
 7928TIP3    H223749   1.061   0.936   2.881
 7929TIP3   OH223750   3.073   6.263   0.244
 7929TIP3    H123751   2.977   6.268   0.235
 7929TIP3    H223752   3.104   6.258   0.154
 7930TIP3   OH223753   1.281   2.044   1.291
 7930TIP3    H123754   1.252   2.134   1.276
 7930TIP3    H223755   1.332   2.048   1.372
 7931TIP3   OH223756   2.289   2.991   1.578
 7931TIP3    H123757   2.373   2.952   1.604
 7931TIP3    H223758   2.234   2.916   1.556
 7932TIP3   OH223759   4.788   2.798   0.578
 7932TIP3    H123760   4.856   2.835   0.523
 7932TIP3    H223761   4.746   2.875   0.619
 7933TIP3   OH223762   6.480   4.579   1.642
 7933TIP3    H123763   6.422   4.521   1.690
 7933TIP3    H223764   6.543   4.521   1.600
 7934TIP3   OH223765   2.207   5.371   4.788
 7934TIP3    H123766   2.275   5.359   4.855
 7934TIP3    H223767   2.151   5.440   4.823
 7935TIP3   OH223768   6.646   3.405   5.103
 7935TIP3    H123769   6.636   3.310   5.092
 7935TIP3    H223770   6.557   3.438   5.112
 7936TIP3   OH223771   2.214   0.576   5.746
 7936TIP3    H123772   2.209   0.516   5.672
 7936TIP3    H223773   2.292   0.629   5.729
 7937TIP3   OH223774   3.254   5.992   4.167
 7937TIP3    H123775   3.238   5.961   4.256
 7937TIP3    H223776   3.248   5.914   4.112
 7938TIP3   OH223777   5.087   5.424   2.414
 7938TIP3    H123778   5.175   5.422   2.378
 7938TIP3    H223779   5.084   5.505   2.466
 7939TIP3   OH223780   3.919   5.392   1.448
 7939TIP3    H123781   3.828   5.367   1.429
 7939TIP3    H223782   3.958   5.406   1.362
 7940TIP3   OH223783   3.463   5.211   0.742
 7940TIP3    H123784   3.470   5.306   0.729
 7940TIP3    H223785   3.546   5.177   0.707
 7941TIP3   OH223786   4.439   3.643   1.707
 7941TIP3    H123787   4.517   3.690   1.680
 7941TIP3    H223788   4.429   3.573   1.642
 7942TIP3   OH223789   4.525   3.830   0.110
 7942TIP3    H123790   4.497   3.921   0.109
 7942TIP3    H223791   4.568   3.817   0.025
 7943TIP3   OH223792   1.888   5.091   3.230
 7943TIP3    H123793   1.805   5.044   3.231
 7943TIP3    H223794   1.954   5.023   3.246
 7944TIP3   OH223795   0.300   3.566   5.279
 7944TIP3    H123796   0.283   3.493   5.221
 7944TIP3    H223797   0.387   3.598   5.253
 7945TIP3   OH223798   2.138   2.756   1.538
 7945TIP3    H123799   2.044   2.762   1.524
 7945TIP3    H223800   2.148   2.752   1.633
 7946TIP3   OH223801   6.016   4.949   1.058
 7946TIP3    H123802   6.009   4.963   1.153
 7946TIP3    H223803   6.091   4.890   1.047
 7947TIP3   OH223804   3.437   4.849   2.505
 7947TIP3    H123805   3.523   4.836   2.544
 7947TIP3    H223806   3.380   4.787   2.552
 7948TIP3   OH223807   5.368   0.658   1.271
 7948TIP3    H123808   5.415   0.728   1.315
 7948TIP3    H223809   5.401   0.661   1.181
 7949TIP3   OH223810   2.538   0.031   2.177
 7949TIP3    H123811   2.497   0.105   2.222
 7949TIP3    H223812   2.626   0.027   2.213
 7950TIP3   OH223813   6.359   3.069   1.423
 7950TIP3    H123814   6.290   3.113   1.474
 7950TIP3    H223815   6.317   3.049   1.339
 7951TIP3   OH223816   2.357   4.744   2.472
 7951TIP3    H123817   2.452   4.733   2.472
 7951TIP3    H223818   2.333   4.744   2.379
 7952TIP3   OH223819   6.414   6.145   2.792
 7952TIP3    H123820   6.446   6.223   2.747
 7952TIP3    H223821   6.418   6.076   2.726
 7953TIP3   OH223822   5.256   5.527   3.640
 7953TIP3    H123823   5.333   5.564   3.597
 7953TIP3    H223824   5.220   5.465   3.576
 7954TIP3   OH223825   4.054   1.231   4.232
 7954TIP3    H123826   4.138   1.225   4.187
 7954TIP3    H223827   4.012   1.310   4.197
 7955TIP3   OH223828   1.210   4.327   5.503
 7955TIP3    H123829   1.305   4.323   5.495
 7955TIP3    H223830   1.180   4.242   5.471
 7956TIP3   OH223831   5.088   3.806   0.858
 7956TIP3    H123832   5.070   3.874   0.923
 7956TIP3    H223833   5.085   3.724   0.908
 7957TIP3   OH223834   4.574   0.276   1.402
 7957TIP3    H123835   4.569   0.199   1.345
 7957TIP3    H223836   4.561   0.242   1.490
 7958TIP3   OH223837   5.640   4.631   0.081
 7958TIP3    H123838   5.679   4.550   0.050
 7958TIP3    H223839   5.683   4.699   0.029
 7959TIP3   OH223840   2.754   6.299   3.533
 7959TIP3    H123841   2.702   6.263   3.604
 7959TIP3    H223842   2.785   6.383   3.566
 7960TIP3   OH223843   5.752   3.090   2.415
 7960TIP3    H123844   5.839   3.067   2.446
 7960TIP3    H223845   5.739   3.036   2.337
 7961TIP3   OH223846   1.664  -0.032   3.593
 7961TIP3    H123847   1.623  -0.074   3.518
 7961TIP3    H223848   1.596   0.027   3.628
 7962TIP3   OH223849   6.535   6.163   0.285
 7962TIP3    H123850   6.591   6.132   0.356
 7962TIP3    H223851   6.550   6.258   0.282
 7963TIP3   OH223852   0.934   1.101   3.409
 7963TIP3    H123853   0.850   1.146   3.422
 7963TIP3    H223854   0.954   1.113   3.316
 7964TIP3   OH223855   1.335   1.530   5.154
 7964TIP3    H123856   1.290   1.482   5.224
 7964TIP3    H223857   1.342   1.468   5.083
 7965TIP3   OH223858   1.834   2.764   5.497
 7965TIP3    H123859   1.798   2.692   5.446
 7965TIP3    H223860   1.814   2.741   5.588
 7966TIP3   OH223861   1.698   4.002   3.811
 7966TIP3    H123862   1.720   3.985   3.903
 7966TIP3    H223863   1.606   4.029   3.814
 7967TIP3   OH223864   1.842   4.952   5.036
 7967TIP3    H123865   1.762   4.901   5.023
 7967TIP3    H223866   1.866   4.936   5.127
 7968TIP3   OH223867   4.042   6.011   3.399
 7968TIP3    H123868   4.042   5.939   3.463
 7968TIP3    H223869   4.070   5.970   3.318
 7969TIP3   OH223870   3.124   5.366   0.353
 7969TIP3    H123871   3.081   5.280   0.355
 7969TIP3    H223872   3.142   5.381   0.260
 7970TIP3   OH223873   3.091   1.943   5.028
 7970TIP3    H123874   3.058   1.913   4.943
 7970TIP3    H223875   3.012   1.960   5.079
 7971TIP3   OH223876   1.712   4.391   3.526
 7971TIP3    H123877   1.773   4.348   3.586
 7971TIP3    H223878   1.768   4.432   3.460
 7972TIP3   OH223879   6.062   0.960   5.551
 7972TIP3    H123880   6.038   0.870   5.572
 7972TIP3    H223881   5.980   1.000   5.519
 7973TIP3   OH223882   4.598   1.714   3.026
 7973TIP3    H123883   4.531   1.711   2.957
 7973TIP3    H223884   4.557   1.764   3.096
 7974TIP3   OH223885   6.007   5.090   2.092
 7974TIP3    H123886   5.958   5.171   2.106
 7974TIP3    H223887   5.995   5.041   2.173
 7975TIP3   OH223888   6.271   5.922   3.865
 7975TIP3    H123889   6.335   5.990   3.846
 7975TIP3    H223890   6.267   5.918   3.960
 7976TIP3   OH223891   6.899   3.249   4.863
 7976TIP3    H123892   6.877   3.313   4.795
 7976TIP3    H223893   6.938   3.301   4.934
 7977TIP3   OH223894   5.762   3.724   0.585
 7977TIP3    H123895   5.712   3.791   0.538
 7977TIP3    H223896   5.700   3.652   0.596
 7978TIP3   OH223897   1.205   0.751   1.739
 7978TIP3    H123898   1.224   0.703   1.820
 7978TIP3    H223899   1.120   0.792   1.755
 7979TIP3   OH223900   5.027   6.807   5.416
 7979TIP3    H123901   5.029   6.721   5.457
 7979TIP3    H223902   5.111   6.815   5.372
 7980TIP3   OH223903   1.332   2.505   0.606
 7980TIP3    H123904   1.364   2.459   0.530
 7980TIP3    H223905   1.345   2.444   0.679
 7981TIP3   OH223906   6.588   4.957   5.169
 7981TIP3    H123907   6.580   4.982   5.076
 7981TIP3    H223908   6.502   4.976   5.206
 7982TIP3   OH223909   2.822   5.740   1.540
 7982TIP3    H123910   2.874   5.799   1.595
 7982TIP3    H223911   2.737   5.734   1.583
 7983TIP3   OH223912   4.082   3.208   3.924
 7983TIP3    H123913   4.084   3.284   3.983
 7983TIP3    H223914   4.174   3.182   3.915
 7984TIP3   OH223915   1.013   2.784   0.224
 7984TIP3    H123916   1.081   2.803   0.160
 7984TIP3    H223917   1.051   2.811   0.308
 7985TIP3   OH223918   6.470   3.715   4.777
 7985TIP3    H123919   6.426   3.631   4.790
 7985TIP3    H223920   6.455   3.736   4.685
 7986TIP3   OH223921   4.384   4.496   3.590
 7986TIP3    H123922   4.405   4.522   3.680
 7986TIP3    H223923   4.322   4.424   3.600
 7987TIP3   OH223924   7.126   5.434   0.913
 7987TIP3    H123925   7.070   5.374   0.863
 7987TIP3    H223926   7.099   5.420   1.004
 7988TIP3   OH223927   3.114   5.405   3.739
 7988TIP3    H123928   3.207   5.410   3.761
 7988TIP3    H223929   3.072   5.379   3.821
 7989TIP3   OH223930   5.183   5.950   5.736
 7989TIP3    H123931   5.115   5.961   5.802
 7989TIP3    H223932   5.213   5.859   5.747
 7990TIP3   OH223933   0.907   0.263   4.308
 7990TIP3    H123934   0.961   0.199   4.354
 7990TIP3    H223935   0.969   0.327   4.274
 7991TIP3   OH223936   4.641   6.582   2.376
 7991TIP3    H123937   4.692   6.571   2.456
 7991TIP3    H223938   4.665   6.669   2.344
 7992TIP3   OH223939   3.996   4.018   5.459
 7992TIP3    H123940   3.999   3.963   5.381
 7992TIP3    H223941   3.961   3.961   5.527
 7993TIP3   OH223942   2.944   4.122   0.870
 7993TIP3    H123943   2.995   4.067   0.810
 7993TIP3    H223944   2.932   4.067   0.948
 7994TIP3   OH223945   5.081   6.649   4.196
 7994TIP3    H123946   5.062   6.564   4.235
 7994TIP3    H223947   5.023   6.710   4.242
 7995TIP3   OH223948   0.367   4.592   3.888
 7995TIP3    H123949   0.394   4.656   3.822
 7995TIP3    H223950   0.427   4.519   3.876
 7996TIP3   OH223951   3.296   2.012   4.709
 7996TIP3    H123952   3.385   2.045   4.724
 7996TIP3    H223953   3.307   1.917   4.698
 7997TIP3   OH223954   2.969   4.462   4.705
 7997TIP3    H123955   2.907   4.412   4.653
 7997TIP3    H223956   3.007   4.397   4.766
 7998TIP3   OH223957   0.568   6.109   5.071
 7998TIP3    H123958   0.505   6.077   5.135
 7998TIP3    H223959   0.643   6.049   5.080
 7999TIP3   OH223960   4.858   6.693   2.841
 7999TIP3    H123961   4.924   6.752   2.880
 7999TIP3    H223962   4.808   6.749   2.783
 8000TIP3   OH223963   4.246   2.307   5.702
 8000TIP3    H123964   4.157   2.272   5.697
 8000TIP3    H223965   4.302   2.233   5.677
 8001TIP3   OH223966   1.611   5.757   2.421
 8001TIP3    H123967   1.648   5.670   2.434
 8001TIP3    H223968   1.670   5.816   2.468
 8002TIP3   OH223969   4.242   3.700   2.822
 8002TIP3    H123970   4.162   3.740   2.787
 8002TIP3    H223971   4.233   3.607   2.803
 8003TIP3   OH223972   4.859   5.110   0.938
 8003TIP3    H123973   4.877   5.143   0.850
 8003TIP3    H223974   4.909   5.029   0.944
 8004TIP3   OH223975   6.490   3.048   4.063
 8004TIP3    H123976   6.507   2.987   3.991
 8004TIP3    H223977   6.573   3.094   4.075
 8005TIP3   OH223978   6.752   4.893   5.466
 8005TIP3    H123979   6.801   4.959   5.417
 8005TIP3    H223980   6.690   4.944   5.519
 8006TIP3   OH223981   1.753   3.715   3.533
 8006TIP3    H123982   1.785   3.658   3.463
 8006TIP3    H223983   1.778   3.803   3.506
 8007TIP3   OH223984   5.689   5.847   3.031
 8007TIP3    H123985   5.617   5.784   3.022
 8007TIP3    H223986   5.766   5.793   3.047
 8008TIP3   OH223987   4.582   0.357   4.825
 8008TIP3    H123988   4.672   0.376   4.798
 8008TIP3    H223989   4.589   0.276   4.874
 8009TIP3   OH223990   4.465   1.760   2.354
 8009TIP3    H123991   4.427   1.847   2.342
 8009TIP3    H223992   4.471   1.723   2.266
 8010TIP3   OH223993   2.326   3.286   5.499
 8010TIP3    H123994   2.343   3.206   5.449
 8010TIP3    H223995   2.240   3.271   5.538
 8011TIP3   OH223996   3.600   3.663   1.407
 8011TIP3    H123997   3.626   3.610   1.332
 8011TIP3    H223998   3.622   3.753   1.382
 8012TIP3   OH223999   2.303   1.958   0.089
 8012TIP3    H124000   2.215   1.978   0.056
 8012TIP3    H224001   2.360   1.964   0.012
 8013TIP3   OH224002   1.212   1.404   5.348
 8013TIP3    H124003   1.269   1.330   5.366
 8013TIP3    H224004   1.215   1.457   5.428
 8014TIP3   OH224005   4.620   2.408   1.679
 8014TIP3    H124006   4.610   2.502   1.691
 8014TIP3    H224007   4.544   2.382   1.627
 8015TIP3   OH224008   2.078   3.507   3.464
 8015TIP3    H124009   2.111   3.418   3.470
 8015TIP3    H224010   2.043   3.526   3.551
 8016TIP3   OH224011   0.786   5.758   2.404
 8016TIP3    H124012   0.716   5.743   2.341
 8016TIP3    H224013   0.860   5.789   2.351
 8017TIP3   OH224014   7.120   4.395   0.686
 8017TIP3    H124015   7.030   4.365   0.673
 8017TIP3    H224016   7.168   4.361   0.611
 8018TIP3   OH224017   3.202   2.959   3.399
 8018TIP3    H124018   3.261   2.921   3.464
 8018TIP3    H224019   3.259   2.976   3.323
 8019TIP3   OH224020   4.454   4.724   0.044
 8019TIP3    H124021   4.392   4.661   0.080
 8019TIP3    H224022   4.531   4.671   0.020
 8020TIP3   OH224023   6.494   4.750   5.611
 8020TIP3    H124024   6.499   4.845   5.624
 8020TIP3    H224025   6.484   4.740   5.516
 8021TIP3   OH224026   6.073   1.976   0.455
 8021TIP3    H124027   6.066   2.035   0.380
 8021TIP3    H224028   6.066   1.889   0.418
 8022TIP3   OH224029   5.230   1.232   3.923
 8022TIP3    H124030   5.198   1.143   3.908
 8022TIP3    H224031   5.278   1.255   3.843
 8023TIP3   OH224032   2.739   4.315   0.816
 8023TIP3    H124033   2.739   4.403   0.779
 8023TIP3    H224034   2.811   4.271   0.772
 8024TIP3   OH224035   0.218   1.354   2.177
 8024TIP3    H124036   0.259   1.289   2.234
 8024TIP3    H224037   0.249   1.438   2.211
 8025TIP3   OH224038   6.918   3.790   1.552
 8025TIP3    H124039   6.981   3.829   1.492
 8025TIP3    H224040   6.870   3.865   1.587
 8026TIP3   OH224041   2.939   3.100   2.961
 8026TIP3    H124042   2.964   3.017   2.919
 8026TIP3    H224043   2.954   3.166   2.893
 8027TIP3   OH224044   6.197   1.276   4.008
 8027TIP3    H124045   6.212   1.258   3.915
 8027TIP3    H224046   6.249   1.211   4.054
 8028TIP3   OH224047   4.412   4.818   0.583
 8028TIP3    H124048   4.447   4.889   0.636
 8028TIP3    H224049   4.425   4.846   0.492
 8029TIP3   OH224050   4.585   4.797   5.066
 8029TIP3    H124051   4.651   4.728   5.067
 8029TIP3    H224052   4.603   4.848   5.145
 8030TIP3   OH224053   3.037   2.975   0.491
 8030TIP3    H124054   3.091   2.896   0.498
 8030TIP3    H224055   2.958   2.946   0.445
 8031TIP3   OH224056   5.163   2.291   3.308
 8031TIP3    H124057   5.148   2.386   3.316
 8031TIP3    H224058   5.185   2.263   3.397
 8032TIP3   OH224059   1.171   5.313   4.810
 8032TIP3    H124060   1.136   5.394   4.773
 8032TIP3    H224061   1.265   5.329   4.819
 8033TIP3   OH224062   6.923   2.012   2.580
 8033TIP3    H124063   6.999   2.026   2.637
 8033TIP3    H224064   6.926   1.919   2.558
 8034TIP3   OH224065   3.764   6.514   4.512
 8034TIP3    H124066   3.698   6.485   4.575
 8034TIP3    H224067   3.800   6.595   4.549
 8035TIP3   OH224068   7.078   1.825   5.310
 8035TIP3    H124069   7.067   1.908   5.263
 8035TIP3    H224070   7.159   1.836   5.359
 8036TIP3   OH224071   0.543   6.625   3.760
 8036TIP3    H124072   0.483   6.550   3.753
 8036TIP3    H224073   0.593   6.609   3.840
 8037TIP3   OH224074   6.807   4.432   0.069
 8037TIP3    H124075   6.892   4.389   0.056
 8037TIP3    H224076   6.747   4.383   0.014
 8038TIP3   OH224077   7.159   3.406   0.097
 8038TIP3    H124078   7.123   3.352   0.026
 8038TIP3    H224079   7.242   3.438   0.063
 8039TIP3   OH224080   0.187   0.801   0.936
 8039TIP3    H124081   0.270   0.756   0.925
 8039TIP3    H224082   0.203   0.890   0.906
 8040TIP3   OH224083   5.421   5.886   3.717
 8040TIP3    H124084   5.485   5.944   3.677
 8040TIP3    H224085   5.351   5.944   3.746
 8041TIP3   OH224086   0.527   3.612   0.817
 8041TIP3    H124087   0.484   3.671   0.755
 8041TIP3    H224088   0.484   3.527   0.803
 8042TIP3   OH224089   3.299   4.312   1.672
 8042TIP3    H124090   3.241   4.386   1.655
 8042TIP3    H224091   3.278   4.249   1.603
 8043TIP3   OH224092   6.769   2.702   3.101
 8043TIP3    H124093   6.754   2.662   3.015
 8043TIP3    H224094   6.859   2.676   3.124
 8044TIP3   OH224095   5.387   6.324   3.800
 8044TIP3    H124096   5.411   6.271   3.876
 8044TIP3    H224097   5.455   6.391   3.795
 8045TIP3   OH224098   3.287   2.057   3.525
 8045TIP3    H124099   3.327   2.126   3.578
 8045TIP3    H224100   3.356   2.032   3.463
 8046TIP3   OH224101   4.339   3.443   5.211
 8046TIP3    H124102   4.397   3.498   5.263
 8046TIP3    H224103   4.295   3.387   5.274
 8047TIP3   OH224104   5.385   4.431   3.465
 8047TIP3    H124105   5.473   4.438   3.501
 8047TIP3    H224106   5.372   4.337   3.452
 8048TIP3   OH224107   0.421   3.155   4.992
 8048TIP3    H124108   0.445   3.125   5.080
 8048TIP3    H224109   0.505   3.173   4.949
 8049TIP3   OH224110   1.012   1.977   1.971
 8049TIP3    H124111   0.982   2.049   2.027
 8049TIP3    H224112   0.947   1.972   1.902
 8050TIP3   OH224113   3.428   6.129   2.611
 8050TIP3    H124114   3.482   6.055   2.639
 8050TIP3    H224115   3.356   6.132   2.674
 8051TIP3   OH224116   0.103   6.102   4.184
 8051TIP3    H124117   0.043   6.163   4.228
 8051TIP3    H224118   0.190   6.139   4.201
 8052TIP3   OH224119   4.199   2.815   5.715
 8052TIP3    H124120   4.152   2.743   5.757
 8052TIP3    H224121   4.132   2.880   5.697
 8053TIP3   OH224122   5.506   0.993   3.926
 8053TIP3    H124123   5.427   1.043   3.947
 8053TIP3    H224124   5.572   1.025   3.988
 8054TIP3   OH224125   1.828   6.714   2.434
 8054TIP3    H124126   1.795   6.761   2.511
 8054TIP3    H224127   1.872   6.781   2.382
 8055TIP3   OH224128   3.266   5.874   0.962
 8055TIP3    H124129   3.191   5.820   0.938
 8055TIP3    H224130   3.321   5.817   1.016
 8056TIP3   OH224131   4.964   0.231   3.656
 8056TIP3    H124132   4.892   0.168   3.663
 8056TIP3    H224133   5.031   0.186   3.605
 8057TIP3   OH224134   4.831   1.652   5.368
 8057TIP3    H124135   4.793   1.667   5.281
 8057TIP3    H224136   4.924   1.637   5.352
 8058TIP3   OH224137   2.185   4.053   4.299
 8058TIP3    H124138   2.233   4.031   4.220
 8058TIP3    H224139   2.244   4.110   4.348
 8059TIP3   OH224140   4.553   3.322   5.488
 8059TIP3    H124141   4.569   3.234   5.454
 8059TIP3    H224142   4.471   3.314   5.538
 8060TIP3   OH224143   2.137   2.410   3.020
 8060TIP3    H124144   2.189   2.351   2.965
 8060TIP3    H224145   2.088   2.463   2.957
 8061TIP3   OH224146   1.432   1.694   4.279
 8061TIP3    H124147   1.493   1.666   4.348
 8061TIP3    H224148   1.348   1.703   4.324
 8062TIP3   OH224149   7.047   1.366   0.435
 8062TIP3    H124150   7.141   1.352   0.451
 8062TIP3    H224151   7.036   1.348   0.342
 8063TIP3   OH224152   7.028   2.605   4.422
 8063TIP3    H124153   6.946   2.625   4.466
 8063TIP3    H224154   7.075   2.688   4.419
 8064TIP3   OH224155   3.471   3.101   2.549
 8064TIP3    H124156   3.444   3.126   2.461
 8064TIP3    H224157   3.392   3.113   2.603
 8065TIP3   OH224158   1.711   5.575   1.153
 8065TIP3    H124159   1.709   5.542   1.063
 8065TIP3    H224160   1.728   5.497   1.206
 8066TIP3   OH224161   2.268   4.877   5.542
 8066TIP3    H124162   2.336   4.931   5.501
 8066TIP3    H224163   2.188   4.929   5.536
 8067TIP3   OH224164   0.367   6.681   2.590
 8067TIP3    H124165   0.277   6.709   2.578
 8067TIP3    H224166   0.371   6.593   2.551
 8068TIP3   OH224167   1.552   4.528   5.869
 8068TIP3    H124168   1.645   4.511   5.878
 8068TIP3    H224169   1.521   4.462   5.807
 8069TIP3   OH224170   0.780   0.709   1.251
 8069TIP3    H124171   0.830   0.693   1.331
 8069TIP3    H224172   0.696   0.664   1.266
 8070TIP3   OH224173   0.963   5.608   5.075
 8070TIP3    H124174   1.039   5.636   5.023
 8070TIP3    H224175   0.939   5.685   5.126
 8071TIP3   OH224176   1.284   2.999   1.383
 8071TIP3    H124177   1.275   2.904   1.390
 8071TIP3    H224178   1.356   3.021   1.442
 8072TIP3   OH224179   4.894   0.516   1.473
 8072TIP3    H124180   4.965   0.565   1.432
 8072TIP3    H224181   4.934   0.473   1.548
 8073TIP3   OH224182   6.691   1.112   0.426
 8073TIP3    H124183   6.673   1.166   0.503
 8073TIP3    H224184   6.631   1.039   0.434
 8074TIP3   OH224185   1.869   0.275   1.181
 8074TIP3    H124186   1.832   0.198   1.224
 8074TIP3    H224187   1.925   0.239   1.112
 8075TIP3   OH224188   5.181   3.472   3.564
 8075TIP3    H124189   5.239   3.546   3.550
 8075TIP3    H224190   5.198   3.414   3.489
 8076TIP3   OH224191   2.230   3.962   1.586
 8076TIP3    H124192   2.137   3.948   1.569
 8076TIP3    H224193   2.266   3.874   1.598
 8077TIP3   OH224194   2.558   3.205   1.050
 8077TIP3    H124195   2.606   3.157   1.117
 8077TIP3    H224196   2.593   3.173   0.967
 8078TIP3   OH224197   6.033   6.712   2.783
 8078TIP3    H124198   5.998   6.691   2.870
 8078TIP3    H224199   6.128   6.709   2.794
 8079TIP3   OH224200   3.158   2.186   4.863
 8079TIP3    H124201   3.199   2.125   4.801
 8079TIP3    H224202   3.232   2.224   4.911
 8080TIP3   OH224203   2.197   2.174   2.860
 8080TIP3    H124204   2.211   2.144   2.770
 8080TIP3    H224205   2.119   2.127   2.890
 8081TIP3   OH224206   0.833   1.272   2.933
 8081TIP3    H124207   0.927   1.271   2.915
 8081TIP3    H224208   0.800   1.344   2.878
 8082TIP3   OH224209   0.034   1.884   2.048
 8082TIP3    H124210  -0.054   1.847   2.053
 8082TIP3    H224211   0.081   1.825   1.989
 8083TIP3   OH224212   1.386   3.116   1.621
 8083TIP3    H124213   1.375   3.210   1.632
 8083TIP3    H224214   1.458   3.093   1.679
 8084TIP3   OH224215   6.448   0.666   0.831
 8084TIP3    H124216   6.490   0.745   0.865
 8084TIP3    H224217   6.405   0.696   0.751
 8085TIP3   OH224218   0.806   5.025   5.789
 8085TIP3    H124219   0.844   4.952   5.740
 8085TIP3    H224220   0.777   5.087   5.722
 8086TIP3   OH224221   1.159   3.082   5.795
 8086TIP3    H124222   1.237   3.027   5.784
 8086TIP3    H224223   1.119   3.084   5.709
 8087TIP3   OH224224   5.864   2.466   1.067
 8087TIP3    H124225   5.947   2.468   1.115
 8087TIP3    H224226   5.873   2.393   1.007
 8088TIP3   OH224227   4.379   4.612   1.205
 8088TIP3    H124228   4.302   4.567   1.241
 8088TIP3    H224229   4.352   4.703   1.197
 8089TIP3   OH224230   0.361   5.418   2.778
 8089TIP3    H124231   0.415   5.397   2.854
 8089TIP3    H224232   0.360   5.337   2.727
 8090TIP3   OH224233   1.427   0.929   2.072
 8090TIP3    H124234   1.518   0.958   2.085
 8090TIP3    H224235   1.403   0.965   1.987
 8091TIP3   OH224236   0.289   5.519   0.820
 8091TIP3    H124237   0.257   5.509   0.731
 8091TIP3    H224238   0.308   5.613   0.829
 8092TIP3   OH224239   0.376   6.465   0.628
 8092TIP3    H124240   0.398   6.415   0.550
 8092TIP3    H224241   0.460   6.485   0.669
 8093TIP3   OH224242   0.751   2.327   0.271
 8093TIP3    H124243   0.753   2.242   0.315
 8093TIP3    H224244   0.836   2.366   0.291
 8094TIP3   OH224245   4.298   1.910   0.673
 8094TIP3    H124246   4.314   1.932   0.765
 8094TIP3    H224247   4.238   1.836   0.676
 8095TIP3   OH224248   5.755   3.001   5.829
 8095TIP3    H124249   5.833   3.038   5.871
 8095TIP3    H224250   5.722   2.937   5.892
 8096TIP3   OH224251   5.352   4.494   1.245
 8096TIP3    H124252   5.442   4.481   1.272
 8096TIP3    H224253   5.324   4.574   1.289
 8097TIP3   OH224254   1.693   5.267   2.820
 8097TIP3    H124255   1.766   5.205   2.810
 8097TIP3    H224256   1.654   5.244   2.904
 8098TIP3   OH224257   7.060   6.627   0.428
 8098TIP3    H124258   7.056   6.534   0.450
 8098TIP3    H224259   7.067   6.672   0.513
 8099TIP3   OH224260   0.415   0.443   5.041
 8099TIP3    H124261   0.345   0.505   5.021
 8099TIP3    H224262   0.483   0.496   5.081
 8100TIP3   OH224263   3.980   3.176   1.360
 8100TIP3    H124264   3.943   3.120   1.293
 8100TIP3    H224265   3.979   3.123   1.440
 8101TIP3   OH224266   4.294   1.992   2.857
 8101TIP3    H124267   4.234   1.995   2.783
 8101TIP3    H224268   4.269   2.065   2.913
 8102TIP3   OH224269   3.424   5.033   0.007
 8102TIP3    H124270   3.353   5.095   0.025
 8102TIP3    H224271   3.412   4.964   0.072
 8103TIP3   OH224272   3.027   4.814   2.553
 8103TIP3    H124273   3.096   4.748   2.556
 8103TIP3    H224274   2.990   4.807   2.465
 8104TIP3   OH224275   2.092   3.224   2.015
 8104TIP3    H124276   2.026   3.155   2.023
 8104TIP3    H224277   2.050   3.302   2.050
 8105TIP3   OH224278   0.703   6.138   5.753
 8105TIP3    H124279   0.698   6.230   5.730
 8105TIP3    H224280   0.615   6.115   5.783
 8106TIP3   OH224281   5.608   2.179   3.418
 8106TIP3    H124282   5.683   2.232   3.442
 8106TIP3    H224283   5.640   2.122   3.348
 8107TIP3   OH224284   4.456   5.303   4.644
 8107TIP3    H124285   4.517   5.374   4.627
 8107TIP3    H224286   4.371   5.338   4.618
 8108TIP3   OH224287   5.910   0.187   1.007
 8108TIP3    H124288   5.868   0.101   1.010
 8108TIP3    H224289   5.839   0.247   0.983
 8109TIP3   OH224290   5.718   3.649   1.861
 8109TIP3    H124291   5.708   3.620   1.952
 8109TIP3    H224292   5.634   3.628   1.820
 8110TIP3   OH224293   2.300   3.112   1.091
 8110TIP3    H124294   2.331   3.125   1.181
 8110TIP3    H224295   2.363   3.159   1.037
 8111TIP3   OH224296   6.084   3.634   1.985
 8111TIP3    H124297   6.047   3.689   2.054
 8111TIP3    H224298   6.046   3.547   2.001
 8112TIP3   OH224299   3.415   2.910   5.736
 8112TIP3    H124300   3.360   2.961   5.795
 8112TIP3    H224301   3.369   2.827   5.727
 8113TIP3   OH224302   2.332   6.317   1.209
 8113TIP3    H124303   2.248   6.318   1.163
 8113TIP3    H224304   2.341   6.406   1.244
 8114TIP3   OH224305   3.772   5.563   4.648
 8114TIP3    H124306   3.742   5.619   4.577
 8114TIP3    H224307   3.694   5.550   4.702
 8115TIP3   OH224308   6.318   3.632   0.515
 8115TIP3    H124309   6.240   3.592   0.553
 8115TIP3    H224310   6.390   3.574   0.543
 8116TIP3   OH224311   4.994   4.739   5.144
 8116TIP3    H124312   4.918   4.751   5.087
 8116TIP3    H224313   4.984   4.650   5.178
 8117TIP3   OH224314   1.176   4.860   3.524
 8117TIP3    H124315   1.140   4.934   3.572
 8117TIP3    H224316   1.270   4.879   3.518
 8118TIP3   OH224317   3.183   3.836   2.363
 8118TIP3    H124318   3.135   3.819   2.282
 8118TIP3    H224319   3.241   3.760   2.373
 8119TIP3   OH224320   6.967   2.942   0.483
 8119TIP3    H124321   6.962   3.019   0.428
 8119TIP3    H224322   7.033   2.886   0.442
 8120TIP3   OH224323   1.070   1.266   3.619
 8120TIP3    H124324   1.120   1.210   3.679
 8120TIP3    H224325   1.100   1.240   3.532
 8121TIP3   OH224326   5.784   0.944   1.245
 8121TIP3    H124327   5.796   1.027   1.199
 8121TIP3    H224328   5.743   0.887   1.180
 8122TIP3   OH224329   6.027   5.827   1.403
 8122TIP3    H124330   6.093   5.786   1.459
 8122TIP3    H224331   5.957   5.851   1.463
 8123TIP3   OH224332   5.257   6.260   4.720
 8123TIP3    H124333   5.223   6.194   4.660
 8123TIP3    H224334   5.348   6.233   4.736
 8124TIP3   OH224335   4.489   1.351   2.190
 8124TIP3    H124336   4.562   1.289   2.183
 8124TIP3    H224337   4.411   1.299   2.169
 8125TIP3   OH224338   3.958   3.392   5.673
 8125TIP3    H124339   4.028   3.392   5.608
 8125TIP3    H224340   3.962   3.479   5.713
 8126TIP3   OH224341   1.162   6.066   2.843
 8126TIP3    H124342   1.234   6.006   2.863
 8126TIP3    H224343   1.109   6.018   2.779
 8127TIP3   OH224344   6.906   5.280   4.855
 8127TIP3    H124345   6.911   5.205   4.796
 8127TIP3    H224346   6.920   5.244   4.942
 8128TIP3   OH224347   2.905   3.053   3.863
 8128TIP3    H124348   2.985   3.099   3.836
 8128TIP3    H224349   2.851   3.120   3.904
 8129TIP3   OH224350   4.736   5.957   0.869
 8129TIP3    H124351   4.699   6.031   0.916
 8129TIP3    H224352   4.661   5.907   0.837
 8130TIP3   OH224353   0.807   2.765   4.672
 8130TIP3    H124354   0.759   2.836   4.630
 8130TIP3    H224355   0.751   2.737   4.744
 8131TIP3   OH224356   7.098   1.397   2.810
 8131TIP3    H124357   7.179   1.447   2.823
 8131TIP3    H224358   7.106   1.360   2.722
 8132TIP3   OH224359   0.054   6.068   2.569
 8132TIP3    H124360   0.096   5.983   2.582
 8132TIP3    H224361   0.078   6.094   2.481
 8133TIP3   OH224362   2.191   1.320   1.492
 8133TIP3    H124363   2.246   1.242   1.505
 8133TIP3    H224364   2.103   1.289   1.513
 8134TIP3   OH224365   3.678   3.291   1.507
 8134TIP3    H124366   3.688   3.354   1.579
 8134TIP3    H224367   3.733   3.216   1.533
 8135TIP3   OH224368   4.383   6.546   2.225
 8135TIP3    H124369   4.475   6.553   2.248
 8135TIP3    H224370   4.382   6.545   2.129
 8136TIP3   OH224371   4.431   6.410   1.324
 8136TIP3    H124372   4.424   6.334   1.382
 8136TIP3    H224373   4.361   6.399   1.260
 8137TIP3   OH224374   1.704   6.443   2.389
 8137TIP3    H124375   1.729   6.512   2.451
 8137TIP3    H224376   1.657   6.490   2.319
 8138TIP3   OH224377   5.125   0.328   4.648
 8138TIP3    H124378   5.133   0.232   4.647
 8138TIP3    H224379   5.157   0.353   4.735
 8139TIP3   OH224380   3.866   3.107   1.644
 8139TIP3    H124381   3.909   3.158   1.713
 8139TIP3    H224382   3.927   3.035   1.627
 8140TIP3   OH224383   5.829   1.273   5.577
 8140TIP3    H124384   5.832   1.258   5.671
 8140TIP3    H224385   5.920   1.291   5.552
 8141TIP3   OH224386   1.113   1.811   3.406
 8141TIP3    H124387   1.092   1.887   3.351
 8141TIP3    H224388   1.093   1.736   3.350
 8142TIP3   OH224389   5.899   0.767   4.652
 8142TIP3    H124390   5.982   0.729   4.682
 8142TIP3    H224391   5.906   0.767   4.556
 8143TIP3   OH224392   6.339   5.282   3.049
 8143TIP3    H124393   6.414   5.287   2.989
 8143TIP3    H224394   6.337   5.368   3.092
 8144TIP3   OH224395   1.628   0.668   1.862
 8144TIP3    H124396   1.568   0.679   1.788
 8144TIP3    H224397   1.709   0.710   1.834
 8145TIP3   OH224398   4.631   6.680   3.460
 8145TIP3    H124399   4.666   6.767   3.444
 8145TIP3    H224400   4.690   6.641   3.524
 8146TIP3   OH224401   6.652   5.318   1.523
 8146TIP3    H124402   6.693   5.341   1.606
 8146TIP3    H224403   6.592   5.246   1.544
 8147TIP3   OH224404   6.158   4.490   1.712
 8147TIP3    H124405   6.124   4.408   1.675
 8147TIP3    H224406   6.083   4.548   1.716
 8148TIP3   OH224407   2.465   2.003   3.779
 8148TIP3    H124408   2.438   2.035   3.865
 8148TIP3    H224409   2.468   2.081   3.724
 8149TIP3   OH224410   4.740   3.433   4.555
 8149TIP3    H124411   4.653   3.395   4.568
 8149TIP3    H224412   4.729   3.526   4.572
 8150TIP3   OH224413   3.638   2.004   5.449
 8150TIP3    H124414   3.705   2.036   5.389
 8150TIP3    H224415   3.664   2.038   5.535
 8151TIP3   OH224416   0.771   0.778   4.536
 8151TIP3    H124417   0.706   0.770   4.466
 8151TIP3    H224418   0.741   0.718   4.604
 8152TIP3   OH224419   6.095   3.005   0.597
 8152TIP3    H124420   6.102   3.028   0.690
 8152TIP3    H224421   6.186   2.999   0.568
 8153TIP3   OH224422   4.985   1.634   0.649
 8153TIP3    H124423   5.053   1.645   0.716
 8153TIP3    H224424   5.026   1.579   0.582
 8154TIP3   OH224425   4.324   3.283   4.977
 8154TIP3    H124426   4.381   3.217   5.018
 8154TIP3    H224427   4.316   3.352   5.043
 8155TIP3   OH224428   4.479   5.359   3.472
 8155TIP3    H124429   4.557   5.345   3.417
 8155TIP3    H224430   4.486   5.450   3.500
 8156TIP3   OH224431   3.350   6.426   3.138
 8156TIP3    H124432   3.318   6.344   3.174
 8156TIP3    H224433   3.446   6.417   3.140
 8157TIP3   OH224434   0.042   5.868   3.826
 8157TIP3    H124435   0.103   5.940   3.811
 8157TIP3    H224436   0.017   5.877   3.918
 8158TIP3   OH224437   2.873   0.643   4.663
 8158TIP3    H124438   2.798   0.701   4.674
 8158TIP3    H224439   2.841   0.572   4.608
 8159TIP3   OH224440   6.081   3.748   2.551
 8159TIP3    H124441   6.145   3.693   2.596
 8159TIP3    H224442   6.002   3.695   2.546
 8160TIP3   OH224443   3.875   5.634   5.176
 8160TIP3    H124444   3.781   5.614   5.173
 8160TIP3    H224445   3.880   5.716   5.224
 8161TIP3   OH224446   4.015   3.809   1.449
 8161TIP3    H124447   4.105   3.835   1.465
 8161TIP3    H224448   3.983   3.872   1.385
 8162TIP3   OH224449   0.970   6.296   5.761
 8162TIP3    H124450   0.975   6.347   5.842
 8162TIP3    H224451   0.921   6.217   5.785
 8163TIP3   OH224452   0.271   2.185   5.293
 8163TIP3    H124453   0.308   2.212   5.210
 8163TIP3    H224454   0.223   2.262   5.324
 8164TIP3   OH224455   4.783   2.735   1.054
 8164TIP3    H124456   4.727   2.812   1.044
 8164TIP3    H224457   4.728   2.662   1.028
 8165TIP3   OH224458   6.048   6.709   0.795
 8165TIP3    H124459   6.036   6.629   0.745
 8165TIP3    H224460   5.976   6.709   0.859
 8166TIP3   OH224461   4.969   1.551   1.935
 8166TIP3    H124462   4.914   1.485   1.978
 8166TIP3    H224463   5.031   1.579   2.002
 8167TIP3   OH224464   5.885   0.279   5.231
 8167TIP3    H124465   5.925   0.314   5.310
 8167TIP3    H224466   5.854   0.192   5.255
 8168TIP3   OH224467   0.101   1.188   3.368
 8168TIP3    H124468   0.055   1.108   3.343
 8168TIP3    H224469   0.116   1.234   3.286
 8169TIP3   OH224470   1.259   6.712   2.978
 8169TIP3    H124471   1.288   6.622   2.987
 8169TIP3    H224472   1.327   6.764   3.021
 8170TIP3   OH224473   4.220   3.667   3.992
 8170TIP3    H124474   4.167   3.602   4.037
 8170TIP3    H224475   4.184   3.670   3.903
 8171TIP3   OH224476   3.171   2.945   1.360
 8171TIP3    H124477   3.076   2.956   1.370
 8171TIP3    H224478   3.185   2.851   1.370
 8172TIP3   OH224479   5.422   1.579   5.087
 8172TIP3    H124480   5.434   1.574   5.182
 8172TIP3    H224481   5.330   1.606   5.076
 8173TIP3   OH224482   1.951   5.445   2.903
 8173TIP3    H124483   1.855   5.436   2.902
 8173TIP3    H224484   1.975   5.451   2.811
 8174TIP3   OH224485   4.864   6.416   4.611
 8174TIP3    H124486   4.810   6.495   4.601
 8174TIP3    H224487   4.950   6.449   4.637
 8175TIP3   OH224488   3.099   1.629   0.738
 8175TIP3    H124489   3.122   1.670   0.655
 8175TIP3    H224490   3.117   1.696   0.804
 8176TIP3   OH224491   3.294   4.846   2.863
 8176TIP3    H124492   3.369   4.789   2.847
 8176TIP3    H224493   3.272   4.830   2.955
 8177TIP3   OH224494   0.923   5.803   3.780
 8177TIP3    H124495   0.898   5.711   3.775
 8177TIP3    H224496   0.872   5.846   3.712
 8178TIP3   OH224497   0.565   5.757   3.957
 8178TIP3    H124498   0.546   5.770   3.864
 8178TIP3    H224499   0.504   5.815   4.002
 8179TIP3   OH224500   6.386   1.887   4.345
 8179TIP3    H124501   6.317   1.839   4.300
 8179TIP3    H224502   6.444   1.820   4.380
 8180TIP3   OH224503   6.026   2.484   4.057
 8180TIP3    H124504   5.943   2.530   4.069
 8180TIP3    H224505   6.061   2.518   3.975
 8181TIP3   OH224506   5.420   3.460   3.785
 8181TIP3    H124507   5.426   3.522   3.858
 8181TIP3    H224508   5.332   3.422   3.794
 8182TIP3   OH224509   5.383   3.708   5.859
 8182TIP3    H124510   5.318   3.638   5.869
 8182TIP3    H224511   5.381   3.729   5.765
 8183TIP3   OH224512   7.166   6.753   4.380
 8183TIP3    H124513   7.178   6.658   4.389
 8183TIP3    H224514   7.074   6.768   4.400
 8184TIP3   OH224515   2.882   1.232   3.603
 8184TIP3    H124516   2.952   1.249   3.666
 8184TIP3    H224517   2.839   1.317   3.590
 8185TIP3   OH224518   0.371   5.241   4.423
 8185TIP3    H124519   0.367   5.313   4.360
 8185TIP3    H224520   0.347   5.282   4.507
 8186TIP3   OH224521   6.479   4.593   0.359
 8186TIP3    H124522   6.496   4.512   0.310
 8186TIP3    H224523   6.558   4.645   0.347
 8187TIP3   OH224524   4.448   2.362   5.114
 8187TIP3    H124525   4.368   2.387   5.069
 8187TIP3    H224526   4.466   2.273   5.086
 8188TIP3   OH224527   1.714   3.525   3.272
 8188TIP3    H124528   1.697   3.520   3.178
 8188TIP3    H224529   1.632   3.496   3.313
 8189TIP3   OH224530   6.465   6.644   4.741
 8189TIP3    H124531   6.398   6.697   4.697
 8189TIP3    H224532   6.490   6.695   4.818
 8190TIP3   OH224533   6.674   3.220   2.841
 8190TIP3    H124534   6.690   3.162   2.915
 8190TIP3    H224535   6.718   3.178   2.767
 8191TIP3   OH224536   0.613   5.986   4.591
 8191TIP3    H124537   0.704   6.014   4.596
 8191TIP3    H224538   0.612   5.898   4.629
 8192TIP3   OH224539   3.227   4.398   3.668
 8192TIP3    H124540   3.322   4.403   3.681
 8192TIP3    H224541   3.192   4.386   3.756
 8193TIP3   OH224542   6.818   2.358   0.398
 8193TIP3    H124543   6.805   2.453   0.394
 8193TIP3    H224544   6.734   2.321   0.372
 8194TIP3   OH224545   5.922   3.895   1.069
 8194TIP3    H124546   5.969   3.812   1.068
 8194TIP3    H224547   5.865   3.892   0.992
 8195TIP3   OH224548   0.750   0.313   1.523
 8195TIP3    H124549   0.702   0.354   1.595
 8195TIP3    H224550   0.817   0.260   1.566
 8196TIP3   OH224551   0.238   0.458   1.645
 8196TIP3    H124552   0.155   0.487   1.681
 8196TIP3    H224553   0.303   0.517   1.684
 8197TIP3   OH224554   3.333   1.527   4.944
 8197TIP3    H124555   3.286   1.452   4.906
 8197TIP3    H224556   3.274   1.559   5.012
 8198TIP3   OH224557   1.461   1.450   3.822
 8198TIP3    H124558   1.513   1.388   3.771
 8198TIP3    H224559   1.527   1.500   3.872
 8199TIP3   OH224560   5.438   4.163   4.072
 8199TIP3    H124561   5.418   4.145   4.164
 8199TIP3    H224562   5.392   4.245   4.052
 8200TIP3   OH224563   3.146   6.795   4.069
 8200TIP3    H124564   3.143   6.700   4.072
 8200TIP3    H224565   3.225   6.815   4.019
 8201TIP3   OH224566   2.756   3.154   4.624
 8201TIP3    H124567   2.826   3.159   4.688
 8201TIP3    H224568   2.746   3.243   4.592
 8202TIP3   OH224569   2.428   6.420   5.701
 8202TIP3    H124570   2.445   6.409   5.607
 8202TIP3    H224571   2.494   6.366   5.744
 8203TIP3   OH224572   1.394   6.517   1.457
 8203TIP3    H124573   1.450   6.562   1.394
 8203TIP3    H224574   1.454   6.465   1.511
 8204TIP3   OH224575   0.330   5.320   0.129
 8204TIP3    H124576   0.293   5.253   0.186
 8204TIP3    H224577   0.304   5.293   0.041
 8205TIP3   OH224578   2.607   0.448   0.851
 8205TIP3    H124579   2.535   0.480   0.907
 8205TIP3    H224580   2.584   0.477   0.763
 8206TIP3   OH224581   1.355   1.483   2.728
 8206TIP3    H124582   1.421   1.551   2.721
 8206TIP3    H224583   1.399   1.403   2.700
 8207TIP3   OH224584   0.892   3.246   1.731
 8207TIP3    H124585   0.812   3.298   1.730
 8207TIP3    H224586   0.904   3.218   1.641
 8208TIP3   OH224587   1.155   2.880   0.017
 8208TIP3    H124588   1.186   2.960   0.059
 8208TIP3    H224589   1.092   2.910  -0.048
 8209TIP3   OH224590   7.204   4.133   5.274
 8209TIP3    H124591   7.130   4.187   5.244
 8209TIP3    H224592   7.164   4.058   5.317
 8210TIP3   OH224593   3.525   0.938   3.835
 8210TIP3    H124594   3.455   0.876   3.816
 8210TIP3    H224595   3.547   0.922   3.927
 8211TIP3   OH224596   2.061   6.309   5.377
 8211TIP3    H124597   2.105   6.251   5.316
 8211TIP3    H224598   2.105   6.294   5.461
 8212TIP3   OH224599   4.740   6.150   1.482
 8212TIP3    H124600   4.652   6.172   1.513
 8212TIP3    H224601   4.736   6.057   1.464
 8213TIP3   OH224602   5.695   6.079   4.403
 8213TIP3    H124603   5.732   5.991   4.412
 8213TIP3    H224604   5.601   6.064   4.392
 8214TIP3   OH224605   1.436   0.231   5.449
 8214TIP3    H124606   1.455   0.155   5.503
 8214TIP3    H224607   1.345   0.255   5.470
 8215TIP3   OH224608   1.296   3.186   3.470
 8215TIP3    H124609   1.294   3.133   3.550
 8215TIP3    H224610   1.243   3.262   3.492
 8216TIP3   OH224611   2.385   4.831   2.783
 8216TIP3    H124612   2.392   4.826   2.688
 8216TIP3    H224613   2.470   4.864   2.812
 8217TIP3   OH224614   6.760   1.977   0.608
 8217TIP3    H124615   6.685   1.970   0.548
 8217TIP3    H224616   6.746   2.059   0.655
 8218TIP3   OH224617   2.000   5.853   4.164
 8218TIP3    H124618   2.050   5.933   4.183
 8218TIP3    H224619   1.954   5.873   4.082
 8219TIP3   OH224620   0.440   2.800   1.784
 8219TIP3    H124621   0.362   2.745   1.777
 8219TIP3    H224622   0.413   2.884   1.747
 8220TIP3   OH224623   3.593   2.001   4.215
 8220TIP3    H124624   3.549   1.940   4.155
 8220TIP3    H224625   3.654   1.945   4.264
 8221TIP3   OH224626   5.218   2.294   0.236
 8221TIP3    H124627   5.209   2.389   0.227
 8221TIP3    H224628   5.171   2.273   0.317
 8222TIP3   OH224629   0.157   1.940   0.594
 8222TIP3    H124630   0.141   1.864   0.651
 8222TIP3    H224631   0.222   1.992   0.641
 8223TIP3   OH224632   0.851   4.993   2.934
 8223TIP3    H124633   0.923   4.964   2.991
 8223TIP3    H224634   0.837   4.919   2.874
 8224TIP3   OH224635   4.258   6.331   4.072
 8224TIP3    H124636   4.180   6.284   4.104
 8224TIP3    H224637   4.291   6.276   4.001
 8225TIP3   OH224638   0.666   2.435   4.683
 8225TIP3    H124639   0.668   2.486   4.764
 8225TIP3    H224640   0.740   2.469   4.632
 8226TIP3   OH224641   4.643   5.150   3.547
 8226TIP3    H124642   4.624   5.108   3.631
 8226TIP3    H224643   4.569   5.207   3.530
 8227TIP3   OH224644   2.613   6.792   3.545
 8227TIP3    H124645   2.564   6.786   3.463
 8227TIP3    H224646   2.602   6.706   3.586
 8228TIP3   OH224647   4.971   2.896   5.198
 8228TIP3    H124648   4.965   2.800   5.199
 8228TIP3    H224649   4.993   2.920   5.288
 8229TIP3   OH224650   5.460   1.002   0.319
 8229TIP3    H124651   5.367   1.017   0.333
 8229TIP3    H224652   5.474   0.911   0.345
 8230TIP3   OH224653   0.092   4.529   3.167
 8230TIP3    H124654   0.128   4.495   3.249
 8230TIP3    H224655   0.154   4.499   3.100
 8231TIP3   OH224656   2.982   2.775   3.758
 8231TIP3    H124657   3.035   2.849   3.787
 8231TIP3    H224658   2.908   2.773   3.819
 8232TIP3   OH224659   6.488   2.577   0.224
 8232TIP3    H124660   6.394   2.572   0.205
 8232TIP3    H224661   6.492   2.593   0.319
 8233TIP3   OH224662   4.478   5.219   2.304
 8233TIP3    H124663   4.444   5.194   2.218
 8233TIP3    H224664   4.560   5.171   2.313
 8234TIP3   OH224665   1.924   0.458   5.367
 8234TIP3    H124666   2.017   0.473   5.352
 8234TIP3    H224667   1.892   0.540   5.404
 8235TIP3   OH224668   5.653   0.190   4.277
 8235TIP3    H124669   5.683   0.126   4.341
 8235TIP3    H224670   5.614   0.137   4.207
 8236TIP3   OH224671   2.627   2.450   5.635
 8236TIP3    H124672   2.591   2.509   5.569
 8236TIP3    H224673   2.722   2.460   5.627
 8237TIP3   OH224674   5.105   3.630   5.003
 8237TIP3    H124675   5.183   3.674   4.969
 8237TIP3    H224676   5.132   3.538   5.014
 8238TIP3   OH224677   6.100   2.482   1.201
 8238TIP3    H124678   6.056   2.491   1.285
 8238TIP3    H224679   6.134   2.569   1.182
 8239TIP3   OH224680   4.306   0.605   3.795
 8239TIP3    H124681   4.384   0.556   3.770
 8239TIP3    H224682   4.238   0.538   3.806
 8240TIP3   OH224683   3.467   5.848   4.568
 8240TIP3    H124684   3.491   5.915   4.631
 8240TIP3    H224685   3.454   5.769   4.620
 8241TIP3   OH224686   4.469   4.312   3.344
 8241TIP3    H124687   4.480   4.370   3.268
 8241TIP3    H224688   4.433   4.369   3.412
 8242TIP3   OH224689   1.020   4.441   1.016
 8242TIP3    H124690   0.991   4.515   0.962
 8242TIP3    H224691   0.942   4.414   1.064
 8243TIP3   OH224692   2.307   5.121   3.592
 8243TIP3    H124693   2.224   5.073   3.589
 8243TIP3    H224694   2.367   5.067   3.541
 8244TIP3   OH224695   6.256   2.347   0.976
 8244TIP3    H124696   6.296   2.432   0.990
 8244TIP3    H224697   6.255   2.306   1.063
 8245TIP3   OH224698   4.387   1.688   0.990
 8245TIP3    H124699   4.379   1.592   0.990
 8245TIP3    H224700   4.434   1.708   0.909
 8246TIP3   OH224701   4.024   2.383   1.523
 8246TIP3    H124702   3.976   2.312   1.481
 8246TIP3    H224703   3.988   2.387   1.612
 8247TIP3   OH224704   6.240   2.022   1.623
 8247TIP3    H124705   6.149   2.035   1.595
 8247TIP3    H224706   6.260   2.099   1.676
 8248TIP3   OH224707   2.096   4.910   2.918
 8248TIP3    H124708   2.079   4.887   3.009
 8248TIP3    H224709   2.189   4.892   2.905
 8249TIP3   OH224710   5.312   6.516   3.423
 8249TIP3    H124711   5.281   6.482   3.339
 8249TIP3    H224712   5.241   6.572   3.455
 8250TIP3   OH224713   4.092   5.520   2.267
 8250TIP3    H124714   4.017   5.465   2.245
 8250TIP3    H224715   4.166   5.477   2.225
 8251TIP3   OH224716   1.096   0.499   1.341
 8251TIP3    H124717   1.178   0.510   1.293
 8251TIP3    H224718   1.105   0.415   1.386
 8252TIP3   OH224719   2.629   6.656   4.676
 8252TIP3    H124720   2.715   6.657   4.718
 8252TIP3    H224721   2.578   6.722   4.723
 8253TIP3   OH224722   7.018   5.319   5.597
 8253TIP3    H124723   6.936   5.325   5.645
 8253TIP3    H224724   7.003   5.369   5.518
 8254TIP3   OH224725   4.332   1.823   1.896
 8254TIP3    H124726   4.272   1.850   1.827
 8254TIP3    H224727   4.286   1.845   1.977
 8255TIP3   OH224728   2.413   1.092   1.035
 8255TIP3    H124729   2.406   1.161   1.101
 8255TIP3    H224730   2.354   1.023   1.066
 8256TIP3   OH224731   6.737   3.210   4.027
 8256TIP3    H124732   6.731   3.208   4.123
 8256TIP3    H224733   6.831   3.202   4.010
 8257TIP3   OH224734   2.406   1.778   4.666
 8257TIP3    H124735   2.419   1.687   4.642
 8257TIP3    H224736   2.312   1.792   4.657
 8258TIP3   OH224737   6.698   2.582   4.499
 8258TIP3    H124738   6.728   2.553   4.412
 8258TIP3    H224739   6.617   2.533   4.514
 8259TIP3   OH224740   1.331   5.849   3.833
 8259TIP3    H124741   1.285   5.854   3.917
 8259TIP3    H224742   1.297   5.924   3.783
 8260TIP3   OH224743   1.833   0.780   2.152
 8260TIP3    H124744   1.776   0.857   2.162
 8260TIP3    H224745   1.773   0.705   2.157
 8261TIP3   OH224746   6.292   6.300   0.407
 8261TIP3    H124747   6.317   6.362   0.338
 8261TIP3    H224748   6.196   6.302   0.407
 8262TIP3   OH224749   2.953   4.863   3.236
 8262TIP3    H124750   2.867   4.902   3.221
 8262TIP3    H224751   2.994   4.919   3.302
 8263TIP3   OH224752   4.307   1.277   3.714
 8263TIP3    H124753   4.247   1.214   3.674
 8263TIP3    H224754   4.384   1.276   3.657
 8264TIP3   OH224755   0.257   4.262   0.295
 8264TIP3    H124756   0.309   4.185   0.318
 8264TIP3    H224757   0.170   4.244   0.331
 8265TIP3   OH224758   5.823   1.460   2.850
 8265TIP3    H124759   5.780   1.433   2.932
 8265TIP3    H224760   5.907   1.415   2.851
 8266TIP3   OH224761   3.769   3.224   0.125
 8266TIP3    H124762   3.815   3.189   0.201
 8266TIP3    H224763   3.783   3.158   0.056
 8267TIP3   OH224764   0.118   3.797   5.829
 8267TIP3    H124765   0.074   3.856   5.768
 8267TIP3    H224766   0.191   3.761   5.779
 8268TIP3   OH224767   4.171   2.205   2.448
 8268TIP3    H124768   4.158   2.230   2.539
 8268TIP3    H224769   4.265   2.188   2.442
 8269TIP3   OH224770   2.084   1.010   3.441
 8269TIP3    H124771   2.100   0.951   3.367
 8269TIP3    H224772   2.162   1.065   3.445
 8270TIP3   OH224773   4.290   5.779   0.881
 8270TIP3    H124774   4.279   5.792   0.975
 8270TIP3    H224775   4.381   5.752   0.871
 8271TIP3   OH224776   1.151   4.255   1.366
 8271TIP3    H124777   1.128   4.264   1.459
 8271TIP3    H224778   1.212   4.182   1.363
 8272TIP3   OH224779   2.618   3.383   1.991
 8272TIP3    H124780   2.552   3.395   2.059
 8272TIP3    H224781   2.605   3.294   1.959
 8273TIP3   OH224782   4.372   1.191   4.820
 8273TIP3    H124783   4.398   1.211   4.730
 8273TIP3    H224784   4.437   1.128   4.851
 8274TIP3   OH224785   4.463   2.223   2.470
 8274TIP3    H124786   4.468   2.262   2.557
 8274TIP3    H224787   4.510   2.285   2.414
 8275TIP3   OH224788   4.865   5.316   1.110
 8275TIP3    H124789   4.874   5.245   1.046
 8275TIP3    H224790   4.804   5.282   1.176
 8276TIP3   OH224791   0.183   5.263   3.872
 8276TIP3    H124792   0.253   5.208   3.907
 8276TIP3    H224793   0.186   5.249   3.778
 8277TIP3   OH224794   2.840   5.586   5.366
 8277TIP3    H124795   2.867   5.505   5.324
 8277TIP3    H224796   2.762   5.614   5.319
 8278TIP3   OH224797   6.557   2.977   0.830
 8278TIP3    H124798   6.586   3.014   0.747
 8278TIP3    H224799   6.599   3.031   0.897
 8279TIP3   OH224800   5.299   6.585   4.979
 8279TIP3    H124801   5.242   6.650   5.020
 8279TIP3    H224802   5.377   6.582   5.034
 8280TIP3   OH224803   1.900   5.803   4.580
 8280TIP3    H124804   1.852   5.872   4.536
 8280TIP3    H224805   1.954   5.764   4.512
 8281TIP3   OH224806   4.566   1.201   5.763
 8281TIP3    H124807   4.517   1.179   5.842
 8281TIP3    H224808   4.553   1.295   5.752
 8282TIP3   OH224809   6.617   4.143   3.177
 8282TIP3    H124810   6.535   4.137   3.227
 8282TIP3    H224811   6.684   4.110   3.237
 8283TIP3   OH224812   1.689   4.955   3.711
 8283TIP3    H124813   1.746   4.912   3.647
 8283TIP3    H224814   1.653   4.883   3.763
 8284TIP3   OH224815   4.189   5.762   5.187
 8284TIP3    H124816   4.198   5.770   5.282
 8284TIP3    H224817   4.096   5.781   5.171
 8285TIP3   OH224818   3.875   3.906   5.236
 8285TIP3    H124819   3.873   3.978   5.172
 8285TIP3    H224820   3.798   3.921   5.290
 8286TIP3   OH224821   2.709   6.608   1.029
 8286TIP3    H124822   2.704   6.594   0.934
 8286TIP3    H224823   2.799   6.636   1.045
 8287TIP3   OH224824   0.110   3.566   5.485
 8287TIP3    H124825   0.172   3.579   5.557
 8287TIP3    H224826   0.163   3.577   5.406
 8288TIP3   OH224827   2.171   1.081   5.226
 8288TIP3    H124828   2.162   0.998   5.274
 8288TIP3    H224829   2.119   1.143   5.276
 8289TIP3   OH224830   5.484   0.511   1.579
 8289TIP3    H124831   5.456   0.528   1.489
 8289TIP3    H224832   5.561   0.454   1.569
 8290TIP3   OH224833   5.753   0.575   1.132
 8290TIP3    H124834   5.739   0.646   1.070
 8290TIP3    H224835   5.843   0.587   1.163
 8291TIP3   OH224836   6.457   2.503   0.506
 8291TIP3    H124837   6.498   2.427   0.467
 8291TIP3    H224838   6.382   2.468   0.553
 8292TIP3   OH224839   1.970   0.075   3.459
 8292TIP3    H124840   1.967   0.161   3.503
 8292TIP3    H224841   1.878   0.048   3.453
 8293TIP3   OH224842   1.689   3.309   2.879
 8293TIP3    H124843   1.675   3.280   2.970
 8293TIP3    H224844   1.633   3.251   2.827
 8294TIP3   OH224845   3.200   4.415   4.346
 8294TIP3    H124846   3.146   4.443   4.272
 8294TIP3    H224847   3.186   4.482   4.413
 8295TIP3   OH224848   5.656   0.878   4.752
 8295TIP3    H124849   5.694   0.932   4.821
 8295TIP3    H224850   5.731   0.853   4.698
 8296TIP3   OH224851   1.495   6.185   0.884
 8296TIP3    H124852   1.413   6.179   0.933
 8296TIP3    H224853   1.478   6.136   0.803
 8297TIP3   OH224854   3.765   4.400   3.853
 8297TIP3    H124855   3.792   4.339   3.784
 8297TIP3    H224856   3.824   4.475   3.842
 8298TIP3   OH224857   4.732   1.717   1.558
 8298TIP3    H124858   4.666   1.694   1.493
 8298TIP3    H224859   4.713   1.660   1.633
 8299TIP3   OH224860   5.011   4.891   0.870
 8299TIP3    H124861   5.104   4.884   0.852
 8299TIP3    H224862   4.969   4.829   0.810
 8300TIP3   OH224863   5.494   1.880   2.004
 8300TIP3    H124864   5.416   1.912   2.050
 8300TIP3    H224865   5.540   1.960   1.978
 8301TIP3   OH224866   1.866   6.174   2.643
 8301TIP3    H124867   1.928   6.113   2.682
 8301TIP3    H224868   1.916   6.219   2.574
 8302TIP3   OH224869   2.442   3.735   0.743
 8302TIP3    H124870   2.512   3.800   0.736
 8302TIP3    H224871   2.375   3.778   0.797
 8303TIP3   OH224872   2.828   3.308   3.194
 8303TIP3    H124873   2.840   3.384   3.251
 8303TIP3    H224874   2.886   3.325   3.119
 8304TIP3   OH224875   6.392   0.065   3.812
 8304TIP3    H124876   6.308   0.111   3.808
 8304TIP3    H224877   6.370  -0.023   3.844
 8305TIP3   OH224878   0.815   1.400   0.722
 8305TIP3    H124879   0.772   1.477   0.757
 8305TIP3    H224880   0.865   1.364   0.795
 8306TIP3   OH224881   3.912   4.232   1.451
 8306TIP3    H124882   3.860   4.236   1.531
 8306TIP3    H224883   3.849   4.218   1.381
 8307TIP3   OH224884   4.780   6.200   5.878
 8307TIP3    H124885   4.763   6.251   5.799
 8307TIP3    H224886   4.693   6.186   5.916
 8308TIP3   OH224887   0.942   3.020   0.627
 8308TIP3    H124888   0.910   3.084   0.563
 8308TIP3    H224889   0.939   2.936   0.580
 8309TIP3   OH224890   1.659   5.573   0.207
 8309TIP3    H124891   1.570   5.597   0.181
 8309TIP3    H224892   1.647   5.504   0.272
 8310TIP3   OH224893   4.976   4.454   5.841
 8310TIP3    H124894   5.062   4.418   5.822
 8310TIP3    H224895   4.988   4.549   5.839
 8311TIP3   OH224896   0.382   6.739   0.292
 8311TIP3    H124897   0.389   6.816   0.348
 8311TIP3    H224898   0.300   6.696   0.320
 8312TIP3   OH224899   3.874   5.953   3.113
 8312TIP3    H124900   3.839   5.872   3.077
 8312TIP3    H224901   3.962   5.931   3.143
 8313TIP3   OH224902   4.341   1.471   0.268
 8313TIP3    H124903   4.284   1.397   0.249
 8313TIP3    H224904   4.285   1.534   0.313
 8314TIP3   OH224905   1.771   3.977   2.355
 8314TIP3    H124906   1.794   4.018   2.438
 8314TIP3    H224907   1.838   4.008   2.294
 8315TIP3   OH224908   3.800   4.646   4.161
 8315TIP3    H124909   3.767   4.585   4.095
 8315TIP3    H224910   3.789   4.732   4.120
 8316TIP3   OH224911   0.183   4.203   5.678
 8316TIP3    H124912   0.271   4.166   5.672
 8316TIP3    H224913   0.190   4.272   5.745
 8317TIP3   OH224914   0.187   3.313   1.037
 8317TIP3    H124915   0.155   3.274   1.119
 8317TIP3    H224916   0.272   3.272   1.024
 8318TIP3   OH224917   0.160   0.491   0.848
 8318TIP3    H124918   0.090   0.482   0.782
 8318TIP3    H224919   0.233   0.530   0.800
 8319TIP3   OH224920   5.712   3.367   5.115
 8319TIP3    H124921   5.641   3.309   5.143
 8319TIP3    H224922   5.772   3.310   5.067
 8320TIP3   OH224923   1.526   1.720   0.884
 8320TIP3    H124924   1.462   1.650   0.897
 8320TIP3    H224925   1.480   1.800   0.911
 8321TIP3   OH224926   6.400   4.789   3.128
 8321TIP3    H124927   6.389   4.713   3.071
 8321TIP3    H224928   6.474   4.765   3.185
 8322TIP3   OH224929   6.600   5.244   5.382
 8322TIP3    H124930   6.571   5.309   5.446
 8322TIP3    H224931   6.678   5.284   5.342
 8323TIP3   OH224932   6.049   4.258   0.641
 8323TIP3    H124933   6.123   4.306   0.603
 8323TIP3    H224934   6.013   4.317   0.707
 8324TIP3   OH224935   0.711   1.430   2.737
 8324TIP3    H124936   0.633   1.390   2.697
 8324TIP3    H224937   0.677   1.504   2.787
 8325TIP3   OH224938   2.725   3.583   0.328
 8325TIP3    H124939   2.789   3.520   0.294
 8325TIP3    H224940   2.670   3.531   0.387
 8326TIP3   OH224941   6.287   6.134   0.139
 8326TIP3    H124942   6.366   6.159   0.187
 8326TIP3    H224943   6.275   6.041   0.159
 8327TIP3   OH224944   4.132   0.510   0.260
 8327TIP3    H124945   4.070   0.484   0.328
 8327TIP3    H224946   4.141   0.605   0.272
 8328TIP3   OH224947   7.054   5.905   5.650
 8328TIP3    H124948   7.084   5.816   5.670
 8328TIP3    H224949   7.084   5.919   5.560
 8329TIP3   OH224950   1.925   5.228   3.465
 8329TIP3    H124951   1.891   5.318   3.461
 8329TIP3    H224952   1.914   5.195   3.376
 8330TIP3   OH224953   0.836   0.034   5.840
 8330TIP3    H124954   0.822   0.117   5.884
 8330TIP3    H224955   0.882  -0.021   5.904
 8331TIP3   OH224956   1.365   0.263   3.080
 8331TIP3    H124957   1.431   0.195   3.065
 8331TIP3    H224958   1.402   0.319   3.148
 8332TIP3   OH224959   4.342   1.521   1.833
 8332TIP3    H124960   4.345   1.610   1.800
 8332TIP3    H224961   4.265   1.518   1.890
 8333TIP3   OH224962   7.118   2.674   2.390
 8333TIP3    H124963   7.189   2.638   2.444
 8333TIP3    H224964   7.077   2.597   2.350
 8334TIP3   OH224965   0.843   2.633   2.991
 8334TIP3    H124966   0.914   2.694   2.971
 8334TIP3    H224967   0.784   2.640   2.916
 8335TIP3   OH224968   2.464   0.094   0.874
 8335TIP3    H124969   2.501   0.172   0.834
 8335TIP3    H224970   2.516   0.081   0.953
 8336TIP3   OH224971   2.929   6.545   3.307
 8336TIP3    H124972   2.866   6.525   3.376
 8336TIP3    H224973   3.014   6.517   3.343
 8337TIP3   OH224974   0.394   5.744   1.076
 8337TIP3    H124975   0.404   5.756   0.982
 8337TIP3    H224976   0.403   5.833   1.112
 8338TIP3   OH224977   5.056   1.894   2.143
 8338TIP3    H124978   5.060   1.963   2.077
 8338TIP3    H224979   5.147   1.874   2.163
 8339TIP3   OH224980   4.317   2.972   0.912
 8339TIP3    H124981   4.273   3.015   0.985
 8339TIP3    H224982   4.368   3.042   0.870
 8340TIP3   OH224983   0.296   2.632   4.168
 8340TIP3    H124984   0.279   2.603   4.257
 8340TIP3    H224985   0.229   2.588   4.115
 8341TIP3   OH224986   1.957   2.898   2.476
 8341TIP3    H124987   1.878   2.845   2.469
 8341TIP3    H224988   2.013   2.850   2.537
 8342TIP3   OH224989   5.379   4.603   4.644
 8342TIP3    H124990   5.308   4.571   4.588
 8342TIP3    H224991   5.334   4.632   4.724
 8343TIP3   OH224992   6.126   5.918   1.966
 8343TIP3    H124993   6.141   6.006   1.931
 8343TIP3    H224994   6.180   5.914   2.044
 8344TIP3   OH224995   0.994   3.422   5.504
 8344TIP3    H124996   1.088   3.435   5.494
 8344TIP3    H224997   0.954   3.499   5.462
 8345TIP3   OH224998   0.637   1.710   0.544
 8345TIP3    H124999   0.569   1.744   0.486
 8345TIP3    H225000   0.589   1.669   0.616
 8346TIP3   OH225001   2.533   3.464   2.608
 8346TIP3    H125002   2.489   3.380   2.598
 8346TIP3    H225003   2.550   3.471   2.702
 8347TIP3   OH225004   5.658   4.098   2.447
 8347TIP3    H125005   5.649   4.190   2.471
 8347TIP3    H225006   5.569   4.071   2.422
 8348TIP3   OH225007   3.503   6.223   3.311
 8348TIP3    H125008   3.458   6.262   3.386
 8348TIP3    H225009   3.591   6.205   3.343
 8349TIP3   OH225010   5.614   3.496   5.647
 8349TIP3    H125011   5.527   3.487   5.608
 8349TIP3    H225012   5.662   3.551   5.585
 8350TIP3   OH225013   1.734   5.540   2.480
 8350TIP3    H125014   1.703   5.452   2.501
 8350TIP3    H225015   1.796   5.529   2.409
 8351TIP3   OH225016   6.024   0.584   1.205
 8351TIP3    H125017   6.090   0.595   1.137
 8351TIP3    H225018   6.027   0.666   1.255
 8352TIP3   OH225019   1.609   1.091   3.387
 8352TIP3    H125020   1.563   1.088   3.471
 8352TIP3    H225021   1.671   1.164   3.397
 8353TIP3   OH225022   1.857   6.769   5.559
 8353TIP3    H125023   1.927   6.824   5.525
 8353TIP3    H225024   1.876   6.682   5.523
 8354TIP3   OH225025   7.202   3.010   1.709
 8354TIP3    H125026   7.114   2.987   1.678
 8354TIP3    H225027   7.222   3.093   1.666
 8355TIP3   OH225028   5.841   3.876   2.408
 8355TIP3    H125029   5.781   3.949   2.424
 8355TIP3    H225030   5.818   3.811   2.474
 8356TIP3   OH225031   3.197   4.115   1.512
 8356TIP3    H125032   3.160   4.107   1.424
 8356TIP3    H225033   3.198   4.026   1.546
 8357TIP3   OH225034   4.859   4.104   0.721
 8357TIP3    H125035   4.847   4.182   0.667
 8357TIP3    H225036   4.912   4.134   0.796
 8358TIP3   OH225037   1.540   5.715   0.483
 8358TIP3    H125038   1.601   5.754   0.420
 8358TIP3    H225039   1.454   5.739   0.450
 8359TIP3   OH225040   6.005   2.151   4.493
 8359TIP3    H125041   6.081   2.099   4.518
 8359TIP3    H225042   5.980   2.116   4.407
 8360TIP3   OH225043   6.320   5.831   4.517
 8360TIP3    H125044   6.331   5.839   4.612
 8360TIP3    H225045   6.406   5.854   4.481
 8361TIP3   OH225046   2.380   2.722   5.064
 8361TIP3    H125047   2.463   2.686   5.033
 8361TIP3    H225048   2.383   2.814   5.036
 8362TIP3   OH225049   1.114   1.676   3.155
 8362TIP3    H125050   1.037   1.705   3.105
 8362TIP3    H225051   1.185   1.675   3.090
 8363TIP3   OH225052   6.688   5.636   0.911
 8363TIP3    H125053   6.630   5.653   0.985
 8363TIP3    H225054   6.750   5.709   0.911
 8364TIP3   OH225055   0.807   0.065   1.278
 8364TIP3    H125056   0.744   0.029   1.216
 8364TIP3    H225057   0.756   0.125   1.332
 8365TIP3   OH225058   6.765   1.057   0.969
 8365TIP3    H125059   6.847   1.074   0.923
 8365TIP3    H225060   6.786   0.984   1.027
 8366TIP3   OH225061   4.557   5.698   0.825
 8366TIP3    H125062   4.553   5.659   0.737
 8366TIP3    H225063   4.618   5.641   0.872
 8367TIP3   OH225064   6.532   0.859   0.174
 8367TIP3    H125065   6.546   0.932   0.114
 8367TIP3    H225066   6.457   0.812   0.139
 8368TIP3   OH225067   5.329   4.551   2.746
 8368TIP3    H125068   5.239   4.543   2.714
 8368TIP3    H225069   5.348   4.645   2.740
 8369TIP3   OH225070   2.862   5.298   5.596
 8369TIP3    H125071   2.859   5.293   5.501
 8369TIP3    H225072   2.943   5.254   5.620
 8370TIP3   OH225073   1.323   5.801   0.355
 8370TIP3    H125074   1.230   5.777   0.362
 8370TIP3    H225075   1.332   5.876   0.414
 8371TIP3   OH225076   5.073   4.509   4.074
 8371TIP3    H125077   4.986   4.493   4.110
 8371TIP3    H225078   5.122   4.546   4.147
 8372TIP3   OH225079   1.089   0.059   4.087
 8372TIP3    H125080   1.068   0.137   4.036
 8372TIP3    H225081   1.011   0.004   4.081
 8373TIP3   OH225082   0.067   3.962   1.827
 8373TIP3    H125083  -0.001   3.895   1.837
 8373TIP3    H225084   0.026   4.029   1.771
 8374TIP3   OH225085   6.505   4.328   2.103
 8374TIP3    H125086   6.549   4.245   2.119
 8374TIP3    H225087   6.442   4.336   2.175
 8375TIP3   OH225088   0.175   6.039   0.287
 8375TIP3    H125089   0.106   6.097   0.256
 8375TIP3    H225090   0.252   6.061   0.234
 8376TIP3   OH225091   3.933   5.835   1.889
 8376TIP3    H125092   3.965   5.745   1.892
 8376TIP3    H225093   3.852   5.834   1.940
 8377TIP3   OH225094   2.805   6.707   1.849
 8377TIP3    H125095   2.744   6.662   1.908
 8377TIP3    H225096   2.779   6.799   1.855
 8378TIP3   OH225097   2.640   1.032   3.050
 8378TIP3    H125098   2.631   1.038   3.145
 8378TIP3    H225099   2.628   1.121   3.018
 8379TIP3   OH225100   2.670   1.475   1.702
 8379TIP3    H125101   2.716   1.554   1.732
 8379TIP3    H225102   2.630   1.501   1.619
 8380TIP3   OH225103   5.058   6.571   5.202
 8380TIP3    H125104   5.103   6.487   5.190
 8380TIP3    H225105   4.990   6.552   5.267
 8381TIP3   OH225106   3.199   6.216   2.244
 8381TIP3    H125107   3.288   6.184   2.259
 8381TIP3    H225108   3.148   6.177   2.315
 8382TIP3   OH225109   4.511   3.165   2.902
 8382TIP3    H125110   4.485   3.082   2.943
 8382TIP3    H225111   4.579   3.140   2.839
 8383TIP3   OH225112   3.032   4.853   5.275
 8383TIP3    H125113   3.087   4.783   5.311
 8383TIP3    H225114   2.946   4.837   5.312
 8384TIP3   OH225115   2.324   5.022   4.866
 8384TIP3    H125116   2.347   4.950   4.924
 8384TIP3    H225117   2.231   5.038   4.884
 8385TIP3   OH225118   0.625   6.636   2.496
 8385TIP3    H125119   0.535   6.666   2.510
 8385TIP3    H225120   0.679   6.705   2.535
 8386TIP3   OH225121   6.192   2.516   2.991
 8386TIP3    H125122   6.213   2.430   3.028
 8386TIP3    H225123   6.212   2.507   2.898
 8387TIP3   OH225124   6.063   6.182   5.642
 8387TIP3    H125125   6.156   6.172   5.621
 8387TIP3    H225126   6.042   6.104   5.694
 8388TIP3   OH225127  -0.025   1.712   4.607
 8388TIP3    H125128   0.023   1.788   4.575
 8388TIP3    H225129   0.035   1.670   4.670
 8389TIP3   OH225130   4.181   5.420   0.087
 8389TIP3    H125131   4.270   5.438   0.058
 8389TIP3    H225132   4.147   5.357   0.024
 8390TIP3   OH225133   3.613   4.063   2.387
 8390TIP3    H125134   3.531   4.088   2.344
 8390TIP3    H225135   3.591   4.064   2.481
 8391TIP3   OH225136   3.332   3.701   0.040
 8391TIP3    H125137   3.271   3.736   0.104
 8391TIP3    H225138   3.418   3.725   0.073
 8392TIP3   OH225139   4.087   0.801   1.005
 8392TIP3    H125140   4.133   0.717   1.015
 8392TIP3    H225141   3.994   0.778   1.010
 8393TIP3   OH225142   4.310   0.458   1.788
 8393TIP3    H125143   4.268   0.376   1.814
 8393TIP3    H225144   4.292   0.465   1.694
 8394TIP3   OH225145   1.840   1.840   0.172
 8394TIP3    H125146   1.925   1.854   0.213
 8394TIP3    H225147   1.837   1.746   0.153
 8395TIP3   OH225148   5.724   5.258   4.263
 8395TIP3    H125149   5.655   5.323   4.276
 8395TIP3    H225150   5.743   5.262   4.170
 8396TIP3   OH225151   2.937   2.972   3.374
 8396TIP3    H125152   2.908   2.891   3.416
 8396TIP3    H225153   3.027   2.983   3.403
 8397TIP3   OH225154   0.850   2.963   3.048
 8397TIP3    H125155   0.823   2.875   3.074
 8397TIP3    H225156   0.895   2.998   3.124
 8398TIP3   OH225157   5.680   1.151   4.094
 8398TIP3    H125158   5.597   1.158   4.142
 8398TIP3    H225159   5.672   1.216   4.024
 8399TIP3   OH225160   4.959   3.770   5.406
 8399TIP3    H125161   4.919   3.851   5.437
 8399TIP3    H225162   4.962   3.779   5.311
 8400TIP3   OH225163   3.575   0.389   0.411
 8400TIP3    H125164   3.577   0.455   0.480
 8400TIP3    H225165   3.542   0.436   0.334
 8401TIP3   OH225166   3.978   5.147   4.374
 8401TIP3    H125167   3.942   5.150   4.462
 8401TIP3    H225168   3.904   5.165   4.316
 8402TIP3   OH225169   6.317   3.452   4.845
 8402TIP3    H125170   6.330   3.369   4.800
 8402TIP3    H225171   6.234   3.486   4.810
 8403TIP3   OH225172   3.182   5.735   2.843
 8403TIP3    H125173   3.174   5.651   2.797
 8403TIP3    H225174   3.237   5.715   2.919
 8404TIP3   OH225175   4.958   1.126   0.869
 8404TIP3    H125176   4.892   1.153   0.805
 8404TIP3    H225177   5.031   1.186   0.855
 8405TIP3   OH225178   2.513   0.859   2.193
 8405TIP3    H125179   2.591   0.846   2.246
 8405TIP3    H225180   2.528   0.943   2.150
 8406TIP3   OH225181   6.879   6.226   4.700
 8406TIP3    H125182   6.931   6.306   4.687
 8406TIP3    H225183   6.812   6.230   4.632
 8407TIP3   OH225184   5.775   2.548   3.943
 8407TIP3    H125185   5.754   2.547   3.850
 8407TIP3    H225186   5.759   2.459   3.973
 8408TIP3   OH225187   1.262   0.161   4.762
 8408TIP3    H125188   1.251   0.094   4.829
 8408TIP3    H225189   1.214   0.128   4.686
 8409TIP3   OH225190   2.106   0.417   4.019
 8409TIP3    H125191   2.164   0.347   3.987
 8409TIP3    H225192   2.147   0.446   4.101
 8410TIP3   OH225193   5.110   3.440   0.464
 8410TIP3    H125194   5.183   3.389   0.429
 8410TIP3    H225195   5.084   3.498   0.392
 8411TIP3   OH225196   1.087   0.085   3.279
 8411TIP3    H125197   1.181   0.067   3.279
 8411TIP3    H225198   1.048   0.010   3.325
 8412TIP3   OH225199   7.033   4.655   1.987
 8412TIP3    H125200   7.119   4.645   1.946
 8412TIP3    H225201   7.032   4.746   2.017
 8413TIP3   OH225202   2.782   3.092   0.545
 8413TIP3    H125203   2.877   3.105   0.541
 8413TIP3    H225204   2.751   3.114   0.457
 8414TIP3   OH225205   5.274   1.368   1.105
 8414TIP3    H125206   5.283   1.290   1.051
 8414TIP3    H225207   5.257   1.334   1.193
 8415TIP3   OH225208   4.126   1.052  -0.006
 8415TIP3    H125209   4.071   0.996   0.050
 8415TIP3    H225210   4.064   1.111  -0.049
 8416TIP3   OH225211   2.110   1.994   4.944
 8416TIP3    H125212   2.041   1.928   4.950
 8416TIP3    H225213   2.179   1.961   5.002
 8417TIP3   OH225214   3.705   3.289   5.645
 8417TIP3    H125215   3.793   3.326   5.654
 8417TIP3    H225216   3.692   3.241   5.727
 8418TIP3   OH225217   1.931   1.833   0.691
 8418TIP3    H125218   1.934   1.744   0.726
 8418TIP3    H225219   1.963   1.888   0.763
 8419TIP3   OH225220   4.661   1.115   5.123
 8419TIP3    H125221   4.743   1.161   5.106
 8419TIP3    H225222   4.658   1.104   5.218
 8420TIP3   OH225223   1.886   1.392   3.947
 8420TIP3    H125224   1.930   1.469   3.909
 8420TIP3    H225225   1.927   1.381   4.033
 8421TIP3   OH225226   0.155   0.678   5.543
 8421TIP3    H125227   0.161   0.760   5.493
 8421TIP3    H225228   0.228   0.625   5.511
 8422TIP3   OH225229   3.766   0.207   0.427
 8422TIP3    H125230   3.712   0.286   0.429
 8422TIP3    H225231   3.703   0.135   0.424
 8423TIP3   OH225232   4.271   3.682   5.687
 8423TIP3    H125233   4.278   3.770   5.724
 8423TIP3    H225234   4.361   3.650   5.683
 8424TIP3   OH225235   6.245   2.320   2.085
 8424TIP3    H125236   6.168   2.348   2.035
 8424TIP3    H225237   6.280   2.246   2.035
 8425TIP3   OH225238   5.858   2.273   2.008
 8425TIP3    H125239   5.910   2.196   1.984
 8425TIP3    H225240   5.914   2.347   1.986
 8426TIP3   OH225241   5.207   3.155   1.475
 8426TIP3    H125242   5.258   3.214   1.531
 8426TIP3    H225243   5.267   3.083   1.454
 8427TIP3   OH225244   1.295   5.794   4.090
 8427TIP3    H125245   1.347   5.852   4.145
 8427TIP3    H225246   1.354   5.721   4.069
 8428TIP3   OH225247   5.116   2.371   1.478
 8428TIP3    H125248   5.060   2.441   1.447
 8428TIP3    H225249   5.058   2.315   1.530
 8429TIP3   OH225250   0.717   1.223   1.211
 8429TIP3    H125251   0.759   1.148   1.170
 8429TIP3    H225252   0.644   1.245   1.152
 8430TIP3   OH225253   3.337   4.424   1.407
 8430TIP3    H125254   3.377   4.506   1.435
 8430TIP3    H225255   3.337   4.428   1.311
 8431TIP3   OH225256   6.952   5.127   0.887
 8431TIP3    H125257   6.863   5.118   0.922
 8431TIP3    H225258   7.001   5.172   0.956
 8432TIP3   OH225259   5.447   6.083   3.933
 8432TIP3    H125260   5.431   5.996   3.969
 8432TIP3    H225261   5.533   6.077   3.892
 8433TIP3   OH225262   5.652   5.569   2.910
 8433TIP3    H125263   5.637   5.573   3.004
 8433TIP3    H225264   5.678   5.478   2.894
 8434TIP3   OH225265   4.335   1.394   3.341
 8434TIP3    H125266   4.264   1.435   3.390
 8434TIP3    H225267   4.371   1.329   3.401
 8435TIP3   OH225268   5.335   1.989   2.179
 8435TIP3    H125269   5.373   2.075   2.158
 8435TIP3    H225270   5.269   2.009   2.245
 8436TIP3   OH225271   0.206   0.613   3.063
 8436TIP3    H125272   0.114   0.638   3.064
 8436TIP3    H225273   0.242   0.651   3.143
 8437TIP3   OH225274   3.575   3.734   2.299
 8437TIP3    H125275   3.589   3.757   2.390
 8437TIP3    H225276   3.639   3.785   2.250
 8438TIP3   OH225277   2.014   5.439   1.515
 8438TIP3    H125278   2.047   5.448   1.604
 8438TIP3    H225279   1.998   5.345   1.505
 8439TIP3   OH225280   5.463   3.921   2.386
 8439TIP3    H125281   5.368   3.914   2.386
 8439TIP3    H225282   5.494   3.830   2.383
 8440TIP3   OH225283   3.830   1.164   4.405
 8440TIP3    H125284   3.841   1.069   4.411
 8440TIP3    H225285   3.905   1.194   4.354
 8441TIP3   OH225286   5.215   4.166   0.876
 8441TIP3    H125287   5.239   4.249   0.917
 8441TIP3    H225288   5.276   4.102   0.913
 8442TIP3   OH225289   3.363   3.843   3.450
 8442TIP3    H125290   3.282   3.886   3.478
 8442TIP3    H225291   3.370   3.864   3.357
 8443TIP3   OH225292   2.988   1.007   0.108
 8443TIP3    H125293   2.901   0.974   0.085
 8443TIP3    H225294   3.034   0.932   0.145
 8444TIP3   OH225295   3.228   4.399   3.974
 8444TIP3    H125296   3.277   4.476   3.944
 8444TIP3    H225297   3.296   4.335   3.997
 8445TIP3   OH225298   5.724   6.210   3.363
 8445TIP3    H125299   5.732   6.207   3.458
 8445TIP3    H225300   5.757   6.296   3.339
 8446TIP3   OH225301   6.918   3.336   0.440
 8446TIP3    H125302   6.835   3.379   0.419
 8446TIP3    H225303   6.934   3.278   0.365
 8447TIP3   OH225304   2.605   1.254   4.200
 8447TIP3    H125305   2.680   1.217   4.247
 8447TIP3    H225306   2.537   1.261   4.267
 8448TIP3   OH225307   2.047   2.746   2.104
 8448TIP3    H125308   2.063   2.714   2.193
 8448TIP3    H225309   1.960   2.786   2.109
 8449TIP3   OH225310   4.878   3.719   3.644
 8449TIP3    H125311   4.956   3.693   3.693
 8449TIP3    H225312   4.816   3.748   3.710
 8450TIP3   OH225313   0.369   2.208   5.028
 8450TIP3    H125314   0.448   2.260   5.040
 8450TIP3    H225315   0.397   2.132   4.978
 8451TIP3   OH225316   2.604   1.414   3.721
 8451TIP3    H125317   2.542   1.367   3.778
 8451TIP3    H225318   2.633   1.489   3.773
 8452TIP3   OH225319   2.650   5.854   3.990
 8452TIP3    H125320   2.734   5.892   4.015
 8452TIP3    H225321   2.586   5.922   4.013
 8453TIP3   OH225322   1.452   3.082   1.101
 8453TIP3    H125323   1.477   3.039   1.182
 8453TIP3    H225324   1.376   3.135   1.125
 8454TIP3   OH225325   2.489   3.961   2.433
 8454TIP3    H125326   2.460   3.872   2.453
 8454TIP3    H225327   2.413   4.003   2.393
 8455TIP3   OH225328   4.854   5.087   2.651
 8455TIP3    H125329   4.807   5.155   2.603
 8455TIP3    H225330   4.785   5.037   2.695
 8456TIP3   OH225331   7.064   5.443   5.343
 8456TIP3    H125332   7.146   5.414   5.383
 8456TIP3    H225333   7.092   5.484   5.261
 8457TIP3   OH225334   6.291   3.397   4.388
 8457TIP3    H125335   6.254   3.485   4.386
 8457TIP3    H225336   6.380   3.409   4.422
 8458TIP3   OH225337   6.265   3.651   0.917
 8458TIP3    H125338   6.215   3.650   0.998
 8458TIP3    H225339   6.211   3.603   0.854
 8459TIP3   OH225340   4.948   4.829   1.372
 8459TIP3    H125341   4.925   4.781   1.293
 8459TIP3    H225342   4.895   4.789   1.441
 8460TIP3   OH225343   5.065   2.511   1.766
 8460TIP3    H125344   5.005   2.577   1.732
 8460TIP3    H225345   5.028   2.427   1.737
 8461TIP3   OH225346   0.451   6.246   5.372
 8461TIP3    H125347   0.411   6.229   5.457
 8461TIP3    H225348   0.406   6.187   5.312
 8462TIP3   OH225349   2.282   3.295   0.518
 8462TIP3    H125350   2.324   3.304   0.604
 8462TIP3    H225351   2.343   3.337   0.457
 8463TIP3   OH225352   0.345   0.662   0.729
 8463TIP3    H125353   0.301   0.738   0.691
 8463TIP3    H225354   0.433   0.664   0.693
 8464TIP3   OH225355   7.164   5.112   1.175
 8464TIP3    H125356   7.212   5.188   1.207
 8464TIP3    H225357   7.103   5.091   1.245
 8465TIP3   OH225358   1.743   5.040   5.264
 8465TIP3    H125359   1.756   5.103   5.335
 8465TIP3    H225360   1.680   5.082   5.205
 8466TIP3   OH225361   2.594   4.484   3.952
 8466TIP3    H125362   2.598   4.409   4.011
 8466TIP3    H225363   2.539   4.455   3.879
 8467TIP3   OH225364   0.798   1.608   3.089
 8467TIP3    H125365   0.729   1.590   3.152
 8467TIP3    H225366   0.752   1.645   3.013
 8468TIP3   OH225367   4.318   5.594   4.816
 8468TIP3    H125368   4.241   5.639   4.783
 8468TIP3    H225369   4.348   5.647   4.890
 8469TIP3   OH225370   0.893   2.412   3.417
 8469TIP3    H125371   0.838   2.475   3.372
 8469TIP3    H225372   0.956   2.465   3.465
 8470TIP3   OH225373   1.478   4.821   2.667
 8470TIP3    H125374   1.402   4.804   2.723
 8470TIP3    H225375   1.545   4.852   2.727
 8471TIP3   OH225376   1.802   1.172   3.010
 8471TIP3    H125377   1.843   1.208   3.088
 8471TIP3    H225378   1.865   1.187   2.940
 8472TIP3   OH225379   4.581   5.766   2.686
 8472TIP3    H125380   4.657   5.779   2.629
 8472TIP3    H225381   4.608   5.801   2.770
 8473TIP3   OH225382   1.199   4.077   4.398
 8473TIP3    H125383   1.111   4.054   4.428
 8473TIP3    H225384   1.202   4.046   4.307
 8474TIP3   OH225385   4.706   2.304   0.748
 8474TIP3    H125386   4.649   2.239   0.789
 8474TIP3    H225387   4.783   2.308   0.805
 8475TIP3   OH225388   4.905   1.800   2.433
 8475TIP3    H125389   4.927   1.833   2.520
 8475TIP3    H225390   4.857   1.719   2.449
 8476TIP3   OH225391   2.853   6.655   4.873
 8476TIP3    H125392   2.939   6.616   4.887
 8476TIP3    H225393   2.801   6.625   4.947
 8477TIP3   OH225394   5.931   6.113   5.291
 8477TIP3    H125395   6.021   6.143   5.283
 8477TIP3    H225396   5.914   6.065   5.209
 8478TIP3   OH225397   1.869   1.693   3.238
 8478TIP3    H125398   1.844   1.736   3.156
 8478TIP3    H225399   1.891   1.604   3.213
 8479TIP3   OH225400   5.170   5.087   0.254
 8479TIP3    H125401   5.236   5.093   0.185
 8479TIP3    H225402   5.115   5.013   0.228
 8480TIP3   OH225403   1.503   6.593   5.063
 8480TIP3    H125404   1.517   6.686   5.045
 8480TIP3    H225405   1.539   6.548   4.986
 8481TIP3   OH225406   3.974   3.802   3.090
 8481TIP3    H125407   4.064   3.783   3.114
 8481TIP3    H225408   3.951   3.733   3.027
 8482TIP3   OH225409   6.158   0.394   1.406
 8482TIP3    H125410   6.127   0.458   1.471
 8482TIP3    H225411   6.079   0.345   1.383
 8483TIP3   OH225412   6.698   5.846   2.947
 8483TIP3    H125413   6.742   5.923   2.983
 8483TIP3    H225414   6.755   5.773   2.968
 8484TIP3   OH225415   3.704   0.713   1.832
 8484TIP3    H125416   3.793   0.699   1.799
 8484TIP3    H225417   3.703   0.806   1.856
 8485TIP3   OH225418   6.387   4.905   0.850
 8485TIP3    H125419   6.464   4.888   0.795
 8485TIP3    H225420   6.313   4.890   0.791
 8486TIP3   OH225421   6.019   0.745   5.275
 8486TIP3    H125422   5.958   0.749   5.348
 8486TIP3    H225423   6.055   0.656   5.277
 8487TIP3   OH225424   3.859   3.938   2.462
 8487TIP3    H125425   3.928   4.001   2.442
 8487TIP3    H225426   3.792   3.953   2.395
 8488TIP3   OH225427   3.872   6.266   0.831
 8488TIP3    H125428   3.788   6.226   0.852
 8488TIP3    H225429   3.880   6.339   0.893
 8489TIP3   OH225430   3.528   0.228   0.824
 8489TIP3    H125431   3.596   0.162   0.840
 8489TIP3    H225432   3.568   0.310   0.853
 8490TIP3   OH225433   1.172   0.782   3.896
 8490TIP3    H125434   1.255   0.737   3.878
 8490TIP3    H225435   1.197   0.874   3.908
 8491TIP3   OH225436   1.229   1.542   2.075
 8491TIP3    H125437   1.188   1.625   2.099
 8491TIP3    H225438   1.162   1.476   2.089
 8492TIP3   OH225439   6.349   0.858   3.805
 8492TIP3    H125440   6.405   0.806   3.747
 8492TIP3    H225441   6.273   0.802   3.821
 8493TIP3   OH225442   5.366   1.423   2.932
 8493TIP3    H125443   5.439   1.374   2.971
 8493TIP3    H225444   5.408   1.482   2.869
 8494TIP3   OH225445   6.169   2.836   2.284
 8494TIP3    H125446   6.215   2.754   2.304
 8494TIP3    H225447   6.085   2.807   2.247
 8495TIP3   OH225448   1.372   6.742   4.238
 8495TIP3    H125449   1.405   6.682   4.304
 8495TIP3    H225450   1.383   6.695   4.155
 8496TIP3   OH225451   2.748   3.743   2.575
 8496TIP3    H125452   2.799   3.663   2.581
 8496TIP3    H225453   2.748   3.779   2.664
 8497TIP3   OH225454   2.846   1.274   1.578
 8497TIP3    H125455   2.786   1.335   1.621
 8497TIP3    H225456   2.892   1.327   1.513
 8498TIP3   OH225457   5.928   4.359   2.148
 8498TIP3    H125458   5.937   4.345   2.053
 8498TIP3    H225459   5.904   4.273   2.182
 8499TIP3   OH225460   4.370   0.085   0.705
 8499TIP3    H125461   4.442   0.146   0.721
 8499TIP3    H225462   4.316   0.129   0.640
 8500TIP3   OH225463   5.637   2.839   2.631
 8500TIP3    H125464   5.680   2.788   2.700
 8500TIP3    H225465   5.661   2.930   2.650
 8501TIP3   OH225466   5.382   3.366   4.647
 8501TIP3    H125467   5.436   3.443   4.630
 8501TIP3    H225468   5.434   3.292   4.617
 8502TIP3   OH225469   3.428   2.531   0.484
 8502TIP3    H125470   3.353   2.473   0.482
 8502TIP3    H225471   3.422   2.576   0.568
 8503TIP3   OH225472   5.594   3.116  -0.006
 8503TIP3    H125473   5.534   3.177   0.037
 8503TIP3    H225474   5.642   3.075   0.067
 8504TIP3   OH225475   2.677   1.572   5.378
 8504TIP3    H125476   2.688   1.663   5.351
 8504TIP3    H225477   2.762   1.532   5.360
 8505TIP3   OH225478   4.300   6.525   4.833
 8505TIP3    H125479   4.350   6.443   4.829
 8505TIP3    H225480   4.306   6.562   4.745
 8506TIP3   OH225481   3.801   3.032   2.741
 8506TIP3    H125482   3.811   3.126   2.722
 8506TIP3    H225483   3.749   3.030   2.821
 8507TIP3   OH225484   4.844   3.154   4.455
 8507TIP3    H125485   4.860   3.179   4.364
 8507TIP3    H225486   4.810   3.234   4.496
 8508TIP3   OH225487   2.435   2.188   2.031
 8508TIP3    H125488   2.505   2.129   2.056
 8508TIP3    H225489   2.429   2.251   2.103
 8509TIP3   OH225490   3.162   1.931   0.766
 8509TIP3    H125491   3.155   2.004   0.828
 8509TIP3    H225492   3.087   1.943   0.707
 8510TIP3   OH225493   3.654   0.634   2.139
 8510TIP3    H125494   3.746   0.658   2.155
 8510TIP3    H225495   3.658   0.571   2.067
 8511TIP3   OH225496   5.517   5.818   0.962
 8511TIP3    H125497   5.589   5.772   1.004
 8511TIP3    H225498   5.441   5.762   0.976
 8512TIP3   OH225499   7.131   1.571   3.262
 8512TIP3    H125500   7.047   1.557   3.306
 8512TIP3    H225501   7.119   1.533   3.175
 8513TIP3   OH225502   7.202   6.394   3.900
 8513TIP3    H125503   7.135   6.426   3.959
 8513TIP3    H225504   7.284   6.410   3.947
 8514TIP3   OH225505   0.512   1.187   2.154
 8514TIP3    H125506   0.434   1.151   2.196
 8514TIP3    H225507   0.584   1.136   2.192
 8515TIP3   OH225508   6.260   1.319   1.487
 8515TIP3    H125509   6.164   1.315   1.488
 8515TIP3    H225510   6.280   1.408   1.459
 8516TIP3   OH225511   2.793   0.727   0.148
 8516TIP3    H125512   2.874   0.683   0.173
 8516TIP3    H225513   2.726   0.659   0.156
 8517TIP3   OH225514   5.074   6.503   4.831
 8517TIP3    H125515   5.123   6.429   4.797
 8517TIP3    H225516   5.141   6.561   4.868
 8518TIP3   OH225517   0.473   2.014   1.129
 8518TIP3    H125518   0.500   2.099   1.164
 8518TIP3    H225519   0.378   2.013   1.139
 8519TIP3   OH225520   4.019   4.571   3.382
 8519TIP3    H125521   4.096   4.580   3.326
 8519TIP3    H225522   3.951   4.621   3.337
 8520TIP3   OH225523   6.447   0.288   0.900
 8520TIP3    H125524   6.501   0.354   0.857
 8520TIP3    H225525   6.427   0.326   0.986
 8521TIP3   OH225526   5.565   6.719   1.546
 8521TIP3    H125527   5.554   6.736   1.640
 8521TIP3    H225528   5.653   6.681   1.539
 8522TIP3   OH225529   1.649   1.863   3.617
 8522TIP3    H125530   1.625   1.883   3.526
 8522TIP3    H225531   1.721   1.923   3.637
 8523TIP3   OH225532   1.523   3.267   4.674
 8523TIP3    H125533   1.526   3.237   4.584
 8523TIP3    H225534   1.596   3.222   4.718
 8524TIP3   OH225535   7.089   6.302   1.562
 8524TIP3    H125536   7.183   6.317   1.550
 8524TIP3    H225537   7.047   6.364   1.503
 8525TIP3   OH225538   1.547   1.592   4.521
 8525TIP3    H125539   1.515   1.617   4.608
 8525TIP3    H225540   1.609   1.521   4.538
 8526TIP3   OH225541   7.237   2.325   3.793
 8526TIP3    H125542   7.165   2.306   3.853
 8526TIP3    H225543   7.199   2.385   3.729
 8527TIP3   OH225544   1.872   2.809   3.863
 8527TIP3    H125545   1.856   2.897   3.828
 8527TIP3    H225546   1.857   2.751   3.788
 8528TIP3   OH225547   7.208   5.274   4.886
 8528TIP3    H125548   7.170   5.268   4.973
 8528TIP3    H225549   7.180   5.195   4.841
 8529TIP3   OH225550   4.031   0.801   4.662
 8529TIP3    H125551   4.090   0.725   4.661
 8529TIP3    H225552   4.057   0.853   4.586
 8530TIP3   OH225553   1.997   6.605   0.596
 8530TIP3    H125554   2.042   6.633   0.676
 8530TIP3    H225555   2.062   6.553   0.548
 8531TIP3   OH225556   1.309   0.658   2.342
 8531TIP3    H125557   1.268   0.579   2.306
 8531TIP3    H225558   1.350   0.629   2.423
 8532TIP3   OH225559   0.950   1.796   1.234
 8532TIP3    H125560   1.028   1.799   1.179
 8532TIP3    H225561   0.949   1.708   1.271
 8533TIP3   OH225562   4.756   5.302   4.907
 8533TIP3    H125563   4.731   5.354   4.831
 8533TIP3    H225564   4.811   5.232   4.870
 8534TIP3   OH225565   6.694   0.920   4.862
 8534TIP3    H125566   6.661   0.929   4.951
 8534TIP3    H225567   6.672   0.831   4.837
 8535TIP3   OH225568   6.064   0.485   0.096
 8535TIP3    H125569   6.012   0.426   0.150
 8535TIP3    H225570   6.024   0.480   0.010
 8536TIP3   OH225571   5.685   2.619   1.200
 8536TIP3    H125572   5.716   2.654   1.283
 8536TIP3    H225573   5.753   2.557   1.173
 8537TIP3   OH225574   6.133   3.769   3.226
 8537TIP3    H125575   6.150   3.679   3.255
 8537TIP3    H225576   6.214   3.795   3.182
 8538TIP3   OH225577   5.587   5.657   5.847
 8538TIP3    H125578   5.616   5.606   5.771
 8538TIP3    H225579   5.647   5.631   5.917
 8539TIP3   OH225580   0.698   5.333   3.908
 8539TIP3    H125581   0.696   5.404   3.972
 8539TIP3    H225582   0.731   5.258   3.957
 8540TIP3   OH225583   1.757   6.275   0.257
 8540TIP3    H125584   1.679   6.330   0.265
 8540TIP3    H225585   1.811   6.297   0.333
 8541TIP3   OH225586   6.911   4.502   0.944
 8541TIP3    H125587   6.925   4.558   0.868
 8541TIP3    H225588   6.875   4.421   0.908
 8542TIP3   OH225589   2.856   6.440   0.271
 8542TIP3    H125590   2.927   6.433   0.335
 8542TIP3    H225591   2.817   6.526   0.288
 8543TIP3   OH225592   6.194   0.088   0.998
 8543TIP3    H125593   6.261   0.156   1.000
 8543TIP3    H225594   6.111   0.137   0.992
 8544TIP3   OH225595   5.954   0.388   4.978
 8544TIP3    H125596   5.992   0.305   4.950
 8544TIP3    H225597   5.920   0.370   5.066
 8545TIP3   OH225598   5.045   2.131   4.131
 8545TIP3    H125599   5.055   2.223   4.106
 8545TIP3    H225600   5.103   2.120   4.206
 8546TIP3   OH225601   0.440   3.609   4.873
 8546TIP3    H125602   0.380   3.544   4.910
 8546TIP3    H225603   0.389   3.689   4.867
 8547TIP3   OH225604   2.862   6.505   2.412
 8547TIP3    H125605   2.782   6.460   2.385
 8547TIP3    H225606   2.921   6.494   2.337
 8548TIP3   OH225607   6.382   4.003   4.316
 8548TIP3    H125608   6.288   4.006   4.333
 8548TIP3    H225609   6.414   3.931   4.371
 8549TIP3   OH225610   6.050   5.133   2.899
 8549TIP3    H125611   6.146   5.140   2.898
 8549TIP3    H225612   6.023   5.187   2.973
 8550TIP3   OH225613   1.387   0.462   0.549
 8550TIP3    H125614   1.364   0.371   0.565
 8550TIP3    H225615   1.427   0.462   0.462
 8551TIP3   OH225616   5.830   2.966   3.931
 8551TIP3    H125617   5.872   3.052   3.944
 8551TIP3    H225618   5.898   2.903   3.955
 8552TIP3   OH225619   2.185   0.405   2.350
 8552TIP3    H125620   2.136   0.350   2.288
 8552TIP3    H225621   2.200   0.486   2.302
 8553TIP3   OH225622   1.650   4.107   4.983
 8553TIP3    H125623   1.645   4.126   5.077
 8553TIP3    H225624   1.744   4.104   4.965
 8554TIP3   OH225625   0.221   0.878   2.073
 8554TIP3    H125626   0.277   0.866   2.150
 8554TIP3    H225627   0.281   0.876   1.999
 8555TIP3   OH225628   6.963   5.429   3.496
 8555TIP3    H125629   6.868   5.425   3.488
 8555TIP3    H225630   6.995   5.364   3.433
 8556TIP3   OH225631   2.171   3.151   3.820
 8556TIP3    H125632   2.262   3.122   3.816
 8556TIP3    H225633   2.129   3.092   3.882
 8557TIP3   OH225634   3.439   5.922   0.240
 8557TIP3    H125635   3.525   5.886   0.261
 8557TIP3    H225636   3.378   5.850   0.258
 8558TIP3   OH225637   2.149   3.831   5.442
 8558TIP3    H125638   2.131   3.758   5.384
 8558TIP3    H225639   2.211   3.886   5.394
 8559TIP3   OH225640   6.528   4.726   4.302
 8559TIP3    H125641   6.571   4.679   4.374
 8559TIP3    H225642   6.591   4.725   4.231
 8560TIP3   OH225643   4.302   0.125  -0.008
 8560TIP3    H125644   4.298   0.030   0.007
 8560TIP3    H225645   4.272   0.163   0.075
 8561TIP3   OH225646   4.959   3.076   1.540
 8561TIP3    H125647   4.950   3.048   1.631
 8561TIP3    H225648   5.049   3.109   1.534
 8562TIP3   OH225649   6.648   5.295   1.046
 8562TIP3    H125650   6.584   5.290   0.975
 8562TIP3    H225651   6.595   5.313   1.124
 8563TIP3   OH225652   3.334   1.762   3.135
 8563TIP3    H125653   3.319   1.717   3.051
 8563TIP3    H225654   3.396   1.832   3.114
 8564TIP3   OH225655   3.173   4.575   2.070
 8564TIP3    H125656   3.091   4.582   2.021
 8564TIP3    H225657   3.146   4.549   2.158
 8565TIP3   OH225658   2.073   0.570   0.087
 8565TIP3    H125659   2.059   0.523   0.005
 8565TIP3    H225660   1.986   0.579   0.125
 8566TIP3   OH225661   3.686   3.627   1.122
 8566TIP3    H125662   3.674   3.544   1.168
 8566TIP3    H225663   3.777   3.651   1.139
 8567TIP3   OH225664   6.927   0.018   2.018
 8567TIP3    H125665   6.938  -0.017   1.930
 8567TIP3    H225666   6.835   0.001   2.040
 8568TIP3   OH225667   7.025   4.104   0.462
 8568TIP3    H125668   7.022   4.079   0.370
 8568TIP3    H225669   6.938   4.082   0.496
 8569TIP3   OH225670   3.287   2.414   4.459
 8569TIP3    H125671   3.217   2.459   4.507
 8569TIP3    H225672   3.260   2.322   4.458
 8570TIP3   OH225673   2.061   5.625   2.142
 8570TIP3    H125674   2.142   5.615   2.192
 8570TIP3    H225675   2.068   5.712   2.103
 8571TIP3   OH225676   1.035   3.914   0.015
 8571TIP3    H125677   0.989   3.923  -0.068
 8571TIP3    H225678   1.049   3.820   0.025
 8572TIP3   OH225679   4.275   1.077   3.897
 8572TIP3    H125680   4.288   1.140   3.826
 8572TIP3    H225681   4.180   1.074   3.909
 8573TIP3   OH225682   0.674   0.355   0.717
 8573TIP3    H125683   0.736   0.377   0.647
 8573TIP3    H225684   0.727   0.308   0.782
 8574TIP3   OH225685   2.369   5.498   1.417
 8574TIP3    H125686   2.276   5.505   1.439
 8574TIP3    H225687   2.408   5.452   1.491
 8575TIP3   OH225688   1.242   2.101   4.149
 8575TIP3    H125689   1.322   2.048   4.151
 8575TIP3    H225690   1.230   2.130   4.239
 8576TIP3   OH225691   0.140   3.326   4.175
 8576TIP3    H125692   0.202   3.359   4.109
 8576TIP3    H225693   0.120   3.402   4.229
 8577TIP3   OH225694   5.916   3.526   2.468
 8577TIP3    H125695   5.987   3.467   2.442
 8577TIP3    H225696   5.839   3.490   2.425
 8578TIP3   OH225697   1.148   5.250   3.007
 8578TIP3    H125698   1.195   5.205   2.937
 8578TIP3    H225699   1.098   5.180   3.050
 8579TIP3   OH225700   6.171   2.962   4.516
 8579TIP3    H125701   6.144   2.976   4.425
 8579TIP3    H225702   6.089   2.959   4.565
 8580TIP3   OH225703   3.984   2.042   3.146
 8580TIP3    H125704   3.991   2.016   3.238
 8580TIP3    H225705   3.923   2.115   3.147
 8581TIP3   OH225706   0.691   0.773   1.611
 8581TIP3    H125707   0.738   0.772   1.695
 8581TIP3    H225708   0.732   0.702   1.561
 8582TIP3   OH225709   3.145   0.042   3.522
 8582TIP3    H125710   3.055   0.049   3.553
 8582TIP3    H225711   3.191  -0.007   3.590
 8583TIP3   OH225712   5.691   5.769   3.391
 8583TIP3    H125713   5.777   5.809   3.403
 8583TIP3    H225714   5.629   5.836   3.419
 8584TIP3   OH225715   0.056   5.044   2.070
 8584TIP3    H125716   0.049   5.106   1.997
 8584TIP3    H225717  -0.034   5.020   2.090
 8585TIP3   OH225718   5.311   2.957   0.337
 8585TIP3    H125719   5.280   2.908   0.413
 8585TIP3    H225720   5.375   2.898   0.296
 8586TIP3   OH225721   2.926   5.797   0.287
 8586TIP3    H125722   2.925   5.886   0.253
 8586TIP3    H225723   2.842   5.760   0.259
 8587TIP3   OH225724   2.958   4.376   3.486
 8587TIP3    H125725   3.045   4.409   3.506
 8587TIP3    H225726   2.931   4.424   3.408
 8588TIP3   OH225727   3.153   4.041   2.529
 8588TIP3    H125728   3.225   4.035   2.592
 8588TIP3    H225729   3.162   3.963   2.475
 8589TIP3   OH225730   5.187   4.042   0.103
 8589TIP3    H125731   5.201   4.100   0.179
 8589TIP3    H225732   5.201   4.099   0.027
 8590TIP3   OH225733   5.951   2.460   3.169
 8590TIP3    H125734   6.028   2.407   3.148
 8590TIP3    H225735   5.987   2.541   3.203
 8591TIP3   OH225736   1.671   4.484   0.879
 8591TIP3    H125737   1.675   4.505   0.972
 8591TIP3    H225738   1.581   4.503   0.854
 8592TIP3   OH225739   0.130   2.472   0.608
 8592TIP3    H125740   0.210   2.425   0.630
 8592TIP3    H225741   0.159   2.561   0.589
 8593TIP3   OH225742   3.353   1.987   2.959
 8593TIP3    H125743   3.281   1.934   2.993
 8593TIP3    H225744   3.320   2.023   2.877
 8594TIP3   OH225745   6.919   5.941   4.497
 8594TIP3    H125746   6.893   5.965   4.408
 8594TIP3    H225747   7.014   5.952   4.498
 8595TIP3   OH225748   5.456   4.126   4.339
 8595TIP3    H125749   5.442   4.033   4.359
 8595TIP3    H225750   5.547   4.142   4.366
 8596TIP3   OH225751   5.652   5.989   5.618
 8596TIP3    H125752   5.625   6.080   5.609
 8596TIP3    H225753   5.735   5.984   5.571
 8597TIP3   OH225754   5.134   6.529   0.149
 8597TIP3    H125755   5.158   6.621   0.158
 8597TIP3    H225756   5.217   6.483   0.136
 8598TIP3   OH225757   4.508   5.836   3.255
 8598TIP3    H125758   4.597   5.852   3.288
 8598TIP3    H225759   4.469   5.777   3.320
 8599TIP3   OH225760   0.586   5.540   0.094
 8599TIP3    H125761   0.497   5.506   0.083
 8599TIP3    H225762   0.641   5.461   0.099
 8600TIP3   OH225763   0.458   4.509   3.327
 8600TIP3    H125764   0.401   4.583   3.303
 8600TIP3    H225765   0.542   4.529   3.287
 8601TIP3   OH225766   4.738   3.261   1.273
 8601TIP3    H125767   4.794   3.238   1.199
 8601TIP3    H225768   4.796   3.260   1.348
 8602TIP3   OH225769   4.162   4.361   3.880
 8602TIP3    H125770   4.128   4.378   3.968
 8602TIP3    H225771   4.113   4.420   3.823
 8603TIP3   OH225772   2.124   5.465   5.338
 8603TIP3    H125773   2.061   5.413   5.288
 8603TIP3    H225774   2.094   5.458   5.428
 8604TIP3   OH225775   2.522   1.933   3.391
 8604TIP3    H125776   2.486   1.912   3.305
 8604TIP3    H225777   2.511   1.852   3.441
 8605TIP3   OH225778   6.747   5.811   1.505
 8605TIP3    H125779   6.713   5.738   1.452
 8605TIP3    H225780   6.810   5.770   1.564
 8606TIP3   OH225781   3.731   0.682   3.287
 8606TIP3    H125782   3.782   0.747   3.240
 8606TIP3    H225783   3.656   0.731   3.322
 8607TIP3   OH225784   1.151   0.145   2.951
 8607TIP3    H125785   1.209   0.180   3.019
 8607TIP3    H225786   1.161   0.050   2.957
 8608TIP3   OH225787   1.328   0.417   4.692
 8608TIP3    H125788   1.308   0.331   4.728
 8608TIP3    H225789   1.332   0.404   4.597
 8609TIP3   OH225790   6.388   3.171   2.254
 8609TIP3    H125791   6.352   3.257   2.232
 8609TIP3    H225792   6.335   3.110   2.203
 8610TIP3   OH225793   1.225   5.465   0.373
 8610TIP3    H125794   1.215   5.551   0.333
 8610TIP3    H225795   1.250   5.408   0.300
 8611TIP3   OH225796   3.154   6.719   3.599
 8611TIP3    H125797   3.071   6.767   3.598
 8611TIP3    H225798   3.134   6.640   3.649
 8612TIP3   OH225799   5.037   2.871   1.211
 8612TIP3    H125800   5.110   2.896   1.155
 8612TIP3    H225801   5.013   2.783   1.181
 8613TIP3   OH225802   4.306   3.835   5.311
 8613TIP3    H125803   4.265   3.843   5.225
 8613TIP3    H225804   4.239   3.795   5.366
 8614TIP3   OH225805   7.194   3.875   2.889
 8614TIP3    H125806   7.145   3.926   2.954
 8614TIP3    H225807   7.160   3.786   2.896
 8615TIP3   OH225808   6.302   2.383   3.451
 8615TIP3    H125809   6.373   2.396   3.514
 8615TIP3    H225810   6.343   2.396   3.366
 8616TIP3   OH225811   0.399   6.198   0.137
 8616TIP3    H125812   0.425   6.117   0.092
 8616TIP3    H225813   0.418   6.267   0.074
 8617TIP3   OH225814   4.058   1.465   0.472
 8617TIP3    H125815   4.076   1.435   0.383
 8617TIP3    H225816   3.967   1.441   0.488
 8618TIP3   OH225817   3.881   6.188   1.902
 8618TIP3    H125818   3.856   6.157   1.815
 8618TIP3    H225819   3.822   6.141   1.961
 8619TIP3   OH225820   2.060   5.925   0.283
 8619TIP3    H125821   2.010   5.962   0.210
 8619TIP3    H225822   2.056   5.993   0.351
 8620TIP3   OH225823   6.248   4.891   3.626
 8620TIP3    H125824   6.270   4.800   3.644
 8620TIP3    H225825   6.222   4.892   3.534
 8621TIP3   OH225826   0.538   3.538   0.306
 8621TIP3    H125827   0.529   3.610   0.244
 8621TIP3    H225828   0.585   3.575   0.380
 8622TIP3   OH225829   5.289   2.481   2.124
 8622TIP3    H125830   5.313   2.501   2.034
 8622TIP3    H225831   5.195   2.465   2.120
 8623TIP3   OH225832   3.222   0.395   0.997
 8623TIP3    H125833   3.307   0.381   1.040
 8623TIP3    H225834   3.158   0.384   1.066
 8624TIP3   OH225835   5.497   5.174   3.868
 8624TIP3    H125836   5.503   5.114   3.942
 8624TIP3    H225837   5.419   5.146   3.820
 8625TIP3   OH225838   6.529   3.237   2.020
 8625TIP3    H125839   6.594   3.257   1.952
 8625TIP3    H225840   6.455   3.200   1.972
 8626TIP3   OH225841   7.235   6.614   5.105
 8626TIP3    H125842   7.220   6.539   5.047
 8626TIP3    H225843   7.154   6.623   5.155
 8627TIP3   OH225844   5.543   5.454   3.875
 8627TIP3    H125845   5.559   5.360   3.882
 8627TIP3    H225846   5.463   5.461   3.824
 8628TIP3   OH225847   5.914   3.355   3.553
 8628TIP3    H125848   5.905   3.297   3.477
 8628TIP3    H225849   5.830   3.347   3.599
 8629TIP3   OH225850   6.834   0.077   3.718
 8629TIP3    H125851   6.905   0.024   3.681
 8629TIP3    H225852   6.759   0.018   3.722
 8630TIP3   OH225853   0.655   6.662   0.409
 8630TIP3    H125854   0.726   6.689   0.351
 8630TIP3    H225855   0.576   6.699   0.370
 8631TIP3   OH225856   0.235   6.236   1.168
 8631TIP3    H125857   0.228   6.143   1.191
 8631TIP3    H225858   0.313   6.241   1.114
 8632TIP3   OH225859   6.504   5.368   5.666
 8632TIP3    H125860   6.593   5.348   5.695
 8632TIP3    H225861   6.513   5.442   5.607
 8633TIP3   OH225862   4.836   1.808   5.130
 8633TIP3    H125863   4.795   1.881   5.083
 8633TIP3    H225864   4.858   1.745   5.061
 8634TIP3   OH225865   1.325   3.880   1.061
 8634TIP3    H125866   1.395   3.908   1.119
 8634TIP3    H225867   1.281   3.810   1.109
 8635TIP3   OH225868   4.807   2.677   4.907
 8635TIP3    H125869   4.762   2.632   4.836
 8635TIP3    H225870   4.838   2.606   4.964
 8636TIP3   OH225871   1.264   4.696   5.113
 8636TIP3    H125872   1.267   4.602   5.133
 8636TIP3    H225873   1.356   4.723   5.111
 8637TIP3   OH225874   4.755   2.925   5.028
 8637TIP3    H125875   4.829   2.927   5.089
 8637TIP3    H225876   4.760   2.838   4.987
 8638TIP3   OH225877   0.607   3.512   5.623
 8638TIP3    H125878   0.684   3.528   5.569
 8638TIP3    H225879   0.614   3.576   5.694
 8639TIP3   OH225880   1.177   3.684   1.158
 8639TIP3    H125881   1.135   3.736   1.227
 8639TIP3    H225882   1.229   3.619   1.206
 8640TIP3   OH225883   0.717   2.994   1.548
 8640TIP3    H125884   0.657   3.066   1.568
 8640TIP3    H225885   0.762   3.021   1.469
 8641TIP3   OH225886   4.219   2.684   3.079
 8641TIP3    H125887   4.253   2.665   3.166
 8641TIP3    H225888   4.220   2.779   3.072
 8642TIP3   OH225889   7.196   4.729   2.998
 8642TIP3    H125890   7.107   4.711   2.968
 8642TIP3    H225891   7.226   4.647   3.037
 8643TIP3   OH225892   3.166   2.673   3.558
 8643TIP3    H125893   3.157   2.578   3.548
 8643TIP3    H225894   3.107   2.695   3.630
 8644TIP3   OH225895   1.021   2.139   3.519
 8644TIP3    H125896   1.039   2.063   3.575
 8644TIP3    H225897   1.019   2.213   3.580
 8645TIP3   OH225898   5.112   0.913   2.724
 8645TIP3    H125899   5.058   0.921   2.802
 8645TIP3    H225900   5.128   0.819   2.714
 8646TIP3   OH225901   4.575   0.463   1.801
 8646TIP3    H125902   4.485   0.479   1.829
 8646TIP3    H225903   4.601   0.545   1.759
 8647TIP3   OH225904   4.672   2.492   5.838
 8647TIP3    H125905   4.620   2.517   5.915
 8647TIP3    H225906   4.720   2.571   5.814
 8648TIP3   OH225907   6.672   3.800   0.272
 8648TIP3    H125908   6.662   3.868   0.206
 8648TIP3    H225909   6.591   3.802   0.323
 8649TIP3   OH225910   3.072   5.838   4.782
 8649TIP3    H125911   3.027   5.888   4.714
 8649TIP3    H225912   3.018   5.760   4.794
 8650TIP3   OH225913   5.274   4.573   1.760
 8650TIP3    H125914   5.353   4.537   1.800
 8650TIP3    H225915   5.202   4.539   1.814
 8651TIP3   OH225916   1.060   1.795   0.514
 8651TIP3    H125917   1.043   1.702   0.530
 8651TIP3    H225918   1.000   1.819   0.444
 8652TIP3   OH225919   6.574   4.038   3.886
 8652TIP3    H125920   6.604   4.015   3.974
 8652TIP3    H225921   6.482   4.011   3.884
 8653TIP3   OH225922   3.901   1.750   4.507
 8653TIP3    H125923   3.908   1.814   4.436
 8653TIP3    H225924   3.807   1.738   4.519
 8654TIP3   OH225925   3.663   5.544   4.059
 8654TIP3    H125926   3.616   5.543   3.975
 8654TIP3    H225927   3.667   5.452   4.085
 8655TIP3   OH225928   6.519   0.904   4.016
 8655TIP3    H125929   6.462   0.892   3.941
 8655TIP3    H225930   6.478   0.855   4.087
 8656TIP3   OH225931   0.854   1.353   3.925
 8656TIP3    H125932   0.888   1.268   3.898
 8656TIP3    H225933   0.890   1.415   3.861
 8657TIP3   OH225934   1.095   4.864   1.564
 8657TIP3    H125935   1.073   4.776   1.596
 8657TIP3    H225936   1.047   4.872   1.482
 8658TIP3   OH225937   0.925   5.680   4.461
 8658TIP3    H125938   1.003   5.697   4.408
 8658TIP3    H225939   0.875   5.616   4.409
 8659TIP3   OH225940   7.151   6.633   2.140
 8659TIP3    H125941   7.157   6.582   2.220
 8659TIP3    H225942   7.225   6.694   2.145
 8660TIP3   OH225943   0.713   1.770   4.482
 8660TIP3    H125944   0.751   1.858   4.476
 8660TIP3    H225945   0.630   1.784   4.528
 8661TIP3   OH225946   1.975   6.695   2.753
 8661TIP3    H125947   1.991   6.784   2.721
 8661TIP3    H225948   2.053   6.646   2.729
 8662TIP3   OH225949   3.720   1.768   3.864
 8662TIP3    H125950   3.769   1.804   3.790
 8662TIP3    H225951   3.693   1.681   3.835
 8663TIP3   OH225952   4.115   2.280   2.730
 8663TIP3    H125953   4.067   2.198   2.728
 8663TIP3    H225954   4.137   2.293   2.823
 8664TIP3   OH225955   0.187   4.160   0.713
 8664TIP3    H125956   0.251   4.090   0.722
 8664TIP3    H225957   0.208   4.221   0.783
 8665TIP3   OH225958   2.953   4.374   0.022
 8665TIP3    H125959   2.872   4.364  -0.029
 8665TIP3    H225960   2.928   4.346   0.110
 8666TIP3   OH225961   3.708   3.166   5.066
 8666TIP3    H125962   3.623   3.135   5.035
 8666TIP3    H225963   3.770   3.098   5.039
 8667TIP3   OH225964   4.136   6.294   1.846
 8667TIP3    H125965   4.133   6.303   1.751
 8667TIP3    H225966   4.046   6.270   1.871
 8668TIP3   OH225967   0.439   3.400   3.294
 8668TIP3    H125968   0.393   3.484   3.301
 8668TIP3    H225969   0.492   3.407   3.215
 8669TIP3   OH225970   1.738   1.551   4.258
 8669TIP3    H125971   1.832   1.554   4.277
 8669TIP3    H225972   1.701   1.502   4.331
 8670TIP3   OH225973   0.446  -0.029   0.128
 8670TIP3    H125974   0.537   0.000   0.134
 8670TIP3    H225975   0.395   0.052   0.117
 8671TIP3   OH225976   2.114   1.968   4.668
 8671TIP3    H125977   2.050   2.017   4.617
 8671TIP3    H225978   2.090   1.982   4.759
 8672TIP3   OH225979   2.209   0.560   5.349
 8672TIP3    H125980   2.284   0.618   5.359
 8672TIP3    H225981   2.242   0.473   5.369
 8673TIP3   OH225982   7.144   3.411   4.434
 8673TIP3    H125983   7.164   3.369   4.518
 8673TIP3    H225984   7.147   3.505   4.453
 8674TIP3   OH225985   0.556   1.849   4.037
 8674TIP3    H125986   0.483   1.836   3.977
 8674TIP3    H225987   0.572   1.762   4.075
 8675TIP3   OH225988   4.683   3.009   3.613
 8675TIP3    H125989   4.627   2.975   3.682
 8675TIP3    H225990   4.679   3.104   3.624
 8676TIP3   OH225991   4.170   3.620   1.255
 8676TIP3    H125992   4.235   3.570   1.204
 8676TIP3    H225993   4.113   3.553   1.293
 8677TIP3   OH225994   1.123   1.909   5.350
 8677TIP3    H125995   1.106   1.967   5.424
 8677TIP3    H225996   1.219   1.909   5.341
 8678TIP3   OH225997   3.617   6.050   4.718
 8678TIP3    H125998   3.659   6.043   4.804
 8678TIP3    H225999   3.599   6.144   4.707
 8679TIP3   OH226000   5.904   5.114   4.419
 8679TIP3    H126001   5.844   5.166   4.365
 8679TIP3    H226002   5.958   5.179   4.464
 8680TIP3   OH226003   5.558   3.605   2.684
 8680TIP3    H126004   5.477   3.610   2.633
 8680TIP3    H226005   5.533   3.638   2.771
 8681TIP3   OH226006   6.483   1.440   4.605
 8681TIP3    H126007   6.516   1.516   4.654
 8681TIP3    H226008   6.406   1.472   4.560
 8682TIP3   OH226009   2.367   2.729   3.089
 8682TIP3    H126010   2.435   2.759   3.150
 8682TIP3    H226011   2.336   2.646   3.126
 8683TIP3   OH226012   3.266   4.059   4.689
 8683TIP3    H126013   3.328   4.070   4.617
 8683TIP3    H226014   3.182   4.091   4.655
 8684TIP3   OH226015   4.787   6.231   1.930
 8684TIP3    H126016   4.818   6.314   1.967
 8684TIP3    H226017   4.840   6.217   1.852
 8685TIP3   OH226018   5.960   3.165   1.717
 8685TIP3    H126019   5.932   3.256   1.710
 8685TIP3    H226020   5.947   3.144   1.810
 8686TIP3   OH226021   2.766   5.926   5.414
 8686TIP3    H126022   2.750   5.869   5.339
 8686TIP3    H226023   2.815   5.872   5.476
 8687TIP3   OH226024   3.362   3.130   1.807
 8687TIP3    H126025   3.353   3.173   1.722
 8687TIP3    H226026   3.343   3.200   1.871
 8688TIP3   OH226027   2.890   3.520   2.025
 8688TIP3    H126028   2.819   3.548   2.083
 8688TIP3    H226029   2.893   3.587   1.958
 8689TIP3   OH226030   5.304   5.124   4.980
 8689TIP3    H126031   5.228   5.150   5.031
 8689TIP3    H226032   5.279   5.041   4.939
 8690TIP3   OH226033   6.385   5.904   5.773
 8690TIP3    H126034   6.432   5.985   5.752
 8690TIP3    H226035   6.450   5.848   5.814
 8691TIP3   OH226036   2.594   1.781   1.640
 8691TIP3    H126037   2.509   1.798   1.683
 8691TIP3    H226038   2.657   1.783   1.712
 8692TIP3   OH226039   6.660   5.597   1.354
 8692TIP3    H126040   6.575   5.581   1.312
 8692TIP3    H226041   6.713   5.521   1.331
 8693TIP3   OH226042   4.033   5.951   2.179
 8693TIP3    H126043   3.957   5.975   2.127
 8693TIP3    H226044   4.018   5.994   2.264
 8694TIP3   OH226045   0.952   4.251   5.669
 8694TIP3    H126046   1.006   4.190   5.718
 8694TIP3    H226047   1.015   4.314   5.632
 8695TIP3   OH226048   1.471   5.911   1.639
 8695TIP3    H126049   1.488   5.954   1.555
 8695TIP3    H226050   1.556   5.913   1.684
 8696TIP3   OH226051   4.937   6.390   0.567
 8696TIP3    H126052   4.969   6.444   0.640
 8696TIP3    H226053   4.842   6.399   0.571
 8697TIP3   OH226054   0.163   6.312   0.405
 8697TIP3    H126055   0.252   6.277   0.403
 8697TIP3    H226056   0.137   6.307   0.497
 8698TIP3   OH226057   1.480   1.368   3.077
 8698TIP3    H126058   1.474   1.372   3.172
 8698TIP3    H226059   1.441   1.284   3.053
 8699TIP3   OH226060   7.061   3.439   5.309
 8699TIP3    H126061   7.120   3.504   5.346
 8699TIP3    H226062   6.987   3.436   5.370
 8700TIP3   OH226063   2.976   2.484   1.103
 8700TIP3    H126064   2.990   2.574   1.132
 8700TIP3    H226065   3.054   2.437   1.134
 8701TIP3   OH226066   0.079   5.383   5.504
 8701TIP3    H126067   0.069   5.354   5.594
 8701TIP3    H226068   0.123   5.468   5.511
 8702TIP3   OH226069   0.677   4.781   4.176
 8702TIP3    H126070   0.750   4.734   4.217
 8702TIP3    H226071   0.608   4.781   4.242
 8703TIP3   OH226072   6.219   0.454   3.180
 8703TIP3    H126073   6.165   0.376   3.186
 8703TIP3    H226074   6.260   0.449   3.093
 8704TIP3   OH226075   0.324   0.705   4.683
 8704TIP3    H126076   0.388   0.774   4.665
 8704TIP3    H226077   0.367   0.625   4.653
 8705TIP3   OH226078   3.863   6.267   5.601
 8705TIP3    H126079   3.802   6.338   5.618
 8705TIP3    H226080   3.885   6.233   5.687
 8706TIP3   OH226081   3.634   1.498   4.403
 8706TIP3    H126082   3.648   1.436   4.475
 8706TIP3    H226083   3.564   1.458   4.351
 8707TIP3   OH226084   4.880   5.196   5.484
 8707TIP3    H126085   4.873   5.262   5.554
 8707TIP3    H226086   4.793   5.195   5.444
 8708TIP3   OH226087   0.351   1.887   0.808
 8708TIP3    H126088   0.414   1.948   0.846
 8708TIP3    H226089   0.404   1.825   0.759
 8709TIP3   OH226090   5.387   1.295   5.024
 8709TIP3    H126091   5.397   1.388   5.044
 8709TIP3    H226092   5.431   1.251   5.097
 8710TIP3   OH226093   3.475   2.302   5.445
 8710TIP3    H126094   3.543   2.346   5.394
 8710TIP3    H226095   3.467   2.215   5.406
 8711TIP3   OH226096   5.226   2.917   2.567
 8711TIP3    H126097   5.256   2.861   2.495
 8711TIP3    H226098   5.223   2.860   2.643
 8712TIP3   OH226099   4.310   1.267   1.977
 8712TIP3    H126100   4.329   1.349   1.931
 8712TIP3    H226101   4.220   1.278   2.009
 8713TIP3   OH226102   5.592   3.893   5.117
 8713TIP3    H126103   5.499   3.906   5.138
 8713TIP3    H226104   5.639   3.931   5.191
 8714TIP3   OH226105   6.337   5.645   3.934
 8714TIP3    H126106   6.275   5.704   3.890
 8714TIP3    H226107   6.281   5.580   3.977
 8715TIP3   OH226108   5.009   4.094   1.071
 8715TIP3    H126109   5.062   4.121   0.996
 8715TIP3    H226110   5.065   4.106   1.147
 8716TIP3   OH226111   5.733   1.997   2.666
 8716TIP3    H126112   5.763   2.006   2.756
 8716TIP3    H226113   5.722   2.088   2.636
 8717TIP3   OH226114   3.795   3.189   5.367
 8717TIP3    H126115   3.787   3.204   5.461
 8717TIP3    H226116   3.807   3.276   5.329
 8718TIP3   OH226117   0.367   4.774   1.967
 8718TIP3    H126118   0.441   4.738   1.918
 8718TIP3    H226119   0.296   4.779   1.902
 8719TIP3   OH226120   4.051   1.974   0.250
 8719TIP3    H126121   4.137   2.008   0.276
 8719TIP3    H226122   4.040   2.005   0.160
 8720TIP3   OH226123   3.679   3.373   2.963
 8720TIP3    H126124   3.657   3.308   3.030
 8720TIP3    H226125   3.688   3.323   2.882
 8721TIP3   OH226126   2.240   1.811   5.101
 8721TIP3    H126127   2.226   1.719   5.122
 8721TIP3    H226128   2.240   1.856   5.186
 8722TIP3   OH226129   5.639   5.055   4.928
 8722TIP3    H126130   5.652   5.073   4.835
 8722TIP3    H226131   5.547   5.027   4.934
 8723TIP3   OH226132   5.975   0.293   2.028
 8723TIP3    H126133   6.038   0.273   2.097
 8723TIP3    H226134   5.891   0.259   2.061
 8724TIP3   OH226135   2.997   2.998   4.923
 8724TIP3    H126136   2.975   3.087   4.897
 8724TIP3    H226137   3.090   2.989   4.900
 8725TIP3   OH226138   1.378   0.592   4.319
 8725TIP3    H126139   1.287   0.585   4.346
 8725TIP3    H226140   1.417   0.508   4.344
 8726TIP3   OH226141   5.468   2.551   5.434
 8726TIP3    H126142   5.557   2.587   5.439
 8726TIP3    H226143   5.414   2.623   5.402
 8727TIP3   OH226144   6.834   5.095   2.776
 8727TIP3    H126145   6.910   5.101   2.719
 8727TIP3    H226146   6.861   5.033   2.845
 8728TIP3   OH226147   0.822   6.501   4.221
 8728TIP3    H126148   0.884   6.537   4.284
 8728TIP3    H226149   0.786   6.577   4.176
 8729TIP3   OH226150   4.173   6.529   0.717
 8729TIP3    H126151   4.165   6.615   0.676
 8729TIP3    H226152   4.124   6.538   0.800
 8730TIP3   OH226153   2.055   6.580   2.380
 8730TIP3    H126154   1.970   6.610   2.413
 8730TIP3    H226155   2.071   6.634   2.303
 8731TIP3   OH226156   2.703   4.315   1.344
 8731TIP3    H126157   2.720   4.400   1.303
 8731TIP3    H226158   2.633   4.277   1.292
 8732TIP3   OH226159   3.015   4.242   4.870
 8732TIP3    H126160   3.089   4.211   4.922
 8732TIP3    H226161   2.955   4.168   4.868
 8733TIP3   OH226162   6.329   6.617   5.274
 8733TIP3    H126163   6.394   6.657   5.216
 8733TIP3    H226164   6.299   6.689   5.329
 8734TIP3   OH226165   4.498   5.974   2.962
 8734TIP3    H126166   4.490   5.963   3.056
 8734TIP3    H226167   4.583   5.937   2.940
 8735TIP3   OH226168   6.407   0.974   4.938
 8735TIP3    H126169   6.459   0.973   5.018
 8735TIP3    H226170   6.396   1.067   4.918
 8736TIP3   OH226171   1.862   6.359   2.158
 8736TIP3    H126172   1.854   6.421   2.085
 8736TIP3    H226173   1.820   6.403   2.232
 8737TIP3   OH226174   2.014   3.231   0.444
 8737TIP3    H126175   2.107   3.247   0.462
 8737TIP3    H226176   2.014   3.165   0.375
 8738TIP3   OH226177   4.500   1.705   1.373
 8738TIP3    H126178   4.413   1.712   1.335
 8738TIP3    H226179   4.528   1.615   1.353
 8739TIP3   OH226180   5.393   2.977   1.399
 8739TIP3    H126181   5.467   2.946   1.347
 8739TIP3    H226182   5.336   2.900   1.408
 8740TIP3   OH226183   2.060   2.685   5.895
 8740TIP3    H126184   2.127   2.616   5.887
 8740TIP3    H226185   2.065   2.732   5.812
 8741TIP3   OH226186   2.345   3.313   0.847
 8741TIP3    H126187   2.251   3.332   0.844
 8741TIP3    H226188   2.379   3.375   0.912
 8742TIP3   OH226189   1.001   3.218   0.407
 8742TIP3    H126190   0.948   3.256   0.477
 8742TIP3    H226191   1.091   3.226   0.439
 8743TIP3   OH226192   1.709   2.092   4.971
 8743TIP3    H126193   1.733   2.021   4.911
 8743TIP3    H226194   1.674   2.161   4.914
 8744TIP3   OH226195   0.063   1.199   1.353
 8744TIP3    H126196   0.009   1.260   1.303
 8744TIP3    H226197   0.047   1.222   1.445
 8745TIP3   OH226198   2.628   4.447   4.396
 8745TIP3    H126199   2.545   4.457   4.350
 8745TIP3    H226200   2.654   4.536   4.419
 8746TIP3   OH226201   5.242   0.751   3.756
 8746TIP3    H126202   5.243   0.754   3.851
 8746TIP3    H226203   5.308   0.814   3.729
 8747TIP3   OH226204   2.948   0.685   3.720
 8747TIP3    H126205   2.886   0.756   3.734
 8747TIP3    H226206   2.934   0.658   3.630
 8748TIP3   OH226207   3.859   3.580   2.917
 8748TIP3    H126208   3.799   3.506   2.921
 8748TIP3    H226209   3.859   3.607   2.825
 8749TIP3   OH226210   5.407   1.318   1.983
 8749TIP3    H126211   5.420   1.407   2.015
 8749TIP3    H226212   5.450   1.262   2.049
 8750TIP3   OH226213   4.855   1.464   3.814
 8750TIP3    H126214   4.869   1.509   3.898
 8750TIP3    H226215   4.850   1.372   3.836
 8751TIP3   OH226216   0.881   4.274   2.499
 8751TIP3    H126217   0.794   4.234   2.496
 8751TIP3    H226218   0.927   4.234   2.425
 8752TIP3   OH226219   2.905   2.568   4.435
 8752TIP3    H126220   2.882   2.475   4.445
 8752TIP3    H226221   2.984   2.579   4.488
 8753TIP3   OH226222   7.153   5.548   2.471
 8753TIP3    H126223   7.225   5.539   2.533
 8753TIP3    H226224   7.074   5.539   2.525
 8754TIP3   OH226225   3.675   6.549   0.505
 8754TIP3    H126226   3.732   6.614   0.547
 8754TIP3    H226227   3.727   6.469   0.505
 8755TIP3   OH226228   4.123   1.441   1.235
 8755TIP3    H126229   4.157   1.530   1.238
 8755TIP3    H226230   4.035   1.450   1.198
 8756TIP3   OH226231   3.285   2.439   3.243
 8756TIP3    H126232   3.350   2.368   3.241
 8756TIP3    H226233   3.212   2.406   3.190
 8757TIP3   OH226234   4.837   6.286   1.124
 8757TIP3    H126235   4.785   6.289   1.044
 8757TIP3    H226236   4.926   6.308   1.095
 8758TIP3   OH226237   3.757   6.565   2.117
 8758TIP3    H126238   3.691   6.570   2.186
 8758TIP3    H226239   3.817   6.638   2.137
 8759TIP3   OH226240   3.134   3.833   4.820
 8759TIP3    H126241   3.146   3.918   4.779
 8759TIP3    H226242   3.222   3.794   4.822
 8760TIP3   OH226243   7.175   5.575   2.204
 8760TIP3    H126244   7.180   5.542   2.293
 8760TIP3    H226245   7.223   5.658   2.206
 8761TIP3   OH226246   3.065   4.394   5.488
 8761TIP3    H126247   3.042   4.357   5.402
 8761TIP3    H226248   2.989   4.376   5.543
 8762TIP3   OH226249   3.495   1.473   0.752
 8762TIP3    H126250   3.542   1.410   0.697
 8762TIP3    H226251   3.488   1.551   0.697
 8763TIP3   OH226252   5.259   5.875   1.258
 8763TIP3    H126253   5.215   5.830   1.330
 8763TIP3    H226254   5.344   5.900   1.293
 8764TIP3   OH226255   6.230   1.757   5.096
 8764TIP3    H126256   6.300   1.693   5.095
 8764TIP3    H226257   6.274   1.842   5.090
 8765TIP3   OH226258   5.462   6.616   3.889
 8765TIP3    H126259   5.377   6.633   3.848
 8765TIP3    H226260   5.441   6.598   3.980
 8766TIP3   OH226261   3.674   5.979   0.645
 8766TIP3    H126262   3.718   5.970   0.561
 8766TIP3    H226263   3.685   6.072   0.668
 8767TIP3   OH226264   3.729   0.243   3.523
 8767TIP3    H126265   3.714   0.227   3.616
 8767TIP3    H226266   3.815   0.284   3.519
 8768TIP3   OH226267   0.999   4.137   3.443
 8768TIP3    H126268   0.953   4.135   3.527
 8768TIP3    H226269   1.083   4.096   3.461
 8769TIP3   OH226270   1.557   3.104   1.827
 8769TIP3    H126271   1.565   3.053   1.908
 8769TIP3    H226272   1.644   3.141   1.813
 8770TIP3   OH226273   5.146   0.166   1.759
 8770TIP3    H126274   5.205   0.237   1.783
 8770TIP3    H226275   5.067   0.209   1.728
 8771TIP3   OH226276   7.051   4.868   0.862
 8771TIP3    H126277   7.141   4.878   0.892
 8771TIP3    H226278   7.016   4.957   0.861
 8772TIP3   OH226279   2.296   5.717   4.957
 8772TIP3    H126280   2.252   5.637   4.927
 8772TIP3    H226281   2.352   5.742   4.884
 8773TIP3   OH226282   7.090   5.032   5.634
 8773TIP3    H126283   7.071   5.124   5.649
 8773TIP3    H226284   7.185   5.026   5.634
 8774TIP3   OH226285   6.858   0.578   5.581
 8774TIP3    H126286   6.838   0.511   5.647
 8774TIP3    H226287   6.847   0.661   5.628
 8775TIP3   OH226288   0.269   2.022   1.878
 8775TIP3    H126289   0.354   2.012   1.921
 8775TIP3    H226290   0.266   1.951   1.814
 8776TIP3   OH226291   4.767   0.769   5.600
 8776TIP3    H126292   4.691   0.827   5.606
 8776TIP3    H226293   4.817   0.786   5.680
 8777TIP3   OH226294   0.067   4.390   0.915
 8777TIP3    H126295   0.005   4.407   0.843
 8777TIP3    H226296   0.058   4.466   0.972
 8778TIP3   OH226297   6.041   3.348   5.066
 8778TIP3    H126298   6.062   3.255   5.066
 8778TIP3    H226299   6.032   3.370   5.159
 8779TIP3   OH226300   1.418   2.207   4.970
 8779TIP3    H126301   1.395   2.285   5.020
 8779TIP3    H226302   1.506   2.185   5.000
 8780TIP3   OH226303   2.497   6.280   3.126
 8780TIP3    H126304   2.474   6.315   3.213
 8780TIP3    H226305   2.584   6.242   3.138
 8781TIP3   OH226306   3.737   6.576   2.647
 8781TIP3    H126307   3.672   6.642   2.672
 8781TIP3    H226308   3.686   6.508   2.601
 8782TIP3   OH226309   5.275   3.661   2.571
 8782TIP3    H126310   5.267   3.603   2.647
 8782TIP3    H226311   5.202   3.722   2.580
 8783TIP3   OH226312   6.666   2.613   5.115
 8783TIP3    H126313   6.604   2.634   5.046
 8783TIP3    H226314   6.744   2.665   5.093
 8784TIP3   OH226315   4.572   2.225   1.188
 8784TIP3    H126316   4.591   2.138   1.224
 8784TIP3    H226317   4.604   2.286   1.254
 8785TIP3   OH226318   0.481   3.824   2.783
 8785TIP3    H126319   0.531   3.753   2.824
 8785TIP3    H226320   0.403   3.832   2.837
 8786TIP3   OH226321   2.823   3.544   3.644
 8786TIP3    H126322   2.786   3.455   3.644
 8786TIP3    H226323   2.800   3.579   3.558
 8787TIP3   OH226324   0.552   3.505   3.043
 8787TIP3    H126325   0.583   3.587   3.082
 8787TIP3    H226326   0.494   3.533   2.971
 8788TIP3   OH226327   0.906   4.895   0.276
 8788TIP3    H126328   0.857   4.816   0.255
 8788TIP3    H226329   0.899   4.950   0.199
 8789TIP3   OH226330   1.033   4.909   4.130
 8789TIP3    H126331   1.108   4.913   4.188
 8789TIP3    H226332   1.013   5.000   4.109
 8790TIP3   OH226333   1.038   3.078   3.685
 8790TIP3    H126334   1.040   2.982   3.694
 8790TIP3    H226335   0.949   3.102   3.709
 8791TIP3   OH226336   1.473   4.753   4.854
 8791TIP3    H126337   1.550   4.740   4.798
 8791TIP3    H226338   1.507   4.745   4.944
 8792TIP3   OH226339   5.621   5.161   2.120
 8792TIP3    H126340   5.681   5.098   2.081
 8792TIP3    H226341   5.664   5.188   2.201
 8793TIP3   OH226342   4.856   0.282   5.720
 8793TIP3    H126343   4.827   0.309   5.807
 8793TIP3    H226344   4.882   0.364   5.678
 8794TIP3   OH226345   4.017   3.466   1.833
 8794TIP3    H126346   3.998   3.494   1.744
 8794TIP3    H226347   3.997   3.542   1.887
 8795TIP3   OH226348   3.035   0.851   4.613
 8795TIP3    H126349   3.104   0.851   4.680
 8795TIP3    H226350   2.976   0.781   4.640
 8796TIP3   OH226351   5.097   4.790   2.576
 8796TIP3    H126352   5.075   4.777   2.484
 8796TIP3    H226353   5.074   4.707   2.619
 8797TIP3   OH226354   4.826   1.253   1.606
 8797TIP3    H126355   4.869   1.336   1.629
 8797TIP3    H226356   4.774   1.274   1.529
 8798TIP3   OH226357   5.472   1.635   1.313
 8798TIP3    H126358   5.502   1.665   1.399
 8798TIP3    H226359   5.378   1.622   1.324
 8799TIP3   OH226360   2.639   6.571   0.741
 8799TIP3    H126361   2.549   6.597   0.761
 8799TIP3    H226362   2.630   6.496   0.682
 8800TIP3   OH226363   2.115   5.312   3.655
 8800TIP3    H126364   2.190   5.253   3.646
 8800TIP3    H226365   2.067   5.303   3.573
 8801TIP3   OH226366   5.639   5.000   3.698
 8801TIP3    H126367   5.605   5.082   3.733
 8801TIP3    H226368   5.702   5.027   3.631
 8802TIP3   OH226369   5.610   0.474   3.312
 8802TIP3    H126370   5.643   0.448   3.226
 8802TIP3    H226371   5.598   0.391   3.359
 8803TIP3   OH226372   0.016   2.882   4.112
 8803TIP3    H126373   0.039   2.798   4.073
 8803TIP3    H226374   0.059   2.947   4.057
 8804TIP3   OH226375   1.716   0.123   1.885
 8804TIP3    H126376   1.769   0.194   1.921
 8804TIP3    H226377   1.698   0.149   1.795
 8805TIP3   OH226378   2.306   4.868   1.871
 8805TIP3    H126379   2.232   4.923   1.898
 8805TIP3    H226380   2.272   4.779   1.876
 8806TIP3   OH226381   2.820   0.140   2.577
 8806TIP3    H126382   2.777   0.197   2.641
 8806TIP3    H226383   2.800   0.051   2.607
 8807TIP3   OH226384   0.108   1.841   0.312
 8807TIP3    H126385   0.154   1.910   0.264
 8807TIP3    H226386   0.144   1.845   0.401
 8808TIP3   OH226387   2.199   6.174   3.075
 8808TIP3    H126388   2.252   6.122   3.135
 8808TIP3    H226389   2.156   6.109   3.019
 8809TIP3   OH226390   6.550   0.617   2.412
 8809TIP3    H126391   6.595   0.681   2.357
 8809TIP3    H226392   6.482   0.668   2.456
 8810TIP3   OH226393   4.941   1.476   1.678
 8810TIP3    H126394   5.018   1.529   1.657
 8810TIP3    H226395   4.939   1.474   1.774
 8811TIP3   OH226396   0.885   6.297   3.787
 8811TIP3    H126397   0.926   6.226   3.836
 8811TIP3    H226398   0.791   6.289   3.807
 8812TIP3   OH226399   1.987   3.566   3.703
 8812TIP3    H126400   2.026   3.545   3.788
 8812TIP3    H226401   1.934   3.645   3.720
 8813TIP3   OH226402   6.247   3.685   0.216
 8813TIP3    H126403   6.277   3.645   0.297
 8813TIP3    H226404   6.176   3.744   0.243
 8814TIP3   OH226405   2.740   0.419   1.576
 8814TIP3    H126406   2.726   0.368   1.496
 8814TIP3    H226407   2.776   0.355   1.638
 8815TIP3   OH226408   7.093   0.102   1.736
 8815TIP3    H126409   7.080   0.161   1.810
 8815TIP3    H226410   7.062   0.017   1.768
 8816TIP3   OH226411   5.906   2.923   1.071
 8816TIP3    H126412   5.896   2.969   1.155
 8816TIP3    H226413   5.925   2.833   1.095
 8817TIP3   OH226414   4.827   1.126   1.113
 8817TIP3    H126415   4.817   1.219   1.136
 8817TIP3    H226416   4.875   1.126   1.030
 8818TIP3   OH226417   6.124   5.941   1.674
 8818TIP3    H126418   6.067   5.947   1.752
 8818TIP3    H226419   6.174   5.861   1.687
 8819TIP3   OH226420   7.148   3.139   3.826
 8819TIP3    H126421   7.132   3.124   3.733
 8819TIP3    H226422   7.243   3.133   3.836
 8820TIP3   OH226423   1.613   3.832   5.590
 8820TIP3    H126424   1.554   3.872   5.653
 8820TIP3    H226425   1.557   3.808   5.516
 8821TIP3   OH226426   1.156   5.707   0.062
 8821TIP3    H126427   1.086   5.720   0.126
 8821TIP3    H226428   1.148   5.615   0.036
 8822TIP3   OH226429   4.125   1.838   3.032
 8822TIP3    H126430   4.183   1.899   2.986
 8822TIP3    H226431   4.068   1.894   3.085
 8823TIP3   OH226432   6.187   2.001   4.981
 8823TIP3    H126433   6.114   2.060   4.962
 8823TIP3    H226434   6.146   1.917   5.000
 8824TIP3   OH226435   3.103   3.704   3.671
 8824TIP3    H126436   3.105   3.714   3.766
 8824TIP3    H226437   3.022   3.654   3.654
 8825TIP3   OH226438   5.049   6.302   0.340
 8825TIP3    H126439   5.099   6.377   0.307
 8825TIP3    H226440   5.006   6.335   0.419
 8826TIP3   OH226441   3.272   5.068   4.294
 8826TIP3    H126442   3.311   5.010   4.360
 8826TIP3    H226443   3.302   5.032   4.210
 8827TIP3   OH226444   6.811   6.397   4.964
 8827TIP3    H126445   6.843   6.308   4.977
 8827TIP3    H226446   6.750   6.390   4.890
 8828TIP3   OH226447   3.916   0.616   2.640
 8828TIP3    H126448   3.945   0.620   2.549
 8828TIP3    H226449   3.990   0.648   2.690
 8829TIP3   OH226450   0.205   2.808   2.400
 8829TIP3    H126451   0.174   2.841   2.316
 8829TIP3    H226452   0.150   2.854   2.465
 8830TIP3   OH226453   4.395   3.914   2.916
 8830TIP3    H126454   4.453   3.862   2.971
 8830TIP3    H226455   4.356   3.851   2.855
 8831TIP3   OH226456   3.286   0.368   1.437
 8831TIP3    H126457   3.200   0.326   1.444
 8831TIP3    H226458   3.283   0.438   1.503
 8832TIP3   OH226459   2.304   4.386   5.505
 8832TIP3    H126460   2.293   4.327   5.431
 8832TIP3    H226461   2.246   4.352   5.573
 8833TIP3   OH226462   2.375   4.298   4.319
 8833TIP3    H126463   2.309   4.357   4.282
 8833TIP3    H226464   2.434   4.280   4.246
 8834TIP3   OH226465   0.858   3.147   4.648
 8834TIP3    H126466   0.818   3.189   4.572
 8834TIP3    H226467   0.903   3.217   4.695
 8835TIP3   OH226468   4.687   3.473   0.813
 8835TIP3    H126469   4.773   3.445   0.781
 8835TIP3    H226470   4.627   3.458   0.740
 8836TIP3   OH226471   0.674   2.595   2.038
 8836TIP3    H126472   0.601   2.588   2.098
 8836TIP3    H226473   0.686   2.507   2.003
 8837TIP3   OH226474   5.938   1.054   4.814
 8837TIP3    H126475   5.868   1.110   4.847
 8837TIP3    H226476   5.948   0.986   4.880
 8838TIP3   OH226477   3.554   5.413   5.900
 8838TIP3    H126478   3.588   5.490   5.854
 8838TIP3    H226479   3.540   5.348   5.832
 8839TIP3   OH226480   2.522   2.257   2.424
 8839TIP3    H126481   2.581   2.247   2.350
 8839TIP3    H226482   2.508   2.351   2.432
 8840TIP3   OH226483   5.905   2.547   2.190
 8840TIP3    H126484   5.825   2.597   2.174
 8840TIP3    H226485   5.949   2.545   2.105
 8841TIP3   OH226486   6.276   5.832   0.717
 8841TIP3    H126487   6.336   5.879   0.775
 8841TIP3    H226488   6.192   5.832   0.764
 8842TIP3   OH226489   3.802   5.796   2.649
 8842TIP3    H126490   3.882   5.810   2.698
 8842TIP3    H226491   3.823   5.724   2.590
 8843TIP3   OH226492   5.438   3.643   2.964
 8843TIP3    H126493   5.418   3.731   2.996
 8843TIP3    H226494   5.382   3.585   3.016
 8844TIP3   OH226495   1.643  -0.007   2.625
 8844TIP3    H126496   1.582   0.065   2.613
 8844TIP3    H226497   1.730   0.034   2.620
 8845TIP3   OH226498   2.495   0.790   3.905
 8845TIP3    H126499   2.540   0.726   3.961
 8845TIP3    H226500   2.518   0.875   3.942
 8846TIP3   OH226501   0.676   3.379   1.139
 8846TIP3    H126502   0.723   3.455   1.174
 8846TIP3    H226503   0.727   3.353   1.062
 8847TIP3   OH226504   3.173   6.125   1.454
 8847TIP3    H126505   3.114   6.080   1.393
 8847TIP3    H226506   3.258   6.122   1.411
 8848TIP3   OH226507   1.031   3.131   2.386
 8848TIP3    H126508   1.114   3.172   2.410
 8848TIP3    H226509   0.998   3.094   2.468
 8849TIP3   OH226510   2.484   0.817   0.709
 8849TIP3    H126511   2.550   0.886   0.705
 8849TIP3    H226512   2.518   0.748   0.652
 8850TIP3   OH226513   7.218   2.823   5.099
 8850TIP3    H126514   7.165   2.774   5.162
 8850TIP3    H226515   7.195   2.915   5.115
 8851TIP3   OH226516   6.379   6.375   5.402
 8851TIP3    H126517   6.349   6.441   5.339
 8851TIP3    H226518   6.454   6.334   5.360
 8852TIP3   OH226519   3.346   2.100   4.310
 8852TIP3    H126520   3.317   2.172   4.254
 8852TIP3    H226521   3.439   2.092   4.293
 8853TIP3   OH226522   2.797   3.892   5.283
 8853TIP3    H126523   2.755   3.851   5.207
 8853TIP3    H226524   2.877   3.931   5.247
 8854TIP3   OH226525   2.327   3.796   0.427
 8854TIP3    H126526   2.314   3.827   0.337
 8854TIP3    H226527   2.383   3.719   0.419
 8855TIP3   OH226528   7.126   3.581   3.829
 8855TIP3    H126529   7.211   3.625   3.835
 8855TIP3    H226530   7.102   3.561   3.919
 8856TIP3   OH226531   3.382   3.257   0.109
 8856TIP3    H126532   3.353   3.167   0.096
 8856TIP3    H226533   3.412   3.260   0.200
 8857TIP3   OH226534   1.762   4.050   0.123
 8857TIP3    H126535   1.770   3.956   0.105
 8857TIP3    H226536   1.847   4.076   0.157
 8858TIP3   OH226537   0.900   1.016   5.761
 8858TIP3    H126538   0.908   0.967   5.843
 8858TIP3    H226539   0.899   1.108   5.789
 8859TIP3   OH226540   4.485   2.822   4.405
 8859TIP3    H126541   4.575   2.849   4.425
 8859TIP3    H226542   4.432   2.899   4.425
 8860TIP3   OH226543   1.089   0.788   3.242
 8860TIP3    H126544   1.013   0.771   3.298
 8860TIP3    H226545   1.155   0.823   3.302
 8861TIP3   OH226546   1.541   4.275   4.114
 8861TIP3    H126547   1.628   4.306   4.139
 8861TIP3    H226548   1.553   4.184   4.089
 8862TIP3   OH226549   1.749   6.654   1.294
 8862TIP3    H126550   1.778   6.564   1.280
 8862TIP3    H226551   1.819   6.707   1.256
 8863TIP3   OH226552   4.023   0.359   2.492
 8863TIP3    H126553   3.960   0.428   2.471
 8863TIP3    H226554   3.995   0.326   2.577
 8864TIP3   OH226555   0.275   3.130   0.149
 8864TIP3    H126556   0.209   3.124   0.218
 8864TIP3    H226557   0.351   3.169   0.192
 8865TIP3   OH226558   4.130   4.457   2.963
 8865TIP3    H126559   4.165   4.379   2.921
 8865TIP3    H226560   4.036   4.453   2.947
 8866TIP3   OH226561   2.419   6.416   1.924
 8866TIP3    H126562   2.340   6.403   1.872
 8866TIP3    H226563   2.387   6.446   2.010
 8867TIP3   OH226564   4.493   1.637   2.095
 8867TIP3    H126565   4.491   1.657   2.001
 8867TIP3    H226566   4.503   1.542   2.099
 8868TIP3   OH226567   1.694   5.425   0.923
 8868TIP3    H126568   1.668   5.452   0.835
 8868TIP3    H226569   1.743   5.344   0.910
 8869TIP3   OH226570   4.693   6.392   1.323
 8869TIP3    H126571   4.706   6.442   1.242
 8869TIP3    H226572   4.600   6.405   1.344
 8870TIP3   OH226573   6.147   4.057   0.503
 8870TIP3    H126574   6.132   4.133   0.558
 8870TIP3    H226575   6.168   3.986   0.564
 8871TIP3   OH226576   2.034   0.722   1.582
 8871TIP3    H126577   2.007   0.788   1.519
 8871TIP3    H226578   1.973   0.649   1.569
 8872TIP3   OH226579   3.642   3.796   4.359
 8872TIP3    H126580   3.550   3.770   4.372
 8872TIP3    H226581   3.640   3.851   4.280
 8873TIP3   OH226582   0.946   6.142   1.471
 8873TIP3    H126583   1.039   6.122   1.460
 8873TIP3    H226584   0.934   6.225   1.425
 8874TIP3   OH226585   0.740   4.000   2.737
 8874TIP3    H126586   0.733   4.001   2.641
 8874TIP3    H226587   0.650   4.013   2.767
 8875TIP3   OH226588   2.831   2.460   3.520
 8875TIP3    H126589   2.820   2.459   3.425
 8875TIP3    H226590   2.843   2.368   3.544
 8876TIP3   OH226591   7.069   4.910   3.284
 8876TIP3    H126592   6.977   4.924   3.308
 8876TIP3    H226593   7.076   4.815   3.270
 8877TIP3   OH226594   3.239   3.614   1.694
 8877TIP3    H126595   3.314   3.562   1.664
 8877TIP3    H226596   3.244   3.611   1.789
 8878TIP3   OH226597   1.946   6.725   3.043
 8878TIP3    H126598   1.967   6.703   2.952
 8878TIP3    H226599   1.881   6.660   3.069
 8879TIP3   OH226600   0.772   2.758   0.079
 8879TIP3    H126601   0.712   2.830   0.058
 8879TIP3    H226602   0.828   2.793   0.148
 8880TIP3   OH226603   5.220   2.777   0.521
 8880TIP3    H126604   5.263   2.695   0.496
 8880TIP3    H226605   5.204   2.767   0.615
 8881TIP3   OH226606   4.083   3.182   5.830
 8881TIP3    H126607   4.029   3.256   5.801
 8881TIP3    H226608   4.171   3.218   5.839
 8882TIP3   OH226609   4.143   2.069   4.952
 8882TIP3    H126610   4.061   2.032   4.918
 8882TIP3    H226611   4.184   2.110   4.876
 8883TIP3   OH226612   5.158   5.375   1.873
 8883TIP3    H126613   5.156   5.361   1.778
 8883TIP3    H226614   5.245   5.344   1.900
 8884TIP3   OH226615   1.963   4.348   3.660
 8884TIP3    H126616   2.007   4.370   3.578
 8884TIP3    H226617   2.013   4.276   3.696
 8885TIP3   OH226618   4.920   1.861   1.245
 8885TIP3    H126619   4.938   1.930   1.309
 8885TIP3    H226620   4.987   1.873   1.178
 8886TIP3   OH226621   6.198   0.356   2.633
 8886TIP3    H126622   6.172   0.387   2.547
 8886TIP3    H226623   6.252   0.278   2.615
 8887TIP3   OH226624   0.193   1.194   4.662
 8887TIP3    H126625   0.125   1.240   4.711
 8887TIP3    H226626   0.170   1.207   4.570
 8888TIP3   OH226627   3.127   0.758   5.713
 8888TIP3    H126628   3.175   0.838   5.690
 8888TIP3    H226629   3.161   0.733   5.799
 8889TIP3   OH226630   2.961   4.516   4.203
 8889TIP3    H126631   2.940   4.562   4.285
 8889TIP3    H226632   3.022   4.575   4.158
 8890TIP3   OH226633   5.194   3.224   4.165
 8890TIP3    H126634   5.210   3.246   4.256
 8890TIP3    H226635   5.109   3.263   4.145
 8891TIP3   OH226636   6.381   5.563   5.222
 8891TIP3    H126637   6.446   5.632   5.239
 8891TIP3    H226638   6.353   5.536   5.310
 8892TIP3   OH226639   2.639   6.121   4.593
 8892TIP3    H126640   2.649   6.144   4.501
 8892TIP3    H226641   2.550   6.147   4.614
 8893TIP3   OH226642   6.756   4.476   1.593
 8893TIP3    H126643   6.844   4.511   1.579
 8893TIP3    H226644   6.769   4.398   1.647
 8894TIP3   OH226645   0.559   6.217   2.424
 8894TIP3    H126646   0.537   6.221   2.517
 8894TIP3    H226647   0.494   6.157   2.387
 8895TIP3   OH226648   4.467   5.539   5.908
 8895TIP3    H126649   4.385   5.588   5.907
 8895TIP3    H226650   4.509   5.561   5.825
 8896TIP3   OH226651   1.071   4.329   0.471
 8896TIP3    H126652   1.053   4.423   0.475
 8896TIP3    H226653   1.029   4.300   0.390
 8897TIP3   OH226654   2.439   5.986   2.899
 8897TIP3    H126655   2.491   5.929   2.956
 8897TIP3    H226656   2.348   5.963   2.919
 8898TIP3   OH226657   2.479   4.257   1.723
 8898TIP3    H126658   2.488   4.338   1.673
 8898TIP3    H226659   2.533   4.193   1.675
 8899TIP3   OH226660   3.679   4.541   1.443
 8899TIP3    H126661   3.594   4.539   1.488
 8899TIP3    H226662   3.728   4.468   1.481
 8900TIP3   OH226663   0.765   2.027   4.060
 8900TIP3    H126664   0.701   1.982   4.005
 8900TIP3    H226665   0.848   1.983   4.039
 8901TIP3   OH226666   4.707   4.530   0.671
 8901TIP3    H126667   4.660   4.537   0.754
 8901TIP3    H226668   4.775   4.598   0.676
 8902TIP3   OH226669   6.643   3.612   5.448
 8902TIP3    H126670   6.594   3.694   5.444
 8902TIP3    H226671   6.586   3.553   5.498
 8903TIP3   OH226672   2.466   0.700   5.690
 8903TIP3    H126673   2.478   0.606   5.707
 8903TIP3    H226674   2.553   0.729   5.661
 8904TIP3   OH226675   5.066   1.909   4.923
 8904TIP3    H126676   5.010   1.835   4.899
 8904TIP3    H226677   5.155   1.879   4.906
 8905TIP3   OH226678   6.689   1.039   1.857
 8905TIP3    H126679   6.651   0.975   1.917
 8905TIP3    H226680   6.669   1.124   1.897
 8906TIP3   OH226681   3.704   1.349   5.204
 8906TIP3    H126682   3.695   1.406   5.128
 8906TIP3    H226683   3.736   1.266   5.168
 8907TIP3   OH226684   6.759   6.107   0.106
 8907TIP3    H126685   6.741   6.017   0.077
 8907TIP3    H226686   6.678   6.134   0.149
 8908TIP3   OH226687   6.603   1.933   1.906
 8908TIP3    H126688   6.619   1.888   1.989
 8908TIP3    H226689   6.528   1.887   1.868
 8909TIP3   OH226690   0.335   2.857   4.659
 8909TIP3    H126691   0.243   2.879   4.678
 8909TIP3    H226692   0.335   2.832   4.567
 8910TIP3   OH226693   0.001   2.397   2.644
 8910TIP3    H126694   0.078   2.443   2.611
 8910TIP3    H226695  -0.026   2.446   2.721
 8911TIP3   OH226696   5.254   0.382   2.500
 8911TIP3    H126697   5.168   0.405   2.466
 8911TIP3    H226698   5.238   0.309   2.560
 8912TIP3   OH226699   4.152   0.814   2.154
 8912TIP3    H126700   4.181   0.727   2.125
 8912TIP3    H226701   4.223   0.873   2.128
 8913TIP3   OH226702   2.776   4.071   4.978
 8913TIP3    H126703   2.750   3.996   4.925
 8913TIP3    H226704   2.720   4.143   4.948
 8914TIP3   OH226705   0.308   2.781   0.289
 8914TIP3    H126706   0.258   2.855   0.256
 8914TIP3    H226707   0.263   2.756   0.370
 8915TIP3   OH226708   1.620   6.287   4.507
 8915TIP3    H126709   1.612   6.379   4.482
 8915TIP3    H226710   1.692   6.253   4.453
 8916TIP3   OH226711   3.456   6.200   1.405
 8916TIP3    H126712   3.433   6.234   1.318
 8916TIP3    H226713   3.509   6.269   1.444
 8917TIP3   OH226714   2.507   1.125   5.393
 8917TIP3    H126715   2.574   1.108   5.328
 8917TIP3    H226716   2.549   1.108   5.477
 8918TIP3   OH226717   7.080   3.064   4.230
 8918TIP3    H126718   7.129   3.018   4.162
 8918TIP3    H226719   7.038   3.137   4.184
 8919TIP3   OH226720   0.522   0.363   4.807
 8919TIP3    H126721   0.450   0.347   4.744
 8919TIP3    H226722   0.477   0.381   4.889
 8920TIP3   OH226723   3.562   1.686   2.384
 8920TIP3    H126724   3.531   1.746   2.453
 8920TIP3    H226725   3.583   1.605   2.431
 8921TIP3   OH226726   4.216   2.438   0.984
 8921TIP3    H126727   4.134   2.455   0.937
 8921TIP3    H226728   4.273   2.510   0.958
 8922TIP3   OH226729   3.051   2.779   5.091
 8922TIP3    H126730   3.028   2.860   5.045
 8922TIP3    H226731   3.083   2.809   5.176
 8923TIP3   OH226732   4.647   4.496   2.938
 8923TIP3    H126733   4.721   4.549   2.909
 8923TIP3    H226734   4.681   4.449   3.015
 8924TIP3   OH226735   2.480   4.680   5.885
 8924TIP3    H126736   2.468   4.602   5.938
 8924TIP3    H226737   2.439   4.659   5.801
 8925TIP3   OH226738   5.304   1.621   4.458
 8925TIP3    H126739   5.337   1.575   4.380
 8925TIP3    H226740   5.209   1.608   4.455
 8926TIP3   OH226741   6.304   0.744   2.062
 8926TIP3    H126742   6.215   0.773   2.079
 8926TIP3    H226743   6.293   0.663   2.011
 8927TIP3   OH226744   4.778   2.375   2.560
 8927TIP3    H126745   4.770   2.470   2.560
 8927TIP3    H226746   4.845   2.357   2.625
 8928TIP3   OH226747   3.268   0.623   3.475
 8928TIP3    H126748   3.240   0.611   3.566
 8928TIP3    H226749   3.216   0.698   3.445
 8929TIP3   OH226750   0.522   5.686   4.333
 8929TIP3    H126751   0.552   5.620   4.271
 8929TIP3    H226752   0.570   5.765   4.310
 8930TIP3   OH226753   3.570   2.766   4.775
 8930TIP3    H126754   3.538   2.846   4.815
 8930TIP3    H226755   3.635   2.732   4.836
 8931TIP3   OH226756   2.012   5.967   5.547
 8931TIP3    H126757   2.001   5.945   5.640
 8931TIP3    H226758   2.107   5.970   5.534
 8932TIP3   OH226759   3.987   5.420   3.100
 8932TIP3    H126760   3.979   5.326   3.118
 8932TIP3    H226761   3.907   5.443   3.053
 8933TIP3   OH226762   5.000   3.384   5.218
 8933TIP3    H126763   4.930   3.444   5.241
 8933TIP3    H226764   4.992   3.373   5.123
 8934TIP3   OH226765   2.871   4.362   0.292
 8934TIP3    H126766   2.835   4.294   0.348
 8934TIP3    H226767   2.860   4.443   0.342
 8935TIP3   OH226768   7.085   1.976   2.833
 8935TIP3    H126769   7.083   2.044   2.900
 8935TIP3    H226770   7.165   1.993   2.784
 8936TIP3   OH226771   1.533   2.245   5.306
 8936TIP3    H126772   1.629   2.245   5.300
 8936TIP3    H226773   1.505   2.304   5.236
 8937TIP3   OH226774   0.342   5.027   2.068
 8937TIP3    H126775   0.250   5.043   2.044
 8937TIP3    H226776   0.358   4.936   2.045
 8938TIP3   OH226777   3.527   4.336   4.849
 8938TIP3    H126778   3.560   4.296   4.929
 8938TIP3    H226779   3.461   4.398   4.879
 8939TIP3   OH226780   5.416   6.285   2.163
 8939TIP3    H126781   5.351   6.354   2.175
 8939TIP3    H226782   5.422   6.274   2.068
 8940TIP3   OH226783   4.804   2.405   0.167
 8940TIP3    H126784   4.745   2.475   0.198
 8940TIP3    H226785   4.836   2.364   0.248
 8941TIP3   OH226786   3.581   0.747   2.760
 8941TIP3    H126787   3.595   0.832   2.719
 8941TIP3    H226788   3.582   0.685   2.686
 8942TIP3   OH226789   3.167   5.118   3.088
 8942TIP3    H126790   3.260   5.104   3.073
 8942TIP3    H226791   3.148   5.203   3.048
 8943TIP3   OH226792   1.218   5.704   3.581
 8943TIP3    H126793   1.246   5.686   3.671
 8943TIP3    H226794   1.293   5.746   3.540
 8944TIP3   OH226795   7.014   3.019   4.756
 8944TIP3    H126796   6.980   3.007   4.667
 8944TIP3    H226797   7.012   3.113   4.770
 8945TIP3   OH226798   0.991   6.280   4.169
 8945TIP3    H126799   1.064   6.335   4.197
 8945TIP3    H226800   0.922   6.342   4.145
 8946TIP3   OH226801   1.575   3.314   5.338
 8946TIP3    H126802   1.654   3.366   5.352
 8946TIP3    H226803   1.601   3.248   5.273
 8947TIP3   OH226804   3.280   1.409   3.701
 8947TIP3    H126805   3.188   1.409   3.675
 8947TIP3    H226806   3.296   1.320   3.732
 8948TIP3   OH226807   5.082   6.192   2.438
 8948TIP3    H126808   5.043   6.182   2.525
 8948TIP3    H226809   5.176   6.196   2.454
 8949TIP3   OH226810   3.862   2.915   0.363
 8949TIP3    H126811   3.928   2.857   0.326
 8949TIP3    H226812   3.890   3.003   0.336
 8950TIP3   OH226813   2.261   2.436   1.160
 8950TIP3    H126814   2.200   2.430   1.087
 8950TIP3    H226815   2.319   2.509   1.137
 8951TIP3   OH226816   6.897   0.360   1.531
 8951TIP3    H126817   6.871   0.268   1.530
 8951TIP3    H226818   6.824   0.405   1.487
 8952TIP3   OH226819   4.777   3.456   4.909
 8952TIP3    H126820   4.796   3.540   4.868
 8952TIP3    H226821   4.863   3.419   4.929
 8953TIP3   OH226822   5.840   3.624   0.175
 8953TIP3    H126823   5.748   3.653   0.172
 8953TIP3    H226824   5.866   3.636   0.266
 8954TIP3   OH226825   6.528   3.481   0.631
 8954TIP3    H126826   6.590   3.523   0.691
 8954TIP3    H226827   6.486   3.414   0.684
 8955TIP3   OH226828   5.899   6.539   4.165
 8955TIP3    H126829   5.819   6.577   4.128
 8955TIP3    H226830   5.868   6.466   4.219
 8956TIP3   OH226831   5.262   2.622   3.567
 8956TIP3    H126832   5.251   2.573   3.649
 8956TIP3    H226833   5.348   2.595   3.535
 8957TIP3   OH226834   6.719   2.913   5.510
 8957TIP3    H126835   6.653   2.897   5.443
 8957TIP3    H226836   6.689   2.992   5.555
 8958TIP3   OH226837   4.391   6.482   5.696
 8958TIP3    H126838   4.461   6.475   5.632
 8958TIP3    H226839   4.340   6.402   5.685
 8959TIP3   OH226840   2.125   2.672   2.369
 8959TIP3    H126841   2.171   2.755   2.362
 8959TIP3    H226842   2.136   2.647   2.461
 8960TIP3   OH226843   1.590   3.440   5.599
 8960TIP3    H126844   1.564   3.349   5.589
 8960TIP3    H226845   1.547   3.469   5.679
 8961TIP3   OH226846   1.940   4.090   2.174
 8961TIP3    H126847   1.990   4.055   2.100
 8961TIP3    H226848   2.004   4.144   2.222
 8962TIP3   OH226849   6.436   1.807   5.354
 8962TIP3    H126850   6.396   1.890   5.330
 8962TIP3    H226851   6.530   1.823   5.349
 8963TIP3   OH226852   1.770   5.210   0.605
 8963TIP3    H126853   1.761   5.272   0.533
 8963TIP3    H226854   1.823   5.255   0.670
 8964TIP3   OH226855   3.484   6.384   1.960
 8964TIP3    H126856   3.542   6.394   1.885
 8964TIP3    H226857   3.487   6.291   1.981
 8965TIP3   OH226858   5.201   1.055   0.330
 8965TIP3    H126859   5.160   0.997   0.266
 8965TIP3    H226860   5.136   1.124   0.345
 8966TIP3   OH226861   2.504   6.031   2.362
 8966TIP3    H126862   2.562   6.034   2.285
 8966TIP3    H226863   2.549   6.083   2.428
 8967TIP3   OH226864   0.733   6.201   2.003
 8967TIP3    H126865   0.701   6.113   2.024
 8967TIP3    H226866   0.741   6.201   1.908
 8968TIP3   OH226867   0.059   3.001   5.612
 8968TIP3    H126868  -0.020   2.950   5.592
 8968TIP3    H226869   0.121   2.976   5.543
 8969TIP3   OH226870   5.666   5.423   0.256
 8969TIP3    H126871   5.585   5.377   0.282
 8969TIP3    H226872   5.663   5.424   0.161
 8970TIP3   OH226873   2.892   4.125   2.194
 8970TIP3    H126874   2.879   4.079   2.277
 8970TIP3    H226875   2.987   4.119   2.178
 8971TIP3   OH226876   5.794   2.701   1.453
 8971TIP3    H126877   5.787   2.775   1.513
 8971TIP3    H226878   5.863   2.646   1.490
 8972TIP3   OH226879   1.459   0.831   2.777
 8972TIP3    H126880   1.431   0.892   2.844
 8972TIP3    H226881   1.490   0.886   2.705
 8973TIP3   OH226882   1.034   3.656   3.530
 8973TIP3    H126883   1.104   3.717   3.505
 8973TIP3    H226884   1.074   3.569   3.522
 8974TIP3   OH226885   2.109   3.687   1.910
 8974TIP3    H126886   2.129   3.597   1.881
 8974TIP3    H226887   2.025   3.680   1.953
 8975TIP3   OH226888   3.698   6.492   3.289
 8975TIP3    H126889   3.758   6.543   3.235
 8975TIP3    H226890   3.681   6.413   3.238
 8976TIP3   OH226891   0.617   1.131   3.482
 8976TIP3    H126892   0.636   1.131   3.576
 8976TIP3    H226893   0.535   1.180   3.474
 8977TIP3   OH226894   3.489   0.100   1.303
 8977TIP3    H126895   3.466   0.073   1.214
 8977TIP3    H226896   3.519   0.019   1.345
 8978TIP3   OH226897   4.462   4.468   3.121
 8978TIP3    H126898   4.406   4.408   3.072
 8978TIP3    H226899   4.515   4.511   3.054
 8979TIP3   OH226900   3.870   6.391   2.363
 8979TIP3    H126901   3.815   6.366   2.289
 8979TIP3    H226902   3.957   6.405   2.326
 8980TIP3   OH226903   6.247   6.450   3.156
 8980TIP3    H126904   6.334   6.435   3.192
 8980TIP3    H226905   6.224   6.368   3.112
 8981TIP3   OH226906   5.257   4.617   5.774
 8981TIP3    H126907   5.272   4.662   5.857
 8981TIP3    H226908   5.263   4.524   5.795
 8982TIP3   OH226909   1.861   1.076   1.998
 8982TIP3    H126910   1.813   1.088   2.081
 8982TIP3    H226911   1.793   1.064   1.932
 8983TIP3   OH226912   3.686   0.232   3.787
 8983TIP3    H126913   3.676   0.327   3.794
 8983TIP3    H226914   3.759   0.212   3.846
 8984TIP3   OH226915   5.013   6.219   2.743
 8984TIP3    H126916   5.050   6.146   2.792
 8984TIP3    H226917   5.050   6.297   2.784
 8985TIP3   OH226918   3.322   5.730   5.348
 8985TIP3    H126919   3.380   5.805   5.362
 8985TIP3    H226920   3.355   5.688   5.268
 8986TIP3   OH226921   5.501   2.228   4.951
 8986TIP3    H126922   5.524   2.312   4.912
 8986TIP3    H226923   5.431   2.250   5.013
 8987TIP3   OH226924   4.969   4.990   2.858
 8987TIP3    H126925   4.945   5.011   2.768
 8987TIP3    H226926   4.912   5.044   2.912
 8988TIP3   OH226927   1.209   6.675   5.706
 8988TIP3    H126928   1.250   6.759   5.687
 8988TIP3    H226929   1.144   6.696   5.773
 8989TIP3   OH226930   5.136   4.966   3.507
 8989TIP3    H126931   5.185   4.956   3.425
 8989TIP3    H226932   5.055   5.010   3.481
 8990TIP3   OH226933   3.492   0.477   4.708
 8990TIP3    H126934   3.569   0.421   4.704
 8990TIP3    H226935   3.468   0.491   4.617
 8991TIP3   OH226936   0.953   2.539   0.306
 8991TIP3    H126937   0.980   2.608   0.246
 8991TIP3    H226938   1.035   2.508   0.345
 8992TIP3   OH226939   4.761   2.308   3.435
 8992TIP3    H126940   4.746   2.403   3.433
 8992TIP3    H226941   4.701   2.275   3.502
 8993TIP3   OH226942   2.750   5.184   3.074
 8993TIP3    H126943   2.770   5.267   3.117
 8993TIP3    H226944   2.725   5.126   3.146
 8994TIP3   OH226945   5.483   1.716   4.646
 8994TIP3    H126946   5.549   1.744   4.583
 8994TIP3    H226947   5.403   1.706   4.593
 8995TIP3   OH226948   1.550   5.428   2.228
 8995TIP3    H126949   1.643   5.450   2.230
 8995TIP3    H226950   1.548   5.333   2.229
 8996TIP3   OH226951   6.501   2.553   4.015
 8996TIP3    H126952   6.503   2.558   4.111
 8996TIP3    H226953   6.427   2.496   3.995
 8997TIP3   OH226954   2.485   6.707   1.427
 8997TIP3    H126955   2.407   6.689   1.375
 8997TIP3    H226956   2.500   6.801   1.417
 8998TIP3   OH226957   2.687   4.170   1.586
 8998TIP3    H126958   2.705   4.218   1.505
 8998TIP3    H226959   2.736   4.217   1.653
 8999TIP3   OH226960   5.961  -0.004   1.372
 8999TIP3    H126961   5.955   0.043   1.289
 8999TIP3    H226962   6.022   0.047   1.425
 9000TIP3   OH226963   2.254   1.393   0.123
 9000TIP3    H126964   2.210   1.476   0.107
 9000TIP3    H226965   2.268   1.392   0.218
 9001TIP3   OH226966   0.838   3.859   2.276
 9001TIP3    H126967   0.760   3.891   2.231
 9001TIP3    H226968   0.860   3.778   2.230
 9002TIP3   OH226969   0.500   6.713   2.957
 9002TIP3    H126970   0.553   6.740   2.882
 9002TIP3    H226971   0.493   6.618   2.948
 9003TIP3   OH226972   2.105   4.219   0.607
 9003TIP3    H126973   2.155   4.230   0.526
 9003TIP3    H226974   2.171   4.216   0.676
 9004TIP3   OH226975   3.454   3.739   5.410
 9004TIP3    H126976   3.438   3.771   5.321
 9004TIP3    H226977   3.374   3.691   5.433
 9005TIP3   OH226978   5.308   2.536   4.700
 9005TIP3    H126979   5.295   2.444   4.677
 9005TIP3    H226980   5.299   2.583   4.618
 9006TIP3   OH226981   0.928   4.268   0.711
 9006TIP3    H126982   0.876   4.346   0.729
 9006TIP3    H226983   0.965   4.284   0.624
 9007TIP3   OH226984   7.090   5.236   3.875
 9007TIP3    H126985   7.167   5.226   3.931
 9007TIP3    H226986   7.086   5.330   3.857
 9008TIP3   OH226987   5.324   6.724   1.334
 9008TIP3    H126988   5.335   6.817   1.314
 9008TIP3    H226989   5.406   6.700   1.378
 9009TIP3   OH226990   1.309   4.606   2.150
 9009TIP3    H126991   1.369   4.672   2.184
 9009TIP3    H226992   1.337   4.524   2.191
 9010TIP3   OH226993   3.548   5.213   1.545
 9010TIP3    H126994   3.596   5.136   1.516
 9010TIP3    H226995   3.583   5.233   1.632
 9011TIP3   OH226996   4.659   1.908   4.566
 9011TIP3    H126997   4.642   1.999   4.589
 9011TIP3    H226998   4.619   1.857   4.637
 9012TIP3   OH226999   5.009   0.958   3.803
 9012TIP3    H127000   5.097   0.990   3.780
 9012TIP3    H227001   4.995   0.883   3.746
 9013TIP3   OH227002   6.941   0.773   2.080
 9013TIP3    H127003   7.028   0.733   2.077
 9013TIP3    H227004   6.959   0.867   2.086
 9014TIP3   OH227005   2.757   5.381   0.289
 9014TIP3    H127006   2.774   5.430   0.209
 9014TIP3    H227007   2.684   5.427   0.330
 9015TIP3   OH227008   7.144   6.501   3.166
 9015TIP3    H127009   7.086   6.432   3.199
 9015TIP3    H227010   7.210   6.512   3.235
 9016TIP3   OH227011   7.040   1.947   5.752
 9016TIP3    H127012   7.052   2.024   5.697
 9016TIP3    H227013   7.039   1.874   5.690
 9017TIP3   OH227014   5.958   4.948   2.331
 9017TIP3    H127015   5.990   4.899   2.407
 9017TIP3    H227016   5.871   4.978   2.357
 9018TIP3   OH227017   3.171   0.463   3.234
 9018TIP3    H127018   3.235   0.397   3.205
 9018TIP3    H227019   3.113   0.416   3.293
 9019TIP3   OH227020   6.673   3.096   4.908
 9019TIP3    H127021   6.633   3.106   4.822
 9019TIP3    H227022   6.765   3.119   4.895
 9020TIP3   OH227023   2.326   6.692   3.720
 9020TIP3    H127024   2.353   6.765   3.776
 9020TIP3    H227025   2.239   6.718   3.688
 9021TIP3   OH227026   5.435   6.325   3.093
 9021TIP3    H127027   5.522   6.306   3.129
 9021TIP3    H227028   5.377   6.264   3.136
 9022TIP3   OH227029   1.654   2.477   3.055
 9022TIP3    H127030   1.748   2.467   3.040
 9022TIP3    H227031   1.641   2.449   3.145
 9023TIP3   OH227032   3.281   2.333   0.717
 9023TIP3    H127033   3.355   2.316   0.775
 9023TIP3    H227034   3.257   2.246   0.683
 9024TIP3   OH227035   5.081   3.652   2.978
 9024TIP3    H127036   5.043   3.735   3.007
 9024TIP3    H227037   5.126   3.673   2.896
 9025TIP3   OH227038   6.596   3.242   1.507
 9025TIP3    H127039   6.536   3.176   1.472
 9025TIP3    H227040   6.657   3.260   1.435
 9026TIP3   OH227041   4.560   5.930   4.394
 9026TIP3    H127042   4.569   5.862   4.327
 9026TIP3    H227043   4.608   6.005   4.359
 9027TIP3   OH227044   6.266   1.356   5.749
 9027TIP3    H127045   6.252   1.398   5.834
 9027TIP3    H227046   6.243   1.264   5.764
 9028TIP3   OH227047   6.539   1.666   3.917
 9028TIP3    H127048   6.480   1.692   3.846
 9028TIP3    H227049   6.580   1.585   3.886
 9029TIP3   OH227050   1.335   3.572   4.916
 9029TIP3    H127051   1.398   3.609   4.978
 9029TIP3    H227052   1.389   3.537   4.845
 9030TIP3   OH227053   0.856   0.689   0.270
 9030TIP3    H127054   0.896   0.714   0.187
 9030TIP3    H227055   0.793   0.620   0.246
 9031TIP3   OH227056   1.117   5.556   4.722
 9031TIP3    H127057   1.027   5.586   4.709
 9031TIP3    H227058   1.163   5.581   4.642
 9032TIP3   OH227059   1.201   2.225   0.534
 9032TIP3    H127060   1.285   2.259   0.565
 9032TIP3    H227061   1.136   2.283   0.573
 9033TIP3   OH227062   6.999   5.940   0.206
 9033TIP3    H127063   6.956   5.855   0.211
 9033TIP3    H227064   6.946   5.997   0.261
 9034TIP3   OH227065   0.230   3.867   4.653
 9034TIP3    H127066   0.157   3.925   4.671
 9034TIP3    H227067   0.238   3.814   4.732
 9035TIP3   OH227068   4.131   0.036   0.844
 9035TIP3    H127069   4.119   0.104   0.910
 9035TIP3    H227070   4.205   0.066   0.791
 9036TIP3   OH227071   6.372   4.676   1.406
 9036TIP3    H127072   6.321   4.757   1.405
 9036TIP3    H227073   6.415   4.676   1.491
 9037TIP3   OH227074   4.386   1.637   5.425
 9037TIP3    H127075   4.308   1.606   5.379
 9037TIP3    H227076   4.395   1.729   5.397
 9038TIP3   OH227077   0.507   2.845   1.472
 9038TIP3    H127078   0.495   2.867   1.380
 9038TIP3    H227079   0.585   2.894   1.499
 9039TIP3   OH227080   3.521   2.294   1.842
 9039TIP3    H127081   3.600   2.337   1.875
 9039TIP3    H227082   3.505   2.223   1.904
 9040TIP3   OH227083   3.136   3.072   5.712
 9040TIP3    H127084   3.152   3.108   5.625
 9040TIP3    H227085   3.042   3.086   5.728
 9041TIP3   OH227086   6.137   3.602   4.469
 9041TIP3    H127087   6.067   3.666   4.451
 9041TIP3    H227088   6.107   3.555   4.546
 9042TIP3   OH227089   6.445   5.472   2.234
 9042TIP3    H127090   6.408   5.483   2.146
 9042TIP3    H227091   6.525   5.526   2.233
 9043TIP3   OH227092   1.634   2.791   5.118
 9043TIP3    H127093   1.720   2.808   5.157
 9043TIP3    H227094   1.572   2.818   5.186
 9044TIP3   OH227095   1.293   3.226   1.987
 9044TIP3    H127096   1.302   3.276   2.068
 9044TIP3    H227097   1.362   3.161   1.990
 9045TIP3   OH227098   6.264   3.208   3.398
 9045TIP3    H127099   6.247   3.124   3.441
 9045TIP3    H227100   6.211   3.271   3.446
 9046TIP3   OH227101   4.961   1.853   5.765
 9046TIP3    H127102   4.922   1.848   5.678
 9046TIP3    H227103   4.898   1.901   5.817
 9047TIP3   OH227104   3.212   3.735   4.458
 9047TIP3    H127105   3.290   3.787   4.437
 9047TIP3    H227106   3.139   3.793   4.438
 9048TIP3   OH227107   6.252   5.933   4.133
 9048TIP3    H127108   6.283   5.864   4.192
 9048TIP3    H227109   6.157   5.937   4.148
 9049TIP3   OH227110   0.127   3.431   1.920
 9049TIP3    H127111   0.159   3.346   1.890
 9049TIP3    H227112   0.042   3.441   1.878
 9050TIP3   OH227113   1.961   6.097   2.217
 9050TIP3    H127114   1.945   6.075   2.309
 9050TIP3    H227115   1.968   6.192   2.216
 9051TIP3   OH227116   5.698   4.921   0.032
 9051TIP3    H127117   5.731   4.981  -0.035
 9051TIP3    H227118   5.772   4.863   0.052
 9052TIP3   OH227119   4.472   1.431   1.329
 9052TIP3    H127120   4.408   1.425   1.400
 9052TIP3    H227121   4.545   1.375   1.356
 9053TIP3   OH227122   0.743   1.853   4.923
 9053TIP3    H127123   0.739   1.757   4.919
 9053TIP3    H227124   0.778   1.871   5.010
 9054TIP3   OH227125   3.122   0.483   2.950
 9054TIP3    H127126   3.121   0.454   3.041
 9054TIP3    H227127   3.197   0.438   2.911
 9055TIP3   OH227128   5.342   1.996   1.027
 9055TIP3    H127129   5.339   2.009   0.932
 9055TIP3    H227130   5.284   1.922   1.043
 9056TIP3   OH227131   4.542   5.189   3.066
 9056TIP3    H127132   4.477   5.205   3.135
 9056TIP3    H227133   4.490   5.176   2.987
 9057TIP3   OH227134   2.638   1.944   1.157
 9057TIP3    H127135   2.602   2.032   1.162
 9057TIP3    H227136   2.673   1.927   1.244
 9058TIP3   OH227137   6.686   3.662   0.783
 9058TIP3    H127138   6.602   3.707   0.786
 9058TIP3    H227139   6.736   3.700   0.855
 9059TIP3   OH227140   3.358   4.182   0.846
 9059TIP3    H127141   3.340   4.149   0.758
 9059TIP3    H227142   3.292   4.249   0.860
 9060TIP3   OH227143   0.621   1.468   3.342
 9060TIP3    H127144   0.607   1.376   3.321
 9060TIP3    H227145   0.681   1.467   3.417
 9061TIP3   OH227146   5.242   5.209   4.316
 9061TIP3    H127147   5.213   5.293   4.279
 9061TIP3    H227148   5.285   5.165   4.243
 9062TIP3   OH227149   0.355   0.401   0.364
 9062TIP3    H127150   0.449   0.386   0.358
 9062TIP3    H227151   0.340   0.423   0.455
 9063TIP3   OH227152   0.991   6.331   0.340
 9063TIP3    H127153   0.932   6.322   0.265
 9063TIP3    H227154   0.972   6.254   0.394
 9064TIP3   OH227155   5.119   1.608   2.151
 9064TIP3    H127156   5.193   1.669   2.157
 9064TIP3    H227157   5.107   1.576   2.241
 9065TIP3   OH227158   5.707   2.713   4.356
 9065TIP3    H127159   5.632   2.656   4.374
 9065TIP3    H227160   5.683   2.760   4.276
 9066TIP3   OH227161   6.859   3.806   3.838
 9066TIP3    H127162   6.907   3.843   3.763
 9066TIP3    H227163   6.892   3.854   3.914
 9067TIP3   OH227164   5.197   3.854   2.346
 9067TIP3    H127165   5.210   3.773   2.298
 9067TIP3    H227166   5.125   3.836   2.406
 9068TIP3   OH227167   1.790   5.219   4.992
 9068TIP3    H127168   1.806   5.127   5.012
 9068TIP3    H227169   1.822   5.229   4.902
 9069TIP3   OH227170   3.425   6.364   3.544
 9069TIP3    H127171   3.372   6.291   3.512
 9069TIP3    H227172   3.402   6.372   3.636
 9070TIP3   OH227173   1.113   3.920   0.547
 9070TIP3    H127174   1.148   3.836   0.576
 9070TIP3    H227175   1.132   3.981   0.619
 9071TIP3   OH227176   2.804   6.468  -0.002
 9071TIP3    H127177   2.851   6.459   0.081
 9071TIP3    H227178   2.810   6.561  -0.023
 9072TIP3   OH227179   6.509   2.786   0.457
 9072TIP3    H127180   6.549   2.797   0.543
 9072TIP3    H227181   6.512   2.691   0.442
 9073TIP3   OH227182   2.822   4.292   4.541
 9073TIP3    H127183   2.772   4.343   4.477
 9073TIP3    H227184   2.794   4.202   4.526
 9074TIP3   OH227185   4.955   3.304   2.682
 9074TIP3    H127186   4.990   3.370   2.622
 9074TIP3    H227187   4.938   3.228   2.627
 9075TIP3   OH227188   6.118   5.194   3.304
 9075TIP3    H127189   6.029   5.181   3.270
 9075TIP3    H227190   6.172   5.138   3.248
 9076TIP3   OH227191   0.314   3.752   4.078
 9076TIP3    H127192   0.379   3.810   4.118
 9076TIP3    H227193   0.339   3.664   4.106
 9077TIP3   OH227194   6.269   6.215   3.794
 9077TIP3    H127195   6.309   6.212   3.707
 9077TIP3    H227196   6.314   6.286   3.839
 9078TIP3   OH227197   5.770   6.627   4.782
 9078TIP3    H127198   5.674   6.633   4.774
 9078TIP3    H227199   5.797   6.715   4.807
 9079TIP3   OH227200   2.006   5.917   5.847
 9079TIP3    H127201   2.075   5.883   5.903
 9079TIP3    H227202   1.940   5.951   5.908
 9080TIP3   OH227203   2.576   0.600   0.545
 9080TIP3    H127204   2.536   0.518   0.517
 9080TIP3    H227205   2.665   0.597   0.509
 9081TIP3   OH227206   0.884   1.241   5.539
 9081TIP3    H127207   0.955   1.177   5.533
 9081TIP3    H227208   0.883   1.265   5.632
 9082TIP3   OH227209   0.866   2.556   4.511
 9082TIP3    H127210   0.918   2.626   4.550
 9082TIP3    H227211   0.927   2.511   4.452
 9083TIP3   OH227212   0.730   5.983   0.124
 9083TIP3    H127213   0.635   5.969   0.122
 9083TIP3    H227214   0.757   5.973   0.033
 9084TIP3   OH227215   2.801   5.092   5.853
 9084TIP3    H127216   2.778   5.162   5.913
 9084TIP3    H227217   2.879   5.123   5.808
 9085TIP3   OH227218   0.893   4.415   1.412
 9085TIP3    H127219   0.861   4.380   1.496
 9085TIP3    H227220   0.985   4.391   1.410
 9086TIP3   OH227221   6.523   0.880   0.450
 9086TIP3    H127222   6.449   0.820   0.459
 9086TIP3    H227223   6.541   0.882   0.355
 9087TIP3   OH227224   5.536   4.729   3.351
 9087TIP3    H127225   5.465   4.669   3.375
 9087TIP3    H227226   5.582   4.748   3.433
 9088TIP3   OH227227   2.603   3.199   2.861
 9088TIP3    H127228   2.528   3.143   2.841
 9088TIP3    H227229   2.657   3.196   2.782
 9089TIP3   OH227230   6.727   4.906   0.990
 9089TIP3    H127231   6.772   4.836   1.036
 9089TIP3    H227232   6.717   4.873   0.900
 9090TIP3   OH227233   2.282   1.198   5.857
 9090TIP3    H127234   2.317   1.265   5.799
 9090TIP3    H227235   2.345   1.195   5.930
 9091TIP3   OH227236   5.893   0.388   0.497
 9091TIP3    H127237   5.915   0.471   0.539
 9091TIP3    H227238   5.835   0.343   0.558
 9092TIP3   OH227239   0.343   0.959   4.242
 9092TIP3    H127240   0.378   0.978   4.155
 9092TIP3    H227241   0.306   0.871   4.235
 9093TIP3   OH227242   0.979   2.711   2.317
 9093TIP3    H127243   0.991   2.692   2.224
 9093TIP3    H227244   0.889   2.744   2.323
 9094TIP3   OH227245   6.846   6.154   0.636
 9094TIP3    H127246   6.839   6.069   0.593
 9094TIP3    H227247   6.803   6.215   0.576
 9095TIP3   OH227248   0.719   1.020   4.823
 9095TIP3    H127249   0.791   0.967   4.790
 9095TIP3    H227250   0.751   1.054   4.907
 9096TIP3   OH227251   7.037   3.625   2.880
 9096TIP3    H127252   7.062   3.586   2.963
 9096TIP3    H227253   6.941   3.625   2.881
 9097TIP3   OH227254   0.240   0.304   1.395
 9097TIP3    H127255   0.254   0.384   1.344
 9097TIP3    H227256   0.224   0.334   1.484
 9098TIP3   OH227257   0.620   0.496   4.174
 9098TIP3    H127258   0.624   0.516   4.268
 9098TIP3    H227259   0.681   0.424   4.162
 9099TIP3   OH227260   3.651   5.645   4.991
 9099TIP3    H127261   3.583   5.656   5.058
 9099TIP3    H227262   3.621   5.571   4.939
 9100TIP3   OH227263   3.555   5.469   0.799
 9100TIP3    H127264   3.533   5.535   0.734
 9100TIP3    H227265   3.601   5.518   0.868
 9101TIP3   OH227266   6.916   4.111   0.204
 9101TIP3    H127267   6.926   4.159   0.122
 9101TIP3    H227268   6.935   4.020   0.181
 9102TIP3   OH227269   1.250   6.627   5.174
 9102TIP3    H127270   1.339   6.611   5.142
 9102TIP3    H227271   1.235   6.720   5.156
 9103TIP3   OH227272   0.338   1.749   2.548
 9103TIP3    H127273   0.327   1.843   2.555
 9103TIP3    H227274   0.431   1.734   2.562
 9104TIP3   OH227275   4.184   5.479   5.177
 9104TIP3    H127276   4.272   5.457   5.147
 9104TIP3    H227277   4.185   5.575   5.186
 9105TIP3   OH227278   2.687   1.758   2.041
 9105TIP3    H127279   2.747   1.769   1.968
 9105TIP3    H227280   2.740   1.718   2.110
 9106TIP3   OH227281   5.886   4.341   1.304
 9106TIP3    H127282   5.910   4.374   1.217
 9106TIP3    H227283   5.892   4.246   1.296
 9107TIP3   OH227284   0.517   6.370   2.175
 9107TIP3    H127285   0.537   6.309   2.245
 9107TIP3    H227286   0.594   6.427   2.170
 9108TIP3   OH227287   2.077   0.921   2.112
 9108TIP3    H127288   1.997   0.897   2.064
 9108TIP3    H227289   2.084   0.856   2.181
 9109TIP3   OH227290   3.646   2.995   2.956
 9109TIP3    H127291   3.652   3.038   3.041
 9109TIP3    H227292   3.598   2.914   2.974
 9110TIP3   OH227293   5.646   5.200   1.649
 9110TIP3    H127294   5.586   5.180   1.578
 9110TIP3    H227295   5.666   5.114   1.688
 9111TIP3   OH227296   1.282   3.295   5.233
 9111TIP3    H127297   1.374   3.304   5.259
 9111TIP3    H227298   1.278   3.211   5.188
 9112TIP3   OH227299   0.825   0.308   5.478
 9112TIP3    H127300   0.765   0.235   5.494
 9112TIP3    H227301   0.807   0.335   5.388
 9113TIP3   OH227302   3.648   2.548   0.752
 9113TIP3    H127303   3.627   2.584   0.838
 9113TIP3    H227304   3.737   2.515   0.761
 9114TIP3   OH227305   6.202   0.198   5.272
 9114TIP3    H127306   6.238   0.196   5.184
 9114TIP3    H227307   6.143   0.122   5.275
 9115TIP3   OH227308   5.619   0.268   5.607
 9115TIP3    H127309   5.540   0.269   5.661
 9115TIP3    H227310   5.680   0.212   5.655
 9116TIP3   OH227311   1.630   4.418   5.133
 9116TIP3    H127312   1.684   4.494   5.152
 9116TIP3    H227313   1.681   4.343   5.164
 9117TIP3   OH227314   5.406   4.140   5.112
 9117TIP3    H127315   5.382   4.121   5.021
 9117TIP3    H227316   5.499   4.162   5.108
 9118TIP3   OH227317   5.312   0.239   5.634
 9118TIP3    H127318   5.250   0.168   5.618
 9118TIP3    H227319   5.304   0.258   5.727
 9119TIP3   OH227320   2.719   3.625   1.457
 9119TIP3    H127321   2.708   3.681   1.534
 9119TIP3    H227322   2.806   3.586   1.468
 9120TIP3   OH227323   6.292   0.183   5.534
 9120TIP3    H127324   6.214   0.159   5.583
 9120TIP3    H227325   6.259   0.223   5.454
 9121TIP3   OH227326   4.445   0.600   5.435
 9121TIP3    H127327   4.495   0.519   5.428
 9121TIP3    H227328   4.479   0.643   5.513
 9122TIP3   OH227329   7.076   6.352   5.690
 9122TIP3    H127330   7.107   6.372   5.601
 9122TIP3    H227331   7.144   6.296   5.727
 9123TIP3   OH227332   6.499   4.600   2.157
 9123TIP3    H127333   6.550   4.633   2.231
 9123TIP3    H227334   6.526   4.508   2.149
 9124TIP3   OH227335   2.328   6.311   3.988
 9124TIP3    H127336   2.301   6.341   4.075
 9124TIP3    H227337   2.287   6.373   3.928
 9125TIP3   OH227338   4.019   4.006   5.874
 9125TIP3    H127339   4.056   4.076   5.820
 9125TIP3    H227340   3.934   3.987   5.835
 9126TIP3   OH227341   3.628   2.099   0.407
 9126TIP3    H127342   3.611   2.191   0.431
 9126TIP3    H227343   3.716   2.082   0.440
 9127TIP3   OH227344   5.353   4.378   0.458
 9127TIP3    H127345   5.410   4.454   0.472
 9127TIP3    H227346   5.348   4.336   0.544
 9128TIP3   OH227347   3.888   0.407   0.054
 9128TIP3    H127348   3.956   0.471   0.035
 9128TIP3    H227349   3.808   0.444   0.016
 9129TIP3   OH227350   1.172   3.672   0.656
 9129TIP3    H127351   1.196   3.581   0.643
 9129TIP3    H227352   1.185   3.688   0.749
 9130TIP3   OH227353   2.904   5.492   1.437
 9130TIP3    H127354   2.963   5.519   1.367
 9130TIP3    H227355   2.869   5.574   1.473
 9131TIP3   OH227356   2.415   6.092   0.375
 9131TIP3    H127357   2.389   6.114   0.286
 9131TIP3    H227358   2.392   6.169   0.427
 9132TIP3   OH227359   7.014   2.250   1.159
 9132TIP3    H127360   6.976   2.287   1.238
 9132TIP3    H227361   7.038   2.161   1.182
 9133TIP3   OH227362   2.996   2.860   4.061
 9133TIP3    H127363   3.002   2.923   3.988
 9133TIP3    H227364   2.902   2.853   4.079
 9134TIP3   OH227365   2.645   6.389   0.507
 9134TIP3    H127366   2.582   6.332   0.463
 9134TIP3    H227367   2.702   6.329   0.555
 9135TIP3   OH227368   3.638   6.745   0.007
 9135TIP3    H127369   3.688   6.731   0.088
 9135TIP3    H227370   3.623   6.657  -0.027
 9136TIP3   OH227371   6.004   0.774   2.164
 9136TIP3    H127372   5.921   0.817   2.145
 9136TIP3    H227373   5.998   0.750   2.256
 9137TIP3   OH227374   1.354   6.458   2.985
 9137TIP3    H127375   1.337   6.375   3.028
 9137TIP3    H227376   1.427   6.441   2.926
 9138TIP3   OH227377   0.060   6.739   5.365
 9138TIP3    H127378  -0.026   6.765   5.399
 9138TIP3    H227379   0.065   6.645   5.383
 9139TIP3   OH227380   5.054   3.527   4.299
 9139TIP3    H127381   5.061   3.512   4.204
 9139TIP3    H227382   5.067   3.441   4.338
 9140TIP3   OH227383   4.476   3.660   4.991
 9140TIP3    H127384   4.552   3.603   4.982
 9140TIP3    H227385   4.461   3.665   5.085
 9141TIP3   OH227386   4.394   4.108   3.952
 9141TIP3    H127387   4.308   4.068   3.967
 9141TIP3    H227388   4.385   4.150   3.866
 9142TIP3   OH227389   7.018   0.371   5.045
 9142TIP3    H127390   7.081   0.329   5.102
 9142TIP3    H227391   7.027   0.465   5.064
 9143TIP3   OH227392   5.993   1.347   3.121
 9143TIP3    H127393   6.044   1.271   3.093
 9143TIP3    H227394   5.902   1.318   3.118
 9144TIP3   OH227395   5.953   1.587   2.446
 9144TIP3    H127396   5.992   1.643   2.513
 9144TIP3    H227397   6.011   1.596   2.370
 9145TIP3   OH227398   5.308   0.246   5.149
 9145TIP3    H127399   5.259   0.324   5.175
 9145TIP3    H227400   5.241   0.178   5.138
 9146TIP3   OH227401   5.118   3.023   2.306
 9146TIP3    H127402   5.061   2.973   2.248
 9146TIP3    H227403   5.107   2.980   2.392
 9147TIP3   OH227404   1.085   1.859   1.563
 9147TIP3    H127405   1.029   1.808   1.504
 9147TIP3    H227406   1.031   1.934   1.589
 9148TIP3   OH227407   5.412   4.821   2.802
 9148TIP3    H127408   5.370   4.903   2.774
 9148TIP3    H227409   5.385   4.812   2.894
 9149TIP3   OH227410   2.301   3.376   1.495
 9149TIP3    H127411   2.219   3.424   1.507
 9149TIP3    H227412   2.367   3.444   1.485
 9150TIP3   OH227413   4.260   0.047   0.283
 9150TIP3    H127414   4.282   0.081   0.370
 9150TIP3    H227415   4.170   0.077   0.267
 9151TIP3   OH227416   4.102   5.151   1.069
 9151TIP3    H127417   4.181   5.200   1.048
 9151TIP3    H227418   4.057   5.140   0.985
 9152TIP3   OH227419   3.204   1.022   3.266
 9152TIP3    H127420   3.293   1.054   3.287
 9152TIP3    H227421   3.218   0.938   3.223
 9153TIP3   OH227422   1.414   0.570   0.959
 9153TIP3    H127423   1.402   0.641   0.897
 9153TIP3    H227424   1.326   0.533   0.970
 9154TIP3   OH227425   0.162   3.168   1.320
 9154TIP3    H127426   0.241   3.221   1.324
 9154TIP3    H227427   0.191   3.079   1.340
 9155TIP3   OH227428   1.400   1.984   5.318
 9155TIP3    H127429   1.482   2.034   5.321
 9155TIP3    H227430   1.417   1.914   5.255
 9156TIP3   OH227431   5.900   4.519   0.389
 9156TIP3    H127432   5.906   4.533   0.483
 9156TIP3    H227433   5.990   4.529   0.358
 9157TIP3   OH227434   6.410   5.935   2.602
 9157TIP3    H127435   6.419   5.870   2.672
 9157TIP3    H227436   6.393   5.884   2.523
 9158TIP3   OH227437   4.982   3.517   2.525
 9158TIP3    H127438   5.006   3.583   2.589
 9158TIP3    H227439   4.887   3.515   2.526
 9159TIP3   OH227440   7.075   0.629   4.047
 9159TIP3    H127441   7.041   0.630   3.957
 9159TIP3    H227442   7.093   0.721   4.066
 9160TIP3   OH227443   1.436   3.630   2.818
 9160TIP3    H127444   1.449   3.723   2.799
 9160TIP3    H227445   1.361   3.628   2.878
 9161TIP3   OH227446   5.940   1.857   4.874
 9161TIP3    H127447   5.928   1.824   4.785
 9161TIP3    H227448   5.928   1.951   4.867
 9162TIP3   OH227449   1.742   2.110   3.760
 9162TIP3    H127450   1.761   2.177   3.694
 9162TIP3    H227451   1.649   2.091   3.749
 9163TIP3   OH227452   3.432   6.077   5.102
 9163TIP3    H127453   3.445   6.107   5.012
 9163TIP3    H227454   3.373   6.002   5.095
 9164TIP3   OH227455   2.139   0.006   0.039
 9164TIP3    H127456   2.206   0.073   0.053
 9164TIP3    H227457   2.183  -0.063  -0.011
 9165TIP3   OH227458   0.455   4.857   1.266
 9165TIP3    H127459   0.537   4.824   1.229
 9165TIP3    H227460   0.421   4.784   1.317
 9166TIP3   OH227461   3.764   0.537   2.841
 9166TIP3    H127462   3.712   0.618   2.837
 9166TIP3    H227463   3.841   0.556   2.788
 9167TIP3   OH227464   4.671   4.698   4.292
 9167TIP3    H127465   4.665   4.772   4.351
 9167TIP3    H227466   4.597   4.642   4.315
 9168TIP3   OH227467   1.625   4.517   1.847
 9168TIP3    H127468   1.707   4.505   1.894
 9168TIP3    H227469   1.600   4.608   1.864
 9169TIP3   OH227470   3.694   5.063   2.429
 9169TIP3    H127471   3.604   5.089   2.447
 9169TIP3    H227472   3.747   5.123   2.482
 9170TIP3   OH227473   3.037   1.358   3.034
 9170TIP3    H127474   3.033   1.264   3.051
 9170TIP3    H227475   3.066   1.364   2.942
 9171TIP3   OH227476   4.679   3.445   0.427
 9171TIP3    H127477   4.727   3.486   0.499
 9171TIP3    H227478   4.713   3.488   0.348
 9172TIP3   OH227479   6.130   3.410   5.712
 9172TIP3    H127480   6.189   3.378   5.643
 9172TIP3    H227481   6.051   3.357   5.703
 9173TIP3   OH227482   4.034   4.131   2.378
 9173TIP3    H127483   4.012   4.225   2.383
 9173TIP3    H227484   4.118   4.128   2.333
 9174TIP3   OH227485   3.287   1.902   2.335
 9174TIP3    H127486   3.359   1.901   2.398
 9174TIP3    H227487   3.304   1.979   2.281
 9175TIP3   OH227488   1.236   2.161   4.410
 9175TIP3    H127489   1.331   2.166   4.396
 9175TIP3    H227490   1.226   2.148   4.504
 9176TIP3   OH227491   1.004   0.451   4.641
 9176TIP3    H127492   1.035   0.524   4.588
 9176TIP3    H227493   1.018   0.374   4.585
 9177TIP3   OH227494   0.703   5.911   2.058
 9177TIP3    H127495   0.793   5.904   2.090
 9177TIP3    H227496   0.668   5.822   2.063
 9178TIP3   OH227497   1.461   3.891   2.775
 9178TIP3    H127498   1.370   3.910   2.750
 9178TIP3    H227499   1.505   3.976   2.772
 9179TIP3   OH227500   6.913   0.731   5.321
 9179TIP3    H127501   6.900   0.689   5.407
 9179TIP3    H227502   6.970   0.805   5.340
 9180TIP3   OH227503   2.848   0.750   5.752
 9180TIP3    H127504   2.943   0.753   5.741
 9180TIP3    H227505   2.813   0.745   5.663
 9181TIP3   OH227506   6.435   2.242   3.008
 9181TIP3    H127507   6.379   2.164   3.006
 9181TIP3    H227508   6.400   2.295   3.079
 9182TIP3   OH227509   7.074   5.128   1.439
 9182TIP3    H127510   6.986   5.098   1.464
 9182TIP3    H227511   7.122   5.133   1.521
 9183TIP3   OH227512   5.113   0.021   2.455
 9183TIP3    H127513   5.039   0.043   2.399
 9183TIP3    H227514   5.186   0.009   2.395
 9184TIP3   OH227515   2.032   5.068   1.747
 9184TIP3    H127516   1.964   5.002   1.752
 9184TIP3    H227517   2.060   5.079   1.838
 9185TIP3   OH227518   5.725   4.278   5.176
 9185TIP3    H127519   5.669   4.355   5.185
 9185TIP3    H227520   5.731   4.264   5.082
 9186TIP3   OH227521   4.068   2.000   2.704
 9186TIP3    H127522   4.099   1.960   2.623
 9186TIP3    H227523   4.016   1.931   2.747
 9187TIP3   OH227524   4.165   3.287   5.367
 9187TIP3    H127525   4.150   3.193   5.358
 9187TIP3    H227526   4.081   3.327   5.346
 9188TIP3   OH227527   6.236   5.247   0.692
 9188TIP3    H127528   6.169   5.315   0.695
 9188TIP3    H227529   6.187   5.165   0.691
 9189TIP3   OH227530   0.391   6.003   3.422
 9189TIP3    H127531   0.351   5.918   3.441
 9189TIP3    H227532   0.317   6.061   3.407
 9190TIP3   OH227533   1.910   5.776   1.527
 9190TIP3    H127534   1.856   5.791   1.449
 9190TIP3    H227535   1.856   5.720   1.582
 9191TIP3   OH227536   6.640   0.483   0.836
 9191TIP3    H127537   6.724   0.527   0.851
 9191TIP3    H227538   6.576   0.554   0.834
 9192TIP3   OH227539   6.252   4.578   2.404
 9192TIP3    H127540   6.187   4.603   2.338
 9192TIP3    H227541   6.327   4.634   2.386
 9193TIP3   OH227542   5.042   3.589   2.260
 9193TIP3    H127543   4.964   3.562   2.212
 9193TIP3    H227544   5.023   3.568   2.352
 9194TIP3   OH227545   0.088   2.570   4.021
 9194TIP3    H127546   0.029   2.497   4.001
 9194TIP3    H227547   0.109   2.608   3.935
 9195TIP3   OH227548   5.936   1.361   3.931
 9195TIP3    H127549   6.011   1.310   3.961
 9195TIP3    H227550   5.934   1.437   3.990
 9196TIP3   OH227551   5.549   6.784   1.815
 9196TIP3    H127552   5.490   6.724   1.860
 9196TIP3    H227553   5.495   6.858   1.792
 9197TIP3   OH227554   4.001   1.980   4.715
 9197TIP3    H127555   4.093   1.956   4.704
 9197TIP3    H227556   3.983   2.040   4.642
 9198TIP3   OH227557   2.817   4.244   1.806
 9198TIP3    H127558   2.807   4.211   1.895
 9198TIP3    H227559   2.912   4.250   1.793
 9199TIP3   OH227560   4.548   4.097   2.755
 9199TIP3    H127561   4.521   4.178   2.797
 9199TIP3    H227562   4.502   4.028   2.803
 9200TIP3   OH227563   6.830   4.043   4.297
 9200TIP3    H127564   6.801   4.112   4.356
 9200TIP3    H227565   6.912   4.011   4.335
 9201TIP3   OH227566   6.845   1.823   0.987
 9201TIP3    H127567   6.800   1.746   1.022
 9201TIP3    H227568   6.868   1.874   1.064
 9202TIP3   OH227569   3.768   5.587   5.581
 9202TIP3    H127570   3.845   5.598   5.526
 9202TIP3    H227571   3.767   5.493   5.601
 9203TIP3   OH227572   5.319   3.424   2.012
 9203TIP3    H127573   5.259   3.367   2.059
 9203TIP3    H227574   5.406   3.386   2.027
 9204TIP3   OH227575   6.293   2.411   3.880
 9204TIP3    H127576   6.351   2.371   3.815
 9204TIP3    H227577   6.255   2.486   3.835
 9205TIP3   OH227578   2.474   4.958   3.456
 9205TIP3    H127579   2.494   4.869   3.427
 9205TIP3    H227580   2.557   4.992   3.489
 9206TIP3   OH227581   1.643   6.755   0.067
 9206TIP3    H127582   1.649   6.696  -0.008
 9206TIP3    H227583   1.613   6.838   0.031
 9207TIP3   OH227584   2.174   5.122   4.085
 9207TIP3    H127585   2.113   5.059   4.123
 9207TIP3    H227586   2.173   5.196   4.146
 9208TIP3   OH227587   4.529   3.499   0.026
 9208TIP3    H127588   4.462   3.568   0.033
 9208TIP3    H227589   4.478   3.418   0.019
 9209TIP3   OH227590   0.384   1.308   3.564
 9209TIP3    H127591   0.299   1.283   3.601
 9209TIP3    H227592   0.416   1.377   3.622
 9210TIP3   OH227593   7.140   1.459   5.058
 9210TIP3    H127594   7.119   1.552   5.046
 9210TIP3    H227595   7.075   1.427   5.120
 9211TIP3   OH227596   1.664   6.092   2.221
 9211TIP3    H127597   1.735   6.128   2.168
 9211TIP3    H227598   1.652   6.003   2.187
 9212TIP3   OH227599   3.223   1.230   0.953
 9212TIP3    H127600   3.235   1.183   0.870
 9212TIP3    H227601   3.128   1.236   0.964
 9213TIP3   OH227602   6.057   6.148   4.408
 9213TIP3    H127603   6.062   6.055   4.384
 9213TIP3    H227604   6.011   6.149   4.492
 9214TIP3   OH227605   2.055   4.148   0.960
 9214TIP3    H127606   1.965   4.128   0.934
 9214TIP3    H227607   2.046   4.221   1.021
 9215TIP3   OH227608   4.283   0.587   0.942
 9215TIP3    H127609   4.341   0.630   0.879
 9215TIP3    H227610   4.322   0.605   1.027
 9216TIP3   OH227611   4.021   5.898   0.823
 9216TIP3    H127612   3.928   5.878   0.812
 9216TIP3    H227613   4.025   5.950   0.903
 9217TIP3   OH227614   3.442   6.145   2.330
 9217TIP3    H127615   3.418   6.141   2.422
 9217TIP3    H227616   3.507   6.075   2.319
 9218TIP3   OH227617   4.930   2.237   1.204
 9218TIP3    H127618   5.009   2.184   1.218
 9218TIP3    H227619   4.863   2.197   1.259
 9219TIP3   OH227620   3.761   2.392   3.424
 9219TIP3    H127621   3.725   2.386   3.512
 9219TIP3    H227622   3.694   2.436   3.373
 9220TIP3   OH227623   5.768   1.260   4.846
 9220TIP3    H127624   5.836   1.324   4.826
 9220TIP3    H227625   5.760   1.262   4.941
 9221TIP3   OH227626   6.776   4.118   5.015
 9221TIP3    H127627   6.693   4.159   5.041
 9221TIP3    H227628   6.754   4.027   4.996
 9222TIP3   OH227629   3.145   1.483   4.390
 9222TIP3    H127630   3.072   1.460   4.333
 9222TIP3    H227631   3.104   1.503   4.474
 9223TIP3   OH227632   2.744   3.022   3.170
 9223TIP3    H127633   2.673   2.995   3.112
 9223TIP3    H227634   2.814   3.051   3.111
 9224TIP3   OH227635   0.403   6.819   0.894
 9224TIP3    H127636   0.403   6.754   0.824
 9224TIP3    H227637   0.467   6.884   0.865
 9225TIP3   OH227638   3.204   6.600   4.415
 9225TIP3    H127639   3.204   6.546   4.336
 9225TIP3    H227640   3.291   6.588   4.453
 9226TIP3   OH227641   4.836   1.048   0.176
 9226TIP3    H127642   4.845   1.143   0.167
 9226TIP3    H227643   4.830   1.034   0.271
 9227TIP3   OH227644  -0.008   0.763   1.965
 9227TIP3    H127645   0.061   0.800   2.020
 9227TIP3    H227646  -0.031   0.834   1.904
 9228TIP3   OH227647   6.844   0.726   1.807
 9228TIP3    H127648   6.908   0.655   1.806
 9228TIP3    H227649   6.848   0.760   1.897
 9229TIP3   OH227650   5.492   4.477   1.873
 9229TIP3    H127651   5.520   4.562   1.905
 9229TIP3    H227652   5.565   4.418   1.892
 9230TIP3   OH227653   6.085   1.309   4.282
 9230TIP3    H127654   6.133   1.282   4.204
 9230TIP3    H227655   6.118   1.252   4.351
 9231TIP3   OH227656   2.977   0.490   0.155
 9231TIP3    H127657   2.970   0.432   0.079
 9231TIP3    H227658   3.029   0.441   0.218
 9232TIP3   OH227659   6.104   4.729   5.753
 9232TIP3    H127660   6.008   4.731   5.751
 9232TIP3    H227661   6.128   4.788   5.824
 9233TIP3   OH227662   1.222   3.004   2.938
 9233TIP3    H127663   1.214   3.037   3.027
 9233TIP3    H227664   1.281   3.065   2.894
 9234TIP3   OH227665   7.045   5.654   2.725
 9234TIP3    H127666   7.083   5.715   2.788
 9234TIP3    H227667   7.049   5.569   2.769
 9235TIP3   OH227668   6.387   2.702   3.081
 9235TIP3    H127669   6.320   2.652   3.035
 9235TIP3    H227670   6.458   2.712   3.017
 9236TIP3   OH227671   2.577   0.372   1.214
 9236TIP3    H127672   2.544   0.430   1.145
 9236TIP3    H227673   2.550   0.415   1.295
 9237TIP3   OH227674   6.569   0.132   5.840
 9237TIP3    H127675   6.473   0.138   5.834
 9237TIP3    H227676   6.585   0.042   5.867
 9238TIP3   OH227677   1.831   0.459   2.366
 9238TIP3    H127678   1.892   0.426   2.433
 9238TIP3    H227679   1.767   0.510   2.415
 9239TIP3   OH227680   0.699   5.674   0.911
 9239TIP3    H127681   0.734   5.677   0.822
 9239TIP3    H227682   0.668   5.762   0.928
 9240TIP3   OH227683   5.778   2.142   0.798
 9240TIP3    H127684   5.732   2.216   0.837
 9240TIP3    H227685   5.725   2.118   0.721
 9241TIP3   OH227686   3.609   2.247   3.852
 9241TIP3    H127687   3.572   2.160   3.836
 9241TIP3    H227688   3.646   2.241   3.941
 9242TIP3   OH227689   6.439   1.523   1.989
 9242TIP3    H127690   6.386   1.599   2.013
 9242TIP3    H227691   6.412   1.455   2.051
 9243TIP3   OH227692   2.510   3.144   1.954
 9243TIP3    H127693   2.521   3.050   1.967
 9243TIP3    H227694   2.422   3.153   1.918
 9244TIP3   OH227695   1.815  -0.011   4.884
 9244TIP3    H127696   1.874   0.056   4.849
 9244TIP3    H227697   1.760   0.036   4.947
 9245TIP3   OH227698   0.952   0.302   0.143
 9245TIP3    H127699   1.004   0.260   0.075
 9245TIP3    H227700   0.890   0.235   0.172
 9246TIP3   OH227701   5.127   4.620   2.346
 9246TIP3    H127702   5.105   4.527   2.353
 9246TIP3    H227703   5.043   4.663   2.332
 9247TIP3   OH227704   6.914   0.061   1.517
 9247TIP3    H127705   6.980   0.050   1.586
 9247TIP3    H227706   6.893  -0.028   1.490
 9248TIP3   OH227707   5.613   3.676   1.284
 9248TIP3    H127708   5.676   3.612   1.251
 9248TIP3    H227709   5.631   3.681   1.378
 9249TIP3   OH227710   1.817   1.554   5.164
 9249TIP3    H127711   1.747   1.498   5.198
 9249TIP3    H227712   1.790   1.575   5.075
 9250TIP3   OH227713   6.162   3.737   3.625
 9250TIP3    H127714   6.139   3.646   3.642
 9250TIP3    H227715   6.080   3.777   3.596
 9251TIP3   OH227716   2.096   0.752   2.368
 9251TIP3    H127717   2.058   0.714   2.447
 9251TIP3    H227718   2.133   0.836   2.396
 9252TIP3   OH227719   2.749   4.594   4.852
 9252TIP3    H127720   2.825   4.542   4.827
 9252TIP3    H227721   2.706   4.543   4.920
 9253TIP3   OH227722   1.160   2.873   2.437
 9253TIP3    H127723   1.091   2.882   2.503
 9253TIP3    H227724   1.121   2.818   2.369
 9254TIP3   OH227725   6.604   3.955   4.167
 9254TIP3    H127726   6.524   3.976   4.216
 9254TIP3    H227727   6.675   3.994   4.218
 9255TIP3   OH227728   5.361   1.359   2.492
 9255TIP3    H127729   5.353   1.322   2.580
 9255TIP3    H227730   5.422   1.432   2.502
 9256TIP3   OH227731   1.077   5.781   2.810
 9256TIP3    H127732   1.152   5.725   2.791
 9256TIP3    H227733   1.005   5.742   2.761
 9257TIP3   OH227734   5.613   2.134   1.938
 9257TIP3    H127735   5.664   2.213   1.923
 9257TIP3    H227736   5.550   2.158   2.006
 9258TIP3   OH227737   0.466   6.493   5.247
 9258TIP3    H127738   0.475   6.415   5.301
 9258TIP3    H227739   0.400   6.469   5.182
 9259TIP3   OH227740   2.684   4.569   0.729
 9259TIP3    H127741   2.613   4.592   0.669
 9259TIP3    H227742   2.743   4.644   0.725
 9260TIP3   OH227743   2.955   3.661   3.382
 9260TIP3    H127744   3.020   3.657   3.313
 9260TIP3    H227745   2.871   3.654   3.337
 9261TIP3   OH227746   5.142   5.188   5.374
 9261TIP3    H127747   5.055   5.185   5.414
 9261TIP3    H227748   5.202   5.171   5.447
 9262TIP3   OH227749   6.068   3.047   0.879
 9262TIP3    H127750   6.040   3.138   0.892
 9262TIP3    H227751   6.011   2.997   0.937
 9263TIP3   OH227752   1.967   6.036   1.080
 9263TIP3    H127753   2.034   6.086   1.033
 9263TIP3    H227754   1.972   5.948   1.043
 9264TIP3   OH227755   3.344   4.091   0.570
 9264TIP3    H127756   3.369   4.011   0.523
 9264TIP3    H227757   3.303   4.146   0.503
 9265TIP3   OH227758   3.405   5.362   2.890
 9265TIP3    H127759   3.468   5.353   2.819
 9265TIP3    H227760   3.421   5.287   2.947
 9266TIP3   OH227761   3.760   2.702   4.960
 9266TIP3    H127762   3.744   2.763   5.031
 9266TIP3    H227763   3.751   2.615   5.000
 9267TIP3   OH227764   4.366   1.007   0.770
 9267TIP3    H127765   4.412   0.929   0.799
 9267TIP3    H227766   4.434   1.067   0.742
 9268TIP3   OH227767   5.328   6.282   2.522
 9268TIP3    H127768   5.360   6.265   2.610
 9268TIP3    H227769   5.307   6.375   2.521
 9269TIP3   OH227770   0.162   3.167   3.322
 9269TIP3    H127771   0.169   3.149   3.228
 9269TIP3    H227772   0.249   3.199   3.347
 9270TIP3   OH227773   5.803   5.419   0.579
 9270TIP3    H127774   5.815   5.495   0.522
 9270TIP3    H227775   5.709   5.400   0.573
 9271TIP3   OH227776   1.828   3.733   2.089
 9271TIP3    H127777   1.841   3.721   2.184
 9271TIP3    H227778   1.746   3.782   2.082
 9272TIP3   OH227779   0.451   0.076   0.952
 9272TIP3    H127780   0.381   0.139   0.935
 9272TIP3    H227781   0.446   0.014   0.879
 9273TIP3   OH227782   2.081   3.472   3.970
 9273TIP3    H127783   2.166   3.467   4.015
 9273TIP3    H227784   2.023   3.512   4.035
 9274TIP3   OH227785   7.075   2.519   0.099
 9274TIP3    H127786   7.023   2.442   0.122
 9274TIP3    H227787   7.143   2.485   0.040
 9275TIP3   OH227788   7.058   6.124   5.027
 9275TIP3    H127789   7.006   6.068   4.970
 9275TIP3    H227790   7.010   6.125   5.110
 9276TIP3   OH227791   6.005   4.061   5.610
 9276TIP3    H127792   5.951   4.139   5.606
 9276TIP3    H227793   6.068   4.071   5.539
 9277TIP3   OH227794   5.544   0.859   5.401
 9277TIP3    H127795   5.595   0.880   5.479
 9277TIP3    H227796   5.582   0.778   5.368
 9278TIP3   OH227797   5.556   2.995   2.204
 9278TIP3    H127798   5.562   2.908   2.244
 9278TIP3    H227799   5.480   3.035   2.246
 9279TIP3   OH227800   0.696   6.479   2.758
 9279TIP3    H127801   0.704   6.384   2.761
 9279TIP3    H227802   0.622   6.496   2.700
 9280TIP3   OH227803   6.864   5.086   3.926
 9280TIP3    H127804   6.940   5.137   3.899
 9280TIP3    H227805   6.888   5.050   4.011
 9281TIP3   OH227806   2.935   4.472   1.981
 9281TIP3    H127807   2.971   4.394   2.023
 9281TIP3    H227808   2.862   4.498   2.038
 9282TIP3   OH227809   4.037   2.374   3.631
 9282TIP3    H127810   4.093   2.316   3.683
 9282TIP3    H227811   4.075   2.371   3.543
 9283TIP3   OH227812   3.057   6.356   1.014
 9283TIP3    H127813   3.106   6.278   1.040
 9283TIP3    H227814   2.980   6.356   1.070
 9284TIP3   OH227815   5.087   3.268   2.922
 9284TIP3    H127816   5.045   3.253   2.837
 9284TIP3    H227817   5.037   3.341   2.960
 9285TIP3   OH227818   1.752   0.110   2.999
 9285TIP3    H127819   1.774   0.020   2.974
 9285TIP3    H227820   1.750   0.158   2.916
 9286TIP3   OH227821   5.500   0.502   2.754
 9286TIP3    H127822   5.547   0.475   2.832
 9286TIP3    H227823   5.510   0.428   2.693
 9287TIP3   OH227824   5.061   4.314   3.538
 9287TIP3    H127825   5.120   4.350   3.605
 9287TIP3    H227826   5.060   4.220   3.554
 9288TIP3   OH227827   6.813   3.435   0.922
 9288TIP3    H127828   6.797   3.512   0.868
 9288TIP3    H227829   6.827   3.470   1.010
 9289TIP3   OH227830   5.526   0.288   2.596
 9289TIP3    H127831   5.442   0.294   2.551
 9289TIP3    H227832   5.572   0.215   2.553
 9290TIP3   OH227833   2.797   0.147   3.689
 9290TIP3    H127834   2.703   0.159   3.703
 9290TIP3    H227835   2.803   0.074   3.628
 9291TIP3   OH227836   2.022   1.578   4.376
 9291TIP3    H127837   2.064   1.642   4.319
 9291TIP3    H227838   2.094   1.541   4.427
 9292TIP3   OH227839   5.133   2.565   3.334
 9292TIP3    H127840   5.181   2.594   3.412
 9292TIP3    H227841   5.041   2.582   3.355
 9293TIP3   OH227842   4.603   2.961   0.974
 9293TIP3    H127843   4.510   2.962   0.952
 9293TIP3    H227844   4.648   2.970   0.890
 9294TIP3   OH227845   0.873   1.405   5.261
 9294TIP3    H127846   0.877   1.387   5.355
 9294TIP3    H227847   0.920   1.488   5.251
 9295TIP3   OH227848   6.616   5.923   5.034
 9295TIP3    H127849   6.586   5.999   4.984
 9295TIP3    H227850   6.694   5.893   4.987
 9296TIP3   OH227851   2.472   0.105   4.167
 9296TIP3    H127852   2.539   0.037   4.158
 9296TIP3    H227853   2.408   0.067   4.228
 9297TIP3   OH227854   2.012   3.947   5.182
 9297TIP3    H127855   1.960   3.872   5.213
 9297TIP3    H227856   1.958   4.023   5.201
 9298TIP3   OH227857   1.335   3.003   4.233
 9298TIP3    H127858   1.407   3.042   4.284
 9298TIP3    H227859   1.379   2.950   4.166
 9299TIP3   OH227860   5.506   4.358   2.465
 9299TIP3    H127861   5.414   4.332   2.456
 9299TIP3    H227862   5.527   4.401   2.382
 9300TIP3   OH227863   5.942   6.253   4.115
 9300TIP3    H127864   6.029   6.291   4.132
 9300TIP3    H227865   5.900   6.252   4.201
 9301TIP3   OH227866   0.440   0.847   3.155
 9301TIP3    H127867   0.377   0.825   3.223
 9301TIP3    H227868   0.395   0.910   3.099
 9302TIP3   OH227869   4.139   6.258   3.788
 9302TIP3    H127870   4.224   6.216   3.774
 9302TIP3    H227871   4.108   6.280   3.700
 9303TIP3   OH227872   4.692   6.759   0.037
 9303TIP3    H127873   4.659   6.680   0.079
 9303TIP3    H227874   4.624   6.824   0.052
 9304TIP3   OH227875   5.937   2.499   0.295
 9304TIP3    H127876   5.971   2.469   0.211
 9304TIP3    H227877   5.938   2.420   0.350
 9305TIP3   OH227878   3.275   0.838   2.771
 9305TIP3    H127879   3.322   0.787   2.705
 9305TIP3    H227880   3.324   0.823   2.852
 9306TIP3   OH227881   5.104   3.724   4.479
 9306TIP3    H127882   5.186   3.762   4.450
 9306TIP3    H227883   5.085   3.656   4.413
 9307TIP3   OH227884   4.282   4.817   5.490
 9307TIP3    H127885   4.232   4.763   5.551
 9307TIP3    H227886   4.373   4.790   5.503
 9308TIP3   OH227887   6.080   2.907   2.842
 9308TIP3    H127888   6.091   2.985   2.896
 9308TIP3    H227889   6.004   2.926   2.788
 9309TIP3   OH227890   0.059   2.057   3.233
 9309TIP3    H127891   0.000   1.998   3.279
 9309TIP3    H227892   0.134   2.003   3.210
 9310TIP3   OH227893   0.573   4.183   1.603
 9310TIP3    H127894   0.637   4.251   1.627
 9310TIP3    H227895   0.577   4.120   1.675
 9311TIP3   OH227896   4.897   5.684   1.559
 9311TIP3    H127897   4.913   5.626   1.633
 9311TIP3    H227898   4.942   5.641   1.486
 9312TIP3   OH227899   0.545   5.474   1.012
 9312TIP3    H127900   0.599   5.547   0.980
 9312TIP3    H227901   0.455   5.508   1.008
 9313TIP3   OH227902   5.889   0.716   5.541
 9313TIP3    H127903   5.817   0.657   5.564
 9313TIP3    H227904   5.849   0.803   5.540
 9314TIP3   OH227905   3.746   5.295   5.296
 9314TIP3    H127906   3.714   5.223   5.350
 9314TIP3    H227907   3.841   5.282   5.292
 9315TIP3   OH227908   7.098   3.583   5.596
 9315TIP3    H127909   7.188   3.589   5.563
 9315TIP3    H227910   7.079   3.670   5.630
 9316TIP3   OH227911   3.966   6.652   1.862
 9316TIP3    H127912   4.010   6.626   1.943
 9316TIP3    H227913   4.029   6.631   1.793
 9317TIP3   OH227914   6.700   2.972   1.172
 9317TIP3    H127915   6.681   3.062   1.143
 9317TIP3    H227916   6.783   2.950   1.131
 9318TIP3   OH227917   1.521   0.888   5.535
 9318TIP3    H127918   1.586   0.853   5.474
 9318TIP3    H227919   1.523   0.828   5.610
 9319TIP3   OH227920   1.644   3.131   5.144
 9319TIP3    H127921   1.698   3.091   5.076
 9319TIP3    H227922   1.672   3.088   5.225
 9320TIP3   OH227923   1.030   0.443   5.679
 9320TIP3    H127924   1.011   0.413   5.768
 9320TIP3    H227925   0.975   0.388   5.623
 9321TIP3   OH227926   2.671   6.187   2.490
 9321TIP3    H127927   2.745   6.202   2.549
 9321TIP3    H227928   2.648   6.275   2.459
 9322TIP3   OH227929   3.167   4.655   3.420
 9322TIP3    H127930   3.073   4.672   3.418
 9322TIP3    H227931   3.191   4.666   3.512
 9323TIP3   OH227932   3.664   5.410   1.380
 9323TIP3    H127933   3.608   5.355   1.435
 9323TIP3    H227934   3.612   5.426   1.301
 9324TIP3   OH227935   4.650   6.333   5.339
 9324TIP3    H127936   4.736   6.293   5.329
 9324TIP3    H227937   4.655   6.414   5.289
 9325TIP3   OH227938   6.234   4.313   5.815
 9325TIP3    H127939   6.155   4.303   5.868
 9325TIP3    H227940   6.236   4.405   5.791
 9326TIP3   OH227941   2.931   3.336   0.543
 9326TIP3    H127942   2.836   3.343   0.535
 9326TIP3    H227943   2.964   3.369   0.460
 9327TIP3   OH227944   5.212   5.460   0.545
 9327TIP3    H127945   5.227   5.489   0.635
 9327TIP3    H227946   5.127   5.415   0.548
 9328TIP3   OH227947   2.116   6.476   2.711
 9328TIP3    H127948   2.105   6.413   2.639
 9328TIP3    H227949   2.081   6.430   2.788
 9329TIP3   OH227950   3.908   1.685   5.696
 9329TIP3    H127951   3.948   1.746   5.633
 9329TIP3    H227952   3.834   1.648   5.649
 9330TIP3   OH227953   4.351   6.081   2.079
 9330TIP3    H127954   4.284   6.034   2.029
 9330TIP3    H227955   4.306   6.112   2.157
 9331TIP3   OH227956   7.153   0.562   2.591
 9331TIP3    H127957   7.074   0.601   2.552
 9331TIP3    H227958   7.217   0.633   2.590
 9332TIP3   OH227959   1.165   3.087   3.236
 9332TIP3    H127960   1.145   2.995   3.217
 9332TIP3    H227961   1.172   3.091   3.332
 9333TIP3   OH227962   1.628   6.219   3.668
 9333TIP3    H127963   1.598   6.131   3.692
 9333TIP3    H227964   1.658   6.210   3.577
 9334TIP3   OH227965   1.452   3.721   1.865
 9334TIP3    H127966   1.375   3.693   1.815
 9334TIP3    H227967   1.509   3.762   1.800
 9335TIP3   OH227968   1.812   4.806   5.368
 9335TIP3    H127969   1.778   4.811   5.458
 9335TIP3    H227970   1.806   4.896   5.335
 9336TIP3   OH227971   0.548   4.887   0.476
 9336TIP3    H127972   0.539   4.947   0.402
 9336TIP3    H227973   0.516   4.936   0.551
 9337TIP3   OH227974   5.993   6.735   0.379
 9337TIP3    H127975   6.086   6.742   0.359
 9337TIP3    H227976   5.989   6.673   0.452
 9338TIP3   OH227977   7.122   0.576   2.238
 9338TIP3    H127978   7.083   0.626   2.310
 9338TIP3    H227979   7.068   0.497   2.232
 9339TIP3   OH227980   5.700   6.203   5.168
 9339TIP3    H127981   5.751   6.154   5.232
 9339TIP3    H227982   5.688   6.289   5.207
 9340TIP3   OH227983   1.122   3.375   0.669
 9340TIP3    H127984   1.154   3.285   0.661
 9340TIP3    H227985   1.105   3.385   0.763
 9341TIP3   OH227986   2.603   6.763   5.384
 9341TIP3    H127987   2.613   6.815   5.464
 9341TIP3    H227988   2.559   6.683   5.412
 9342TIP3   OH227989   7.171   0.097   3.725
 9342TIP3    H127990   7.262   0.074   3.745
 9342TIP3    H227991   7.119   0.036   3.776
 9343TIP3   OH227992   5.989   0.721   4.101
 9343TIP3    H127993   6.039   0.660   4.046
 9343TIP3    H227994   5.912   0.743   4.048
 9344TIP3   OH227995   7.194   0.164   4.119
 9344TIP3    H127996   7.256   0.147   4.189
 9344TIP3    H227997   7.223   0.110   4.046
 9345TIP3   OH227998   6.686   5.052   5.754
 9345TIP3    H127999   6.755   4.987   5.747
 9345TIP3    H228000   6.618   5.010   5.806
 9346TIP3   OH228001   2.566   3.313   1.643
 9346TIP3    H128002   2.594   3.230   1.606
 9346TIP3    H228003   2.522   3.290   1.725
 9347TIP3   OH228004   4.383   0.765   4.797
 9347TIP3    H128005   4.412   0.686   4.752
 9347TIP3    H228006   4.366   0.829   4.727
 9348TIP3   OH228007   1.906   5.344   5.214
 9348TIP3    H128008   1.866   5.317   5.131
 9348TIP3    H228009   1.861   5.425   5.237
 9349TIP3   OH228010   1.153   3.619   4.171
 9349TIP3    H128011   1.099   3.578   4.103
 9349TIP3    H228012   1.100   3.614   4.250
 9350TIP3   OH228013   2.039   1.202   2.888
 9350TIP3    H128014   2.077   1.152   2.960
 9350TIP3    H228015   2.085   1.286   2.890
 9351TIP3   OH228016   1.439   2.854   5.559
 9351TIP3    H128017   1.511   2.916   5.565
 9351TIP3    H228018   1.367   2.905   5.522
 9352TIP3   OH228019   1.376   0.628   4.049
 9352TIP3    H128020   1.410   0.608   4.136
 9352TIP3    H228021   1.453   0.652   3.997
 9353TIP3   OH228022   4.840   1.525   4.076
 9353TIP3    H128023   4.837   1.476   4.159
 9353TIP3    H228024   4.806   1.612   4.098
 9354TIP3   OH228025   3.194   3.944   5.695
 9354TIP3    H128026   3.266   3.880   5.697
 9354TIP3    H228027   3.231   4.020   5.650
 9355TIP3   OH228028   2.562   5.796   3.355
 9355TIP3    H128029   2.504   5.729   3.392
 9355TIP3    H228030   2.647   5.778   3.394
 9356TIP3   OH228031   3.861   3.504   3.954
 9356TIP3    H128032   3.789   3.475   4.010
 9356TIP3    H228033   3.832   3.588   3.918
 9357TIP3   OH228034   6.402   6.169   4.206
 9357TIP3    H128035   6.465   6.199   4.141
 9357TIP3    H228036   6.368   6.086   4.171
 9358TIP3   OH228037   0.660   2.631   4.913
 9358TIP3    H128038   0.600   2.702   4.890
 9358TIP3    H228039   0.628   2.598   4.997
 9359TIP3   OH228040   0.034   5.681   0.986
 9359TIP3    H128041   0.071   5.663   1.073
 9359TIP3    H228042   0.021   5.595   0.948
 9360TIP3   OH228043   2.129   2.019   2.615
 9360TIP3    H128044   2.110   2.003   2.522
 9360TIP3    H228045   2.097   1.940   2.659
 9361TIP3   OH228046   5.162   1.127   2.566
 9361TIP3    H128047   5.238   1.105   2.513
 9361TIP3    H228048   5.145   1.048   2.618
 9362TIP3   OH228049   0.434   3.632   1.413
 9362TIP3    H128050   0.348   3.672   1.428
 9362TIP3    H228051   0.437   3.614   1.319
 9363TIP3   OH228052   4.199   5.231   3.502
 9363TIP3    H128053   4.164   5.311   3.463
 9363TIP3    H228054   4.278   5.259   3.548
 9364TIP3   OH228055   0.058   4.896   1.048
 9364TIP3    H128056   0.152   4.907   1.037
 9364TIP3    H228057   0.029   4.977   1.090
 9365TIP3   OH228058   6.770   3.669   5.007
 9365TIP3    H128059   6.762   3.575   5.024
 9365TIP3    H228060   6.701   3.708   5.060
 9366TIP3   OH228061   4.399   0.110   2.333
 9366TIP3    H128062   4.492   0.130   2.323
 9366TIP3    H228063   4.354   0.185   2.293
 9367TIP3   OH228064   4.693   3.133   1.871
 9367TIP3    H128065   4.611   3.168   1.836
 9367TIP3    H228066   4.748   3.210   1.884
 9368TIP3   OH228067   0.131   0.044   2.348
 9368TIP3    H128068   0.118   0.138   2.359
 9368TIP3    H228069   0.054   0.015   2.298
 9369TIP3   OH228070   4.479   5.802   0.449
 9369TIP3    H128071   4.446   5.874   0.395
 9369TIP3    H228072   4.554   5.839   0.496
 9370TIP3   OH228073   0.167   0.983   1.232
 9370TIP3    H128074   0.124   1.039   1.296
 9370TIP3    H228075   0.249   0.957   1.274
 9371TIP3   OH228076   1.339   0.576   3.055
 9371TIP3    H128077   1.311   0.580   2.964
 9371TIP3    H228078   1.351   0.667   3.081
 9372TIP3   OH228079   3.475   4.836   0.487
 9372TIP3    H128080   3.487   4.859   0.579
 9372TIP3    H228081   3.510   4.911   0.439
 9373TIP3   OH228082   3.650   2.587   5.695
 9373TIP3    H128083   3.616   2.501   5.669
 9373TIP3    H228084   3.652   2.637   5.613
 9374TIP3   OH228085   5.653   5.029   1.108
 9374TIP3    H128086   5.707   5.089   1.160
 9374TIP3    H228087   5.567   5.032   1.149
 9375TIP3   OH228088   4.644   1.468   0.952
 9375TIP3    H128089   4.564   1.454   1.003
 9375TIP3    H228090   4.636   1.557   0.919
 9376TIP3   OH228091   6.039   5.366   4.478
 9376TIP3    H128092   6.121   5.321   4.499
 9376TIP3    H228093   6.056   5.411   4.395
 9377TIP3   OH228094   0.746   0.539   4.731
 9377TIP3    H128095   0.781   0.475   4.668
 9377TIP3    H228096   0.653   0.516   4.739
 9378TIP3   OH228097   6.067   6.393   1.600
 9378TIP3    H128098   6.033   6.422   1.515
 9378TIP3    H228099   6.074   6.298   1.591
 9379TIP3   OH228100   1.626   0.514   3.081
 9379TIP3    H128101   1.581   0.525   3.164
 9379TIP3    H228102   1.672   0.431   3.089
 9380TIP3   OH228103   6.213   3.212   1.654
 9380TIP3    H128104   6.132   3.164   1.674
 9380TIP3    H228105   6.280   3.169   1.707
 9381TIP3   OH228106   3.700   2.580   3.979
 9381TIP3    H128107   3.780   2.582   3.925
 9381TIP3    H228108   3.717   2.511   4.043
 9382TIP3   OH228109   3.926   2.109   4.487
 9382TIP3    H128110   3.844   2.156   4.501
 9382TIP3    H228111   3.914   2.065   4.403
 9383TIP3   OH228112   4.910   1.749   2.997
 9383TIP3    H128113   4.838   1.705   3.041
 9383TIP3    H228114   4.910   1.837   3.034
 9384TIP3   OH228115   2.713   5.997   4.301
 9384TIP3    H128116   2.793   5.954   4.272
 9384TIP3    H228117   2.677   5.939   4.368
 9385TIP3   OH228118   3.708   4.377   5.393
 9385TIP3    H128119   3.636   4.321   5.365
 9385TIP3    H228120   3.777   4.362   5.327
 9386TIP3   OH228121   1.564   1.980   3.393
 9386TIP3    H128122   1.514   2.061   3.379
 9386TIP3    H228123   1.534   1.921   3.324
 9387TIP3   OH228124   6.622   0.968   2.247
 9387TIP3    H128125   6.561   1.017   2.302
 9387TIP3    H228126   6.576   0.960   2.163
 9388TIP3   OH228127   2.910   4.165   5.575
 9388TIP3    H128128   2.904   4.147   5.668
 9388TIP3    H228129   2.840   4.228   5.559
 9389TIP3   OH228130   3.864   3.028   3.835
 9389TIP3    H128131   3.839   3.077   3.756
 9389TIP3    H228132   3.930   3.083   3.877
 9390TIP3   OH228133   5.927   4.160   3.477
 9390TIP3    H128134   5.957   4.075   3.508
 9390TIP3    H228135   5.969   4.223   3.535
 9391TIP3   OH228136   3.213   2.498   2.083
 9391TIP3    H128137   3.289   2.519   2.030
 9391TIP3    H228138   3.207   2.569   2.147
 9392TIP3   OH228139   0.918   3.782   3.248
 9392TIP3    H128140   0.974   3.711   3.216
 9392TIP3    H228141   0.972   3.861   3.240
 9393TIP3   OH228142   6.654   4.420   3.226
 9393TIP3    H128143   6.651   4.327   3.207
 9393TIP3    H228144   6.563   4.445   3.242
 9394TIP3   OH228145   0.397   3.139   3.106
 9394TIP3    H128146   0.404   3.097   3.191
 9394TIP3    H228147   0.395   3.233   3.125
 9395TIP3   OH228148   2.954   0.170   3.920
 9395TIP3    H128149   2.905   0.166   3.838
 9395TIP3    H228150   3.032   0.221   3.898
 9396TIP3   OH228151   6.253   5.729   3.638
 9396TIP3    H128152   6.163   5.711   3.663
 9396TIP3    H228153   6.259   5.824   3.635
 9397TIP3   OH228154   5.382   6.775   3.439
 9397TIP3    H128155   5.373   6.680   3.447
 9397TIP3    H228156   5.420   6.789   3.353
 9398TIP3   OH228157   4.101   0.930   4.412
 9398TIP3    H128158   4.013   0.932   4.374
 9398TIP3    H228159   4.159   0.921   4.336
 9399TIP3   OH228160   5.377   6.535   4.130
 9399TIP3    H128161   5.340   6.565   4.213
 9399TIP3    H228162   5.427   6.456   4.153
 9400TIP3   OH228163   6.418   4.995   4.925
 9400TIP3    H128164   6.480   4.971   4.856
 9400TIP3    H228165   6.371   5.070   4.890
 9401TIP3   OH228166   5.333   1.665   0.802
 9401TIP3    H128167   5.342   1.592   0.742
 9401TIP3    H228168   5.383   1.639   0.879
 9402TIP3   OH228169   2.490   1.806   4.930
 9402TIP3    H128170   2.478   1.805   4.835
 9402TIP3    H228171   2.401   1.807   4.965
 9403TIP3   OH228172   3.082   0.780   1.930
 9403TIP3    H128173   3.127   0.816   2.006
 9403TIP3    H228174   3.138   0.803   1.856
 9404TIP3   OH228175   0.512   5.219   2.292
 9404TIP3    H128176   0.558   5.235   2.209
 9404TIP3    H228177   0.576   5.172   2.346
 9405TIP3   OH228178   2.527   2.714   2.585
 9405TIP3    H128179   2.606   2.728   2.531
 9405TIP3    H228180   2.483   2.799   2.586
 9406TIP3   OH228181   3.311   2.606   4.916
 9406TIP3    H128182   3.331   2.598   5.010
 9406TIP3    H228183   3.361   2.683   4.888
 9407TIP3   OH228184   1.477   6.206   4.040
 9407TIP3    H128185   1.399   6.228   3.990
 9407TIP3    H228186   1.482   6.110   4.035
 9408TIP3   OH228187   6.827   6.056   5.731
 9408TIP3    H128188   6.912   6.013   5.723
 9408TIP3    H228189   6.842   6.127   5.794
 9409TIP3   OH228190   6.954   6.804   2.007
 9409TIP3    H128191   6.979   6.726   2.057
 9409TIP3    H228192   6.886   6.773   1.947
 9410TIP3   OH228193   3.033   5.806   5.185
 9410TIP3    H128194   3.058   5.714   5.189
 9410TIP3    H228195   3.022   5.833   5.276
 9411TIP3   OH228196   2.953   5.953   0.919
 9411TIP3    H128197   2.898   5.920   0.990
 9411TIP3    H228198   2.952   5.883   0.854
 9412TIP3   OH228199   3.245   2.885   4.577
 9412TIP3    H128200   3.156   2.905   4.551
 9412TIP3    H228201   3.251   2.916   4.668
 9413TIP3   OH228202   1.387   1.900   4.064
 9413TIP3    H128203   1.419   1.846   4.137
 9413TIP3    H228204   1.438   1.870   3.988
 9414TIP3   OH228205   3.394   0.575   5.590
 9414TIP3    H128206   3.384   0.480   5.604
 9414TIP3    H228207   3.305   0.606   5.573
 9415TIP3   OH228208   4.420   1.738   3.238
 9415TIP3    H128209   4.488   1.708   3.298
 9415TIP3    H228210   4.340   1.741   3.290
 9416TIP3   OH228211   2.144   2.051   1.079
 9416TIP3    H128212   2.066   2.104   1.096
 9416TIP3    H228213   2.110   1.961   1.071
 9417TIP3   OH228214   0.114   6.437   2.675
 9417TIP3    H128215   0.080   6.468   2.591
 9417TIP3    H228216   0.209   6.440   2.665
 9418TIP3   OH228217   0.941   4.953   3.369
 9418TIP3    H128218   1.015   4.892   3.369
 9418TIP3    H228219   0.939   4.987   3.458
 9419TIP3   OH228220   2.851   4.227   3.129
 9419TIP3    H128221   2.908   4.293   3.169
 9419TIP3    H228222   2.823   4.172   3.202
 9420TIP3   OH228223   1.202   2.568   5.163
 9420TIP3    H128224   1.156   2.530   5.088
 9420TIP3    H228225   1.135   2.576   5.231
 9421TIP3   OH228226   0.464   1.207   4.752
 9421TIP3    H128227   0.486   1.118   4.777
 9421TIP3    H228228   0.394   1.197   4.688
 9422TIP3   OH228229   3.143   2.615   4.576
 9422TIP3    H128230   3.185   2.700   4.564
 9422TIP3    H228231   3.102   2.620   4.663
 9423TIP3   OH228232   4.767   5.517   0.914
 9423TIP3    H128233   4.804   5.462   0.984
 9423TIP3    H228234   4.812   5.601   0.924
 9424TIP3   OH228235   3.924   5.239   0.714
 9424TIP3    H128236   3.941   5.272   0.625
 9424TIP3    H228237   3.871   5.161   0.700
 9425TIP3   OH228238   4.235   1.107   0.367
 9425TIP3    H128239   4.172   1.061   0.421
 9425TIP3    H228240   4.291   1.039   0.330
 9426TIP3   OH228241   1.338   4.211   0.152
 9426TIP3    H128242   1.243   4.212   0.158
 9426TIP3    H228243   1.356   4.190   0.060
 9427TIP3   OH228244   1.917   0.398   1.770
 9427TIP3    H128245   2.005   0.386   1.806
 9427TIP3    H228246   1.861   0.407   1.847
 9428TIP3   OH228247   2.280   4.179   0.802
 9428TIP3    H128248   2.220   4.139   0.865
 9428TIP3    H228249   2.364   4.179   0.847
 9429TIP3   OH228250   0.934   4.267   3.211
 9429TIP3    H128251   0.927   4.363   3.209
 9429TIP3    H228252   0.923   4.244   3.303
 9430TIP3   OH228253   4.132   5.647   3.659
 9430TIP3    H128254   4.201   5.713   3.664
 9430TIP3    H228255   4.053   5.693   3.688
 9431TIP3   OH228256   6.756   1.055   3.907
 9431TIP3    H128257   6.678   1.090   3.950
 9431TIP3    H228258   6.725   0.975   3.863
 9432TIP3   OH228259   4.702   3.625   1.938
 9432TIP3    H128260   4.737   3.637   1.850
 9432TIP3    H228261   4.626   3.684   1.941
 9433TIP3   OH228262   1.126   5.881   5.110
 9433TIP3    H128263   1.115   5.964   5.065
 9433TIP3    H228264   1.171   5.825   5.047
 9434TIP3   OH228265   5.842   5.067   3.500
 9434TIP3    H128266   5.835   5.048   3.406
 9434TIP3    H228267   5.921   5.020   3.528
 9435TIP3   OH228268   1.753   0.263   5.471
 9435TIP3    H128269   1.663   0.245   5.444
 9435TIP3    H228270   1.770   0.352   5.439
 9436TIP3   OH228271   4.254   2.304   0.087
 9436TIP3    H128272   4.219   2.231   0.139
 9436TIP3    H228273   4.247   2.273  -0.004
 9437TIP3   OH228274   4.586   4.685   2.473
 9437TIP3    H128275   4.679   4.678   2.494
 9437TIP3    H228276   4.541   4.669   2.557
 9438TIP3   OH228277   4.689   0.858   2.977
 9438TIP3    H128278   4.652   0.895   3.058
 9438TIP3    H228279   4.614   0.850   2.918
 9439TIP3   OH228280   6.764   0.759   2.296
 9439TIP3    H128281   6.723   0.845   2.289
 9439TIP3    H228282   6.826   0.757   2.223
 9440TIP3   OH228283   1.750   3.384   3.674
 9440TIP3    H128284   1.779   3.331   3.749
 9440TIP3    H228285   1.829   3.432   3.647
 9441TIP3   OH228286   5.766   4.804   0.957
 9441TIP3    H128287   5.697   4.856   0.999
 9441TIP3    H228288   5.846   4.855   0.971
 9442TIP3   OH228289   3.592   3.988   5.344
 9442TIP3    H128290   3.554   4.069   5.309
 9442TIP3    H228291   3.528   3.957   5.407
 9443TIP3   OH228292   3.770   5.277   0.978
 9443TIP3    H128293   3.842   5.288   0.916
 9443TIP3    H228294   3.759   5.182   0.985
 9444TIP3   OH228295   2.905   2.118   5.495
 9444TIP3    H128296   2.993   2.143   5.467
 9444TIP3    H228297   2.846   2.167   5.438
 9445TIP3   OH228298   0.625   0.132   0.401
 9445TIP3    H128299   0.671   0.212   0.429
 9445TIP3    H228300   0.539   0.139   0.441
 9446TIP3   OH228301   4.933   1.998   1.856
 9446TIP3    H128302   4.857   2.032   1.902
 9446TIP3    H228303   4.919   2.022   1.765
 9447TIP3   OH228304   7.035   5.878   1.884
 9447TIP3    H128305   7.022   5.900   1.792
 9447TIP3    H228306   7.106   5.814   1.885
 9448TIP3   OH228307   6.782   2.033   0.217
 9448TIP3    H128308   6.725   1.984   0.276
 9448TIP3    H228309   6.863   2.045   0.267
 9449TIP3   OH228310   6.051   3.893   5.835
 9449TIP3    H128311   6.015   3.959   5.776
 9449TIP3    H228312   6.002   3.813   5.816
 9450TIP3   OH228313   1.348   1.748   5.568
 9450TIP3    H128314   1.321   1.800   5.643
 9450TIP3    H228315   1.383   1.813   5.506
 9451TIP3   OH228316   6.000   6.447   2.743
 9451TIP3    H128317   6.001   6.543   2.738
 9451TIP3    H228318   6.022   6.418   2.655
 9452TIP3   OH228319   5.262   4.015   3.606
 9452TIP3    H128320   5.258   3.970   3.691
 9452TIP3    H228321   5.354   4.043   3.599
 9453TIP3   OH228322   6.849   4.066   3.662
 9453TIP3    H128323   6.878   4.071   3.753
 9453TIP3    H228324   6.900   4.133   3.617
 9454TIP3   OH228325   0.431   4.438   4.493
 9454TIP3    H128326   0.507   4.496   4.485
 9454TIP3    H228327   0.444   4.393   4.577
 9455TIP3   OH228328   5.437   0.995   5.770
 9455TIP3    H128329   5.405   0.986   5.859
 9455TIP3    H228330   5.364   0.966   5.715
 9456TIP3   OH228331   5.746   5.381   4.727
 9456TIP3    H128332   5.675   5.443   4.747
 9456TIP3    H228333   5.701   5.304   4.692
 9457TIP3   OH228334   5.739   1.568   3.854
 9457TIP3    H128335   5.768   1.658   3.837
 9457TIP3    H228336   5.731   1.528   3.768
 9458TIP3   OH228337   2.770   6.104   3.796
 9458TIP3    H128338   2.706   6.063   3.738
 9458TIP3    H228339   2.845   6.043   3.794
 9459TIP3   OH228340   6.538   5.470   2.913
 9459TIP3    H128341   6.544   5.374   2.913
 9459TIP3    H228342   6.626   5.499   2.937
 9460TIP3   OH228343   4.871   4.487   3.432
 9460TIP3    H128344   4.949   4.440   3.460
 9460TIP3    H228345   4.805   4.465   3.497
 9461TIP3   OH228346   1.339   2.109   1.010
 9461TIP3    H128347   1.306   2.198   1.016
 9461TIP3    H228348   1.334   2.075   1.099
 9462TIP3   OH228349   2.499   5.091   0.544
 9462TIP3    H128350   2.552   5.020   0.507
 9462TIP3    H228351   2.563   5.154   0.577
 9463TIP3   OH228352   1.243   3.209   3.956
 9463TIP3    H128353   1.259   3.296   3.920
 9463TIP3    H228354   1.308   3.153   3.915
 9464TIP3   OH228355   0.146   6.800   5.676
 9464TIP3    H128356   0.207   6.819   5.748
 9464TIP3    H228357   0.071   6.758   5.719
 9465TIP3   OH228358   5.833   1.609   3.242
 9465TIP3    H128359   5.778   1.539   3.208
 9465TIP3    H228360   5.903   1.618   3.178
 9466TIP3   OH228361   2.501   5.537   3.507
 9466TIP3    H128362   2.541   5.457   3.543
 9466TIP3    H228363   2.421   5.548   3.558
 9467TIP3   OH228364   7.164   3.472   3.586
 9467TIP3    H128365   7.154   3.527   3.664
 9467TIP3    H228366   7.226   3.404   3.612
 9468TIP3   OH228367   3.830   0.210   4.422
 9468TIP3    H128368   3.803   0.118   4.413
 9468TIP3    H228369   3.791   0.254   4.347
 9469TIP3   OH228370   6.574   3.643   2.005
 9469TIP3    H128371   6.578   3.635   1.909
 9469TIP3    H228372   6.481   3.636   2.026
 9470TIP3   OH228373   3.537   3.728   1.903
 9470TIP3    H128374   3.565   3.820   1.902
 9470TIP3    H228375   3.583   3.688   1.829
 9471TIP3   OH228376   4.286   0.027   1.928
 9471TIP3    H128377   4.376   0.055   1.943
 9471TIP3    H228378   4.252   0.090   1.864
 9472TIP3   OH228379   5.070   5.603   1.357
 9472TIP3    H128380   5.147   5.609   1.414
 9472TIP3    H228381   5.072   5.513   1.324
 9473TIP3   OH228382   1.366   2.110   2.804
 9473TIP3    H128383   1.389   2.147   2.889
 9473TIP3    H228384   1.283   2.152   2.781
 9474TIP3   OH228385   5.411   3.846   1.216
 9474TIP3    H128386   5.498   3.807   1.208
 9474TIP3    H228387   5.354   3.773   1.237
 9475TIP3   OH228388   1.222   0.263   5.067
 9475TIP3    H128389   1.256   0.213   4.994
 9475TIP3    H228390   1.199   0.348   5.029
 9476TIP3   OH228391   1.136   1.587   5.538
 9476TIP3    H128392   1.144   1.553   5.627
 9476TIP3    H228393   1.202   1.657   5.533
 9477TIP3   OH228394   4.793   4.166   2.685
 9477TIP3    H128395   4.702   4.138   2.695
 9477TIP3    H228396   4.818   4.196   2.773
 9478TIP3   OH228397   0.189   2.087   0.235
 9478TIP3    H128398   0.105   2.132   0.241
 9478TIP3    H228399   0.246   2.133   0.296
 9479TIP3   OH228400   3.018   6.550   0.823
 9479TIP3    H128401   3.037   6.635   0.864
 9479TIP3    H228402   3.032   6.486   0.893
 9480TIP3   OH228403   6.126   4.561   0.795
 9480TIP3    H128404   6.140   4.506   0.871
 9480TIP3    H228405   6.214   4.593   0.772
 9481TIP3   OH228406   0.266   4.914   5.056
 9481TIP3    H128407   0.329   4.984   5.076
 9481TIP3    H228408   0.281   4.849   5.124
 9482TIP3   OH228409   0.147   5.536   0.596
 9482TIP3    H128410   0.137   5.631   0.600
 9482TIP3    H228411   0.057   5.502   0.602
 9483TIP3   OH228412   2.217   6.270   5.592
 9483TIP3    H128413   2.287   6.334   5.603
 9483TIP3    H228414   2.263   6.185   5.592
 9484TIP3   OH228415   5.015   1.995   0.603
 9484TIP3    H128416   5.074   1.967   0.673
 9484TIP3    H228417   4.933   1.950   0.620
 9485TIP3   OH228418   0.598   2.963   3.725
 9485TIP3    H128419   0.549   2.917   3.657
 9485TIP3    H228420   0.550   2.945   3.806
 9486TIP3   OH228421   4.603   0.944   1.147
 9486TIP3    H128422   4.550   0.967   1.223
 9486TIP3    H228423   4.674   1.009   1.148
 9487TIP3   OH228424   0.654   6.618   4.999
 9487TIP3    H128425   0.725   6.563   4.965
 9487TIP3    H228426   0.631   6.578   5.082
 9488TIP3   OH228427   3.876   1.755   0.212
 9488TIP3    H128428   3.835   1.745   0.298
 9488TIP3    H228429   3.921   1.839   0.218
 9489TIP3   OH228430   6.313   0.256   5.018
 9489TIP3    H128431   6.314   0.348   4.991
 9489TIP3    H228432   6.402   0.239   5.048
 9490TIP3   OH228433   5.972   4.057   2.961
 9490TIP3    H128434   6.006   4.145   2.950
 9490TIP3    H228435   5.889   4.057   2.912
 9491TIP3   OH228436   6.622   5.539   5.455
 9491TIP3    H128437   6.595   5.599   5.385
 9491TIP3    H228438   6.689   5.587   5.503
 9492TIP3   OH228439   5.721   1.339   2.636
 9492TIP3    H128440   5.761   1.381   2.712
 9492TIP3    H228441   5.704   1.411   2.575
 9493TIP3   OH228442   5.367   6.069   0.360
 9493TIP3    H128443   5.435   6.114   0.310
 9493TIP3    H228444   5.338   5.998   0.301
 9494TIP3   OH228445   1.650   2.517   2.606
 9494TIP3    H128446   1.727   2.480   2.562
 9494TIP3    H228447   1.646   2.469   2.689
 9495TIP3   OH228448   5.407   1.451   1.749
 9495TIP3    H128449   5.500   1.460   1.729
 9495TIP3    H228450   5.404   1.404   1.833
 9496TIP3   OH228451   0.910   6.069   5.352
 9496TIP3    H128452   0.874   6.154   5.328
 9496TIP3    H228453   0.983   6.090   5.411
 9497TIP3   OH228454   3.142   6.554   5.650
 9497TIP3    H128455   3.091   6.500   5.589
 9497TIP3    H228456   3.116   6.644   5.631
 9498TIP3   OH228457   3.286   0.187   4.732
 9498TIP3    H128458   3.243   0.109   4.697
 9498TIP3    H228459   3.327   0.228   4.656
 9499TIP3   OH228460   3.810   3.160   4.502
 9499TIP3    H128461   3.888   3.128   4.548
 9499TIP3    H228462   3.738   3.105   4.536
 9500TIP3   OH228463   3.868   6.403   1.087
 9500TIP3    H128464   3.788   6.399   1.035
 9500TIP3    H228465   3.841   6.378   1.175
 9501TIP3   OH228466   1.526   2.194   5.629
 9501TIP3    H128467   1.604   2.139   5.640
 9501TIP3    H228468   1.523   2.212   5.535
 9502TIP3   OH228469   0.436   3.570   1.136
 9502TIP3    H128470   0.395   3.620   1.065
 9502TIP3    H228471   0.513   3.530   1.095
 9503TIP3   OH228472   2.451   2.981   4.391
 9503TIP3    H128473   2.487   2.982   4.479
 9503TIP3    H228474   2.358   2.964   4.403
 9504TIP3   OH228475   1.201   2.570   0.032
 9504TIP3    H128476   1.190   2.560   0.126
 9504TIP3    H228477   1.156   2.652   0.011
 9505TIP3   OH228478   0.812   5.321   1.374
 9505TIP3    H128479   0.800   5.265   1.297
 9505TIP3    H228480   0.903   5.352   1.367
 9506TIP3   OH228481   2.866   4.606   0.434
 9506TIP3    H128482   2.805   4.665   0.390
 9506TIP3    H228483   2.952   4.639   0.410
 9507TIP3   OH228484   6.287   1.160   0.506
 9507TIP3    H128485   6.245   1.139   0.423
 9507TIP3    H228486   6.378   1.180   0.483
 9508TIP3   OH228487   4.604   5.154   1.799
 9508TIP3    H128488   4.589   5.244   1.829
 9508TIP3    H228489   4.633   5.108   1.877
 9509TIP3   OH228490   3.161   1.415   1.340
 9509TIP3    H128491   3.131   1.385   1.254
 9509TIP3    H228492   3.081   1.442   1.385
 9510TIP3   OH228493   6.343   6.254   5.031
 9510TIP3    H128494   6.397   6.204   4.970
 9510TIP3    H228495   6.296   6.316   4.975
 9511TIP3   OH228496   3.311   5.471   2.544
 9511TIP3    H128497   3.382   5.482   2.607
 9511TIP3    H228498   3.234   5.506   2.589
 9512TIP3   OH228499   1.112   3.354   0.943
 9512TIP3    H128500   1.192   3.393   0.980
 9512TIP3    H228501   1.116   3.262   0.969
 9513TIP3   OH228502   6.773   4.542   5.051
 9513TIP3    H128503   6.867   4.526   5.054
 9513TIP3    H228504   6.761   4.623   5.102
 9514TIP3   OH228505   1.832   3.220   3.414
 9514TIP3    H128506   1.876   3.276   3.478
 9514TIP3    H228507   1.899   3.155   3.390
 9515TIP3   OH228508   3.950   0.950   2.013
 9515TIP3    H128509   3.984   0.872   2.057
 9515TIP3    H228510   4.000   1.022   2.051
 9516TIP3   OH228511   3.304   1.187   2.154
 9516TIP3    H128512   3.263   1.176   2.069
 9516TIP3    H228513   3.351   1.271   2.148
 9517TIP3   OH228514   2.618   4.991   4.140
 9517TIP3    H128515   2.562   4.999   4.217
 9517TIP3    H228516   2.558   4.968   4.069
 9518TIP3   OH228517   3.416   0.598   4.145
 9518TIP3    H128518   3.332   0.640   4.122
 9518TIP3    H228519   3.482   0.663   4.123
 9519TIP3   OH228520   0.833   5.808   1.129
 9519TIP3    H128521   0.882   5.846   1.056
 9519TIP3    H228522   0.870   5.720   1.139
 9520TIP3   OH228523   3.794   6.412   2.842
 9520TIP3    H128524   3.781   6.480   2.776
 9520TIP3    H228525   3.711   6.409   2.890
 9521TIP3   OH228526   6.556   5.702   3.694
 9521TIP3    H128527   6.473   5.728   3.734
 9521TIP3    H228528   6.621   5.762   3.731
 9522TIP3   OH228529   0.062   0.965   5.676
 9522TIP3    H128530   0.038   0.916   5.755
 9522TIP3    H228531   0.156   0.948   5.665
 9523TIP3   OH228532   7.117   6.579   1.848
 9523TIP3    H128533   7.108   6.484   1.852
 9523TIP3    H228534   7.132   6.605   1.939
 9524TIP3   OH228535   3.956   5.358   0.454
 9524TIP3    H128536   4.026   5.304   0.419
 9524TIP3    H228537   3.914   5.396   0.377
 9525TIP3   OH228538   2.266   4.916   5.862
 9525TIP3    H128539   2.360   4.927   5.876
 9525TIP3    H228540   2.257   4.906   5.767
 9526TIP3   OH228541   4.121   5.347   2.849
 9526TIP3    H128542   4.103   5.370   2.941
 9526TIP3    H228543   4.203   5.392   2.829
 9527TIP3   OH228544   3.257   2.957   4.306
 9527TIP3    H128545   3.331   2.952   4.366
 9527TIP3    H228546   3.200   2.884   4.332
 9528TIP3   OH228547   2.527   1.564   0.197
 9528TIP3    H128548   2.594   1.531   0.256
 9528TIP3    H228549   2.559   1.650   0.170
 9529TIP3   OH228550   0.512   1.553   1.686
 9529TIP3    H128551   0.551   1.466   1.684
 9529TIP3    H228552   0.525   1.588   1.597
 9530TIP3   OH228553   3.871   1.643   3.451
 9530TIP3    H128554   3.872   1.550   3.477
 9530TIP3    H228555   3.861   1.690   3.533
 9531TIP3   OH228556   2.559   5.926   1.402
 9531TIP3    H128557   2.479   5.976   1.386
 9531TIP3    H228558   2.529   5.847   1.448
 9532TIP3   OH228559   3.701   4.884   0.187
 9532TIP3    H128560   3.723   4.825   0.115
 9532TIP3    H228561   3.754   4.854   0.260
 9533TIP3   OH228562   5.815   2.990   0.132
 9533TIP3    H128563   5.819   2.899   0.162
 9533TIP3    H228564   5.861   3.040   0.199
 9534TIP3   OH228565   6.142   4.116   1.033
 9534TIP3    H128566   6.191   4.076   1.105
 9534TIP3    H228567   6.070   4.055   1.016
 9535TIP3   OH228568   2.794   4.030   4.355
 9535TIP3    H128569   2.814   4.098   4.290
 9535TIP3    H228570   2.711   4.059   4.395
 9536TIP3   OH228571   5.413   3.565   0.001
 9536TIP3    H128572   5.495   3.613  -0.014
 9536TIP3    H228573   5.376   3.604   0.080
 9537TIP3   OH228574   5.258   0.163   2.642
 9537TIP3    H128575   5.214   0.116   2.571
 9537TIP3    H228576   5.222   0.125   2.722
 9538TIP3   OH228577   2.845   6.589   2.671
 9538TIP3    H128578   2.858   6.556   2.582
 9538TIP3    H228579   2.893   6.671   2.674
 9539TIP3   OH228580   3.218   5.545   1.532
 9539TIP3    H128581   3.265   5.485   1.590
 9539TIP3    H228582   3.229   5.508   1.445
 9540TIP3   OH228583   1.234   3.521   1.906
 9540TIP3    H128584   1.269   3.472   1.980
 9540TIP3    H228585   1.291   3.497   1.833
 9541TIP3   OH228586   5.663   5.276   5.488
 9541TIP3    H128587   5.663   5.221   5.409
 9541TIP3    H228588   5.746   5.256   5.531
 9542TIP3   OH228589   4.484   3.505   3.364
 9542TIP3    H128590   4.458   3.596   3.352
 9542TIP3    H228591   4.467   3.465   3.278
 9543TIP3   OH228592   1.666   4.841   4.104
 9543TIP3    H128593   1.608   4.783   4.155
 9543TIP3    H228594   1.675   4.797   4.020
 9544TIP3   OH228595   6.361   6.130   0.933
 9544TIP3    H128596   6.343   6.182   0.855
 9544TIP3    H228597   6.456   6.121   0.935
 9545TIP3   OH228598   1.486   1.194   4.932
 9545TIP3    H128599   1.497   1.158   5.020
 9545TIP3    H228600   1.404   1.157   4.901
 9546TIP3   OH228601   3.213   6.099   3.103
 9546TIP3    H128602   3.143   6.147   3.147
 9546TIP3    H228603   3.223   6.019   3.154
 9547TIP3   OH228604   0.748   2.879   2.268
 9547TIP3    H128605   0.810   2.941   2.307
 9547TIP3    H228606   0.742   2.905   2.176
 9548TIP3   OH228607   5.874   3.726   5.174
 9548TIP3    H128608   5.815   3.802   5.170
 9548TIP3    H228609   5.828   3.662   5.228
 9549TIP3   OH228610   4.206   1.400   5.728
 9549TIP3    H128611   4.136   1.334   5.723
 9549TIP3    H228612   4.192   1.443   5.812
 9550TIP3   OH228613   6.959   6.379   2.415
 9550TIP3    H128614   6.969   6.343   2.504
 9550TIP3    H228615   6.883   6.436   2.420
 9551TIP3   OH228616   6.553   1.596   4.899
 9551TIP3    H128617   6.625   1.644   4.941
 9551TIP3    H228618   6.549   1.632   4.810
 9552TIP3   OH228619   1.636   0.822   5.102
 9552TIP3    H128620   1.643   0.856   5.013
 9552TIP3    H228621   1.544   0.798   5.111
 9553TIP3   OH228622   5.728   0.600   4.992
 9553TIP3    H128623   5.791   0.530   4.972
 9553TIP3    H228624   5.643   0.562   4.968
 9554TIP3   OH228625   1.282   6.142   5.123
 9554TIP3    H128626   1.240   6.146   5.209
 9554TIP3    H228627   1.368   6.181   5.136
 9555TIP3   OH228628   5.651   3.787   4.263
 9555TIP3    H128629   5.681   3.777   4.353
 9555TIP3    H228630   5.557   3.799   4.270
 9556TIP3   OH228631   4.162   1.657   4.549
 9556TIP3    H128632   4.188   1.703   4.469
 9556TIP3    H228633   4.067   1.667   4.552
 9557TIP3   OH228634   1.932   0.266   3.747
 9557TIP3    H128635   2.001   0.318   3.705
 9557TIP3    H228636   1.870   0.330   3.779
 9558TIP3   OH228637   1.803   3.542   1.883
 9558TIP3    H128638   1.770   3.610   1.941
 9558TIP3    H228639   1.830   3.588   1.804
 9559TIP3   OH228640   2.660   5.479   3.895
 9559TIP3    H128641   2.568   5.460   3.879
 9559TIP3    H228642   2.693   5.516   3.813
 9560TIP3   OH228643   4.441   5.943   1.761
 9560TIP3    H128644   4.448   6.015   1.699
 9560TIP3    H228645   4.361   5.963   1.810
 9561TIP3   OH228646   1.721   4.773   1.911
 9561TIP3    H128647   1.745   4.816   1.829
 9561TIP3    H228648   1.800   4.728   1.939
 9562TIP3   OH228649   5.353   2.221   4.702
 9562TIP3    H128650   5.429   2.182   4.660
 9562TIP3    H228651   5.382   2.241   4.791
 9563TIP3   OH228652   0.935   5.424   2.794
 9563TIP3    H128653   0.955   5.477   2.716
 9563TIP3    H228654   1.006   5.443   2.855
 9564TIP3   OH228655   5.080   6.706   0.501
 9564TIP3    H128656   5.050   6.796   0.512
 9564TIP3    H228657   5.153   6.698   0.563
 9565TIP3   OH228658   4.303   1.943   4.661
 9565TIP3    H128659   4.343   2.029   4.677
 9565TIP3    H228660   4.307   1.933   4.566
 9566TIP3   OH228661   1.823   1.771   5.772
 9566TIP3    H128662   1.887   1.700   5.778
 9566TIP3    H228663   1.742   1.727   5.747
 9567TIP3   OH228664   1.606   2.992   0.341
 9567TIP3    H128665   1.580   3.046   0.268
 9567TIP3    H228666   1.698   2.971   0.324
 9568TIP3   OH228667   3.990   4.729   0.083
 9568TIP3    H128668   4.046   4.806   0.094
 9568TIP3    H228669   4.044   4.655   0.108
 9569TIP3   OH228670   3.149   6.605   5.000
 9569TIP3    H128671   3.232   6.636   5.036
 9569TIP3    H228672   3.113   6.547   5.067
 9570TIP3   OH228673   6.307   2.908   3.227
 9570TIP3    H128674   6.352   2.836   3.182
 9570TIP3    H228675   6.371   2.979   3.227
 9571TIP3   OH228676   5.829   4.620   2.025
 9571TIP3    H128677   5.854   4.657   2.110
 9571TIP3    H228678   5.869   4.533   2.025
 9572TIP3   OH228679   2.822   5.839   1.228
 9572TIP3    H128680   2.757   5.852   1.159
 9572TIP3    H228681   2.770   5.819   1.306
 9573TIP3   OH228682   0.913   2.716   4.110
 9573TIP3    H128683   1.002   2.718   4.144
 9573TIP3    H228684   0.864   2.774   4.169
 9574TIP3   OH228685   5.522   4.148   3.638
 9574TIP3    H128686   5.580   4.093   3.690
 9574TIP3    H228687   5.553   4.237   3.654
 9575TIP3   OH228688   5.051   0.097   5.629
 9575TIP3    H128689   5.027   0.026   5.688
 9575TIP3    H228690   4.997   0.170   5.655
 9576TIP3   OH228691   3.283   3.820   0.488
 9576TIP3    H128692   3.353   3.756   0.472
 9576TIP3    H228693   3.243   3.834   0.402
 9577TIP3   OH228694   2.650   4.532   1.141
 9577TIP3    H128695   2.709   4.519   1.067
 9577TIP3    H228696   2.571   4.570   1.102
 9578TIP3   OH228697   2.522   5.768   1.672
 9578TIP3    H128698   2.484   5.680   1.672
 9578TIP3    H228699   2.540   5.786   1.764
 9579TIP3   OH228700  -0.005   6.602   3.711
 9579TIP3    H128701  -0.007   6.533   3.777
 9579TIP3    H228702   0.020   6.558   3.630
 9580TIP3   OH228703   1.930   3.410   2.181
 9580TIP3    H128704   1.872   3.390   2.254
 9580TIP3    H228705   1.873   3.449   2.115
 9581TIP3   OH228706   2.126   4.365   3.267
 9581TIP3    H128707   2.217   4.359   3.238
 9581TIP3    H228708   2.122   4.311   3.345
 9582TIP3   OH228709   1.205   5.723   4.895
 9582TIP3    H128710   1.165   5.649   4.849
 9582TIP3    H228711   1.210   5.792   4.829
 9583TIP3   OH228712   2.747   2.941   5.054
 9583TIP3    H128713   2.727   3.020   5.104
 9583TIP3    H228714   2.827   2.961   5.007
 9584TIP3   OH228715   0.470   0.858   4.988
 9584TIP3    H128716   0.443   0.876   4.897
 9584TIP3    H228717   0.444   0.937   5.036
 9585TIP3   OH228718   4.161   3.123   0.595
 9585TIP3    H128719   4.222   3.183   0.553
 9585TIP3    H228720   4.164   3.147   0.688
 9586TIP3   OH228721   5.089   3.119   2.002
 9586TIP3    H128722   5.093   3.207   2.040
 9586TIP3    H228723   5.179   3.088   2.003
 9587TIP3   OH228724   4.249   3.158   1.196
 9587TIP3    H128725   4.180   3.112   1.244
 9587TIP3    H228726   4.328   3.107   1.214
 9588TIP3   OH228727   5.427   6.560   2.982
 9588TIP3    H128728   5.473   6.543   2.900
 9588TIP3    H228729   5.429   6.477   3.029
 9589TIP3   OH228730   3.120   1.238   1.934
 9589TIP3    H128731   3.091   1.221   1.844
 9589TIP3    H228732   3.149   1.329   1.934
 9590TIP3   OH228733   4.083   6.136   4.139
 9590TIP3    H128734   3.988   6.121   4.142
 9590TIP3    H228735   4.119   6.055   4.102
 9591TIP3   OH228736   0.693   4.750   1.542
 9591TIP3    H128737   0.637   4.682   1.579
 9591TIP3    H228738   0.647   4.832   1.561
 9592TIP3   OH228739   4.575   1.175   2.476
 9592TIP3    H128740   4.629   1.250   2.451
 9592TIP3    H228741   4.624   1.132   2.545
 9593TIP3   OH228742   0.707   0.375   4.479
 9593TIP3    H128743   0.671   0.287   4.495
 9593TIP3    H228744   0.779   0.360   4.417
 9594TIP3   OH228745   3.516   2.461   4.658
 9594TIP3    H128746   3.468   2.490   4.580
 9594TIP3    H228747   3.550   2.542   4.696
 9595TIP3   OH228748   3.662   2.341   0.568
 9595TIP3    H128749   3.685   2.329   0.660
 9595TIP3    H228750   3.591   2.405   0.569
 9596TIP3   OH228751   5.205   4.672   1.389
 9596TIP3    H128752   5.268   4.720   1.442
 9596TIP3    H228753   5.128   4.728   1.386
 9597TIP3   OH228754   3.050   2.738   1.080
 9597TIP3    H128755   3.121   2.800   1.093
 9597TIP3    H228756   3.074   2.690   1.000
 9598TIP3   OH228757   5.439   3.224   0.601
 9598TIP3    H128758   5.452   3.249   0.692
 9598TIP3    H228759   5.509   3.268   0.554
 9599TIP3   OH228760   0.148   4.201   3.157
 9599TIP3    H128761   0.155   4.151   3.238
 9599TIP3    H228762   0.062   4.179   3.122
 9600TIP3   OH228763   1.619   6.005   0.161
 9600TIP3    H128764   1.613   5.951   0.082
 9600TIP3    H228765   1.623   6.095   0.128
 9601TIP3   OH228766   3.739   3.275   2.393
 9601TIP3    H128767   3.730   3.189   2.352
 9601TIP3    H228768   3.723   3.337   2.322
 9602TIP3   OH228769   2.278   4.618   2.970
 9602TIP3    H128770   2.335   4.590   3.042
 9602TIP3    H228771   2.331   4.679   2.919
 9603TIP3   OH228772   3.695   0.825   0.718
 9603TIP3    H128773   3.659   0.914   0.718
 9603TIP3    H228774   3.787   0.836   0.739
 9604TIP3   OH228775   4.791   3.016   3.015
 9604TIP3    H128776   4.788   3.048   2.925
 9604TIP3    H228777   4.740   3.079   3.065
 9605TIP3   OH228778   3.573   1.595   4.102
 9605TIP3    H128779   3.542   1.521   4.154
 9605TIP3    H228780   3.597   1.556   4.018
 9606TIP3   OH228781   0.453   2.578   3.846
 9606TIP3    H128782   0.468   2.583   3.752
 9606TIP3    H228783   0.537   2.551   3.883
 9607TIP3   OH228784   4.581   6.657   1.797
 9607TIP3    H128785   4.511   6.597   1.770
 9607TIP3    H228786   4.653   6.600   1.823
 9608TIP3   OH228787   1.976   4.619   5.282
 9608TIP3    H128788   1.904   4.665   5.324
 9608TIP3    H228789   2.036   4.689   5.254
 9609TIP3   OH228790   1.175   4.574   4.430
 9609TIP3    H128791   1.233   4.502   4.408
 9609TIP3    H228792   1.212   4.611   4.510
 9610TIP3   OH228793   3.011   0.892   2.893
 9610TIP3    H128794   2.959   0.813   2.878
 9610TIP3    H228795   3.100   0.867   2.867
 9611TIP3   OH228796   5.081   3.783  -0.010
 9611TIP3    H128797   5.008   3.797  -0.069
 9611TIP3    H228798   5.069   3.848   0.059
 9612TIP3   OH228799   5.179   2.397   4.134
 9612TIP3    H128800   5.146   2.485   4.152
 9612TIP3    H228801   5.212   2.366   4.218
 9613TIP3   OH228802   4.391   1.202   1.578
 9613TIP3    H128803   4.333   1.268   1.540
 9613TIP3    H228804   4.411   1.235   1.665
 9614TIP3   OH228805   4.631   5.275   1.276
 9614TIP3    H128806   4.542   5.269   1.243
 9614TIP3    H228807   4.621   5.282   1.371
 9615TIP3   OH228808   5.940   5.302   3.098
 9615TIP3    H128809   5.855   5.305   3.142
 9615TIP3    H228810   6.002   5.331   3.165
 9616TIP3   OH228811   5.987   6.763   1.646
 9616TIP3    H128812   6.023   6.836   1.697
 9616TIP3    H228813   6.059   6.736   1.589
 9617TIP3   OH228814   0.618   4.319   3.697
 9617TIP3    H128815   0.655   4.267   3.625
 9617TIP3    H228816   0.532   4.345   3.667
 9618TIP3   OH228817   0.758   5.518   5.320
 9618TIP3    H128818   0.812   5.552   5.248
 9618TIP3    H228819   0.797   5.555   5.399
 9619TIP3   OH228820   0.927   3.628   2.487
 9619TIP3    H128821   0.849   3.645   2.434
 9619TIP3    H228822   0.893   3.610   2.575
 9620TIP3   OH228823   5.856   5.446   5.259
 9620TIP3    H128824   5.805   5.376   5.219
 9620TIP3    H228825   5.793   5.495   5.311
 9621TIP3   OH228826   5.134   3.326   2.185
 9621TIP3    H128827   5.114   3.413   2.217
 9621TIP3    H228828   5.094   3.267   2.250
 9622TIP3   OH228829   0.249   0.021   3.156
 9622TIP3    H128830   0.261  -0.038   3.231
 9622TIP3    H228831   0.277   0.106   3.188
 9623TIP3   OH228832   7.158   5.515   3.929
 9623TIP3    H128833   7.241   5.537   3.885
 9623TIP3    H228834   7.185   5.482   4.015
 9624TIP3   OH228835   2.213   3.406   4.394
 9624TIP3    H128836   2.278   3.436   4.458
 9624TIP3    H228837   2.258   3.335   4.346
 9625TIP3   OH228838   1.583   1.285   4.099
 9625TIP3    H128839   1.596   1.263   4.191
 9625TIP3    H228840   1.660   1.337   4.076
 9626TIP3   OH228841   5.819   3.196   5.500
 9626TIP3    H128842   5.744   3.196   5.441
 9626TIP3    H228843   5.848   3.105   5.503
 9627TIP3   OH228844   0.410   6.753   4.014
 9627TIP3    H128845   0.464   6.823   3.978
 9627TIP3    H228846   0.326   6.760   3.968
 9628TIP3   OH228847   1.382   4.940   4.532
 9628TIP3    H128848   1.338   5.012   4.485
 9628TIP3    H228849   1.465   4.978   4.561
 9629TIP3   OH228850   3.924   4.831   1.209
 9629TIP3    H128851   3.913   4.742   1.243
 9629TIP3    H228852   3.915   4.822   1.114
 9630TIP3   OH228853   5.802   5.544   4.503
 9630TIP3    H128854   5.710   5.546   4.475
 9630TIP3    H228855   5.811   5.463   4.553
 9631TIP3   OH228856   3.703   0.230   2.914
 9631TIP3    H128857   3.739   0.260   2.997
 9631TIP3    H228858   3.711   0.305   2.856
 9632TIP3   OH228859   5.689   1.470   1.694
 9632TIP3    H128860   5.752   1.423   1.749
 9632TIP3    H228861   5.721   1.560   1.693
 9633TIP3   OH228862   2.336   2.732   0.366
 9633TIP3    H128863   2.245   2.744   0.340
 9633TIP3    H228864   2.347   2.786   0.444
 9634TIP3   OH228865   3.939   1.650   1.081
 9634TIP3    H128866   3.898   1.603   1.009
 9634TIP3    H228867   3.879   1.637   1.155
 9635TIP3   OH228868   3.583   2.640   2.819
 9635TIP3    H128869   3.665   2.681   2.790
 9635TIP3    H228870   3.537   2.708   2.868
 9636TIP3   OH228871   3.806   6.007   0.423
 9636TIP3    H128872   3.837   5.917   0.422
 9636TIP3    H228873   3.882   6.059   0.397
 9637TIP3   OH228874   6.801   1.996   4.915
 9637TIP3    H128875   6.767   2.050   4.844
 9637TIP3    H228876   6.876   1.951   4.876
 9638TIP3   OH228877   3.028   1.961   1.143
 9638TIP3    H128878   2.951   1.970   1.086
 9638TIP3    H228879   3.088   1.906   1.094
 9639TIP3   OH228880   2.894   1.757   2.253
 9639TIP3    H128881   2.918   1.820   2.321
 9639TIP3    H228882   2.935   1.790   2.173
 9640TIP3   OH228883   7.162   2.411   5.096
 9640TIP3    H128884   7.104   2.362   5.154
 9640TIP3    H228885   7.117   2.410   5.011
 9641TIP3   OH228886   3.765   6.357   4.117
 9641TIP3    H128887   3.826   6.381   4.186
 9641TIP3    H228888   3.742   6.266   4.135
 9642TIP3   OH228889   5.458   3.811   5.595
 9642TIP3    H128890   5.382   3.850   5.551
 9642TIP3    H228891   5.529   3.819   5.530
 9643TIP3   OH228892   6.318   3.801  -0.016
 9643TIP3    H128893   6.299   3.755   0.066
 9643TIP3    H228894   6.232   3.817  -0.055
 9644TIP3   OH228895   0.826   3.643   5.490
 9644TIP3    H128896   0.785   3.701   5.426
 9644TIP3    H228897   0.897   3.696   5.528
 9645TIP3   OH228898   3.912   3.291   0.508
 9645TIP3    H128899   3.936   3.198   0.511
 9645TIP3    H228900   3.922   3.321   0.599
 9646TIP3   OH228901   7.183   2.231   0.287
 9646TIP3    H128902   7.210   2.317   0.320
 9646TIP3    H228903   7.170   2.178   0.366
 9647TIP3   OH228904   4.646   2.171   3.149
 9647TIP3    H128905   4.724   2.216   3.181
 9647TIP3    H228906   4.665   2.078   3.161
 9648TIP3   OH228907   0.408   2.836   3.563
 9648TIP3    H128908   0.426   2.745   3.541
 9648TIP3    H228909   0.314   2.838   3.582
 9649TIP3   OH228910   4.387   2.521   4.086
 9649TIP3    H128911   4.483   2.521   4.083
 9649TIP3    H228912   4.365   2.555   4.172
 9650TIP3   OH228913   2.409   4.530   0.902
 9650TIP3    H128914   2.454   4.611   0.875
 9650TIP3    H228915   2.327   4.561   0.940
 9651TIP3   OH228916   3.265   4.653   2.564
 9651TIP3    H128917   3.292   4.605   2.643
 9651TIP3    H228918   3.280   4.591   2.493
 9652TIP3   OH228919   4.169   4.269   1.424
 9652TIP3    H128920   4.074   4.268   1.439
 9652TIP3    H228921   4.194   4.176   1.424
 9653TIP3   OH228922   2.887   5.159   2.465
 9653TIP3    H128923   2.850   5.071   2.472
 9653TIP3    H228924   2.937   5.157   2.383
 9654TIP3   OH228925   4.216   4.587   3.225
 9654TIP3    H128926   4.187   4.575   3.135
 9654TIP3    H228927   4.312   4.583   3.220
 9655TIP3   OH228928   2.042   3.051   2.272
 9655TIP3    H128929   1.990   3.022   2.197
 9655TIP3    H228930   2.001   3.009   2.348
 9656TIP3   OH228931   1.559   0.585   3.350
 9656TIP3    H128932   1.570   0.619   3.439
 9656TIP3    H228933   1.468   0.605   3.328
 9657TIP3   OH228934   2.591   6.690   4.075
 9657TIP3    H128935   2.654   6.732   4.017
 9657TIP3    H228936   2.645   6.642   4.138
 9658TIP3   OH228937   6.878   5.767   4.954
 9658TIP3    H128938   6.822   5.693   4.978
 9658TIP3    H228939   6.880   5.765   4.858
 9659TIP3   OH228940   4.257   0.850   2.664
 9659TIP3    H128941   4.277   0.909   2.591
 9659TIP3    H228942   4.161   0.847   2.667
 9660TIP3   OH228943   6.388   1.846   1.753
 9660TIP3    H128944   6.317   1.804   1.802
 9660TIP3    H228945   6.343   1.900   1.688
 9661TIP3   OH228946   5.428   2.812   4.186
 9661TIP3    H128947   5.412   2.896   4.142
 9661TIP3    H228948   5.510   2.781   4.149
 9662TIP3   OH228949   3.625   1.326   0.974
 9662TIP3    H128950   3.589   1.244   1.009
 9662TIP3    H228951   3.553   1.364   0.923
 9663TIP3   OH228952   5.518   6.779   1.002
 9663TIP3    H128953   5.440   6.827   0.974
 9663TIP3    H228954   5.487   6.689   1.016
 9664TIP3   OH228955   4.638   2.603   0.291
 9664TIP3    H128956   4.651   2.695   0.267
 9664TIP3    H228957   4.626   2.606   0.386
 9665TIP3   OH228958   3.507   2.342   0.890
 9665TIP3    H128959   3.506   2.309   0.980
 9665TIP3    H228960   3.550   2.428   0.897
 9666TIP3   OH228961   4.828   4.461   3.165
 9666TIP3    H128962   4.910   4.503   3.137
 9666TIP3    H228963   4.818   4.485   3.256
 9667TIP3   OH228964   4.997   5.883   4.735
 9667TIP3    H128965   5.018   5.937   4.811
 9667TIP3    H228966   4.957   5.804   4.772
 9668TIP3   OH228967   2.844   5.082   2.817
 9668TIP3    H128968   2.822   5.063   2.909
 9668TIP3    H228969   2.926   5.034   2.802
 9669TIP3   OH228970   1.528   5.229   5.907
 9669TIP3    H128971   1.493   5.196   5.824
 9669TIP3    H228972   1.621   5.211   5.903
 9670TIP3   OH228973   7.196   5.699   4.788
 9670TIP3    H128974   7.161   5.787   4.780
 9670TIP3    H228975   7.125   5.642   4.760
 9671TIP3   OH228976   6.465   5.216   4.272
 9671TIP3    H128977   6.408   5.240   4.345
 9671TIP3    H228978   6.449   5.123   4.259
 9672TIP3   OH228979   3.275   3.483   4.565
 9672TIP3    H128980   3.282   3.564   4.516
 9672TIP3    H228981   3.365   3.461   4.588
 9673TIP3   OH228982   4.880   4.776   1.764
 9673TIP3    H128983   4.893   4.867   1.736
 9673TIP3    H228984   4.953   4.759   1.824
 9674TIP3   OH228985   4.515   4.378   0.141
 9674TIP3    H128986   4.430   4.422   0.131
 9674TIP3    H228987   4.567   4.439   0.194
 9675TIP3   OH228988   4.456   0.720   1.148
 9675TIP3    H128989   4.494   0.808   1.150
 9675TIP3    H228990   4.503   0.672   1.216
 9676TIP3   OH228991   1.493   5.094   0.295
 9676TIP3    H128992   1.425   5.074   0.231
 9676TIP3    H228993   1.465   5.050   0.375
 9677TIP3   OH228994   4.100   6.640   0.228
 9677TIP3    H128995   4.135   6.717   0.273
 9677TIP3    H228996   4.146   6.638   0.144
 9678TIP3   OH228997   5.821   1.537   0.412
 9678TIP3    H128998   5.896   1.552   0.470
 9678TIP3    H228999   5.855   1.477   0.345
 9679TIP3   OH229000   2.849   1.402   0.092
 9679TIP3    H129001   2.754   1.389   0.082
 9679TIP3    H229002   2.872   1.353   0.171
 9680TIP3   OH229003   0.323   1.871   3.901
 9680TIP3    H129004   0.349   1.871   3.809
 9680TIP3    H229005   0.264   1.946   3.909
 9681TIP3   OH229006   3.755   1.474   2.667
 9681TIP3    H129007   3.765   1.427   2.750
 9681TIP3    H229008   3.834   1.528   2.660
 9682TIP3   OH229009   5.440   3.320   5.791
 9682TIP3    H129010   5.505   3.367   5.740
 9682TIP3    H229011   5.389   3.272   5.726
 9683TIP3   OH229012   5.957   5.979   0.781
 9683TIP3    H129013   5.998   6.001   0.697
 9683TIP3    H229014   5.885   5.921   0.758
 9684TIP3   OH229015   1.649   4.782   0.668
 9684TIP3    H129016   1.606   4.868   0.674
 9684TIP3    H229017   1.580   4.719   0.686
 9685TIP3   OH229018   4.573   2.992   5.680
 9685TIP3    H129019   4.665   2.980   5.703
 9685TIP3    H229020   4.574   3.010   5.586
 9686TIP3   OH229021   5.440   3.208   1.220
 9686TIP3    H129022   5.524   3.190   1.177
 9686TIP3    H229023   5.420   3.127   1.267
 9687TIP3   OH229024   5.430   0.753   4.728
 9687TIP3    H129025   5.505   0.811   4.743
 9687TIP3    H229026   5.430   0.738   4.634
 9688TIP3   OH229027   6.723   0.211   0.689
 9688TIP3    H129028   6.817   0.210   0.710
 9688TIP3    H229029   6.694   0.300   0.712
 9689TIP3   OH229030   1.778   2.223   2.227
 9689TIP3    H129031   1.746   2.274   2.153
 9689TIP3    H229032   1.850   2.275   2.262
 9690TIP3   OH229033   0.734   6.397   2.356
 9690TIP3    H129034   0.669   6.332   2.383
 9690TIP3    H229035   0.713   6.475   2.407
 9691TIP3   OH229036   6.235   2.465   4.247
 9691TIP3    H129037   6.181   2.473   4.168
 9691TIP3    H229038   6.259   2.554   4.269
 9692TIP3   OH229039   2.931   1.388   3.275
 9692TIP3    H129040   2.983   1.320   3.319
 9692TIP3    H229041   2.947   1.372   3.181
 9693TIP3   OH229042   3.877   2.215   5.042
 9693TIP3    H129043   3.857   2.145   4.981
 9693TIP3    H229044   3.934   2.275   4.993
 9694TIP3   OH229045   5.202   1.134   4.908
 9694TIP3    H129046   5.263   1.206   4.923
 9694TIP3    H229047   5.191   1.093   4.994
 9695TIP3   OH229048   2.983   1.865   5.810
 9695TIP3    H129049   3.014   1.776   5.828
 9695TIP3    H229050   2.903   1.852   5.760
 9696TIP3   OH229051   1.021   0.953   4.999
 9696TIP3    H129052   1.051   1.044   4.995
 9696TIP3    H229053   1.032   0.921   4.910
 9697TIP3   OH229054   3.342   5.427   2.279
 9697TIP3    H129055   3.256   5.429   2.236
 9697TIP3    H229056   3.328   5.469   2.364
 9698TIP3   OH229057   2.924   4.919   4.935
 9698TIP3    H129058   2.939   4.838   4.886
 9698TIP3    H229059   2.999   4.974   4.914
 9699TIP3   OH229060   1.657   2.076   1.947
 9699TIP3    H129061   1.722   2.030   2.000
 9699TIP3    H229062   1.688   2.167   1.945
 9700TIP3   OH229063   1.525   5.607   3.734
 9700TIP3    H129064   1.602   5.573   3.688
 9700TIP3    H229065   1.504   5.688   3.688
 9701TIP3   OH229066   6.523   1.663   4.197
 9701TIP3    H129067   6.528   1.696   4.107
 9701TIP3    H229068   6.614   1.645   4.221
 9702TIP3   OH229069   3.443   3.229   4.490
 9702TIP3    H129070   3.470   3.145   4.526
 9702TIP3    H229071   3.351   3.236   4.513
 9703TIP3   OH229072   0.330   0.021   4.777
 9703TIP3    H129073   0.278   0.007   4.857
 9703TIP3    H229074   0.298   0.104   4.742
 9704TIP3   OH229075   5.929   1.956   5.454
 9704TIP3    H129076   5.902   2.038   5.496
 9704TIP3    H229077   5.927   1.976   5.360
 9705TIP3   OH229078   3.040   3.200   2.507
 9705TIP3    H129079   3.057   3.289   2.474
 9705TIP3    H229080   3.077   3.142   2.440
 9706TIP3   OH229081   4.950   3.117   3.676
 9706TIP3    H129082   4.877   3.179   3.669
 9706TIP3    H229083   4.941   3.061   3.599
 9707TIP3   OH229084   7.197   3.576   0.627
 9707TIP3    H129085   7.213   3.491   0.667
 9707TIP3    H229086   7.156   3.628   0.697
 9708TIP3   OH229087   3.161   6.344   1.990
 9708TIP3    H129088   3.174   6.281   2.060
 9708TIP3    H229089   3.211   6.421   2.017
 9709TIP3   OH229090   5.402   5.845   4.116
 9709TIP3    H129091   5.487   5.817   4.083
 9709TIP3    H229092   5.338   5.811   4.053
 9710TIP3   OH229093   7.064   5.678   3.325
 9710TIP3    H129094   7.143   5.717   3.290
 9710TIP3    H229095   7.086   5.586   3.339
 9711TIP3   OH229096   2.610   3.463   4.853
 9711TIP3    H129097   2.672   3.493   4.919
 9711TIP3    H229098   2.556   3.539   4.834
 9712TIP3   OH229099   5.826   1.767   3.686
 9712TIP3    H129100   5.775   1.782   3.607
 9712TIP3    H229101   5.902   1.717   3.656
 9713TIP3   OH229102   4.195   2.491   4.758
 9713TIP3    H129103   4.195   2.581   4.790
 9713TIP3    H229104   4.238   2.497   4.672
 9714TIP3   OH229105   5.289   5.665   5.369
 9714TIP3    H129106   5.297   5.719   5.290
 9714TIP3    H229107   5.253   5.724   5.435
 9715TIP3   OH229108   1.984   3.480   5.758
 9715TIP3    H129109   2.003   3.543   5.828
 9715TIP3    H229110   1.938   3.531   5.691
 9716TIP3   OH229111   4.349   3.865   4.848
 9716TIP3    H129112   4.370   3.789   4.902
 9716TIP3    H229113   4.361   3.834   4.758
 9717TIP3   OH229114   0.057   1.640   2.618
 9717TIP3    H129115   0.040   1.702   2.548
 9717TIP3    H229116   0.153   1.633   2.622
 9718TIP3   OH229117   1.414   2.956   5.877
 9718TIP3    H129118   1.372   2.873   5.858
 9718TIP3    H229119   1.414   2.962   5.972
 9719TIP3   OH229120   0.303   1.670   5.678
 9719TIP3    H129121   0.238   1.636   5.617
 9719TIP3    H229122   0.253   1.685   5.759
 9720TIP3   OH229123   6.012   5.208   5.029
 9720TIP3    H129124   6.094   5.251   5.006
 9720TIP3    H229125   6.025   5.180   5.120
 9721TIP3   OH229126   2.484   0.446   3.525
 9721TIP3    H129127   2.518   0.379   3.466
 9721TIP3    H229128   2.435   0.398   3.591
 9722TIP3   OH229129   5.115   0.791   0.209
 9722TIP3    H129130   5.136   0.711   0.162
 9722TIP3    H229131   5.037   0.770   0.261
 9723TIP3   OH229132   6.382   1.676   1.049
 9723TIP3    H129133   6.363   1.765   1.018
 9723TIP3    H229134   6.299   1.629   1.037
 9724TIP3   OH229135   5.634   3.142   1.459
 9724TIP3    H129136   5.559   3.121   1.515
 9724TIP3    H229137   5.685   3.061   1.456
 9725TIP3   OH229138   4.150   3.232   4.761
 9725TIP3    H129139   4.188   3.221   4.848
 9725TIP3    H229140   4.165   3.325   4.741
 9726TIP3   OH229141   5.116   0.073   5.075
 9726TIP3    H129142   5.087   0.100   4.988
 9726TIP3    H229143   5.129  -0.022   5.068
 9727TIP3   OH229144   3.441   2.818   5.060
 9727TIP3    H129145   3.441   2.746   5.123
 9727TIP3    H229146   3.401   2.891   5.107
 9728TIP3   OH229147   2.725   2.285   4.708
 9728TIP3    H129148   2.809   2.269   4.664
 9728TIP3    H229149   2.686   2.359   4.660
 9729TIP3   OH229150   0.779   3.550   0.713
 9729TIP3    H129151   0.716   3.573   0.781
 9729TIP3    H229152   0.785   3.628   0.658
 9730TIP3   OH229153   2.201   1.884   3.152
 9730TIP3    H129154   2.199   1.874   3.057
 9730TIP3    H229155   2.232   1.973   3.166
 9731TIP3   OH229156   3.428   4.563   4.937
 9731TIP3    H129157   3.416   4.587   5.029
 9731TIP3    H229158   3.476   4.636   4.899
 9732TIP3   OH229159   6.873   5.760   3.488
 9732TIP3    H129160   6.821   5.685   3.517
 9732TIP3    H229161   6.928   5.725   3.418
 9733TIP3   OH229162   6.586   1.032   1.588
 9733TIP3    H129163   6.556   1.028   1.679
 9733TIP3    H229164   6.505   1.026   1.537
 9734TIP3   OH229165   0.171   4.865   4.456
 9734TIP3    H129166   0.090   4.815   4.457
 9734TIP3    H229167   0.226   4.823   4.522
 9735TIP3   OH229168   4.115   1.957   5.618
 9735TIP3    H129169   4.198   1.997   5.644
 9735TIP3    H229170   4.141   1.887   5.557
 9736TIP3   OH229171   2.804   1.557   0.614
 9736TIP3    H129172   2.877   1.583   0.558
 9736TIP3    H229173   2.762   1.639   0.638
 9737TIP3   OH229174   4.596   1.021   4.164
 9737TIP3    H129175   4.563   1.111   4.172
 9737TIP3    H229176   4.606   0.992   4.255
 9738TIP3   OH229177   2.817   5.632   0.849
 9738TIP3    H129178   2.866   5.709   0.821
 9738TIP3    H229179   2.748   5.622   0.784
 9739TIP3   OH229180   1.189   1.015   0.080
 9739TIP3    H129181   1.215   1.013   0.172
 9739TIP3    H229182   1.094   1.007   0.082
 9740TIP3   OH229183   1.193   5.904   1.388
 9740TIP3    H129184   1.189   5.826   1.444
 9740TIP3    H229185   1.200   5.870   1.299
 9741TIP3   OH229186   0.809   2.425   5.222
 9741TIP3    H129187   0.848   2.512   5.227
 9741TIP3    H229188   0.810   2.393   5.313
 9742TIP3   OH229189   3.091   0.648   0.439
 9742TIP3    H129190   3.082   0.614   0.528
 9742TIP3    H229191   3.154   0.589   0.398
 9743TIP3   OH229192   0.488   0.807   3.769
 9743TIP3    H129193   0.519   0.730   3.816
 9743TIP3    H229194   0.449   0.773   3.689
 9744TIP3   OH229195   3.907   1.518   4.252
 9744TIP3    H129196   3.829   1.480   4.292
 9744TIP3    H229197   3.878   1.601   4.215
 9745TIP3   OH229198   1.958   6.533   5.468
 9745TIP3    H129199   2.012   6.470   5.420
 9745TIP3    H229200   1.974   6.512   5.560
 9746TIP3   OH229201   4.918   5.783   0.949
 9746TIP3    H129202   4.842   5.840   0.936
 9746TIP3    H229203   4.945   5.799   1.040
 9747TIP3   OH229204   0.340   5.135   4.025
 9747TIP3    H129205   0.370   5.047   4.048
 9747TIP3    H229206   0.405   5.194   4.063
 9748TIP3   OH229207   2.911   3.231   1.837
 9748TIP3    H129208   2.870   3.280   1.908
 9748TIP3    H229209   2.960   3.297   1.787
 9749TIP3   OH229210   4.837   2.056   2.308
 9749TIP3    H129211   4.846   2.151   2.303
 9749TIP3    H229212   4.780   2.041   2.383
   7.21692   6.80418   5.89258   0.00000   0.00000  -2.40564   0.00000  -2.40564  -3.40209
